<?xml version="1.0" encoding="ISO-8859-1"?>
<modeling>
 <generator>
  <i name="program" type="string">vasp </i>
  <i name="version" type="string">5.4.4.18Apr17-6-g9f103f2a35  </i>
  <i name="subversion" type="string">(build Jun 22 2020 09:27:21) complex            parallel </i>
  <i name="platform" type="string">tx2_gcc-7.3_libsci-18.07_cray-fftw-3.3.8 </i>
  <i name="date" type="string">2021 10 12 </i>
  <i name="time" type="string">05:52:04 </i>
 </generator>
 <incar>
  <i type="string" name="SYSTEM"> CsPbBr3 cubic bulk</i>
  <i type="string" name="PREC">accurate</i>
  <i type="string" name="ALGO"> NORMAL   ! Electronic minimisation algo</i>
  <i type="logical" name="ADDGRID"> T  </i>
  <i type="int" name="ISPIN">     1</i>
  <i type="int" name="NELM">   200</i>
  <i type="int" name="IBRION">     2</i>
  <i name="EDIFF">      0.00000100</i>
  <i name="EDIFFG">     -0.01000000</i>
  <i type="int" name="NSW">     0</i>
  <i type="int" name="ISIF">     2</i>
  <i type="int" name="ISYM">     0</i>
  <i name="ENCUT">    300.00000000</i>
  <i name="POTIM">      0.50000000</i>
  <i name="NUPDOWN">      0.00000000</i>
  <i name="NELECT">    344.00000000</i>
  <i type="string" name="LREAL"> AUTO</i>
  <i type="int" name="ISMEAR">     0</i>
  <i name="SIGMA">      0.01000000</i>
  <i type="logical" name="LWAVE"> F  </i>
  <i type="logical" name="LCHARG"> F  </i>
  <i type="logical" name="LVHAR"> T  </i>
  <i type="int" name="LORBIT">    10</i>
  <i type="logical" name="LASPH"> T  </i>
  <v type="int" name="KPOINT_BSE">    -1     0     0     0</v>
  <i type="int" name="NELM">   200</i>
  <i type="string" name="METAGGA"> SCAN       ! PBE exchange-correlation</i>
  <i type="logical" name="LASPH"> T  </i>
 </incar>
 <structure name="primitive_cell" >
  <crystal>
   <varray name="basis" >
    <v>       8.42001800       0.00000000       8.07798100 </v>
    <v>       0.00000000      11.76380800       0.00000000 </v>
    <v>      -8.42001800       0.00000000       8.07798100 </v>
   </varray>
   <i name="volume">   1600.27186790 </i>
   <varray name="rec_basis" >
    <v>       0.05938230      -0.00000000       0.06189665 </v>
    <v>       0.00000000       0.08500649      -0.00000000 </v>
    <v>      -0.05938230       0.00000000       0.06189665 </v>
   </varray>
  </crystal>
  <varray name="positions" >
   <v>       0.25623100       0.24999200       0.20525800 </v>
   <v>       0.03111800       0.05065400       0.25430500 </v>
   <v>       0.03112500       0.44934100       0.25430800 </v>
   <v>       0.47135200       0.02930800       0.24106700 </v>
   <v>       0.47134700       0.47068600       0.24106100 </v>
   <v>       0.24664300       0.03599300      -0.04259900 </v>
   <v>       0.24664200       0.46400300      -0.04259400 </v>
   <v>       0.45844200       0.25001500       0.49453100 </v>
   <v>      -0.04104900       0.25000800      -0.02179200 </v>
   <v>      -0.45634100       0.24998800      -0.01231500 </v>
   <v>      -0.00580500      -0.49566400       0.00630600 </v>
   <v>      -0.00579100      -0.00437000       0.00630000 </v>
   <v>       0.03151700       0.25000300      -0.45373300 </v>
   <v>      -0.49841800       0.49761000      -0.01117700 </v>
   <v>      -0.49840500       0.00236400      -0.01118300 </v>
   <v>       0.25381400      -0.02193400      -0.43986900 </v>
   <v>       0.25381500      -0.47804900      -0.43987000 </v>
   <v>      -0.49799100       0.00288600      -0.49950300 </v>
   <v>      -0.49797300       0.49712700      -0.49950300 </v>
   <v>       0.28068700       0.25000600      -0.26164000 </v>
   <v>       0.00036400      -0.00072600       0.49956500 </v>
   <v>       0.00036800      -0.49928000       0.49957000 </v>
   <v>      -0.23563600       0.25000500       0.22694200 </v>
   <v>       0.47122300      -0.25000100       0.24571200 </v>
   <v>       0.04917400      -0.25000600       0.02802900 </v>
   <v>      -0.25145800       0.44932300       0.46564400 </v>
   <v>      -0.25145100       0.05068900       0.46565500 </v>
   <v>      -0.25294500      -0.04712300       0.04838600 </v>
   <v>      -0.25294300      -0.45288600       0.04837700 </v>
   <v>      -0.04833000      -0.02579000      -0.24700700 </v>
   <v>      -0.04833300      -0.47420000      -0.24701400 </v>
   <v>      -0.43761000       0.02374600      -0.25401200 </v>
   <v>      -0.43760700       0.47625900      -0.25401400 </v>
   <v>       0.46342800      -0.25001600      -0.06263700 </v>
   <v>      -0.03336100      -0.24999500       0.49674600 </v>
   <v>      -0.45946800      -0.24997500      -0.46945400 </v>
   <v>      -0.22556800       0.25000300      -0.28185700 </v>
   <v>       0.19545700      -0.24999800      -0.24072800 </v>
   <v>      -0.26076200      -0.24999800      -0.21653200 </v>
  </varray>
 </structure>
 <varray name="primitive_index" >
  <v type="int" >        1 </v>
  <v type="int" >       28 </v>
  <v type="int" >       38 </v>
  <v type="int" >       33 </v>
  <v type="int" >       25 </v>
  <v type="int" >       31 </v>
  <v type="int" >       23 </v>
  <v type="int" >       18 </v>
  <v type="int" >       17 </v>
  <v type="int" >       21 </v>
  <v type="int" >       13 </v>
  <v type="int" >        7 </v>
  <v type="int" >       22 </v>
  <v type="int" >       11 </v>
  <v type="int" >        9 </v>
  <v type="int" >       30 </v>
  <v type="int" >       36 </v>
  <v type="int" >        8 </v>
  <v type="int" >       14 </v>
  <v type="int" >        4 </v>
  <v type="int" >       10 </v>
  <v type="int" >       12 </v>
  <v type="int" >        5 </v>
  <v type="int" >       39 </v>
  <v type="int" >       19 </v>
  <v type="int" >       24 </v>
  <v type="int" >       32 </v>
  <v type="int" >       29 </v>
  <v type="int" >       35 </v>
  <v type="int" >       34 </v>
  <v type="int" >       26 </v>
  <v type="int" >       27 </v>
  <v type="int" >       37 </v>
  <v type="int" >       15 </v>
  <v type="int" >       16 </v>
  <v type="int" >       20 </v>
  <v type="int" >        2 </v>
  <v type="int" >        3 </v>
  <v type="int" >        6 </v>
 </varray>
 <kpoints>
  <generation param="Gamma">
   <v type="int" name="divisions">       2        2        2 </v>
   <v name="usershift">      0.00000000       0.00000000       0.00000000 </v>
   <v name="genvec1">      0.50000000       0.00000000       0.00000000 </v>
   <v name="genvec2">      0.00000000       0.50000000       0.00000000 </v>
   <v name="genvec3">      0.00000000       0.00000000       0.50000000 </v>
   <v name="shift">      0.00000000       0.00000000       0.00000000 </v>
  </generation>
  <varray name="kpointlist" >
   <v>       0.00000000       0.00000000       0.00000000 </v>
   <v>       0.50000000       0.00000000       0.00000000 </v>
   <v>       0.00000000       0.50000000       0.00000000 </v>
   <v>       0.50000000       0.50000000       0.00000000 </v>
   <v>       0.00000000       0.00000000       0.50000000 </v>
   <v>       0.50000000       0.00000000       0.50000000 </v>
   <v>       0.00000000       0.50000000       0.50000000 </v>
   <v>       0.50000000       0.50000000       0.50000000 </v>
  </varray>
  <varray name="weights" >
   <v>       0.12500000 </v>
   <v>       0.12500000 </v>
   <v>       0.12500000 </v>
   <v>       0.12500000 </v>
   <v>       0.12500000 </v>
   <v>       0.12500000 </v>
   <v>       0.12500000 </v>
   <v>       0.12500000 </v>
  </varray>
 </kpoints>
 <parameters>
  <separator name="general" >
   <i type="string" name="SYSTEM">CsPbBr3 cubic bulk</i>
   <i type="logical" name="LCOMPAT"> F  </i>
  </separator>
  <separator name="electronic" >
   <i type="string" name="PREC">accura</i>
   <i name="ENMAX">    300.00000000</i>
   <i name="ENAUG">    503.85200000</i>
   <i name="EDIFF">      0.00000100</i>
   <i type="int" name="IALGO">    38</i>
   <i type="int" name="IWAVPR">    10</i>
   <i type="int" name="NBANDS">   208</i>
   <i name="NELECT">    344.00000000</i>
   <i type="int" name="TURBO">     0</i>
   <i type="int" name="IRESTART">     0</i>
   <i type="int" name="NREBOOT">     0</i>
   <i type="int" name="NMIN">     0</i>
   <i name="EREF">      0.00000000</i>
   <separator name="electronic smearing" >
    <i type="int" name="ISMEAR">     0</i>
    <i name="SIGMA">      0.01000000</i>
    <i name="KSPACING">      0.50000000</i>
    <i type="logical" name="KGAMMA"> T  </i>
   </separator>
   <separator name="electronic projectors" >
    <i type="logical" name="LREAL"> T  </i>
    <v name="ROPT">     -0.00025000     -0.00025000     -0.00025000     -0.00025000</v>
    <i type="int" name="LMAXPAW">  -100</i>
    <i type="int" name="LMAXMIX">     2</i>
    <i type="logical" name="NLSPLINE"> F  </i>
   </separator>
   <separator name="electronic startup" >
    <i type="int" name="ISTART">     0</i>
    <i type="int" name="ICHARG">     2</i>
    <i type="int" name="INIWAV">     1</i>
   </separator>
   <separator name="electronic spin" >
    <i type="int" name="ISPIN">     1</i>
    <i type="logical" name="LNONCOLLINEAR"> F  </i>
    <v name="MAGMOM">      0.00000000      0.00000000      0.00000000      0.00000000      0.00000000      0.00000000      0.00000000      0.00000000      0.00000000      0.00000000      0.00000000      0.00000000      0.00000000      0.00000000      0.00000000      0.00000000      0.00000000      0.00000000      0.00000000      0.00000000
      0.00000000      0.00000000      0.00000000      0.00000000      0.00000000      0.00000000      0.00000000      0.00000000      0.00000000      0.00000000      0.00000000      0.00000000      0.00000000      0.00000000      0.00000000      0.00000000      0.00000000      0.00000000      0.00000000</v>
    <i name="NUPDOWN">      0.00000000</i>
    <i type="logical" name="LSORBIT"> F  </i>
    <v name="SAXIS">      0.00000000      0.00000000      1.00000000</v>
    <i type="logical" name="LSPIRAL"> F  </i>
    <v name="QSPIRAL">      0.00000000      0.00000000      0.00000000</v>
    <i type="logical" name="LZEROZ"> F  </i>
   </separator>
   <separator name="electronic exchange-correlation" >
    <i type="logical" name="LASPH"> T  </i>
    <i type="logical" name="LMETAGGA"> F  </i>
   </separator>
   <separator name="electronic convergence" >
    <i type="int" name="NELM">   200</i>
    <i type="int" name="NELMDL">    -5</i>
    <i type="int" name="NELMIN">     2</i>
    <i name="ENINI">    300.00000000</i>
    <separator name="electronic convergence detail" >
     <i type="logical" name="LDIAG"> T  </i>
     <i type="logical" name="LSUBROT"> F  </i>
     <i name="WEIMIN">      0.00000000</i>
     <i name="EBREAK">      0.00000000</i>
     <i name="DEPER">      0.30000000</i>
     <i type="int" name="NRMM">     4</i>
     <i name="TIME">      0.40000000</i>
    </separator>
   </separator>
   <separator name="electronic mixer" >
    <i name="AMIX">      0.40000000</i>
    <i name="BMIX">      1.00000000</i>
    <i name="AMIN">      0.10000000</i>
    <i name="AMIX_MAG">      1.60000000</i>
    <i name="BMIX_MAG">      1.00000000</i>
    <separator name="electronic mixer details" >
     <i type="int" name="IMIX">     4</i>
     <i type="logical" name="MIXFIRST"> F  </i>
     <i type="int" name="MAXMIX">   -45</i>
     <i name="WC">    100.00000000</i>
     <i type="int" name="INIMIX">     1</i>
     <i type="int" name="MIXPRE">     1</i>
     <i type="int" name="MREMOVE">     5</i>
    </separator>
   </separator>
   <separator name="electronic dipolcorrection" >
    <i type="logical" name="LDIPOL"> F  </i>
    <i type="logical" name="LMONO"> F  </i>
    <i type="int" name="IDIPOL">     0</i>
    <i name="EPSILON">      1.00000000</i>
    <v name="DIPOL">   -100.00000000   -100.00000000   -100.00000000</v>
    <i name="EFIELD">      0.00000000</i>
   </separator>
  </separator>
  <separator name="grids" >
   <i type="int" name="NGX">    70</i>
   <i type="int" name="NGY">    70</i>
   <i type="int" name="NGZ">    70</i>
   <i type="int" name="NGXF">   140</i>
   <i type="int" name="NGYF">   140</i>
   <i type="int" name="NGZF">   140</i>
   <i type="logical" name="ADDGRID"> T  </i>
  </separator>
  <separator name="ionic" >
   <i type="int" name="NSW">     0</i>
   <i type="int" name="IBRION">    -1</i>
   <i type="int" name="MDALGO">     0</i>
   <i type="int" name="ISIF">     2</i>
   <i name="PSTRESS">      0.00000000</i>
   <i name="EDIFFG">     -0.01000000</i>
   <i type="int" name="NFREE">     1</i>
   <i name="POTIM">      0.50000000</i>
   <i name="SMASS">     -3.00000000</i>
   <i name="SCALEE">      1.00000000</i>
  </separator>
  <separator name="ionic md" >
   <i name="TEBEG">      0.00010000</i>
   <i name="TEEND">      0.00010000</i>
   <i type="int" name="NBLOCK">     1</i>
   <i type="int" name="KBLOCK">     1</i>
   <i type="int" name="NPACO">   256</i>
   <i name="APACO">     16.00000000</i>
  </separator>
  <separator name="symmetry" >
   <i type="int" name="ISYM">     0</i>
   <i name="SYMPREC">      0.00001000</i>
  </separator>
  <separator name="dos" >
   <i type="int" name="LORBIT">    10</i>
   <v name="RWIGS">     -1.00000000     -1.00000000     -1.00000000     -1.00000000</v>
   <i type="int" name="NEDOS">   301</i>
   <i name="EMIN">     10.00000000</i>
   <i name="EMAX">    -10.00000000</i>
   <i name="EFERMI">      0.00000000</i>
  </separator>
  <separator name="writing" >
   <i type="int" name="NWRITE">     2</i>
   <i type="logical" name="LWAVE"> F  </i>
   <i type="logical" name="LDOWNSAMPLE"> F  </i>
   <i type="logical" name="LCHARG"> F  </i>
   <i type="logical" name="LPARD"> F  </i>
   <i type="logical" name="LVTOT"> F  </i>
   <i type="logical" name="LVHAR"> T  </i>
   <i type="logical" name="LELF"> F  </i>
   <i type="logical" name="LOPTICS"> F  </i>
   <v name="STM">      0.00000000      0.00000000      0.00000000      0.00000000      0.00000000      0.00000000      0.00000000</v>
  </separator>
  <separator name="performance" >
   <i type="int" name="NPAR">     8</i>
   <i type="int" name="NSIM">     4</i>
   <i type="int" name="NBLK">    -1</i>
   <i type="logical" name="LPLANE"> T  </i>
   <i type="logical" name="LSCALAPACK"> T  </i>
   <i type="logical" name="LSCAAWARE"> F  </i>
   <i type="logical" name="LSCALU"> F  </i>
   <i type="logical" name="LASYNC"> F  </i>
   <i type="logical" name="LORBITALREAL"> F  </i>
  </separator>
  <separator name="miscellaneous" >
   <i type="int" name="IDIOT">     3</i>
   <i type="int" name="ISPECIAL">     0</i>
   <i type="logical" name="LMUSIC"> F  </i>
   <v name="POMASS">    132.90000000    207.20000000     79.90400000    132.90000000</v>
   <v name="DARWINR">      0.00000000      0.00000000      0.00000000      0.00000000</v>
   <v name="DARWINV">      1.00000000      1.00000000      1.00000000      1.00000000</v>
   <i type="logical" name="LCORR"> T  </i>
  </separator>
  <i type="logical" name="GGA_COMPAT"> T  </i>
  <i type="logical" name="LBERRY"> F  </i>
  <i type="int" name="ICORELEVEL">     0</i>
  <i type="logical" name="LDAU"> F  </i>
  <i type="int" name="I_CONSTRAINED_M">     0</i>
  <separator name="electronic exchange-correlation" >
   <i type="string" name="GGA">--</i>
   <i type="int" name="VOSKOWN">     0</i>
   <i type="logical" name="LHFCALC"> F  </i>
   <i type="string" name="PRECFOCK"></i>
   <i type="logical" name="LSYMGRAD"> F  </i>
   <i type="logical" name="LHFONE"> F  </i>
   <i type="logical" name="LRHFCALC"> F  </i>
   <i type="logical" name="LTHOMAS"> F  </i>
   <i type="logical" name="LMODELHF"> F  </i>
   <i name="ENCUT4O">     -1.00000000</i>
   <i type="int" name="EXXOEP">     0</i>
   <i type="int" name="FOURORBIT">     0</i>
   <i name="AEXX">      0.00000000</i>
   <i name="HFALPHA">      0.00000000</i>
   <i name="MCALPHA">      0.00000000</i>
   <i name="ALDAX">      1.00000000</i>
   <i name="AGGAX">      1.00000000</i>
   <i name="ALDAC">      1.00000000</i>
   <i name="AGGAC">      1.00000000</i>
   <i type="int" name="NKREDX">     1</i>
   <i type="int" name="NKREDY">     1</i>
   <i type="int" name="NKREDZ">     1</i>
   <i type="logical" name="SHIFTRED"> F  </i>
   <i type="logical" name="ODDONLY"> F  </i>
   <i type="logical" name="EVENONLY"> F  </i>
   <i type="int" name="LMAXFOCK">     0</i>
   <i type="int" name="NMAXFOCKAE">     0</i>
   <i type="logical" name="LFOCKAEDFT"> F  </i>
   <i name="HFSCREEN">      0.00000000</i>
   <i name="HFSCREENC">      0.00000000</i>
   <i type="int" name="NBANDSGWLOW">     0</i>
  </separator>
  <separator name="vdW DFT" >
   <i type="logical" name="LUSE_VDW"> F  </i>
   <i name="Zab_VDW">     -0.84910000</i>
   <i name="PARAM1">      0.12340000</i>
   <i name="PARAM2">      1.00000000</i>
   <i name="PARAM3">      0.00000000</i>
  </separator>
  <separator name="model GW" >
   <i type="int" name="MODEL_GW">     0</i>
   <i name="MODEL_EPS0">     24.61956720</i>
   <i name="MODEL_ALPHA">      1.00000000</i>
  </separator>
  <separator name="linear response parameters" >
   <i type="logical" name="LEPSILON"> F  </i>
   <i type="logical" name="LRPA"> F  </i>
   <i type="logical" name="LNABLA"> F  </i>
   <i type="logical" name="LVEL"> F  </i>
   <i type="int" name="KINTER">     0</i>
   <i name="CSHIFT">      0.10000000</i>
   <i name="OMEGAMAX">     -1.00000000</i>
   <i name="DEG_THRESHOLD">      0.00200000</i>
   <i name="RTIME">     -0.10000000</i>
   <i name="WPLASMAI">      0.00000000</i>
   <v name="DFIELD">      0.00000000      0.00000000      0.00000000</v>
   <v name="WPLASMA">      0.00000000      0.00000000      0.00000000      0.00000000      0.00000000      0.00000000      0.00000000      0.00000000      0.00000000</v>
  </separator>
  <separator name="orbital magnetization" >
   <i type="logical" name="NUCIND"> F  </i>
   <v name="MAGPOS">      0.00000000      0.00000000      0.00000000</v>
   <i type="logical" name="LNICSALL"> T  </i>
   <i type="logical" name="ORBITALMAG"> F  </i>
   <i type="logical" name="LMAGBLOCH"> F  </i>
   <i type="logical" name="LCHIMAG"> F  </i>
   <i type="logical" name="LGAUGE"> T  </i>
   <i type="int" name="MAGATOM">     0</i>
   <v name="MAGDIPOL">      0.00000000      0.00000000      0.00000000</v>
   <v name="AVECCONST">      0.00000000      0.00000000      0.00000000</v>
  </separator>
  <separator name="response functions" >
   <i type="logical" name="LADDER"> F  </i>
   <i type="logical" name="LRPAFORCE"> F  </i>
   <i type="logical" name="LFXC"> F  </i>
   <i type="logical" name="LHARTREE"> T  </i>
   <i type="int" name="IBSE">     0</i>
   <v type="int" name="KPOINT">    -1     0     0     0</v>
   <i type="logical" name="LTCTE"> F  </i>
   <i type="logical" name="LTETE"> F  </i>
   <i type="logical" name="LTRIPLET"> F  </i>
   <i type="logical" name="LFXCEPS"> F  </i>
   <i type="logical" name="LFXHEG"> F  </i>
   <i type="int" name="NATURALO">     2</i>
   <i type="logical" name="L2ORDER"> F  </i>
   <i type="logical" name="LMP2LT"> F  </i>
   <i type="logical" name="LUSEW"> F  </i>
   <i name="ENCUTGW">     -2.00000000</i>
   <i name="ENCUTGWSOFT">     -2.00000000</i>
   <i name="ENCUTLF">     -1.00000000</i>
   <i type="int" name="LMAXMP2">    -1</i>
   <i name="SCISSOR">      0.00000000</i>
   <i type="int" name="NOMEGA">     0</i>
   <i type="int" name="NOMEGAR">     0</i>
   <i type="int" name="NBANDSGW">    -1</i>
   <i type="int" name="NBANDSO">    -1</i>
   <i type="int" name="NBANDSV">    -1</i>
   <i type="int" name="NELM">   200</i>
   <i type="int" name="NELMHF">     1</i>
   <i type="int" name="DIM">     3</i>
   <i type="int" name="ANTIRES">     0</i>
   <i name="OMEGAMAX">    -30.00000000</i>
   <i name="OMEGAMIN">    -30.00000000</i>
   <i name="OMEGATL">   -200.00000000</i>
   <i type="int" name="OMEGAGRID">   140</i>
   <i name="CSHIFT">     -0.10000000</i>
   <i type="logical" name="SELFENERGY"> F  </i>
   <i type="logical" name="LSPECTRAL"> F  </i>
   <i type="logical" name="LSPECTRALGW"> F  </i>
   <i type="logical" name="LSINGLES"> F  </i>
   <i type="logical" name="LFERMIGW"> F  </i>
   <i type="logical" name="ODDONLYGW"> F  </i>
   <i type="logical" name="EVENONLYGW"> F  </i>
   <i type="int" name="NKREDLFX">     1</i>
   <i type="int" name="NKREDLFY">     1</i>
   <i type="int" name="NKREDLFZ">     1</i>
   <i type="int" name="MAXMEM">  2800</i>
   <i type="int" name="TELESCOPE">     0</i>
   <i type="int" name="TAUPAR">     1</i>
   <i type="int" name="OMEGAPAR">    -1</i>
   <i name="LAMBDA">      1.00000000</i>
  </separator>
  <separator name="External order field" >
   <i name="OFIELD_KAPPA">      0.00000000</i>
   <v name="OFIELD_K">      0.00000000      0.00000000      0.00000000</v>
   <i name="OFIELD_Q6_NEAR">      0.00000000</i>
   <i name="OFIELD_Q6_FAR">      0.00000000</i>
   <i name="OFIELD_A">      0.00000000</i>
  </separator>
 </parameters>
 <atominfo>
  <atoms>      39 </atoms>
  <types>       4 </types>
  <array name="atoms" >
   <dimension dim="1">ion</dimension>
   <field type="string">element</field>
   <field type="int">atomtype</field>
   <set>
    <rc><c>Cs</c><c>   1</c></rc>
    <rc><c>Cs</c><c>   1</c></rc>
    <rc><c>Cs</c><c>   1</c></rc>
    <rc><c>Cs</c><c>   1</c></rc>
    <rc><c>Cs</c><c>   1</c></rc>
    <rc><c>Cs</c><c>   1</c></rc>
    <rc><c>Pb</c><c>   2</c></rc>
    <rc><c>Pb</c><c>   2</c></rc>
    <rc><c>Pb</c><c>   2</c></rc>
    <rc><c>Pb</c><c>   2</c></rc>
    <rc><c>Pb</c><c>   2</c></rc>
    <rc><c>Pb</c><c>   2</c></rc>
    <rc><c>Pb</c><c>   2</c></rc>
    <rc><c>Pb</c><c>   2</c></rc>
    <rc><c>Br</c><c>   3</c></rc>
    <rc><c>Br</c><c>   3</c></rc>
    <rc><c>Br</c><c>   3</c></rc>
    <rc><c>Br</c><c>   3</c></rc>
    <rc><c>Br</c><c>   3</c></rc>
    <rc><c>Br</c><c>   3</c></rc>
    <rc><c>Br</c><c>   3</c></rc>
    <rc><c>Br</c><c>   3</c></rc>
    <rc><c>Br</c><c>   3</c></rc>
    <rc><c>Br</c><c>   3</c></rc>
    <rc><c>Br</c><c>   3</c></rc>
    <rc><c>Br</c><c>   3</c></rc>
    <rc><c>Br</c><c>   3</c></rc>
    <rc><c>Br</c><c>   3</c></rc>
    <rc><c>Br</c><c>   3</c></rc>
    <rc><c>Br</c><c>   3</c></rc>
    <rc><c>Br</c><c>   3</c></rc>
    <rc><c>Br</c><c>   3</c></rc>
    <rc><c>Br</c><c>   3</c></rc>
    <rc><c>Br</c><c>   3</c></rc>
    <rc><c>Br</c><c>   3</c></rc>
    <rc><c>Br</c><c>   3</c></rc>
    <rc><c>Br</c><c>   3</c></rc>
    <rc><c>Br</c><c>   3</c></rc>
    <rc><c>Cs</c><c>   4</c></rc>
   </set>
  </array>
  <array name="atomtypes" >
   <dimension dim="1">type</dimension>
   <field type="int">atomspertype</field>
   <field type="string">element</field>
   <field>mass</field>
   <field>valence</field>
   <field type="string">pseudopotential</field>
   <set>
    <rc><c>   6</c><c>Cs</c><c>    132.90000000</c><c>      9.00000000</c><c>  PAW_PBE Cs_sv 08Apr2002               </c></rc>
    <rc><c>   8</c><c>Pb</c><c>    207.20000000</c><c>     14.00000000</c><c>  PAW_PBE Pb_d 06Sep2000                </c></rc>
    <rc><c>  24</c><c>Br</c><c>     79.90400000</c><c>      7.00000000</c><c>  PAW_PBE Br 06Sep2000                  </c></rc>
    <rc><c>   1</c><c>Cs</c><c>    132.90000000</c><c>      9.00000000</c><c>  PAW_PBE Cs_sv 08Apr2002               </c></rc>
   </set>
  </array>
 </atominfo>
 <structure name="initialpos" >
  <crystal>
   <varray name="basis" >
    <v>       8.42001800       0.00000000       8.07798100 </v>
    <v>       0.00000000      11.76380800       0.00000000 </v>
    <v>      -8.42001800       0.00000000       8.07798100 </v>
   </varray>
   <i name="volume">   1600.27186790 </i>
   <varray name="rec_basis" >
    <v>       0.05938230      -0.00000000       0.06189665 </v>
    <v>       0.00000000       0.08500649      -0.00000000 </v>
    <v>      -0.05938230       0.00000000       0.06189665 </v>
   </varray>
  </crystal>
  <varray name="positions" >
   <v>       0.25623100       0.24999200       0.20525800 </v>
   <v>       0.77443200       0.25000300       0.71814300 </v>
   <v>       0.19545700       0.75000200       0.75927200 </v>
   <v>       0.28068700       0.25000600       0.73836000 </v>
   <v>       0.76436400       0.25000500       0.22694200 </v>
   <v>       0.73923800       0.75000200       0.78346800 </v>
   <v>       0.99420900       0.99563000       0.00630000 </v>
   <v>       0.50200900       0.00288600       0.50049700 </v>
   <v>       0.50159500       0.00236400       0.98881700 </v>
   <v>       0.00036400       0.99927400       0.49956500 </v>
   <v>       0.50158200       0.49761000       0.98882300 </v>
   <v>       0.00036800       0.50072000       0.49957000 </v>
   <v>       0.99419500       0.50433600       0.00630600 </v>
   <v>       0.50202700       0.49712700       0.50049700 </v>
   <v>       0.46342800       0.74998400       0.93736300 </v>
   <v>       0.96663900       0.75000500       0.49674600 </v>
   <v>       0.95895100       0.25000800       0.97820800 </v>
   <v>       0.45844200       0.25001500       0.49453100 </v>
   <v>       0.04917400       0.74999400       0.02802900 </v>
   <v>       0.54053200       0.75002500       0.53054600 </v>
   <v>       0.54365900       0.24998800       0.98768500 </v>
   <v>       0.03151700       0.25000300       0.54626700 </v>
   <v>       0.24664200       0.46400300       0.95740600 </v>
   <v>       0.74854200       0.44932300       0.46564400 </v>
   <v>       0.47134700       0.47068600       0.24106100 </v>
   <v>       0.95166700       0.52580000       0.75298600 </v>
   <v>       0.56239000       0.02374600       0.74598800 </v>
   <v>       0.03111800       0.05065400       0.25430500 </v>
   <v>       0.74705500       0.95287700       0.04838600 </v>
   <v>       0.25381400       0.97806600       0.56013100 </v>
   <v>       0.24664300       0.03599300       0.95740100 </v>
   <v>       0.74854900       0.05068900       0.46565500 </v>
   <v>       0.47135200       0.02930800       0.24106700 </v>
   <v>       0.95167000       0.97421000       0.75299300 </v>
   <v>       0.74705700       0.54711400       0.04837700 </v>
   <v>       0.25381500       0.52195100       0.56013000 </v>
   <v>       0.56239300       0.47625900       0.74598600 </v>
   <v>       0.03112500       0.44934100       0.25430800 </v>
   <v>       0.47122300       0.74999900       0.24571200 </v>
  </varray>
 </structure>
 <calculation>
  <scstep>
   <time name="dav">   16.58   16.59</time>
   <time name="total">   18.06   18.08</time>
   <energy>
    <i name="alphaZ">    835.99855037 </i>
    <i name="ewald"> -17331.30310617 </i>
    <i name="hartreedc">  -7795.14564996 </i>
    <i name="XCdc">    905.68906896 </i>
    <i name="pawpsdc">  21217.07306836 </i>
    <i name="pawaedc"> -22257.58625956 </i>
    <i name="eentropy">     -0.00004261 </i>
    <i name="bandstr">   -237.59109551 </i>
    <i name="atom">  26024.88362379 </i>
    <i name="e_fr_energy">   1362.01815767 </i>
    <i name="e_wo_entrp">   1362.01820029 </i>
    <i name="e_0_energy">   1362.01817898 </i>
   </energy>
  </scstep>
  <scstep>
   <time name="dav">   18.32   18.36</time>
   <time name="total">   18.32   18.36</time>
   <energy>
    <i name="e_fr_energy">  -1088.99032375 </i>
    <i name="e_wo_entrp">  -1088.99032375 </i>
    <i name="e_0_energy">  -1088.99032375 </i>
   </energy>
  </scstep>
  <scstep>
   <time name="dav">   19.20   19.26</time>
   <time name="total">   19.20   19.26</time>
   <energy>
    <i name="e_fr_energy">  -1452.28934923 </i>
    <i name="e_wo_entrp">  -1452.28934923 </i>
    <i name="e_0_energy">  -1452.28934923 </i>
   </energy>
  </scstep>
  <scstep>
   <time name="dav">   17.87   17.91</time>
   <time name="total">   17.87   17.92</time>
   <energy>
    <i name="e_fr_energy">  -1464.89114981 </i>
    <i name="e_wo_entrp">  -1464.89114981 </i>
    <i name="e_0_energy">  -1464.89114981 </i>
   </energy>
  </scstep>
  <scstep>
   <time name="dav">   19.31   19.36</time>
   <time name="total">   22.01   22.06</time>
   <energy>
    <i name="e_fr_energy">  -1465.46893455 </i>
    <i name="e_wo_entrp">  -1465.46893455 </i>
    <i name="e_0_energy">  -1465.46893455 </i>
   </energy>
  </scstep>
  <scstep>
   <time name="dav">   19.03   19.03</time>
   <time name="total">   23.19   23.25</time>
   <energy>
    <i name="e_fr_energy">  -1386.60283705 </i>
    <i name="e_wo_entrp">  -1386.60283705 </i>
    <i name="e_0_energy">  -1386.60283705 </i>
   </energy>
  </scstep>
  <scstep>
   <time name="dav">   18.46   18.47</time>
   <time name="total">   22.62   22.68</time>
   <energy>
    <i name="e_fr_energy">  -1386.18064121 </i>
    <i name="e_wo_entrp">  -1386.18064121 </i>
    <i name="e_0_energy">  -1386.18064121 </i>
   </energy>
  </scstep>
  <scstep>
   <time name="dav">   18.10   18.10</time>
   <time name="total">   22.28   22.30</time>
   <energy>
    <i name="e_fr_energy">  -1386.35995414 </i>
    <i name="e_wo_entrp">  -1386.35995414 </i>
    <i name="e_0_energy">  -1386.35995414 </i>
   </energy>
  </scstep>
  <scstep>
   <time name="dav">   17.08   17.08</time>
   <time name="total">   21.25   21.30</time>
   <energy>
    <i name="e_fr_energy">  -1386.44270621 </i>
    <i name="e_wo_entrp">  -1386.44270621 </i>
    <i name="e_0_energy">  -1386.44270621 </i>
   </energy>
  </scstep>
  <scstep>
   <time name="dav">   20.24   20.24</time>
   <time name="total">   24.43   24.44</time>
   <energy>
    <i name="e_fr_energy">  -1386.44554322 </i>
    <i name="e_wo_entrp">  -1386.44554322 </i>
    <i name="e_0_energy">  -1386.44554322 </i>
   </energy>
  </scstep>
  <scstep>
   <time name="dav">   17.29   17.29</time>
   <time name="total">   21.46   21.51</time>
   <energy>
    <i name="e_fr_energy">  -1386.44893240 </i>
    <i name="e_wo_entrp">  -1386.44893240 </i>
    <i name="e_0_energy">  -1386.44893240 </i>
   </energy>
  </scstep>
  <scstep>
   <time name="dav">   17.23   17.23</time>
   <time name="total">   21.41   21.44</time>
   <energy>
    <i name="e_fr_energy">  -1386.45218914 </i>
    <i name="e_wo_entrp">  -1386.45218914 </i>
    <i name="e_0_energy">  -1386.45218914 </i>
   </energy>
  </scstep>
  <scstep>
   <time name="dav">   19.39   19.39</time>
   <time name="total">   23.59   23.60</time>
   <energy>
    <i name="e_fr_energy">  -1386.45206911 </i>
    <i name="e_wo_entrp">  -1386.45206911 </i>
    <i name="e_0_energy">  -1386.45206911 </i>
   </energy>
  </scstep>
  <scstep>
   <time name="dav">   17.49   17.49</time>
   <time name="total">   21.67   21.71</time>
   <energy>
    <i name="e_fr_energy">  -1386.45201150 </i>
    <i name="e_wo_entrp">  -1386.45201150 </i>
    <i name="e_0_energy">  -1386.45201150 </i>
   </energy>
  </scstep>
  <scstep>
   <time name="dav">   17.09   17.09</time>
   <time name="total">   21.28   21.30</time>
   <energy>
    <i name="e_fr_energy">  -1386.45203515 </i>
    <i name="e_wo_entrp">  -1386.45203515 </i>
    <i name="e_0_energy">  -1386.45203515 </i>
   </energy>
  </scstep>
  <scstep>
   <time name="dav">   16.84   16.84</time>
   <time name="total">   21.03   21.05</time>
   <energy>
    <i name="e_fr_energy">  -1386.45209833 </i>
    <i name="e_wo_entrp">  -1386.45209833 </i>
    <i name="e_0_energy">  -1386.45209833 </i>
   </energy>
  </scstep>
  <scstep>
   <time name="dav">   16.98   16.98</time>
   <time name="total">   18.48   18.49</time>
   <energy>
    <i name="alphaZ">    835.99855037 </i>
    <i name="ewald"> -17331.30310617 </i>
    <i name="hartreedc">  -7832.05895788 </i>
    <i name="XCdc">    947.47744546 </i>
    <i name="pawpsdc">  22801.28357750 </i>
    <i name="pawaedc"> -23840.72429055 </i>
    <i name="eentropy">     -0.00000000 </i>
    <i name="bandstr">  -2992.00894181 </i>
    <i name="atom">  26024.88362379 </i>
    <i name="e_fr_energy">  -1386.45209929 </i>
    <i name="e_wo_entrp">  -1386.45209929 </i>
    <i name="e_0_energy">  -1386.45209929 </i>
   </energy>
  </scstep>
  <structure>
   <crystal>
    <varray name="basis" >
     <v>       8.42001800       0.00000000       8.07798100 </v>
     <v>       0.00000000      11.76380800       0.00000000 </v>
     <v>      -8.42001800       0.00000000       8.07798100 </v>
    </varray>
    <i name="volume">   1600.27186790 </i>
    <varray name="rec_basis" >
     <v>       0.05938230      -0.00000000       0.06189665 </v>
     <v>       0.00000000       0.08500649      -0.00000000 </v>
     <v>      -0.05938230       0.00000000       0.06189665 </v>
    </varray>
   </crystal>
   <varray name="positions" >
    <v>       0.25623100       0.24999200       0.20525800 </v>
    <v>       0.77443200       0.25000300       0.71814300 </v>
    <v>       0.19545700       0.75000200       0.75927200 </v>
    <v>       0.28068700       0.25000600       0.73836000 </v>
    <v>       0.76436400       0.25000500       0.22694200 </v>
    <v>       0.73923800       0.75000200       0.78346800 </v>
    <v>       0.99420900       0.99563000       0.00630000 </v>
    <v>       0.50200900       0.00288600       0.50049700 </v>
    <v>       0.50159500       0.00236400       0.98881700 </v>
    <v>       0.00036400       0.99927400       0.49956500 </v>
    <v>       0.50158200       0.49761000       0.98882300 </v>
    <v>       0.00036800       0.50072000       0.49957000 </v>
    <v>       0.99419500       0.50433600       0.00630600 </v>
    <v>       0.50202700       0.49712700       0.50049700 </v>
    <v>       0.46342800       0.74998400       0.93736300 </v>
    <v>       0.96663900       0.75000500       0.49674600 </v>
    <v>       0.95895100       0.25000800       0.97820800 </v>
    <v>       0.45844200       0.25001500       0.49453100 </v>
    <v>       0.04917400       0.74999400       0.02802900 </v>
    <v>       0.54053200       0.75002500       0.53054600 </v>
    <v>       0.54365900       0.24998800       0.98768500 </v>
    <v>       0.03151700       0.25000300       0.54626700 </v>
    <v>       0.24664200       0.46400300       0.95740600 </v>
    <v>       0.74854200       0.44932300       0.46564400 </v>
    <v>       0.47134700       0.47068600       0.24106100 </v>
    <v>       0.95166700       0.52580000       0.75298600 </v>
    <v>       0.56239000       0.02374600       0.74598800 </v>
    <v>       0.03111800       0.05065400       0.25430500 </v>
    <v>       0.74705500       0.95287700       0.04838600 </v>
    <v>       0.25381400       0.97806600       0.56013100 </v>
    <v>       0.24664300       0.03599300       0.95740100 </v>
    <v>       0.74854900       0.05068900       0.46565500 </v>
    <v>       0.47135200       0.02930800       0.24106700 </v>
    <v>       0.95167000       0.97421000       0.75299300 </v>
    <v>       0.74705700       0.54711400       0.04837700 </v>
    <v>       0.25381500       0.52195100       0.56013000 </v>
    <v>       0.56239300       0.47625900       0.74598600 </v>
    <v>       0.03112500       0.44934100       0.25430800 </v>
    <v>       0.47122300       0.74999900       0.24571200 </v>
   </varray>
  </structure>
  <varray name="forces" >
   <v>       0.00529731       0.00007269       0.01658763 </v>
   <v>       0.00576227      -0.00002463       0.00696741 </v>
   <v>      -0.00531644      -0.00001285      -0.02856837 </v>
   <v>       0.00699974      -0.00007532      -0.01790696 </v>
   <v>       0.02156581      -0.00013424       0.01785712 </v>
   <v>       0.01639531      -0.00002904       0.01813842 </v>
   <v>      -0.03881892      -0.00813466       0.00861309 </v>
   <v>      -0.07993458       0.06949874       0.09840553 </v>
   <v>       0.09448176      -0.00778541      -0.05601055 </v>
   <v>      -0.00916237      -0.03940377      -0.00931822 </v>
   <v>       0.09454453       0.00801890      -0.05581471 </v>
   <v>      -0.00885749       0.03981390      -0.00898453 </v>
   <v>      -0.03854654       0.00838085       0.00832091 </v>
   <v>      -0.08064147      -0.06959921       0.09798449 </v>
   <v>      -0.03083111      -0.00000124       0.04091144 </v>
   <v>      -0.01040033      -0.00009379       0.01987855 </v>
   <v>       0.00158579      -0.00037110       0.00836481 </v>
   <v>       0.01499156       0.00017734      -0.02743505 </v>
   <v>       0.01205564       0.00025720       0.00248058 </v>
   <v>      -0.07162958      -0.00021520       0.13623026 </v>
   <v>      -0.00601664      -0.00002681      -0.01419338 </v>
   <v>      -0.00330350       0.00009566       0.00663461 </v>
   <v>       0.00816869      -0.00674357      -0.00043835 </v>
   <v>      -0.01730876      -0.00590171      -0.01694410 </v>
   <v>      -0.00886681      -0.35856982      -0.01912774 </v>
   <v>      -0.00370581      -0.00384212       0.02056713 </v>
   <v>       0.01121875       0.00487691      -0.01570637 </v>
   <v>       0.00457885       0.01381375       0.00699659 </v>
   <v>      -0.02965804      -0.01237435      -0.02161777 </v>
   <v>       0.02486416       0.00287957       0.00917481 </v>
   <v>       0.00814340       0.00668528      -0.00042789 </v>
   <v>      -0.01749563       0.00582549      -0.01709661 </v>
   <v>      -0.00875443       0.35867583      -0.01934891 </v>
   <v>      -0.00358199       0.00377793       0.02029913 </v>
   <v>      -0.02988301       0.01231679      -0.02167386 </v>
   <v>       0.02482979      -0.00299340       0.00908426 </v>
   <v>       0.01130004      -0.00486435      -0.01583252 </v>
   <v>       0.00462753      -0.01384378       0.00695739 </v>
   <v>       0.13130253      -0.00012647      -0.19400829 </v>
  </varray>
  <varray name="stress" >
   <v>       5.93374330      -0.00193233      -3.34039198 </v>
   <v>      -0.00193223      11.00326064       0.00069748 </v>
   <v>      -3.34029608       0.00069743       7.64609951 </v>
  </varray>
  <energy>
   <i name="e_fr_energy">  -1386.45209929 </i>
   <i name="e_wo_entrp">  -1386.45209929 </i>
   <i name="e_0_energy">     -0.00000000 </i>
  </energy>
  <time name="totalsc">  413.31  413.92</time>
  <eigenvalues>
   <array>
    <dimension dim="1">band</dimension>
    <dimension dim="2">kpoint</dimension>
    <dimension dim="3">spin</dimension>
    <field>eigene</field>
    <field>occ</field>
    <set>
     <set comment="spin 1">
      <set comment="kpoint 1">
       <r>  -21.4145    1.0000 </r>
       <r>  -20.9845    1.0000 </r>
       <r>  -20.9556    1.0000 </r>
       <r>  -20.9495    1.0000 </r>
       <r>  -20.9434    1.0000 </r>
       <r>  -20.9169    1.0000 </r>
       <r>  -20.8210    1.0000 </r>
       <r>  -16.8076    1.0000 </r>
       <r>  -16.7809    1.0000 </r>
       <r>  -16.7723    1.0000 </r>
       <r>  -16.7405    1.0000 </r>
       <r>  -16.7374    1.0000 </r>
       <r>  -16.7008    1.0000 </r>
       <r>  -16.7003    1.0000 </r>
       <r>  -16.6811    1.0000 </r>
       <r>  -16.6698    1.0000 </r>
       <r>  -16.6674    1.0000 </r>
       <r>  -16.6492    1.0000 </r>
       <r>  -16.6483    1.0000 </r>
       <r>  -16.6342    1.0000 </r>
       <r>  -16.6338    1.0000 </r>
       <r>  -16.6147    1.0000 </r>
       <r>  -16.6133    1.0000 </r>
       <r>  -16.6007    1.0000 </r>
       <r>  -16.6002    1.0000 </r>
       <r>  -16.5982    1.0000 </r>
       <r>  -16.5826    1.0000 </r>
       <r>  -16.5820    1.0000 </r>
       <r>  -16.5817    1.0000 </r>
       <r>  -16.5811    1.0000 </r>
       <r>  -16.5431    1.0000 </r>
       <r>  -16.5302    1.0000 </r>
       <r>  -16.5045    1.0000 </r>
       <r>  -16.5018    1.0000 </r>
       <r>  -16.4751    1.0000 </r>
       <r>  -16.4691    1.0000 </r>
       <r>  -16.4677    1.0000 </r>
       <r>  -16.4639    1.0000 </r>
       <r>  -16.4637    1.0000 </r>
       <r>  -16.4554    1.0000 </r>
       <r>  -16.4544    1.0000 </r>
       <r>  -16.4116    1.0000 </r>
       <r>  -16.4114    1.0000 </r>
       <r>  -16.4009    1.0000 </r>
       <r>  -16.3983    1.0000 </r>
       <r>  -16.3944    1.0000 </r>
       <r>  -16.3936    1.0000 </r>
       <r>  -14.6402    1.0000 </r>
       <r>  -14.4537    1.0000 </r>
       <r>  -14.4236    1.0000 </r>
       <r>  -14.4123    1.0000 </r>
       <r>  -14.3958    1.0000 </r>
       <r>  -14.3729    1.0000 </r>
       <r>  -14.3136    1.0000 </r>
       <r>  -14.2934    1.0000 </r>
       <r>  -14.1736    1.0000 </r>
       <r>  -14.1607    1.0000 </r>
       <r>  -14.1348    1.0000 </r>
       <r>  -14.1189    1.0000 </r>
       <r>  -14.1069    1.0000 </r>
       <r>  -14.1020    1.0000 </r>
       <r>  -14.0808    1.0000 </r>
       <r>  -14.0677    1.0000 </r>
       <r>  -14.0577    1.0000 </r>
       <r>  -14.0531    1.0000 </r>
       <r>  -14.0475    1.0000 </r>
       <r>  -13.9381    1.0000 </r>
       <r>  -13.8871    1.0000 </r>
       <r>  -13.8698    1.0000 </r>
       <r>  -13.8255    1.0000 </r>
       <r>  -13.7195    1.0000 </r>
       <r>   -8.4304    1.0000 </r>
       <r>   -8.0138    1.0000 </r>
       <r>   -7.9643    1.0000 </r>
       <r>   -7.8972    1.0000 </r>
       <r>   -7.8450    1.0000 </r>
       <r>   -7.8208    1.0000 </r>
       <r>   -7.7807    1.0000 </r>
       <r>   -7.4258    1.0000 </r>
       <r>   -7.4159    1.0000 </r>
       <r>   -7.4015    1.0000 </r>
       <r>   -7.3922    1.0000 </r>
       <r>   -7.3810    1.0000 </r>
       <r>   -7.3701    1.0000 </r>
       <r>   -7.3611    1.0000 </r>
       <r>   -7.3575    1.0000 </r>
       <r>   -7.3552    1.0000 </r>
       <r>   -7.3510    1.0000 </r>
       <r>   -7.3415    1.0000 </r>
       <r>   -7.3374    1.0000 </r>
       <r>   -7.3313    1.0000 </r>
       <r>   -7.3218    1.0000 </r>
       <r>   -7.3208    1.0000 </r>
       <r>   -7.3001    1.0000 </r>
       <r>   -7.2942    1.0000 </r>
       <r>   -7.2673    1.0000 </r>
       <r>   -7.2313    1.0000 </r>
       <r>   -7.2222    1.0000 </r>
       <r>   -7.2182    1.0000 </r>
       <r>   -6.7257    1.0000 </r>
       <r>   -3.6372    1.0000 </r>
       <r>   -3.6268    1.0000 </r>
       <r>   -3.5700    1.0000 </r>
       <r>   -3.4228    1.0000 </r>
       <r>   -3.4107    1.0000 </r>
       <r>   -3.3416    1.0000 </r>
       <r>   -3.3156    1.0000 </r>
       <r>   -3.2979    1.0000 </r>
       <r>   -3.2809    1.0000 </r>
       <r>   -3.2714    1.0000 </r>
       <r>   -3.1366    1.0000 </r>
       <r>   -3.0533    1.0000 </r>
       <r>   -2.5012    1.0000 </r>
       <r>   -2.3716    1.0000 </r>
       <r>   -2.3068    1.0000 </r>
       <r>   -2.2493    1.0000 </r>
       <r>   -2.1487    1.0000 </r>
       <r>   -2.1158    1.0000 </r>
       <r>   -2.1029    1.0000 </r>
       <r>   -2.0402    1.0000 </r>
       <r>   -2.0161    1.0000 </r>
       <r>   -1.9861    1.0000 </r>
       <r>   -1.9175    1.0000 </r>
       <r>   -1.8916    1.0000 </r>
       <r>   -1.8457    1.0000 </r>
       <r>   -1.8445    1.0000 </r>
       <r>   -1.8294    1.0000 </r>
       <r>   -1.7863    1.0000 </r>
       <r>   -1.7068    1.0000 </r>
       <r>   -1.7061    1.0000 </r>
       <r>   -1.6698    1.0000 </r>
       <r>   -1.6518    1.0000 </r>
       <r>   -1.6316    1.0000 </r>
       <r>   -1.6186    1.0000 </r>
       <r>   -1.6032    1.0000 </r>
       <r>   -1.5818    1.0000 </r>
       <r>   -1.5705    1.0000 </r>
       <r>   -1.5579    1.0000 </r>
       <r>   -1.5552    1.0000 </r>
       <r>   -1.5481    1.0000 </r>
       <r>   -1.5160    1.0000 </r>
       <r>   -1.5002    1.0000 </r>
       <r>   -1.4994    1.0000 </r>
       <r>   -1.4721    1.0000 </r>
       <r>   -1.4584    1.0000 </r>
       <r>   -1.4538    1.0000 </r>
       <r>   -1.4420    1.0000 </r>
       <r>   -1.4060    1.0000 </r>
       <r>   -1.4060    1.0000 </r>
       <r>   -1.3757    1.0000 </r>
       <r>   -1.3575    1.0000 </r>
       <r>   -1.3434    1.0000 </r>
       <r>   -1.3202    1.0000 </r>
       <r>   -1.3189    1.0000 </r>
       <r>   -1.2940    1.0000 </r>
       <r>   -1.2832    1.0000 </r>
       <r>   -1.2487    1.0000 </r>
       <r>   -1.2350    1.0000 </r>
       <r>   -1.1935    1.0000 </r>
       <r>   -1.1555    1.0000 </r>
       <r>   -1.1357    1.0000 </r>
       <r>   -1.1260    1.0000 </r>
       <r>   -1.0557    1.0000 </r>
       <r>   -1.0179    1.0000 </r>
       <r>   -0.9338    1.0000 </r>
       <r>   -0.8354    1.0000 </r>
       <r>   -0.7910    1.0000 </r>
       <r>   -0.7701    1.0000 </r>
       <r>   -0.3727    1.0000 </r>
       <r>   -0.3282    1.0000 </r>
       <r>   -0.2703    1.0000 </r>
       <r>    0.2523    1.0000 </r>
       <r>    2.5680    0.0000 </r>
       <r>    2.6119    0.0000 </r>
       <r>    2.7104    0.0000 </r>
       <r>    2.8822    0.0000 </r>
       <r>    2.9452    0.0000 </r>
       <r>    3.0037    0.0000 </r>
       <r>    3.0129    0.0000 </r>
       <r>    3.0469    0.0000 </r>
       <r>    3.0905    0.0000 </r>
       <r>    3.3137    0.0000 </r>
       <r>    3.3992    0.0000 </r>
       <r>    3.4427    0.0000 </r>
       <r>    4.5809    0.0000 </r>
       <r>    4.7565    0.0000 </r>
       <r>    5.2912    0.0000 </r>
       <r>    5.4738    0.0000 </r>
       <r>    5.4837    0.0000 </r>
       <r>    5.5953    0.0000 </r>
       <r>    5.6689    0.0000 </r>
       <r>    5.6774    0.0000 </r>
       <r>    5.7599    0.0000 </r>
       <r>    5.8764    0.0000 </r>
       <r>    5.9240    0.0000 </r>
       <r>    6.0063    0.0000 </r>
       <r>    6.0515    0.0000 </r>
       <r>    6.0596    0.0000 </r>
       <r>    6.1472    0.0000 </r>
       <r>    6.1620    0.0000 </r>
       <r>    6.1932    0.0000 </r>
       <r>    6.2394    0.0000 </r>
       <r>    6.2803    0.0000 </r>
       <r>    6.2967    0.0000 </r>
       <r>    6.4109    0.0000 </r>
       <r>    6.4585    0.0000 </r>
       <r>    6.5238    0.0000 </r>
       <r>    6.6085    0.0000 </r>
      </set>
      <set comment="kpoint 2">
       <r>  -21.4145    1.0000 </r>
       <r>  -20.9845    1.0000 </r>
       <r>  -20.9556    1.0000 </r>
       <r>  -20.9495    1.0000 </r>
       <r>  -20.9434    1.0000 </r>
       <r>  -20.9169    1.0000 </r>
       <r>  -20.8210    1.0000 </r>
       <r>  -16.8076    1.0000 </r>
       <r>  -16.7802    1.0000 </r>
       <r>  -16.7700    1.0000 </r>
       <r>  -16.7391    1.0000 </r>
       <r>  -16.7343    1.0000 </r>
       <r>  -16.6996    1.0000 </r>
       <r>  -16.6972    1.0000 </r>
       <r>  -16.6786    1.0000 </r>
       <r>  -16.6698    1.0000 </r>
       <r>  -16.6674    1.0000 </r>
       <r>  -16.6492    1.0000 </r>
       <r>  -16.6483    1.0000 </r>
       <r>  -16.6342    1.0000 </r>
       <r>  -16.6338    1.0000 </r>
       <r>  -16.6147    1.0000 </r>
       <r>  -16.6133    1.0000 </r>
       <r>  -16.6009    1.0000 </r>
       <r>  -16.6002    1.0000 </r>
       <r>  -16.5985    1.0000 </r>
       <r>  -16.5854    1.0000 </r>
       <r>  -16.5854    1.0000 </r>
       <r>  -16.5818    1.0000 </r>
       <r>  -16.5811    1.0000 </r>
       <r>  -16.5452    1.0000 </r>
       <r>  -16.5316    1.0000 </r>
       <r>  -16.5068    1.0000 </r>
       <r>  -16.5049    1.0000 </r>
       <r>  -16.4758    1.0000 </r>
       <r>  -16.4691    1.0000 </r>
       <r>  -16.4676    1.0000 </r>
       <r>  -16.4640    1.0000 </r>
       <r>  -16.4637    1.0000 </r>
       <r>  -16.4554    1.0000 </r>
       <r>  -16.4544    1.0000 </r>
       <r>  -16.4116    1.0000 </r>
       <r>  -16.4114    1.0000 </r>
       <r>  -16.4009    1.0000 </r>
       <r>  -16.3983    1.0000 </r>
       <r>  -16.3944    1.0000 </r>
       <r>  -16.3935    1.0000 </r>
       <r>  -14.6357    1.0000 </r>
       <r>  -14.4510    1.0000 </r>
       <r>  -14.4233    1.0000 </r>
       <r>  -14.4096    1.0000 </r>
       <r>  -14.3936    1.0000 </r>
       <r>  -14.3721    1.0000 </r>
       <r>  -14.3589    1.0000 </r>
       <r>  -14.2954    1.0000 </r>
       <r>  -14.2283    1.0000 </r>
       <r>  -14.1820    1.0000 </r>
       <r>  -14.1201    1.0000 </r>
       <r>  -14.1088    1.0000 </r>
       <r>  -14.0998    1.0000 </r>
       <r>  -14.0734    1.0000 </r>
       <r>  -14.0634    1.0000 </r>
       <r>  -14.0604    1.0000 </r>
       <r>  -14.0412    1.0000 </r>
       <r>  -13.9959    1.0000 </r>
       <r>  -13.9573    1.0000 </r>
       <r>  -13.9475    1.0000 </r>
       <r>  -13.9438    1.0000 </r>
       <r>  -13.9073    1.0000 </r>
       <r>  -13.8512    1.0000 </r>
       <r>  -13.7254    1.0000 </r>
       <r>   -8.3084    1.0000 </r>
       <r>   -8.0566    1.0000 </r>
       <r>   -7.9688    1.0000 </r>
       <r>   -7.9276    1.0000 </r>
       <r>   -7.8444    1.0000 </r>
       <r>   -7.7110    1.0000 </r>
       <r>   -7.6837    1.0000 </r>
       <r>   -7.5602    1.0000 </r>
       <r>   -7.5504    1.0000 </r>
       <r>   -7.4128    1.0000 </r>
       <r>   -7.3920    1.0000 </r>
       <r>   -7.3766    1.0000 </r>
       <r>   -7.3747    1.0000 </r>
       <r>   -7.3617    1.0000 </r>
       <r>   -7.3613    1.0000 </r>
       <r>   -7.3546    1.0000 </r>
       <r>   -7.3536    1.0000 </r>
       <r>   -7.3429    1.0000 </r>
       <r>   -7.3367    1.0000 </r>
       <r>   -7.3360    1.0000 </r>
       <r>   -7.3269    1.0000 </r>
       <r>   -7.3153    1.0000 </r>
       <r>   -7.3150    1.0000 </r>
       <r>   -7.2962    1.0000 </r>
       <r>   -7.2442    1.0000 </r>
       <r>   -7.2328    1.0000 </r>
       <r>   -7.2272    1.0000 </r>
       <r>   -7.1576    1.0000 </r>
       <r>   -6.9585    1.0000 </r>
       <r>   -3.6274    1.0000 </r>
       <r>   -3.6198    1.0000 </r>
       <r>   -3.5660    1.0000 </r>
       <r>   -3.4112    1.0000 </r>
       <r>   -3.3354    1.0000 </r>
       <r>   -3.3112    1.0000 </r>
       <r>   -3.2805    1.0000 </r>
       <r>   -3.0786    1.0000 </r>
       <r>   -2.7732    1.0000 </r>
       <r>   -2.6845    1.0000 </r>
       <r>   -2.6656    1.0000 </r>
       <r>   -2.6103    1.0000 </r>
       <r>   -2.5670    1.0000 </r>
       <r>   -2.5352    1.0000 </r>
       <r>   -2.4625    1.0000 </r>
       <r>   -2.4587    1.0000 </r>
       <r>   -2.4214    1.0000 </r>
       <r>   -2.2805    1.0000 </r>
       <r>   -2.2336    1.0000 </r>
       <r>   -2.1874    1.0000 </r>
       <r>   -2.1335    1.0000 </r>
       <r>   -2.0588    1.0000 </r>
       <r>   -2.0559    1.0000 </r>
       <r>   -2.0171    1.0000 </r>
       <r>   -1.9508    1.0000 </r>
       <r>   -1.9290    1.0000 </r>
       <r>   -1.9230    1.0000 </r>
       <r>   -1.8228    1.0000 </r>
       <r>   -1.7754    1.0000 </r>
       <r>   -1.7661    1.0000 </r>
       <r>   -1.7197    1.0000 </r>
       <r>   -1.7055    1.0000 </r>
       <r>   -1.7039    1.0000 </r>
       <r>   -1.6614    1.0000 </r>
       <r>   -1.6580    1.0000 </r>
       <r>   -1.6127    1.0000 </r>
       <r>   -1.5974    1.0000 </r>
       <r>   -1.5794    1.0000 </r>
       <r>   -1.5276    1.0000 </r>
       <r>   -1.4949    1.0000 </r>
       <r>   -1.4857    1.0000 </r>
       <r>   -1.4822    1.0000 </r>
       <r>   -1.4612    1.0000 </r>
       <r>   -1.4382    1.0000 </r>
       <r>   -1.4345    1.0000 </r>
       <r>   -1.4102    1.0000 </r>
       <r>   -1.3779    1.0000 </r>
       <r>   -1.3748    1.0000 </r>
       <r>   -1.3619    1.0000 </r>
       <r>   -1.3596    1.0000 </r>
       <r>   -1.3365    1.0000 </r>
       <r>   -1.3312    1.0000 </r>
       <r>   -1.3145    1.0000 </r>
       <r>   -1.2912    1.0000 </r>
       <r>   -1.2792    1.0000 </r>
       <r>   -1.2695    1.0000 </r>
       <r>   -1.2597    1.0000 </r>
       <r>   -1.2549    1.0000 </r>
       <r>   -1.2296    1.0000 </r>
       <r>   -1.1751    1.0000 </r>
       <r>   -1.1678    1.0000 </r>
       <r>   -1.1616    1.0000 </r>
       <r>   -1.0914    1.0000 </r>
       <r>   -1.0621    1.0000 </r>
       <r>   -1.0289    1.0000 </r>
       <r>   -0.8865    1.0000 </r>
       <r>   -0.7686    1.0000 </r>
       <r>   -0.7543    1.0000 </r>
       <r>   -0.6088    1.0000 </r>
       <r>   -0.5382    1.0000 </r>
       <r>   -0.3419    1.0000 </r>
       <r>   -0.0486    1.0000 </r>
       <r>    2.6962    0.0000 </r>
       <r>    2.7058    0.0000 </r>
       <r>    2.9078    0.0000 </r>
       <r>    2.9412    0.0000 </r>
       <r>    2.9811    0.0000 </r>
       <r>    3.0425    0.0000 </r>
       <r>    3.1928    0.0000 </r>
       <r>    3.3306    0.0000 </r>
       <r>    3.9852    0.0000 </r>
       <r>    4.0785    0.0000 </r>
       <r>    4.2318    0.0000 </r>
       <r>    4.3219    0.0000 </r>
       <r>    4.3969    0.0000 </r>
       <r>    4.4928    0.0000 </r>
       <r>    4.6129    0.0000 </r>
       <r>    4.6882    0.0000 </r>
       <r>    4.7313    0.0000 </r>
       <r>    5.2889    0.0000 </r>
       <r>    5.4968    0.0000 </r>
       <r>    5.5360    0.0000 </r>
       <r>    5.6014    0.0000 </r>
       <r>    5.6204    0.0000 </r>
       <r>    5.8243    0.0000 </r>
       <r>    5.8942    0.0000 </r>
       <r>    5.9327    0.0000 </r>
       <r>    6.0102    0.0000 </r>
       <r>    6.0764    0.0000 </r>
       <r>    6.1327    0.0000 </r>
       <r>    6.1799    0.0000 </r>
       <r>    6.1962    0.0000 </r>
       <r>    6.2780    0.0000 </r>
       <r>    6.3064    0.0000 </r>
       <r>    6.4173    0.0000 </r>
       <r>    6.4683    0.0000 </r>
       <r>    6.5037    0.0000 </r>
       <r>    6.5240    0.0000 </r>
      </set>
      <set comment="kpoint 3">
       <r>  -21.4145    1.0000 </r>
       <r>  -20.9845    1.0000 </r>
       <r>  -20.9556    1.0000 </r>
       <r>  -20.9495    1.0000 </r>
       <r>  -20.9433    1.0000 </r>
       <r>  -20.9169    1.0000 </r>
       <r>  -20.8210    1.0000 </r>
       <r>  -16.7930    1.0000 </r>
       <r>  -16.7861    1.0000 </r>
       <r>  -16.7634    1.0000 </r>
       <r>  -16.7531    1.0000 </r>
       <r>  -16.7199    1.0000 </r>
       <r>  -16.7109    1.0000 </r>
       <r>  -16.6989    1.0000 </r>
       <r>  -16.6969    1.0000 </r>
       <r>  -16.6688    1.0000 </r>
       <r>  -16.6680    1.0000 </r>
       <r>  -16.6488    1.0000 </r>
       <r>  -16.6487    1.0000 </r>
       <r>  -16.6340    1.0000 </r>
       <r>  -16.6339    1.0000 </r>
       <r>  -16.6141    1.0000 </r>
       <r>  -16.6139    1.0000 </r>
       <r>  -16.6005    1.0000 </r>
       <r>  -16.6004    1.0000 </r>
       <r>  -16.5853    1.0000 </r>
       <r>  -16.5841    1.0000 </r>
       <r>  -16.5815    1.0000 </r>
       <r>  -16.5814    1.0000 </r>
       <r>  -16.5718    1.0000 </r>
       <r>  -16.5639    1.0000 </r>
       <r>  -16.5072    1.0000 </r>
       <r>  -16.5047    1.0000 </r>
       <r>  -16.5022    1.0000 </r>
       <r>  -16.4996    1.0000 </r>
       <r>  -16.4686    1.0000 </r>
       <r>  -16.4682    1.0000 </r>
       <r>  -16.4639    1.0000 </r>
       <r>  -16.4638    1.0000 </r>
       <r>  -16.4550    1.0000 </r>
       <r>  -16.4547    1.0000 </r>
       <r>  -16.4115    1.0000 </r>
       <r>  -16.4115    1.0000 </r>
       <r>  -16.4002    1.0000 </r>
       <r>  -16.3987    1.0000 </r>
       <r>  -16.3940    1.0000 </r>
       <r>  -16.3939    1.0000 </r>
       <r>  -14.6214    1.0000 </r>
       <r>  -14.5335    1.0000 </r>
       <r>  -14.4270    1.0000 </r>
       <r>  -14.4105    1.0000 </r>
       <r>  -14.3860    1.0000 </r>
       <r>  -14.3483    1.0000 </r>
       <r>  -14.2830    1.0000 </r>
       <r>  -14.2522    1.0000 </r>
       <r>  -14.1821    1.0000 </r>
       <r>  -14.1594    1.0000 </r>
       <r>  -14.1552    1.0000 </r>
       <r>  -14.1429    1.0000 </r>
       <r>  -14.1134    1.0000 </r>
       <r>  -14.1098    1.0000 </r>
       <r>  -14.0974    1.0000 </r>
       <r>  -14.0729    1.0000 </r>
       <r>  -14.0692    1.0000 </r>
       <r>  -14.0677    1.0000 </r>
       <r>  -13.9488    1.0000 </r>
       <r>  -13.9189    1.0000 </r>
       <r>  -13.8627    1.0000 </r>
       <r>  -13.8619    1.0000 </r>
       <r>  -13.8571    1.0000 </r>
       <r>  -13.7635    1.0000 </r>
       <r>   -8.2555    1.0000 </r>
       <r>   -8.1682    1.0000 </r>
       <r>   -7.9194    1.0000 </r>
       <r>   -7.8573    1.0000 </r>
       <r>   -7.8403    1.0000 </r>
       <r>   -7.6751    1.0000 </r>
       <r>   -7.6645    1.0000 </r>
       <r>   -7.6398    1.0000 </r>
       <r>   -7.6127    1.0000 </r>
       <r>   -7.4128    1.0000 </r>
       <r>   -7.3940    1.0000 </r>
       <r>   -7.3806    1.0000 </r>
       <r>   -7.3719    1.0000 </r>
       <r>   -7.3650    1.0000 </r>
       <r>   -7.3588    1.0000 </r>
       <r>   -7.3537    1.0000 </r>
       <r>   -7.3493    1.0000 </r>
       <r>   -7.3442    1.0000 </r>
       <r>   -7.3417    1.0000 </r>
       <r>   -7.3331    1.0000 </r>
       <r>   -7.3301    1.0000 </r>
       <r>   -7.3207    1.0000 </r>
       <r>   -7.3079    1.0000 </r>
       <r>   -7.3011    1.0000 </r>
       <r>   -7.2354    1.0000 </r>
       <r>   -7.2314    1.0000 </r>
       <r>   -7.2280    1.0000 </r>
       <r>   -7.0743    1.0000 </r>
       <r>   -7.0541    1.0000 </r>
       <r>   -3.6552    1.0000 </r>
       <r>   -3.5479    1.0000 </r>
       <r>   -3.3751    1.0000 </r>
       <r>   -3.3661    1.0000 </r>
       <r>   -3.3343    1.0000 </r>
       <r>   -3.2628    1.0000 </r>
       <r>   -3.2341    1.0000 </r>
       <r>   -3.2066    1.0000 </r>
       <r>   -2.9241    1.0000 </r>
       <r>   -2.7154    1.0000 </r>
       <r>   -2.7077    1.0000 </r>
       <r>   -2.6777    1.0000 </r>
       <r>   -2.5167    1.0000 </r>
       <r>   -2.4977    1.0000 </r>
       <r>   -2.3753    1.0000 </r>
       <r>   -2.3538    1.0000 </r>
       <r>   -2.3138    1.0000 </r>
       <r>   -2.2858    1.0000 </r>
       <r>   -2.2604    1.0000 </r>
       <r>   -2.2485    1.0000 </r>
       <r>   -2.2291    1.0000 </r>
       <r>   -2.0381    1.0000 </r>
       <r>   -1.9957    1.0000 </r>
       <r>   -1.9771    1.0000 </r>
       <r>   -1.9650    1.0000 </r>
       <r>   -1.9329    1.0000 </r>
       <r>   -1.9030    1.0000 </r>
       <r>   -1.8989    1.0000 </r>
       <r>   -1.8431    1.0000 </r>
       <r>   -1.8196    1.0000 </r>
       <r>   -1.7374    1.0000 </r>
       <r>   -1.7052    1.0000 </r>
       <r>   -1.6775    1.0000 </r>
       <r>   -1.6611    1.0000 </r>
       <r>   -1.6075    1.0000 </r>
       <r>   -1.5861    1.0000 </r>
       <r>   -1.5740    1.0000 </r>
       <r>   -1.5603    1.0000 </r>
       <r>   -1.5560    1.0000 </r>
       <r>   -1.5456    1.0000 </r>
       <r>   -1.5372    1.0000 </r>
       <r>   -1.5121    1.0000 </r>
       <r>   -1.4929    1.0000 </r>
       <r>   -1.4612    1.0000 </r>
       <r>   -1.4418    1.0000 </r>
       <r>   -1.4332    1.0000 </r>
       <r>   -1.4237    1.0000 </r>
       <r>   -1.4124    1.0000 </r>
       <r>   -1.3879    1.0000 </r>
       <r>   -1.3764    1.0000 </r>
       <r>   -1.3561    1.0000 </r>
       <r>   -1.3522    1.0000 </r>
       <r>   -1.3316    1.0000 </r>
       <r>   -1.2979    1.0000 </r>
       <r>   -1.2732    1.0000 </r>
       <r>   -1.2540    1.0000 </r>
       <r>   -1.2165    1.0000 </r>
       <r>   -1.2085    1.0000 </r>
       <r>   -1.1997    1.0000 </r>
       <r>   -1.1580    1.0000 </r>
       <r>   -1.1525    1.0000 </r>
       <r>   -1.1033    1.0000 </r>
       <r>   -1.0969    1.0000 </r>
       <r>   -1.0368    1.0000 </r>
       <r>   -0.9445    1.0000 </r>
       <r>   -0.9341    1.0000 </r>
       <r>   -0.7530    1.0000 </r>
       <r>   -0.7133    1.0000 </r>
       <r>   -0.7052    1.0000 </r>
       <r>   -0.6944    1.0000 </r>
       <r>   -0.2518    1.0000 </r>
       <r>   -0.1137    1.0000 </r>
       <r>    2.6917    0.0000 </r>
       <r>    2.7531    0.0000 </r>
       <r>    2.8621    0.0000 </r>
       <r>    2.9051    0.0000 </r>
       <r>    3.1579    0.0000 </r>
       <r>    3.1885    0.0000 </r>
       <r>    3.1991    0.0000 </r>
       <r>    3.2020    0.0000 </r>
       <r>    3.6873    0.0000 </r>
       <r>    4.2306    0.0000 </r>
       <r>    4.2930    0.0000 </r>
       <r>    4.3866    0.0000 </r>
       <r>    4.4413    0.0000 </r>
       <r>    4.5007    0.0000 </r>
       <r>    4.6299    0.0000 </r>
       <r>    4.7589    0.0000 </r>
       <r>    5.2578    0.0000 </r>
       <r>    5.2699    0.0000 </r>
       <r>    5.3922    0.0000 </r>
       <r>    5.4569    0.0000 </r>
       <r>    5.4832    0.0000 </r>
       <r>    5.5260    0.0000 </r>
       <r>    5.7998    0.0000 </r>
       <r>    5.8874    0.0000 </r>
       <r>    5.9272    0.0000 </r>
       <r>    5.9962    0.0000 </r>
       <r>    6.0454    0.0000 </r>
       <r>    6.1288    0.0000 </r>
       <r>    6.1728    0.0000 </r>
       <r>    6.2374    0.0000 </r>
       <r>    6.2860    0.0000 </r>
       <r>    6.3165    0.0000 </r>
       <r>    6.5168    0.0000 </r>
       <r>    6.5223    0.0000 </r>
       <r>    6.5756    0.0000 </r>
       <r>    6.6174    0.0000 </r>
      </set>
      <set comment="kpoint 4">
       <r>  -21.4145    1.0000 </r>
       <r>  -20.9845    1.0000 </r>
       <r>  -20.9556    1.0000 </r>
       <r>  -20.9495    1.0000 </r>
       <r>  -20.9434    1.0000 </r>
       <r>  -20.9169    1.0000 </r>
       <r>  -20.8210    1.0000 </r>
       <r>  -16.7930    1.0000 </r>
       <r>  -16.7859    1.0000 </r>
       <r>  -16.7605    1.0000 </r>
       <r>  -16.7501    1.0000 </r>
       <r>  -16.7193    1.0000 </r>
       <r>  -16.7105    1.0000 </r>
       <r>  -16.6957    1.0000 </r>
       <r>  -16.6935    1.0000 </r>
       <r>  -16.6688    1.0000 </r>
       <r>  -16.6680    1.0000 </r>
       <r>  -16.6488    1.0000 </r>
       <r>  -16.6487    1.0000 </r>
       <r>  -16.6341    1.0000 </r>
       <r>  -16.6340    1.0000 </r>
       <r>  -16.6142    1.0000 </r>
       <r>  -16.6138    1.0000 </r>
       <r>  -16.6006    1.0000 </r>
       <r>  -16.6005    1.0000 </r>
       <r>  -16.5868    1.0000 </r>
       <r>  -16.5862    1.0000 </r>
       <r>  -16.5815    1.0000 </r>
       <r>  -16.5814    1.0000 </r>
       <r>  -16.5747    1.0000 </r>
       <r>  -16.5661    1.0000 </r>
       <r>  -16.5107    1.0000 </r>
       <r>  -16.5084    1.0000 </r>
       <r>  -16.5027    1.0000 </r>
       <r>  -16.4997    1.0000 </r>
       <r>  -16.4687    1.0000 </r>
       <r>  -16.4683    1.0000 </r>
       <r>  -16.4640    1.0000 </r>
       <r>  -16.4638    1.0000 </r>
       <r>  -16.4550    1.0000 </r>
       <r>  -16.4547    1.0000 </r>
       <r>  -16.4116    1.0000 </r>
       <r>  -16.4115    1.0000 </r>
       <r>  -16.4002    1.0000 </r>
       <r>  -16.3987    1.0000 </r>
       <r>  -16.3941    1.0000 </r>
       <r>  -16.3940    1.0000 </r>
       <r>  -14.6192    1.0000 </r>
       <r>  -14.5274    1.0000 </r>
       <r>  -14.4269    1.0000 </r>
       <r>  -14.4100    1.0000 </r>
       <r>  -14.3848    1.0000 </r>
       <r>  -14.3489    1.0000 </r>
       <r>  -14.3222    1.0000 </r>
       <r>  -14.3053    1.0000 </r>
       <r>  -14.1872    1.0000 </r>
       <r>  -14.1687    1.0000 </r>
       <r>  -14.1391    1.0000 </r>
       <r>  -14.1296    1.0000 </r>
       <r>  -14.1156    1.0000 </r>
       <r>  -14.1079    1.0000 </r>
       <r>  -14.0616    1.0000 </r>
       <r>  -14.0596    1.0000 </r>
       <r>  -13.9895    1.0000 </r>
       <r>  -13.9863    1.0000 </r>
       <r>  -13.9748    1.0000 </r>
       <r>  -13.9494    1.0000 </r>
       <r>  -13.9065    1.0000 </r>
       <r>  -13.8922    1.0000 </r>
       <r>  -13.8627    1.0000 </r>
       <r>  -13.7659    1.0000 </r>
       <r>   -8.1666    1.0000 </r>
       <r>   -8.0251    1.0000 </r>
       <r>   -7.9127    1.0000 </r>
       <r>   -7.8481    1.0000 </r>
       <r>   -7.8454    1.0000 </r>
       <r>   -7.8156    1.0000 </r>
       <r>   -7.8008    1.0000 </r>
       <r>   -7.5536    1.0000 </r>
       <r>   -7.4530    1.0000 </r>
       <r>   -7.4104    1.0000 </r>
       <r>   -7.3942    1.0000 </r>
       <r>   -7.3888    1.0000 </r>
       <r>   -7.3727    1.0000 </r>
       <r>   -7.3723    1.0000 </r>
       <r>   -7.3606    1.0000 </r>
       <r>   -7.3584    1.0000 </r>
       <r>   -7.3574    1.0000 </r>
       <r>   -7.3503    1.0000 </r>
       <r>   -7.3430    1.0000 </r>
       <r>   -7.3362    1.0000 </r>
       <r>   -7.3301    1.0000 </r>
       <r>   -7.3222    1.0000 </r>
       <r>   -7.3164    1.0000 </r>
       <r>   -7.3023    1.0000 </r>
       <r>   -7.2728    1.0000 </r>
       <r>   -7.2391    1.0000 </r>
       <r>   -7.2322    1.0000 </r>
       <r>   -7.2286    1.0000 </r>
       <r>   -7.2124    1.0000 </r>
       <r>   -3.6500    1.0000 </r>
       <r>   -3.5398    1.0000 </r>
       <r>   -3.3266    1.0000 </r>
       <r>   -3.2685    1.0000 </r>
       <r>   -3.0075    1.0000 </r>
       <r>   -2.8644    1.0000 </r>
       <r>   -2.8008    1.0000 </r>
       <r>   -2.7935    1.0000 </r>
       <r>   -2.7340    1.0000 </r>
       <r>   -2.7228    1.0000 </r>
       <r>   -2.6448    1.0000 </r>
       <r>   -2.5832    1.0000 </r>
       <r>   -2.5465    1.0000 </r>
       <r>   -2.5435    1.0000 </r>
       <r>   -2.4812    1.0000 </r>
       <r>   -2.4414    1.0000 </r>
       <r>   -2.4258    1.0000 </r>
       <r>   -2.3752    1.0000 </r>
       <r>   -2.3225    1.0000 </r>
       <r>   -2.3186    1.0000 </r>
       <r>   -2.2920    1.0000 </r>
       <r>   -2.2383    1.0000 </r>
       <r>   -2.1957    1.0000 </r>
       <r>   -2.1136    1.0000 </r>
       <r>   -1.9715    1.0000 </r>
       <r>   -1.9650    1.0000 </r>
       <r>   -1.9264    1.0000 </r>
       <r>   -1.8875    1.0000 </r>
       <r>   -1.8506    1.0000 </r>
       <r>   -1.8400    1.0000 </r>
       <r>   -1.7973    1.0000 </r>
       <r>   -1.7869    1.0000 </r>
       <r>   -1.7467    1.0000 </r>
       <r>   -1.7406    1.0000 </r>
       <r>   -1.6969    1.0000 </r>
       <r>   -1.6851    1.0000 </r>
       <r>   -1.6581    1.0000 </r>
       <r>   -1.6280    1.0000 </r>
       <r>   -1.6132    1.0000 </r>
       <r>   -1.5816    1.0000 </r>
       <r>   -1.5707    1.0000 </r>
       <r>   -1.5343    1.0000 </r>
       <r>   -1.5140    1.0000 </r>
       <r>   -1.4902    1.0000 </r>
       <r>   -1.4098    1.0000 </r>
       <r>   -1.4028    1.0000 </r>
       <r>   -1.3772    1.0000 </r>
       <r>   -1.3752    1.0000 </r>
       <r>   -1.3682    1.0000 </r>
       <r>   -1.3573    1.0000 </r>
       <r>   -1.3405    1.0000 </r>
       <r>   -1.3164    1.0000 </r>
       <r>   -1.2919    1.0000 </r>
       <r>   -1.2616    1.0000 </r>
       <r>   -1.2466    1.0000 </r>
       <r>   -1.2347    1.0000 </r>
       <r>   -1.2147    1.0000 </r>
       <r>   -1.1888    1.0000 </r>
       <r>   -1.1870    1.0000 </r>
       <r>   -1.1855    1.0000 </r>
       <r>   -1.1618    1.0000 </r>
       <r>   -1.1057    1.0000 </r>
       <r>   -1.0959    1.0000 </r>
       <r>   -1.0455    1.0000 </r>
       <r>   -1.0173    1.0000 </r>
       <r>   -0.9808    1.0000 </r>
       <r>   -0.9355    1.0000 </r>
       <r>   -0.8759    1.0000 </r>
       <r>   -0.7563    1.0000 </r>
       <r>   -0.6422    1.0000 </r>
       <r>   -0.5425    1.0000 </r>
       <r>   -0.4502    1.0000 </r>
       <r>    2.7951    0.0000 </r>
       <r>    2.8796    0.0000 </r>
       <r>    3.0951    0.0000 </r>
       <r>    3.1106    0.0000 </r>
       <r>    3.6140    0.0000 </r>
       <r>    4.0774    0.0000 </r>
       <r>    4.1228    0.0000 </r>
       <r>    4.1580    0.0000 </r>
       <r>    4.1852    0.0000 </r>
       <r>    4.2734    0.0000 </r>
       <r>    4.3132    0.0000 </r>
       <r>    4.3584    0.0000 </r>
       <r>    4.3920    0.0000 </r>
       <r>    4.4049    0.0000 </r>
       <r>    4.4904    0.0000 </r>
       <r>    4.5335    0.0000 </r>
       <r>    4.5996    0.0000 </r>
       <r>    4.6108    0.0000 </r>
       <r>    4.7216    0.0000 </r>
       <r>    4.7454    0.0000 </r>
       <r>    5.3256    0.0000 </r>
       <r>    5.5028    0.0000 </r>
       <r>    5.6005    0.0000 </r>
       <r>    5.7980    0.0000 </r>
       <r>    5.8632    0.0000 </r>
       <r>    5.9043    0.0000 </r>
       <r>    6.0272    0.0000 </r>
       <r>    6.0866    0.0000 </r>
       <r>    6.1396    0.0000 </r>
       <r>    6.1543    0.0000 </r>
       <r>    6.2112    0.0000 </r>
       <r>    6.3110    0.0000 </r>
       <r>    6.3190    0.0000 </r>
       <r>    6.4035    0.0000 </r>
       <r>    6.4550    0.0000 </r>
       <r>    6.5031    0.0000 </r>
      </set>
      <set comment="kpoint 5">
       <r>  -21.4145    1.0000 </r>
       <r>  -20.9845    1.0000 </r>
       <r>  -20.9556    1.0000 </r>
       <r>  -20.9495    1.0000 </r>
       <r>  -20.9434    1.0000 </r>
       <r>  -20.9169    1.0000 </r>
       <r>  -20.8210    1.0000 </r>
       <r>  -16.8012    1.0000 </r>
       <r>  -16.7648    1.0000 </r>
       <r>  -16.7608    1.0000 </r>
       <r>  -16.7516    1.0000 </r>
       <r>  -16.7369    1.0000 </r>
       <r>  -16.7186    1.0000 </r>
       <r>  -16.7081    1.0000 </r>
       <r>  -16.6814    1.0000 </r>
       <r>  -16.6694    1.0000 </r>
       <r>  -16.6669    1.0000 </r>
       <r>  -16.6490    1.0000 </r>
       <r>  -16.6482    1.0000 </r>
       <r>  -16.6341    1.0000 </r>
       <r>  -16.6338    1.0000 </r>
       <r>  -16.6148    1.0000 </r>
       <r>  -16.6132    1.0000 </r>
       <r>  -16.6007    1.0000 </r>
       <r>  -16.6002    1.0000 </r>
       <r>  -16.5945    1.0000 </r>
       <r>  -16.5818    1.0000 </r>
       <r>  -16.5811    1.0000 </r>
       <r>  -16.5737    1.0000 </r>
       <r>  -16.5729    1.0000 </r>
       <r>  -16.5392    1.0000 </r>
       <r>  -16.5339    1.0000 </r>
       <r>  -16.5137    1.0000 </r>
       <r>  -16.5136    1.0000 </r>
       <r>  -16.4777    1.0000 </r>
       <r>  -16.4691    1.0000 </r>
       <r>  -16.4678    1.0000 </r>
       <r>  -16.4641    1.0000 </r>
       <r>  -16.4639    1.0000 </r>
       <r>  -16.4552    1.0000 </r>
       <r>  -16.4540    1.0000 </r>
       <r>  -16.4116    1.0000 </r>
       <r>  -16.4114    1.0000 </r>
       <r>  -16.4010    1.0000 </r>
       <r>  -16.3982    1.0000 </r>
       <r>  -16.3944    1.0000 </r>
       <r>  -16.3936    1.0000 </r>
       <r>  -14.6087    1.0000 </r>
       <r>  -14.5444    1.0000 </r>
       <r>  -14.4505    1.0000 </r>
       <r>  -14.4130    1.0000 </r>
       <r>  -14.3875    1.0000 </r>
       <r>  -14.3115    1.0000 </r>
       <r>  -14.2819    1.0000 </r>
       <r>  -14.2537    1.0000 </r>
       <r>  -14.1939    1.0000 </r>
       <r>  -14.1796    1.0000 </r>
       <r>  -14.1570    1.0000 </r>
       <r>  -14.1405    1.0000 </r>
       <r>  -14.1327    1.0000 </r>
       <r>  -14.1245    1.0000 </r>
       <r>  -14.0713    1.0000 </r>
       <r>  -14.0679    1.0000 </r>
       <r>  -14.0614    1.0000 </r>
       <r>  -13.9679    1.0000 </r>
       <r>  -13.9588    1.0000 </r>
       <r>  -13.9377    1.0000 </r>
       <r>  -13.9206    1.0000 </r>
       <r>  -13.8945    1.0000 </r>
       <r>  -13.8538    1.0000 </r>
       <r>  -13.7310    1.0000 </r>
       <r>   -8.2255    1.0000 </r>
       <r>   -8.1629    1.0000 </r>
       <r>   -7.9420    1.0000 </r>
       <r>   -7.8773    1.0000 </r>
       <r>   -7.8447    1.0000 </r>
       <r>   -7.6916    1.0000 </r>
       <r>   -7.6777    1.0000 </r>
       <r>   -7.6263    1.0000 </r>
       <r>   -7.5941    1.0000 </r>
       <r>   -7.4143    1.0000 </r>
       <r>   -7.3862    1.0000 </r>
       <r>   -7.3811    1.0000 </r>
       <r>   -7.3783    1.0000 </r>
       <r>   -7.3630    1.0000 </r>
       <r>   -7.3568    1.0000 </r>
       <r>   -7.3547    1.0000 </r>
       <r>   -7.3499    1.0000 </r>
       <r>   -7.3466    1.0000 </r>
       <r>   -7.3388    1.0000 </r>
       <r>   -7.3387    1.0000 </r>
       <r>   -7.3268    1.0000 </r>
       <r>   -7.3257    1.0000 </r>
       <r>   -7.3150    1.0000 </r>
       <r>   -7.2952    1.0000 </r>
       <r>   -7.2346    1.0000 </r>
       <r>   -7.2271    1.0000 </r>
       <r>   -7.2263    1.0000 </r>
       <r>   -7.1039    1.0000 </r>
       <r>   -7.0238    1.0000 </r>
       <r>   -3.6089    1.0000 </r>
       <r>   -3.4857    1.0000 </r>
       <r>   -3.3932    1.0000 </r>
       <r>   -3.3381    1.0000 </r>
       <r>   -3.2861    1.0000 </r>
       <r>   -3.2644    1.0000 </r>
       <r>   -3.2146    1.0000 </r>
       <r>   -3.1689    1.0000 </r>
       <r>   -2.8921    1.0000 </r>
       <r>   -2.7865    1.0000 </r>
       <r>   -2.7618    1.0000 </r>
       <r>   -2.6803    1.0000 </r>
       <r>   -2.5993    1.0000 </r>
       <r>   -2.5510    1.0000 </r>
       <r>   -2.4571    1.0000 </r>
       <r>   -2.4310    1.0000 </r>
       <r>   -2.4204    1.0000 </r>
       <r>   -2.3313    1.0000 </r>
       <r>   -2.2789    1.0000 </r>
       <r>   -2.2391    1.0000 </r>
       <r>   -2.1667    1.0000 </r>
       <r>   -2.0545    1.0000 </r>
       <r>   -1.9919    1.0000 </r>
       <r>   -1.9750    1.0000 </r>
       <r>   -1.9605    1.0000 </r>
       <r>   -1.9379    1.0000 </r>
       <r>   -1.8718    1.0000 </r>
       <r>   -1.8642    1.0000 </r>
       <r>   -1.7866    1.0000 </r>
       <r>   -1.7687    1.0000 </r>
       <r>   -1.7420    1.0000 </r>
       <r>   -1.6626    1.0000 </r>
       <r>   -1.6623    1.0000 </r>
       <r>   -1.6325    1.0000 </r>
       <r>   -1.6126    1.0000 </r>
       <r>   -1.6104    1.0000 </r>
       <r>   -1.5976    1.0000 </r>
       <r>   -1.5765    1.0000 </r>
       <r>   -1.5694    1.0000 </r>
       <r>   -1.5246    1.0000 </r>
       <r>   -1.5198    1.0000 </r>
       <r>   -1.4972    1.0000 </r>
       <r>   -1.4749    1.0000 </r>
       <r>   -1.4612    1.0000 </r>
       <r>   -1.4447    1.0000 </r>
       <r>   -1.4334    1.0000 </r>
       <r>   -1.4243    1.0000 </r>
       <r>   -1.4168    1.0000 </r>
       <r>   -1.3853    1.0000 </r>
       <r>   -1.3641    1.0000 </r>
       <r>   -1.3563    1.0000 </r>
       <r>   -1.3462    1.0000 </r>
       <r>   -1.3185    1.0000 </r>
       <r>   -1.2992    1.0000 </r>
       <r>   -1.2780    1.0000 </r>
       <r>   -1.2470    1.0000 </r>
       <r>   -1.2462    1.0000 </r>
       <r>   -1.2400    1.0000 </r>
       <r>   -1.1997    1.0000 </r>
       <r>   -1.1870    1.0000 </r>
       <r>   -1.1727    1.0000 </r>
       <r>   -1.1298    1.0000 </r>
       <r>   -1.0958    1.0000 </r>
       <r>   -1.0256    1.0000 </r>
       <r>   -0.9358    1.0000 </r>
       <r>   -0.8959    1.0000 </r>
       <r>   -0.7420    1.0000 </r>
       <r>   -0.7396    1.0000 </r>
       <r>   -0.6808    1.0000 </r>
       <r>   -0.6031    1.0000 </r>
       <r>   -0.1955    1.0000 </r>
       <r>   -0.0704    1.0000 </r>
       <r>    2.6763    0.0000 </r>
       <r>    2.7483    0.0000 </r>
       <r>    2.7881    0.0000 </r>
       <r>    2.8698    0.0000 </r>
       <r>    3.0934    0.0000 </r>
       <r>    3.1178    0.0000 </r>
       <r>    3.1983    0.0000 </r>
       <r>    3.2648    0.0000 </r>
       <r>    3.7467    0.0000 </r>
       <r>    4.1554    0.0000 </r>
       <r>    4.3145    0.0000 </r>
       <r>    4.3221    0.0000 </r>
       <r>    4.3776    0.0000 </r>
       <r>    4.4548    0.0000 </r>
       <r>    4.6649    0.0000 </r>
       <r>    4.7640    0.0000 </r>
       <r>    5.2729    0.0000 </r>
       <r>    5.3165    0.0000 </r>
       <r>    5.4441    0.0000 </r>
       <r>    5.4712    0.0000 </r>
       <r>    5.4868    0.0000 </r>
       <r>    5.7236    0.0000 </r>
       <r>    5.7275    0.0000 </r>
       <r>    5.8856    0.0000 </r>
       <r>    5.9351    0.0000 </r>
       <r>    5.9806    0.0000 </r>
       <r>    6.0808    0.0000 </r>
       <r>    6.0972    0.0000 </r>
       <r>    6.1830    0.0000 </r>
       <r>    6.2366    0.0000 </r>
       <r>    6.3000    0.0000 </r>
       <r>    6.3207    0.0000 </r>
       <r>    6.3765    0.0000 </r>
       <r>    6.4073    0.0000 </r>
       <r>    6.4827    0.0000 </r>
       <r>    6.5571    0.0000 </r>
      </set>
      <set comment="kpoint 6">
       <r>  -21.4144    1.0000 </r>
       <r>  -20.9844    1.0000 </r>
       <r>  -20.9556    1.0000 </r>
       <r>  -20.9494    1.0000 </r>
       <r>  -20.9433    1.0000 </r>
       <r>  -20.9168    1.0000 </r>
       <r>  -20.8210    1.0000 </r>
       <r>  -16.8009    1.0000 </r>
       <r>  -16.7637    1.0000 </r>
       <r>  -16.7585    1.0000 </r>
       <r>  -16.7505    1.0000 </r>
       <r>  -16.7341    1.0000 </r>
       <r>  -16.7177    1.0000 </r>
       <r>  -16.7051    1.0000 </r>
       <r>  -16.6787    1.0000 </r>
       <r>  -16.6694    1.0000 </r>
       <r>  -16.6669    1.0000 </r>
       <r>  -16.6490    1.0000 </r>
       <r>  -16.6481    1.0000 </r>
       <r>  -16.6341    1.0000 </r>
       <r>  -16.6337    1.0000 </r>
       <r>  -16.6147    1.0000 </r>
       <r>  -16.6132    1.0000 </r>
       <r>  -16.6007    1.0000 </r>
       <r>  -16.6002    1.0000 </r>
       <r>  -16.5956    1.0000 </r>
       <r>  -16.5818    1.0000 </r>
       <r>  -16.5810    1.0000 </r>
       <r>  -16.5765    1.0000 </r>
       <r>  -16.5764    1.0000 </r>
       <r>  -16.5402    1.0000 </r>
       <r>  -16.5344    1.0000 </r>
       <r>  -16.5166    1.0000 </r>
       <r>  -16.5165    1.0000 </r>
       <r>  -16.4789    1.0000 </r>
       <r>  -16.4691    1.0000 </r>
       <r>  -16.4677    1.0000 </r>
       <r>  -16.4640    1.0000 </r>
       <r>  -16.4638    1.0000 </r>
       <r>  -16.4552    1.0000 </r>
       <r>  -16.4541    1.0000 </r>
       <r>  -16.4115    1.0000 </r>
       <r>  -16.4114    1.0000 </r>
       <r>  -16.4009    1.0000 </r>
       <r>  -16.3982    1.0000 </r>
       <r>  -16.3944    1.0000 </r>
       <r>  -16.3935    1.0000 </r>
       <r>  -14.6060    1.0000 </r>
       <r>  -14.5414    1.0000 </r>
       <r>  -14.4502    1.0000 </r>
       <r>  -14.4110    1.0000 </r>
       <r>  -14.3857    1.0000 </r>
       <r>  -14.3336    1.0000 </r>
       <r>  -14.3047    1.0000 </r>
       <r>  -14.2806    1.0000 </r>
       <r>  -14.2150    1.0000 </r>
       <r>  -14.2075    1.0000 </r>
       <r>  -14.1648    1.0000 </r>
       <r>  -14.1353    1.0000 </r>
       <r>  -14.0803    1.0000 </r>
       <r>  -14.0670    1.0000 </r>
       <r>  -14.0535    1.0000 </r>
       <r>  -14.0084    1.0000 </r>
       <r>  -13.9931    1.0000 </r>
       <r>  -13.9810    1.0000 </r>
       <r>  -13.9641    1.0000 </r>
       <r>  -13.9566    1.0000 </r>
       <r>  -13.9506    1.0000 </r>
       <r>  -13.9447    1.0000 </r>
       <r>  -13.8633    1.0000 </r>
       <r>  -13.7416    1.0000 </r>
       <r>   -8.1158    1.0000 </r>
       <r>   -8.0330    1.0000 </r>
       <r>   -7.9300    1.0000 </r>
       <r>   -7.8567    1.0000 </r>
       <r>   -7.8484    1.0000 </r>
       <r>   -7.8444    1.0000 </r>
       <r>   -7.7947    1.0000 </r>
       <r>   -7.5656    1.0000 </r>
       <r>   -7.4558    1.0000 </r>
       <r>   -7.4165    1.0000 </r>
       <r>   -7.4069    1.0000 </r>
       <r>   -7.3821    1.0000 </r>
       <r>   -7.3779    1.0000 </r>
       <r>   -7.3699    1.0000 </r>
       <r>   -7.3608    1.0000 </r>
       <r>   -7.3575    1.0000 </r>
       <r>   -7.3522    1.0000 </r>
       <r>   -7.3494    1.0000 </r>
       <r>   -7.3409    1.0000 </r>
       <r>   -7.3348    1.0000 </r>
       <r>   -7.3339    1.0000 </r>
       <r>   -7.3191    1.0000 </r>
       <r>   -7.3151    1.0000 </r>
       <r>   -7.3083    1.0000 </r>
       <r>   -7.2786    1.0000 </r>
       <r>   -7.2328    1.0000 </r>
       <r>   -7.2282    1.0000 </r>
       <r>   -7.2240    1.0000 </r>
       <r>   -7.1946    1.0000 </r>
       <r>   -3.6069    1.0000 </r>
       <r>   -3.4764    1.0000 </r>
       <r>   -3.2741    1.0000 </r>
       <r>   -3.1924    1.0000 </r>
       <r>   -2.9817    1.0000 </r>
       <r>   -2.9453    1.0000 </r>
       <r>   -2.8641    1.0000 </r>
       <r>   -2.8268    1.0000 </r>
       <r>   -2.7734    1.0000 </r>
       <r>   -2.7501    1.0000 </r>
       <r>   -2.6509    1.0000 </r>
       <r>   -2.6028    1.0000 </r>
       <r>   -2.5720    1.0000 </r>
       <r>   -2.5052    1.0000 </r>
       <r>   -2.4911    1.0000 </r>
       <r>   -2.4549    1.0000 </r>
       <r>   -2.4072    1.0000 </r>
[...]
        <r>  0.0028  0.0038  0.0023 </r>
        <r>  0.0000  0.0000  0.0004 </r>
        <r>  0.0000  0.0018  0.0005 </r>
        <r>  0.0004  0.0011  0.0005 </r>
        <r>  0.0001  0.0036  0.0001 </r>
        <r>  0.0001  0.0021  0.0010 </r>
        <r>  0.0014  0.0031  0.0010 </r>
        <r>  0.0005  0.0015  0.0008 </r>
        <r>  0.0000  0.0000  0.0005 </r>
       </set>
       <set comment="band 199">
        <r>  0.0000  0.0000  0.0002 </r>
        <r>  0.0000  0.0000  0.0032 </r>
        <r>  0.0019  0.0002  0.0202 </r>
        <r>  0.0000  0.0002  0.0032 </r>
        <r>  0.0000  0.0001  0.0006 </r>
        <r>  0.0009  0.0001  0.0024 </r>
        <r>  0.0000  0.0006  0.0000 </r>
        <r>  0.0000  0.0088  0.0008 </r>
        <r>  0.0000  0.0009  0.0007 </r>
        <r>  0.0003  0.0023  0.0001 </r>
        <r>  0.0000  0.0009  0.0007 </r>
        <r>  0.0003  0.0023  0.0001 </r>
        <r>  0.0000  0.0006  0.0000 </r>
        <r>  0.0000  0.0088  0.0008 </r>
        <r>  0.0001  0.0029  0.0061 </r>
        <r>  0.0000  0.0028  0.0006 </r>
        <r>  0.0000  0.0004  0.0002 </r>
        <r>  0.0000  0.0005  0.0004 </r>
        <r>  0.0000  0.0032  0.0008 </r>
        <r>  0.0001  0.0022  0.0067 </r>
        <r>  0.0000  0.0004  0.0003 </r>
        <r>  0.0000  0.0021  0.0000 </r>
        <r>  0.0001  0.0017  0.0005 </r>
        <r>  0.0000  0.0011  0.0007 </r>
        <r>  0.0002  0.0000  0.0003 </r>
        <r>  0.0004  0.0015  0.0007 </r>
        <r>  0.0003  0.0017  0.0008 </r>
        <r>  0.0001  0.0001  0.0001 </r>
        <r>  0.0001  0.0007  0.0002 </r>
        <r>  0.0000  0.0051  0.0016 </r>
        <r>  0.0001  0.0017  0.0005 </r>
        <r>  0.0000  0.0011  0.0007 </r>
        <r>  0.0002  0.0000  0.0003 </r>
        <r>  0.0004  0.0015  0.0007 </r>
        <r>  0.0001  0.0007  0.0002 </r>
        <r>  0.0000  0.0051  0.0016 </r>
        <r>  0.0003  0.0017  0.0008 </r>
        <r>  0.0001  0.0001  0.0001 </r>
        <r>  0.0003  0.0013  0.0905 </r>
       </set>
       <set comment="band 200">
        <r>  0.0080  0.0008  0.0143 </r>
        <r>  0.0030  0.0023  0.0039 </r>
        <r>  0.0000  0.0000  0.0047 </r>
        <r>  0.0078  0.0010  0.0127 </r>
        <r>  0.0038  0.0005  0.0047 </r>
        <r>  0.0000  0.0006  0.0057 </r>
        <r>  0.0000  0.0009  0.0001 </r>
        <r>  0.0001  0.0006  0.0004 </r>
        <r>  0.0004  0.0014  0.0001 </r>
        <r>  0.0000  0.0055  0.0000 </r>
        <r>  0.0004  0.0014  0.0001 </r>
        <r>  0.0000  0.0055  0.0000 </r>
        <r>  0.0000  0.0009  0.0001 </r>
        <r>  0.0001  0.0006  0.0004 </r>
        <r>  0.0000  0.0001  0.0001 </r>
        <r>  0.0000  0.0025  0.0000 </r>
        <r>  0.0012  0.0004  0.0010 </r>
        <r>  0.0038  0.0034  0.0039 </r>
        <r>  0.0000  0.0002  0.0003 </r>
        <r>  0.0000  0.0028  0.0002 </r>
        <r>  0.0031  0.0018  0.0023 </r>
        <r>  0.0012  0.0027  0.0016 </r>
        <r>  0.0000  0.0012  0.0018 </r>
        <r>  0.0000  0.0014  0.0005 </r>
        <r>  0.0002  0.0019  0.0028 </r>
        <r>  0.0001  0.0012  0.0004 </r>
        <r>  0.0028  0.0037  0.0017 </r>
        <r>  0.0004  0.0028  0.0005 </r>
        <r>  0.0001  0.0008  0.0001 </r>
        <r>  0.0008  0.0010  0.0006 </r>
        <r>  0.0000  0.0012  0.0018 </r>
        <r>  0.0000  0.0014  0.0005 </r>
        <r>  0.0002  0.0019  0.0028 </r>
        <r>  0.0001  0.0012  0.0004 </r>
        <r>  0.0001  0.0008  0.0001 </r>
        <r>  0.0008  0.0010  0.0006 </r>
        <r>  0.0028  0.0037  0.0017 </r>
        <r>  0.0004  0.0028  0.0005 </r>
        <r>  0.0000  0.0000  0.0294 </r>
       </set>
       <set comment="band 201">
        <r>  0.0000  0.0001  0.0020 </r>
        <r>  0.0000  0.0000  0.0109 </r>
        <r>  0.0011  0.0006  0.0090 </r>
        <r>  0.0000  0.0000  0.0012 </r>
        <r>  0.0000  0.0009  0.0024 </r>
        <r>  0.0001  0.0003  0.0149 </r>
        <r>  0.0000  0.0090  0.0002 </r>
        <r>  0.0000  0.0057  0.0001 </r>
        <r>  0.0000  0.0056  0.0001 </r>
        <r>  0.0000  0.0065  0.0004 </r>
        <r>  0.0000  0.0056  0.0001 </r>
        <r>  0.0000  0.0065  0.0004 </r>
        <r>  0.0000  0.0089  0.0002 </r>
        <r>  0.0000  0.0056  0.0001 </r>
        <r>  0.0000  0.0002  0.0028 </r>
        <r>  0.0014  0.0004  0.0021 </r>
        <r>  0.0000  0.0029  0.0000 </r>
        <r>  0.0000  0.0000  0.0002 </r>
        <r>  0.0008  0.0069  0.0005 </r>
        <r>  0.0000  0.0013  0.0004 </r>
        <r>  0.0000  0.0007  0.0000 </r>
        <r>  0.0000  0.0055  0.0006 </r>
        <r>  0.0003  0.0050  0.0003 </r>
        <r>  0.0002  0.0018  0.0013 </r>
        <r>  0.0000  0.0017  0.0008 </r>
        <r>  0.0003  0.0037  0.0015 </r>
        <r>  0.0002  0.0007  0.0007 </r>
        <r>  0.0005  0.0009  0.0007 </r>
        <r>  0.0021  0.0042  0.0030 </r>
        <r>  0.0002  0.0008  0.0005 </r>
        <r>  0.0003  0.0050  0.0003 </r>
        <r>  0.0002  0.0018  0.0013 </r>
        <r>  0.0000  0.0017  0.0008 </r>
        <r>  0.0003  0.0037  0.0015 </r>
        <r>  0.0021  0.0042  0.0030 </r>
        <r>  0.0002  0.0008  0.0005 </r>
        <r>  0.0002  0.0007  0.0007 </r>
        <r>  0.0005  0.0009  0.0007 </r>
        <r>  0.0004  0.0124  0.0050 </r>
       </set>
       <set comment="band 202">
        <r>  0.0024  0.0004  0.0049 </r>
        <r>  0.0006  0.0008  0.0023 </r>
        <r>  0.0000  0.0000  0.0009 </r>
        <r>  0.0037  0.0008  0.0170 </r>
        <r>  0.0113  0.0018  0.0091 </r>
        <r>  0.0000  0.0000  0.0077 </r>
        <r>  0.0000  0.0034  0.0002 </r>
        <r>  0.0001  0.0034  0.0001 </r>
        <r>  0.0000  0.0045  0.0001 </r>
        <r>  0.0001  0.0075  0.0000 </r>
        <r>  0.0000  0.0045  0.0001 </r>
        <r>  0.0001  0.0076  0.0000 </r>
        <r>  0.0000  0.0033  0.0002 </r>
        <r>  0.0001  0.0034  0.0001 </r>
        <r>  0.0000  0.0019  0.0000 </r>
        <r>  0.0000  0.0026  0.0000 </r>
        <r>  0.0024  0.0002  0.0032 </r>
        <r>  0.0022  0.0003  0.0028 </r>
        <r>  0.0000  0.0005  0.0004 </r>
        <r>  0.0000  0.0022  0.0006 </r>
        <r>  0.0016  0.0024  0.0011 </r>
        <r>  0.0005  0.0030  0.0017 </r>
        <r>  0.0000  0.0028  0.0006 </r>
        <r>  0.0006  0.0042  0.0007 </r>
        <r>  0.0014  0.0038  0.0044 </r>
        <r>  0.0004  0.0010  0.0005 </r>
        <r>  0.0002  0.0025  0.0007 </r>
        <r>  0.0000  0.0022  0.0004 </r>
        <r>  0.0001  0.0005  0.0007 </r>
        <r>  0.0001  0.0002  0.0006 </r>
        <r>  0.0000  0.0028  0.0006 </r>
        <r>  0.0006  0.0042  0.0007 </r>
        <r>  0.0014  0.0038  0.0044 </r>
        <r>  0.0004  0.0010  0.0005 </r>
        <r>  0.0001  0.0005  0.0007 </r>
        <r>  0.0001  0.0002  0.0006 </r>
        <r>  0.0002  0.0025  0.0007 </r>
        <r>  0.0000  0.0022  0.0004 </r>
        <r>  0.0000  0.0013  0.0369 </r>
       </set>
       <set comment="band 203">
        <r>  0.0000  0.0001  0.0098 </r>
        <r>  0.0000  0.0009  0.0055 </r>
        <r>  0.0115  0.0000  0.0155 </r>
        <r>  0.0000  0.0003  0.0307 </r>
        <r>  0.0000  0.0000  0.0019 </r>
        <r>  0.0067  0.0014  0.0014 </r>
        <r>  0.0000  0.0071  0.0000 </r>
        <r>  0.0000  0.0035  0.0005 </r>
        <r>  0.0000  0.0052  0.0005 </r>
        <r>  0.0001  0.0087  0.0003 </r>
        <r>  0.0000  0.0052  0.0005 </r>
        <r>  0.0001  0.0088  0.0003 </r>
        <r>  0.0000  0.0071  0.0000 </r>
        <r>  0.0000  0.0035  0.0005 </r>
        <r>  0.0002  0.0056  0.0005 </r>
        <r>  0.0003  0.0010  0.0005 </r>
        <r>  0.0000  0.0044  0.0000 </r>
        <r>  0.0000  0.0001  0.0008 </r>
        <r>  0.0011  0.0013  0.0013 </r>
        <r>  0.0000  0.0039  0.0006 </r>
        <r>  0.0000  0.0010  0.0005 </r>
        <r>  0.0000  0.0040  0.0004 </r>
        <r>  0.0016  0.0023  0.0018 </r>
        <r>  0.0001  0.0021  0.0002 </r>
        <r>  0.0000  0.0001  0.0007 </r>
        <r>  0.0036  0.0010  0.0036 </r>
        <r>  0.0001  0.0001  0.0025 </r>
        <r>  0.0000  0.0060  0.0002 </r>
        <r>  0.0002  0.0009  0.0006 </r>
        <r>  0.0010  0.0020  0.0026 </r>
        <r>  0.0016  0.0023  0.0019 </r>
        <r>  0.0001  0.0021  0.0002 </r>
        <r>  0.0000  0.0001  0.0007 </r>
        <r>  0.0036  0.0010  0.0035 </r>
        <r>  0.0002  0.0009  0.0006 </r>
        <r>  0.0009  0.0020  0.0026 </r>
        <r>  0.0001  0.0001  0.0025 </r>
        <r>  0.0000  0.0060  0.0002 </r>
        <r>  0.0001  0.0005  0.0060 </r>
       </set>
       <set comment="band 204">
        <r>  0.0000  0.0015  0.0280 </r>
        <r>  0.0080  0.0013  0.0028 </r>
        <r>  0.0000  0.0001  0.0009 </r>
        <r>  0.0003  0.0025  0.0103 </r>
        <r>  0.0008  0.0015  0.0094 </r>
        <r>  0.0000  0.0004  0.0003 </r>
        <r>  0.0000  0.0079  0.0002 </r>
        <r>  0.0000  0.0028  0.0002 </r>
        <r>  0.0000  0.0038  0.0006 </r>
        <r>  0.0001  0.0017  0.0001 </r>
        <r>  0.0000  0.0038  0.0006 </r>
        <r>  0.0001  0.0018  0.0001 </r>
        <r>  0.0000  0.0078  0.0002 </r>
        <r>  0.0000  0.0029  0.0002 </r>
        <r>  0.0000  0.0006  0.0003 </r>
        <r>  0.0000  0.0000  0.0001 </r>
        <r>  0.0023  0.0026  0.0044 </r>
        <r>  0.0001  0.0009  0.0006 </r>
        <r>  0.0000  0.0080  0.0000 </r>
        <r>  0.0000  0.0001  0.0002 </r>
        <r>  0.0054  0.0004  0.0054 </r>
        <r>  0.0004  0.0016  0.0011 </r>
        <r>  0.0007  0.0039  0.0014 </r>
        <r>  0.0003  0.0014  0.0002 </r>
        <r>  0.0002  0.0055  0.0029 </r>
        <r>  0.0006  0.0009  0.0004 </r>
        <r>  0.0006  0.0019  0.0006 </r>
        <r>  0.0000  0.0027  0.0008 </r>
        <r>  0.0003  0.0001  0.0005 </r>
        <r>  0.0000  0.0010  0.0002 </r>
        <r>  0.0008  0.0039  0.0014 </r>
        <r>  0.0003  0.0014  0.0002 </r>
        <r>  0.0002  0.0054  0.0028 </r>
        <r>  0.0005  0.0010  0.0004 </r>
        <r>  0.0003  0.0001  0.0005 </r>
        <r>  0.0000  0.0010  0.0002 </r>
        <r>  0.0006  0.0019  0.0006 </r>
        <r>  0.0000  0.0026  0.0009 </r>
        <r>  0.0000  0.0000  0.0403 </r>
       </set>
       <set comment="band 205">
        <r>  0.0002  0.0003  0.0128 </r>
        <r>  0.0066  0.0001  0.0062 </r>
        <r>  0.0005  0.0001  0.0050 </r>
        <r>  0.0002  0.0004  0.0104 </r>
        <r>  0.0120  0.0008  0.0066 </r>
        <r>  0.0019  0.0002  0.0130 </r>
        <r>  0.0000  0.0046  0.0002 </r>
        <r>  0.0002  0.0069  0.0003 </r>
        <r>  0.0000  0.0030  0.0002 </r>
        <r>  0.0000  0.0030  0.0000 </r>
        <r>  0.0000  0.0028  0.0002 </r>
        <r>  0.0000  0.0030  0.0000 </r>
        <r>  0.0000  0.0054  0.0002 </r>
        <r>  0.0002  0.0067  0.0003 </r>
        <r>  0.0003  0.0003  0.0008 </r>
        <r>  0.0000  0.0029  0.0002 </r>
        <r>  0.0006  0.0017  0.0014 </r>
        <r>  0.0023  0.0016  0.0002 </r>
        <r>  0.0001  0.0004  0.0007 </r>
        <r>  0.0003  0.0007  0.0008 </r>
        <r>  0.0003  0.0019  0.0019 </r>
        <r>  0.0012  0.0005  0.0007 </r>
        <r>  0.0002  0.0007  0.0004 </r>
        <r>  0.0031  0.0017  0.0026 </r>
        <r>  0.0010  0.0067  0.0008 </r>
        <r>  0.0010  0.0022  0.0011 </r>
        <r>  0.0005  0.0017  0.0011 </r>
        <r>  0.0007  0.0017  0.0013 </r>
        <r>  0.0005  0.0020  0.0019 </r>
        <r>  0.0001  0.0044  0.0002 </r>
        <r>  0.0002  0.0006  0.0004 </r>
        <r>  0.0029  0.0017  0.0026 </r>
        <r>  0.0011  0.0068  0.0009 </r>
        <r>  0.0011  0.0020  0.0010 </r>
        <r>  0.0005  0.0024  0.0020 </r>
        <r>  0.0001  0.0049  0.0002 </r>
        <r>  0.0005  0.0018  0.0009 </r>
        <r>  0.0008  0.0018  0.0014 </r>
        <r>  0.0000  0.0012  0.0160 </r>
       </set>
       <set comment="band 206">
        <r>  0.0003  0.0001  0.0070 </r>
        <r>  0.0007  0.0002  0.0032 </r>
        <r>  0.0040  0.0011  0.0056 </r>
        <r>  0.0001  0.0007  0.0146 </r>
        <r>  0.0019  0.0004  0.0101 </r>
        <r>  0.0132  0.0009  0.0100 </r>
        <r>  0.0000  0.0028  0.0001 </r>
        <r>  0.0000  0.0075  0.0002 </r>
        <r>  0.0000  0.0045  0.0002 </r>
        <r>  0.0000  0.0043  0.0001 </r>
        <r>  0.0000  0.0062  0.0001 </r>
        <r>  0.0000  0.0043  0.0001 </r>
        <r>  0.0000  0.0040  0.0002 </r>
        <r>  0.0001  0.0100  0.0002 </r>
        <r>  0.0022  0.0015  0.0023 </r>
        <r>  0.0003  0.0048  0.0013 </r>
        <r>  0.0001  0.0006  0.0005 </r>
        <r>  0.0008  0.0071  0.0004 </r>
        <r>  0.0006  0.0027  0.0010 </r>
        <r>  0.0020  0.0020  0.0036 </r>
        <r>  0.0001  0.0039  0.0009 </r>
        <r>  0.0002  0.0020  0.0003 </r>
        <r>  0.0002  0.0014  0.0006 </r>
        <r>  0.0010  0.0014  0.0008 </r>
        <r>  0.0004  0.0048  0.0004 </r>
        <r>  0.0003  0.0018  0.0017 </r>
        <r>  0.0013  0.0006  0.0019 </r>
        <r>  0.0001  0.0005  0.0003 </r>
        <r>  0.0007  0.0021  0.0014 </r>
        <r>  0.0003  0.0038  0.0009 </r>
        <r>  0.0002  0.0014  0.0004 </r>
        <r>  0.0013  0.0011  0.0008 </r>
        <r>  0.0004  0.0040  0.0006 </r>
        <r>  0.0003  0.0015  0.0016 </r>
        <r>  0.0007  0.0021  0.0013 </r>
        <r>  0.0005  0.0043  0.0010 </r>
        <r>  0.0016  0.0006  0.0024 </r>
        <r>  0.0003  0.0004  0.0005 </r>
        <r>  0.0000  0.0029  0.0094 </r>
       </set>
       <set comment="band 207">
        <r>  0.0021  0.0001  0.0227 </r>
        <r>  0.0004  0.0007  0.0238 </r>
        <r>  0.0003  0.0004  0.0315 </r>
        <r>  0.0007  0.0001  0.0144 </r>
        <r>  0.0005  0.0002  0.0095 </r>
        <r>  0.0009  0.0002  0.0077 </r>
        <r>  0.0001  0.0066  0.0008 </r>
        <r>  0.0000  0.0062  0.0001 </r>
        <r>  0.0002  0.0059  0.0011 </r>
        <r>  0.0000  0.0032  0.0003 </r>
        <r>  0.0001  0.0045  0.0015 </r>
        <r>  0.0000  0.0014  0.0004 </r>
        <r>  0.0000  0.0039  0.0006 </r>
        <r>  0.0000  0.0044  0.0001 </r>
        <r>  0.0003  0.0004  0.0015 </r>
        <r>  0.0001  0.0004  0.0003 </r>
        <r>  0.0000  0.0008  0.0009 </r>
        <r>  0.0013  0.0009  0.0034 </r>
        <r>  0.0000  0.0003  0.0004 </r>
        <r>  0.0001  0.0010  0.0002 </r>
        <r>  0.0002  0.0013  0.0005 </r>
        <r>  0.0002  0.0002  0.0004 </r>
        <r>  0.0001  0.0009  0.0023 </r>
        <r>  0.0001  0.0008  0.0011 </r>
        <r>  0.0008  0.0012  0.0019 </r>
        <r>  0.0005  0.0006  0.0029 </r>
        <r>  0.0009  0.0004  0.0028 </r>
        <r>  0.0001  0.0001  0.0013 </r>
        <r>  0.0001  0.0027  0.0004 </r>
        <r>  0.0007  0.0031  0.0017 </r>
        <r>  0.0006  0.0014  0.0033 </r>
        <r>  0.0000  0.0010  0.0011 </r>
        <r>  0.0007  0.0019  0.0010 </r>
        <r>  0.0010  0.0008  0.0026 </r>
        <r>  0.0000  0.0022  0.0008 </r>
        <r>  0.0004  0.0023  0.0014 </r>
        <r>  0.0007  0.0001  0.0031 </r>
        <r>  0.0000  0.0001  0.0011 </r>
        <r>  0.0000  0.0009  0.0100 </r>
       </set>
       <set comment="band 208">
        <r>  0.0000  0.0011  0.0203 </r>
        <r>  0.0029  0.0003  0.0039 </r>
        <r>  0.0000  0.0001  0.0078 </r>
        <r>  0.0017  0.0004  0.0470 </r>
        <r>  0.0000  0.0002  0.0275 </r>
        <r>  0.0003  0.0001  0.0178 </r>
        <r>  0.0000  0.0027  0.0003 </r>
        <r>  0.0000  0.0035  0.0002 </r>
        <r>  0.0001  0.0019  0.0004 </r>
        <r>  0.0000  0.0021  0.0007 </r>
        <r>  0.0001  0.0026  0.0007 </r>
        <r>  0.0000  0.0011  0.0006 </r>
        <r>  0.0000  0.0027  0.0004 </r>
        <r>  0.0000  0.0021  0.0001 </r>
        <r>  0.0001  0.0003  0.0010 </r>
        <r>  0.0001  0.0006  0.0007 </r>
        <r>  0.0010  0.0005  0.0015 </r>
        <r>  0.0001  0.0016  0.0017 </r>
        <r>  0.0001  0.0020  0.0004 </r>
        <r>  0.0000  0.0015  0.0003 </r>
        <r>  0.0013  0.0032  0.0033 </r>
        <r>  0.0024  0.0005  0.0032 </r>
        <r>  0.0001  0.0033  0.0039 </r>
        <r>  0.0000  0.0023  0.0012 </r>
        <r>  0.0001  0.0011  0.0012 </r>
        <r>  0.0000  0.0003  0.0013 </r>
        <r>  0.0001  0.0009  0.0019 </r>
        <r>  0.0003  0.0015  0.0007 </r>
        <r>  0.0004  0.0006  0.0008 </r>
        <r>  0.0000  0.0015  0.0009 </r>
        <r>  0.0002  0.0032  0.0032 </r>
        <r>  0.0001  0.0026  0.0016 </r>
        <r>  0.0001  0.0009  0.0011 </r>
        <r>  0.0000  0.0003  0.0014 </r>
        <r>  0.0012  0.0001  0.0014 </r>
        <r>  0.0000  0.0019  0.0010 </r>
        <r>  0.0000  0.0004  0.0013 </r>
        <r>  0.0001  0.0012  0.0006 </r>
        <r>  0.0000  0.0001  0.0039 </r>
       </set>
      </set>
     </set>
    </set>
   </array>
  </projected>
 </calculation>
 <structure name="finalpos" >
  <crystal>
   <varray name="basis" >
    <v>       8.42001800       0.00000000       8.07798100 </v>
    <v>       0.00000000      11.76380800       0.00000000 </v>
    <v>      -8.42001800       0.00000000       8.07798100 </v>
   </varray>
   <i name="volume">   1600.27186790 </i>
   <varray name="rec_basis" >
    <v>       0.05938230      -0.00000000       0.06189665 </v>
    <v>       0.00000000       0.08500649      -0.00000000 </v>
    <v>      -0.05938230       0.00000000       0.06189665 </v>
   </varray>
  </crystal>
  <varray name="positions" >
   <v>       0.25623100       0.24999200       0.20525800 </v>
   <v>       0.77443200       0.25000300       0.71814300 </v>
   <v>       0.19545700       0.75000200       0.75927200 </v>
   <v>       0.28068700       0.25000600       0.73836000 </v>
   <v>       0.76436400       0.25000500       0.22694200 </v>
   <v>       0.73923800       0.75000200       0.78346800 </v>
   <v>       0.99420900       0.99563000       0.00630000 </v>
   <v>       0.50200900       0.00288600       0.50049700 </v>
   <v>       0.50159500       0.00236400       0.98881700 </v>
   <v>       0.00036400       0.99927400       0.49956500 </v>
   <v>       0.50158200       0.49761000       0.98882300 </v>
   <v>       0.00036800       0.50072000       0.49957000 </v>
   <v>       0.99419500       0.50433600       0.00630600 </v>
   <v>       0.50202700       0.49712700       0.50049700 </v>
   <v>       0.46342800       0.74998400       0.93736300 </v>
   <v>       0.96663900       0.75000500       0.49674600 </v>
   <v>       0.95895100       0.25000800       0.97820800 </v>
   <v>       0.45844200       0.25001500       0.49453100 </v>
   <v>       0.04917400       0.74999400       0.02802900 </v>
   <v>       0.54053200       0.75002500       0.53054600 </v>
   <v>       0.54365900       0.24998800       0.98768500 </v>
   <v>       0.03151700       0.25000300       0.54626700 </v>
   <v>       0.24664200       0.46400300       0.95740600 </v>
   <v>       0.74854200       0.44932300       0.46564400 </v>
   <v>       0.47134700       0.47068600       0.24106100 </v>
   <v>       0.95166700       0.52580000       0.75298600 </v>
   <v>       0.56239000       0.02374600       0.74598800 </v>
   <v>       0.03111800       0.05065400       0.25430500 </v>
   <v>       0.74705500       0.95287700       0.04838600 </v>
   <v>       0.25381400       0.97806600       0.56013100 </v>
   <v>       0.24664300       0.03599300       0.95740100 </v>
   <v>       0.74854900       0.05068900       0.46565500 </v>
   <v>       0.47135200       0.02930800       0.24106700 </v>
   <v>       0.95167000       0.97421000       0.75299300 </v>
   <v>       0.74705700       0.54711400       0.04837700 </v>
   <v>       0.25381500       0.52195100       0.56013000 </v>
   <v>       0.56239300       0.47625900       0.74598600 </v>
   <v>       0.03112500       0.44934100       0.25430800 </v>
   <v>       0.47122300       0.74999900       0.24571200 </v>
  </varray>
 </structure>
</modeling>
