CsPbBr3 cubic bulk                      
           1
     8.420018    0.000000    8.077981
     0.000000   11.763808    0.000000
    -8.420018    0.000000    8.077981
   Cs   Pb   Br   Cs
   6   8  24   1
Direct configuration=     1
   0.25623100  0.24999200  0.20525800
   0.77443200  0.25000300  0.71814300
   0.19545700  0.75000200  0.75927200
   0.28068700  0.25000600  0.73836000
   0.76436400  0.25000500  0.22694200
   0.73923800  0.75000200  0.78346800
   0.99420900  0.99563000  0.00630000
   0.50200900  0.00288600  0.50049700
   0.50159500  0.00236400  0.98881700
   0.00036400  0.99927400  0.49956500
   0.50158200  0.49761000  0.98882300
   0.00036800  0.50072000  0.49957000
   0.99419500  0.50433600  0.00630600
   0.50202700  0.49712700  0.50049700
   0.46342800  0.74998400  0.93736300
   0.96663900  0.75000500  0.49674600
   0.95895100  0.25000800  0.97820800
   0.45844200  0.25001500  0.49453100
   0.04917400  0.74999400  0.02802900
   0.54053200  0.75002500  0.53054600
   0.54365900  0.24998800  0.98768500
   0.03151700  0.25000300  0.54626700
   0.24664200  0.46400300  0.95740600
   0.74854200  0.44932300  0.46564400
   0.47134700  0.47068600  0.24106100
   0.95166700  0.52580000  0.75298600
   0.56239000  0.02374600  0.74598800
   0.03111800  0.05065400  0.25430500
   0.74705500  0.95287700  0.04838600
   0.25381400  0.97806600  0.56013100
   0.24664300  0.03599300  0.95740100
   0.74854900  0.05068900  0.46565500
   0.47135200  0.02930800  0.24106700
   0.95167000  0.97421000  0.75299300
   0.74705700  0.54711400  0.04837700
   0.25381500  0.52195100  0.56013000
   0.56239300  0.47625900  0.74598600
   0.03112500  0.44934100  0.25430800
   0.47122300  0.74999900  0.24571200
