  40  40   1   0
  0.4040437E+02  0.1173535E-08  0.1173535E-08  0.1173535E-08  0.5000000E-15
   1.0000000000000000E-004
  CAR 
 CsPbBr3 cubic bulk                      
      8.16376019    -22.47725879  301      1.06525746      1.00000000
    -22.477  0.0000E+00  0.0000E+00
    -22.375  0.0000E+00  0.0000E+00
    -22.273  0.0000E+00  0.0000E+00
    -22.171  0.0000E+00  0.0000E+00
    -22.069  0.0000E+00  0.0000E+00
    -21.967  0.0000E+00  0.0000E+00
    -21.864  0.0000E+00  0.0000E+00
    -21.762  0.0000E+00  0.0000E+00
    -21.660  0.0000E+00  0.0000E+00
    -21.558  0.0000E+00  0.0000E+00
    -21.456  0.0000E+00  0.0000E+00
    -21.354  0.0000E+00  0.0000E+00
    -21.252  0.0000E+00  0.0000E+00
    -21.149  0.0000E+00  0.0000E+00
    -21.047  0.1567E+03  0.1600E+02
    -20.945  0.0000E+00  0.1600E+02
    -20.843  0.0000E+00  0.1600E+02
    -20.741  0.0000E+00  0.1600E+02
    -20.639  0.0000E+00  0.1600E+02
    -20.537  0.0000E+00  0.1600E+02
    -20.435  0.0000E+00  0.1600E+02
    -20.332  0.0000E+00  0.1600E+02
    -20.230  0.0000E+00  0.1600E+02
    -20.128  0.0000E+00  0.1600E+02
    -20.026  0.0000E+00  0.1600E+02
    -19.924  0.0000E+00  0.1600E+02
    -19.822  0.0000E+00  0.1600E+02
    -19.720  0.0000E+00  0.1600E+02
    -19.617  0.0000E+00  0.1600E+02
    -19.515  0.0000E+00  0.1600E+02
    -19.413  0.0000E+00  0.1600E+02
    -19.311  0.0000E+00  0.1600E+02
    -19.209  0.0000E+00  0.1600E+02
    -19.107  0.0000E+00  0.1600E+02
    -19.005  0.0000E+00  0.1600E+02
    -18.902  0.0000E+00  0.1600E+02
    -18.800  0.0000E+00  0.1600E+02
    -18.698  0.0000E+00  0.1600E+02
    -18.596  0.0000E+00  0.1600E+02
    -18.494  0.0000E+00  0.1600E+02
    -18.392  0.0000E+00  0.1600E+02
    -18.290  0.0000E+00  0.1600E+02
    -18.188  0.0000E+00  0.1600E+02
    -18.085  0.0000E+00  0.1600E+02
    -17.983  0.0000E+00  0.1600E+02
    -17.881  0.0000E+00  0.1600E+02
    -17.779  0.0000E+00  0.1600E+02
    -17.677  0.0000E+00  0.1600E+02
    -17.575  0.0000E+00  0.1600E+02
    -17.473  0.0000E+00  0.1600E+02
    -17.370  0.0000E+00  0.1600E+02
    -17.268  0.0000E+00  0.1600E+02
    -17.166  0.0000E+00  0.1600E+02
    -17.064  0.0000E+00  0.1600E+02
    -16.962  0.0000E+00  0.1600E+02
    -16.860  0.0000E+00  0.1600E+02
    -16.758  0.0000E+00  0.1600E+02
    -16.655  0.0000E+00  0.1600E+02
    -16.553  0.0000E+00  0.1600E+02
    -16.451  0.0000E+00  0.1600E+02
    -16.349  0.0000E+00  0.1600E+02
    -16.247  0.9541E+02  0.2574E+02
    -16.145  0.1848E+03  0.4788E+02
    -16.043  0.4606E+03  0.9504E+02
    -15.941  0.0000E+00  0.9600E+02
    -15.838  0.0000E+00  0.9600E+02
    -15.736  0.0000E+00  0.9600E+02
    -15.634  0.0000E+00  0.9600E+02
    -15.532  0.0000E+00  0.9600E+02
    -15.430  0.0000E+00  0.9600E+02
    -15.328  0.0000E+00  0.9600E+02
    -15.226  0.0000E+00  0.9600E+02
    -15.123  0.0000E+00  0.9600E+02
    -15.021  0.0000E+00  0.9600E+02
    -14.919  0.0000E+00  0.9600E+02
    -14.817  0.0000E+00  0.9600E+02
    -14.715  0.0000E+00  0.9600E+02
    -14.613  0.0000E+00  0.9600E+02
    -14.511  0.0000E+00  0.9600E+02
    -14.408  0.3481E-01  0.9600E+02
    -14.306  0.1437E+02  0.9772E+02
    -14.204  0.4144E+02  0.1020E+03
    -14.102  0.3355E+02  0.1062E+03
    -14.000  0.4104E+02  0.1107E+03
    -13.898  0.1910E+02  0.1235E+03
    -13.796  0.8780E+02  0.1327E+03
    -13.694  0.6618E+02  0.1405E+03
    -13.591  0.2692E+02  0.1440E+03
    -13.489  0.0000E+00  0.1440E+03
    -13.387  0.0000E+00  0.1440E+03
    -13.285  0.0000E+00  0.1440E+03
    -13.183  0.0000E+00  0.1440E+03
    -13.081  0.0000E+00  0.1440E+03
    -12.979  0.0000E+00  0.1440E+03
    -12.876  0.0000E+00  0.1440E+03
    -12.774  0.0000E+00  0.1440E+03
    -12.672  0.0000E+00  0.1440E+03
    -12.570  0.0000E+00  0.1440E+03
    -12.468  0.0000E+00  0.1440E+03
    -12.366  0.0000E+00  0.1440E+03
    -12.264  0.0000E+00  0.1440E+03
    -12.161  0.0000E+00  0.1440E+03
    -12.059  0.0000E+00  0.1440E+03
    -11.957  0.0000E+00  0.1440E+03
    -11.855  0.0000E+00  0.1440E+03
    -11.753  0.0000E+00  0.1440E+03
    -11.651  0.0000E+00  0.1440E+03
    -11.549  0.0000E+00  0.1440E+03
    -11.446  0.0000E+00  0.1440E+03
    -11.344  0.0000E+00  0.1440E+03
    -11.242  0.0000E+00  0.1440E+03
    -11.140  0.0000E+00  0.1440E+03
    -11.038  0.0000E+00  0.1440E+03
    -10.936  0.0000E+00  0.1440E+03
    -10.834  0.0000E+00  0.1440E+03
    -10.732  0.0000E+00  0.1440E+03
    -10.629  0.0000E+00  0.1440E+03
    -10.527  0.0000E+00  0.1440E+03
    -10.425  0.0000E+00  0.1440E+03
    -10.323  0.0000E+00  0.1440E+03
    -10.221  0.0000E+00  0.1440E+03
    -10.119  0.0000E+00  0.1440E+03
    -10.017  0.0000E+00  0.1440E+03
     -9.914  0.0000E+00  0.1440E+03
     -9.812  0.0000E+00  0.1440E+03
     -9.710  0.0000E+00  0.1440E+03
     -9.608  0.0000E+00  0.1440E+03
     -9.506  0.0000E+00  0.1440E+03
     -9.404  0.0000E+00  0.1440E+03
     -9.302  0.0000E+00  0.1440E+03
     -9.199  0.0000E+00  0.1440E+03
     -9.097  0.0000E+00  0.1440E+03
     -8.995  0.0000E+00  0.1440E+03
     -8.893  0.0000E+00  0.1440E+03
     -8.791  0.0000E+00  0.1440E+03
     -8.689  0.0000E+00  0.1440E+03
     -8.587  0.0000E+00  0.1440E+03
     -8.485  0.0000E+00  0.1440E+03
     -8.382  0.0000E+00  0.1440E+03
     -8.280  0.4291E-01  0.1440E+03
     -8.178  0.0000E+00  0.1442E+03
     -8.076  0.0000E+00  0.1442E+03
     -7.974  0.1409E+02  0.1457E+03
     -7.872  0.0000E+00  0.1458E+03
     -7.770  0.0000E+00  0.1458E+03
     -7.667  0.2937E+02  0.1488E+03
     -7.565  0.7341E+01  0.1495E+03
     -7.463  0.1306E+02  0.1508E+03
     -7.361  0.3424E+03  0.1997E+03
     -7.259  0.0000E+00  0.2025E+03
     -7.157  0.0000E+00  0.2025E+03
     -7.055  0.1487E+02  0.2040E+03
     -6.952  0.7208E+01  0.2062E+03
     -6.850  0.0000E+00  0.2062E+03
     -6.748  0.0000E+00  0.2062E+03
     -6.646  0.9846E+01  0.2073E+03
     -6.544  0.0000E+00  0.2078E+03
     -6.442  0.0000E+00  0.2078E+03
     -6.340  0.0000E+00  0.2078E+03
     -6.238  0.1902E-14  0.2078E+03
     -6.135  0.2448E+01  0.2080E+03
     -6.033  0.0000E+00  0.2080E+03
     -5.931  0.0000E+00  0.2080E+03
     -5.829  0.0000E+00  0.2080E+03
     -5.727  0.0000E+00  0.2080E+03
     -5.625  0.0000E+00  0.2080E+03
     -5.523  0.0000E+00  0.2080E+03
     -5.420  0.0000E+00  0.2080E+03
     -5.318  0.0000E+00  0.2080E+03
     -5.216  0.0000E+00  0.2080E+03
     -5.114  0.0000E+00  0.2080E+03
     -5.012  0.0000E+00  0.2080E+03
     -4.910  0.0000E+00  0.2080E+03
     -4.808  0.0000E+00  0.2080E+03
     -4.705  0.0000E+00  0.2080E+03
     -4.603  0.0000E+00  0.2080E+03
     -4.501  0.0000E+00  0.2080E+03
     -4.399  0.0000E+00  0.2080E+03
     -4.297  0.0000E+00  0.2080E+03
     -4.195  0.0000E+00  0.2080E+03
     -4.093  0.0000E+00  0.2080E+03
     -3.991  0.0000E+00  0.2080E+03
     -3.888  0.0000E+00  0.2080E+03
     -3.786  0.0000E+00  0.2080E+03
     -3.684  0.0000E+00  0.2080E+03
     -3.582  0.0000E+00  0.2080E+03
     -3.480  0.9175E-10  0.2080E+03
     -3.378  0.2622E+02  0.2107E+03
     -3.276  0.4523E+02  0.2164E+03
     -3.173  0.5479E+01  0.2198E+03
     -3.071  0.0000E+00  0.2200E+03
     -2.969  0.0000E+00  0.2200E+03
     -2.867  0.0000E+00  0.2200E+03
     -2.765  0.0000E+00  0.2200E+03
     -2.663  0.1119E+00  0.2200E+03
     -2.561  0.3790E+02  0.2269E+03
     -2.458  0.3380E+02  0.2305E+03
     -2.356  0.2937E+02  0.2345E+03
     -2.254  0.4203E+02  0.2388E+03
     -2.152  0.4775E+02  0.2439E+03
     -2.050  0.6222E+01  0.2454E+03
     -1.948  0.6366E+02  0.2528E+03
     -1.846  0.1043E+02  0.2541E+03
     -1.744  0.2937E+02  0.2598E+03
     -1.641  0.3823E+01  0.2601E+03
     -1.539  0.8312E+02  0.2722E+03
     -1.437  0.1478E+02  0.2758E+03
     -1.335  0.8402E+02  0.2863E+03
     -1.233  0.1293E+03  0.3020E+03
     -1.131  0.2960E+02  0.3085E+03
     -1.029  0.8023E+02  0.3174E+03
     -0.926  0.9926E+02  0.3369E+03
     -0.824  0.0000E+00  0.3398E+03
     -0.722  0.2937E+02  0.3427E+03
     -0.620  0.0000E+00  0.3428E+03
     -0.518  0.2717E-15  0.3428E+03
     -0.416  0.7342E+01  0.3435E+03
     -0.314  0.5990E-04  0.3435E+03
     -0.211  0.2937E+02  0.3465E+03
     -0.109  0.2937E+02  0.3495E+03
     -0.007  0.0000E+00  0.3495E+03
      0.095  0.0000E+00  0.3495E+03
      0.197  0.0000E+00  0.3495E+03
      0.299  0.5133E+01  0.3500E+03
      0.401  0.1157E-07  0.3503E+03
      0.504  0.1469E+02  0.3518E+03
      0.606  0.0000E+00  0.3518E+03
      0.708  0.0000E+00  0.3518E+03
      0.810  0.0000E+00  0.3518E+03
      0.912  0.0000E+00  0.3518E+03
      1.014  0.9319E+00  0.3518E+03
      1.116  0.0000E+00  0.3520E+03
      1.218  0.0000E+00  0.3520E+03
      1.321  0.0000E+00  0.3520E+03
      1.423  0.0000E+00  0.3520E+03
      1.525  0.0000E+00  0.3520E+03
      1.627  0.0000E+00  0.3520E+03
      1.729  0.0000E+00  0.3520E+03
      1.831  0.0000E+00  0.3520E+03
      1.933  0.0000E+00  0.3520E+03
      2.036  0.0000E+00  0.3520E+03
      2.138  0.0000E+00  0.3520E+03
      2.240  0.0000E+00  0.3520E+03
      2.342  0.0000E+00  0.3520E+03
      2.444  0.0000E+00  0.3520E+03
      2.546  0.0000E+00  0.3520E+03
      2.648  0.0000E+00  0.3520E+03
      2.751  0.0000E+00  0.3520E+03
      2.853  0.7254E+01  0.3527E+03
      2.955  0.0000E+00  0.3528E+03
      3.057  0.1485E-09  0.3528E+03
      3.159  0.2937E+02  0.3557E+03
      3.261  0.0000E+00  0.3558E+03
      3.363  0.3299E+02  0.3591E+03
      3.465  0.0000E+00  0.3602E+03
      3.568  0.2370E-03  0.3603E+03
      3.670  0.2937E+02  0.3632E+03
      3.772  0.0000E+00  0.3632E+03
      3.874  0.7343E+01  0.3640E+03
      3.976  0.0000E+00  0.3640E+03
      4.078  0.0000E+00  0.3640E+03
      4.180  0.0000E+00  0.3640E+03
      4.283  0.0000E+00  0.3640E+03
      4.385  0.0000E+00  0.3640E+03
      4.487  0.0000E+00  0.3640E+03
      4.589  0.2448E+01  0.3643E+03
      4.691  0.1469E+02  0.3658E+03
      4.793  0.1451E+02  0.3672E+03
      4.895  0.2190E+02  0.3710E+03
      4.998  0.2280E+02  0.3741E+03
      5.100  0.2517E+02  0.3783E+03
      5.202  0.7301E-03  0.3823E+03
      5.304  0.5874E+02  0.3882E+03
      5.406  0.0000E+00  0.3882E+03
      5.508  0.8883E-04  0.3883E+03
      5.610  0.1226E+02  0.3895E+03
      5.712  0.5227E-09  0.3903E+03
      5.815  0.2937E+02  0.3932E+03
      5.917  0.9346E-01  0.3933E+03
      6.019  0.2588E+02  0.3969E+03
      6.121  0.2202E+02  0.3992E+03
      6.223  0.5153E+01  0.3998E+03
      6.325  0.2937E+02  0.4030E+03
      6.427  0.7540E+02  0.4107E+03
      6.530  0.6606E+02  0.4195E+03
      6.632  0.6305E+02  0.4267E+03
      6.734  0.1923E+02  0.4312E+03
      6.836  0.4895E+01  0.4320E+03
      6.938  0.0000E+00  0.4320E+03
      7.040  0.0000E+00  0.4320E+03
      7.142  0.0000E+00  0.4320E+03
      7.245  0.0000E+00  0.4320E+03
      7.347  0.0000E+00  0.4320E+03
      7.449  0.0000E+00  0.4320E+03
      7.551  0.0000E+00  0.4320E+03
      7.653  0.0000E+00  0.4320E+03
      7.755  0.0000E+00  0.4320E+03
      7.857  0.0000E+00  0.4320E+03
      7.959  0.0000E+00  0.4320E+03
      8.062  0.0000E+00  0.4320E+03
      8.164  0.0000E+00  0.4320E+03
      8.16376019    -22.47725879  301      1.06525746      1.00000000
    -22.477  0.0000E+00  0.0000E+00  0.0000E+00
    -22.375  0.0000E+00  0.0000E+00  0.0000E+00
    -22.273  0.0000E+00  0.0000E+00  0.0000E+00
    -22.171  0.0000E+00  0.0000E+00  0.0000E+00
    -22.069  0.0000E+00  0.0000E+00  0.0000E+00
    -21.967  0.0000E+00  0.0000E+00  0.0000E+00
    -21.864  0.0000E+00  0.0000E+00  0.0000E+00
    -21.762  0.0000E+00  0.0000E+00  0.0000E+00
    -21.660  0.0000E+00  0.0000E+00  0.0000E+00
    -21.558  0.0000E+00  0.0000E+00  0.0000E+00
    -21.456  0.0000E+00  0.0000E+00  0.0000E+00
    -21.354  0.0000E+00  0.0000E+00  0.0000E+00
    -21.252  0.0000E+00  0.0000E+00  0.0000E+00
    -21.149  0.0000E+00  0.0000E+00  0.0000E+00
    -21.047  0.1738E+02  0.7407E-07  0.6543E-06
    -20.945  0.0000E+00  0.0000E+00  0.0000E+00
    -20.843  0.0000E+00  0.0000E+00  0.0000E+00
    -20.741  0.0000E+00  0.0000E+00  0.0000E+00
    -20.639  0.0000E+00  0.0000E+00  0.0000E+00
    -20.537  0.0000E+00  0.0000E+00  0.0000E+00
    -20.435  0.0000E+00  0.0000E+00  0.0000E+00
    -20.332  0.0000E+00  0.0000E+00  0.0000E+00
    -20.230  0.0000E+00  0.0000E+00  0.0000E+00
    -20.128  0.0000E+00  0.0000E+00  0.0000E+00
    -20.026  0.0000E+00  0.0000E+00  0.0000E+00
    -19.924  0.0000E+00  0.0000E+00  0.0000E+00
    -19.822  0.0000E+00  0.0000E+00  0.0000E+00
    -19.720  0.0000E+00  0.0000E+00  0.0000E+00
    -19.617  0.0000E+00  0.0000E+00  0.0000E+00
    -19.515  0.0000E+00  0.0000E+00  0.0000E+00
    -19.413  0.0000E+00  0.0000E+00  0.0000E+00
    -19.311  0.0000E+00  0.0000E+00  0.0000E+00
    -19.209  0.0000E+00  0.0000E+00  0.0000E+00
    -19.107  0.0000E+00  0.0000E+00  0.0000E+00
    -19.005  0.0000E+00  0.0000E+00  0.0000E+00
    -18.902  0.0000E+00  0.0000E+00  0.0000E+00
    -18.800  0.0000E+00  0.0000E+00  0.0000E+00
    -18.698  0.0000E+00  0.0000E+00  0.0000E+00
    -18.596  0.0000E+00  0.0000E+00  0.0000E+00
    -18.494  0.0000E+00  0.0000E+00  0.0000E+00
    -18.392  0.0000E+00  0.0000E+00  0.0000E+00
    -18.290  0.0000E+00  0.0000E+00  0.0000E+00
    -18.188  0.0000E+00  0.0000E+00  0.0000E+00
    -18.085  0.0000E+00  0.0000E+00  0.0000E+00
    -17.983  0.0000E+00  0.0000E+00  0.0000E+00
    -17.881  0.0000E+00  0.0000E+00  0.0000E+00
    -17.779  0.0000E+00  0.0000E+00  0.0000E+00
    -17.677  0.0000E+00  0.0000E+00  0.0000E+00
    -17.575  0.0000E+00  0.0000E+00  0.0000E+00
    -17.473  0.0000E+00  0.0000E+00  0.0000E+00
    -17.370  0.0000E+00  0.0000E+00  0.0000E+00
    -17.268  0.0000E+00  0.0000E+00  0.0000E+00
    -17.166  0.0000E+00  0.0000E+00  0.0000E+00
    -17.064  0.0000E+00  0.0000E+00  0.0000E+00
    -16.962  0.0000E+00  0.0000E+00  0.0000E+00
    -16.860  0.0000E+00  0.0000E+00  0.0000E+00
    -16.758  0.0000E+00  0.0000E+00  0.0000E+00
    -16.655  0.0000E+00  0.0000E+00  0.0000E+00
    -16.553  0.0000E+00  0.0000E+00  0.0000E+00
    -16.451  0.0000E+00  0.0000E+00  0.0000E+00
    -16.349  0.0000E+00  0.0000E+00  0.0000E+00
    -16.247  0.2158E-05  0.4275E-05  0.3937E-05
    -16.145  0.1540E-05  0.3659E-04  0.4635E-05
    -16.043  0.2633E-04  0.2081E-04  0.2078E-05
    -15.941  0.0000E+00  0.0000E+00  0.0000E+00
    -15.838  0.0000E+00  0.0000E+00  0.0000E+00
    -15.736  0.0000E+00  0.0000E+00  0.0000E+00
    -15.634  0.0000E+00  0.0000E+00  0.0000E+00
    -15.532  0.0000E+00  0.0000E+00  0.0000E+00
    -15.430  0.0000E+00  0.0000E+00  0.0000E+00
    -15.328  0.0000E+00  0.0000E+00  0.0000E+00
    -15.226  0.0000E+00  0.0000E+00  0.0000E+00
    -15.123  0.0000E+00  0.0000E+00  0.0000E+00
    -15.021  0.0000E+00  0.0000E+00  0.0000E+00
    -14.919  0.0000E+00  0.0000E+00  0.0000E+00
    -14.817  0.0000E+00  0.0000E+00  0.0000E+00
    -14.715  0.0000E+00  0.0000E+00  0.0000E+00
    -14.613  0.0000E+00  0.0000E+00  0.0000E+00
    -14.511  0.0000E+00  0.0000E+00  0.0000E+00
    -14.408  0.3082E-05  0.7423E-21  0.1067E-08
    -14.306  0.8530E-03  0.2683E-03  0.1094E-05
    -14.204  0.1390E-02  0.1295E-02  0.2002E-04
    -14.102  0.5025E-15  0.1965E-02  0.1962E-04
    -14.000  0.9343E-04  0.1389E-02  0.7708E-04
    -13.898  0.7282E-17  0.7591E-18  0.9432E-04
    -13.796  0.2831E-04  0.1088E-02  0.1484E-03
    -13.694  0.1446E-03  0.2949E-03  0.8418E-04
    -13.591  0.1397E-04  0.2891E-04  0.2267E-04
    -13.489  0.0000E+00  0.0000E+00  0.0000E+00
    -13.387  0.0000E+00  0.0000E+00  0.0000E+00
    -13.285  0.0000E+00  0.0000E+00  0.0000E+00
    -13.183  0.0000E+00  0.0000E+00  0.0000E+00
    -13.081  0.0000E+00  0.0000E+00  0.0000E+00
    -12.979  0.0000E+00  0.0000E+00  0.0000E+00
    -12.876  0.0000E+00  0.0000E+00  0.0000E+00
    -12.774  0.0000E+00  0.0000E+00  0.0000E+00
    -12.672  0.0000E+00  0.0000E+00  0.0000E+00
    -12.570  0.0000E+00  0.0000E+00  0.0000E+00
    -12.468  0.0000E+00  0.0000E+00  0.0000E+00
    -12.366  0.0000E+00  0.0000E+00  0.0000E+00
    -12.264  0.0000E+00  0.0000E+00  0.0000E+00
    -12.161  0.0000E+00  0.0000E+00  0.0000E+00
    -12.059  0.0000E+00  0.0000E+00  0.0000E+00
    -11.957  0.0000E+00  0.0000E+00  0.0000E+00
    -11.855  0.0000E+00  0.0000E+00  0.0000E+00
    -11.753  0.0000E+00  0.0000E+00  0.0000E+00
    -11.651  0.0000E+00  0.0000E+00  0.0000E+00
    -11.549  0.0000E+00  0.0000E+00  0.0000E+00
    -11.446  0.0000E+00  0.0000E+00  0.0000E+00
    -11.344  0.0000E+00  0.0000E+00  0.0000E+00
    -11.242  0.0000E+00  0.0000E+00  0.0000E+00
    -11.140  0.0000E+00  0.0000E+00  0.0000E+00
    -11.038  0.0000E+00  0.0000E+00  0.0000E+00
    -10.936  0.0000E+00  0.0000E+00  0.0000E+00
    -10.834  0.0000E+00  0.0000E+00  0.0000E+00
    -10.732  0.0000E+00  0.0000E+00  0.0000E+00
    -10.629  0.0000E+00  0.0000E+00  0.0000E+00
    -10.527  0.0000E+00  0.0000E+00  0.0000E+00
    -10.425  0.0000E+00  0.0000E+00  0.0000E+00
    -10.323  0.0000E+00  0.0000E+00  0.0000E+00
    -10.221  0.0000E+00  0.0000E+00  0.0000E+00
    -10.119  0.0000E+00  0.0000E+00  0.0000E+00
    -10.017  0.0000E+00  0.0000E+00  0.0000E+00
     -9.914  0.0000E+00  0.0000E+00  0.0000E+00
     -9.812  0.0000E+00  0.0000E+00  0.0000E+00
     -9.710  0.0000E+00  0.0000E+00  0.0000E+00
     -9.608  0.0000E+00  0.0000E+00  0.0000E+00
     -9.506  0.0000E+00  0.0000E+00  0.0000E+00
     -9.404  0.0000E+00  0.0000E+00  0.0000E+00
     -9.302  0.0000E+00  0.0000E+00  0.0000E+00
     -9.199  0.0000E+00  0.0000E+00  0.0000E+00
     -9.097  0.0000E+00  0.0000E+00  0.0000E+00
     -8.995  0.0000E+00  0.0000E+00  0.0000E+00
     -8.893  0.0000E+00  0.0000E+00  0.0000E+00
     -8.791  0.0000E+00  0.0000E+00  0.0000E+00
     -8.689  0.0000E+00  0.0000E+00  0.0000E+00
     -8.587  0.0000E+00  0.0000E+00  0.0000E+00
     -8.485  0.0000E+00  0.0000E+00  0.0000E+00
     -8.382  0.0000E+00  0.0000E+00  0.0000E+00
     -8.280  0.1491E-21  0.5989E-20  0.5298E-20
     -8.178  0.0000E+00  0.0000E+00  0.0000E+00
     -8.076  0.0000E+00  0.0000E+00  0.0000E+00
     -7.974  0.8391E-19  0.2903E-17  0.1887E-05
     -7.872  0.0000E+00  0.0000E+00  0.0000E+00
     -7.770  0.0000E+00  0.0000E+00  0.0000E+00
     -7.667  0.1703E-18  0.9378E-02  0.1265E-04
     -7.565  0.4986E-19  0.4376E-17  0.5763E-05
     -7.463  0.2401E-07  0.1212E+01  0.3919E-06
     -7.361  0.2681E-04  0.3102E+02  0.3026E-04
     -7.259  0.0000E+00  0.0000E+00  0.0000E+00
     -7.157  0.0000E+00  0.0000E+00  0.0000E+00
     -7.055  0.1392E-04  0.1891E-02  0.1346E-04
     -6.952  0.3586E-19  0.7476E-03  0.3772E-18
     -6.850  0.0000E+00  0.0000E+00  0.0000E+00
     -6.748  0.0000E+00  0.0000E+00  0.0000E+00
     -6.646  0.1330E-04  0.1081E-02  0.2596E-06
     -6.544  0.0000E+00  0.0000E+00  0.0000E+00
     -6.442  0.0000E+00  0.0000E+00  0.0000E+00
     -6.340  0.0000E+00  0.0000E+00  0.0000E+00
     -6.238  0.2962E-20  0.3994E-33  0.1513E-21
     -6.135  0.3811E-05  0.5140E-18  0.1946E-06
     -6.033  0.0000E+00  0.0000E+00  0.0000E+00
     -5.931  0.0000E+00  0.0000E+00  0.0000E+00
     -5.829  0.0000E+00  0.0000E+00  0.0000E+00
     -5.727  0.0000E+00  0.0000E+00  0.0000E+00
     -5.625  0.0000E+00  0.0000E+00  0.0000E+00
     -5.523  0.0000E+00  0.0000E+00  0.0000E+00
     -5.420  0.0000E+00  0.0000E+00  0.0000E+00
     -5.318  0.0000E+00  0.0000E+00  0.0000E+00
     -5.216  0.0000E+00  0.0000E+00  0.0000E+00
     -5.114  0.0000E+00  0.0000E+00  0.0000E+00
     -5.012  0.0000E+00  0.0000E+00  0.0000E+00
     -4.910  0.0000E+00  0.0000E+00  0.0000E+00
     -4.808  0.0000E+00  0.0000E+00  0.0000E+00
     -4.705  0.0000E+00  0.0000E+00  0.0000E+00
     -4.603  0.0000E+00  0.0000E+00  0.0000E+00
     -4.501  0.0000E+00  0.0000E+00  0.0000E+00
     -4.399  0.0000E+00  0.0000E+00  0.0000E+00
     -4.297  0.0000E+00  0.0000E+00  0.0000E+00
     -4.195  0.0000E+00  0.0000E+00  0.0000E+00
     -4.093  0.0000E+00  0.0000E+00  0.0000E+00
     -3.991  0.0000E+00  0.0000E+00  0.0000E+00
     -3.888  0.0000E+00  0.0000E+00  0.0000E+00
     -3.786  0.0000E+00  0.0000E+00  0.0000E+00
     -3.684  0.0000E+00  0.0000E+00  0.0000E+00
     -3.582  0.0000E+00  0.0000E+00  0.0000E+00
     -3.480  0.5579E-30  0.7658E-13  0.4286E-27
     -3.378  0.1186E-17  0.1420E-01  0.3661E-03
     -3.276  0.1842E-16  0.6370E-02  0.1407E-02
     -3.173  0.1604E-18  0.1268E-17  0.3931E-17
     -3.071  0.0000E+00  0.0000E+00  0.0000E+00
     -2.969  0.0000E+00  0.0000E+00  0.0000E+00
     -2.867  0.0000E+00  0.0000E+00  0.0000E+00
     -2.765  0.0000E+00  0.0000E+00  0.0000E+00
     -2.663  0.7815E-07  0.6985E-04  0.1403E-06
     -2.561  0.9671E-05  0.1611E-01  0.4638E-03
     -2.458  0.2660E-03  0.3546E-02  0.1057E-02
     -2.356  0.6666E-17  0.5834E-02  0.1600E-02
     -2.254  0.4646E-02  0.5793E-02  0.1424E-02
     -2.152  0.4418E-02  0.1730E-01  0.3249E-02
     -2.050  0.8161E-03  0.8588E-02  0.3756E-03
     -1.948  0.2202E-01  0.3629E-01  0.3134E-02
     -1.846  0.3155E-02  0.7692E-02  0.2136E-03
     -1.744  0.9027E-04  0.5364E-01  0.2599E-02
     -1.641  0.1038E-04  0.4572E-02  0.4704E-03
     -1.539  0.2187E-02  0.7314E-01  0.9730E-02
     -1.437  0.2444E-18  0.7975E-04  0.4213E-02
     -1.335  0.8658E-04  0.1813E-01  0.1434E-01
     -1.233  0.6948E-04  0.5308E-01  0.1124E-01
     -1.131  0.3026E-11  0.2151E-01  0.2052E-02
     -1.029  0.4658E-02  0.1252E-01  0.6479E-02
     -0.926  0.2349E-02  0.1755E-01  0.5473E-02
     -0.824  0.0000E+00  0.0000E+00  0.0000E+00
     -0.722  0.3986E-04  0.5680E-03  0.1321E-02
     -0.620  0.0000E+00  0.0000E+00  0.0000E+00
     -0.518  0.2801E-32  0.1810E-19  0.4477E-31
     -0.416  0.6140E-16  0.4226E-03  0.1046E-14
     -0.314  0.2267E-20  0.5408E-08  0.3311E-09
     -0.211  0.8645E-15  0.2264E-02  0.2297E-03
     -0.109  0.1305E-16  0.1373E-02  0.1017E-03
     -0.007  0.0000E+00  0.0000E+00  0.0000E+00
      0.095  0.0000E+00  0.0000E+00  0.0000E+00
      0.197  0.0000E+00  0.0000E+00  0.0000E+00
      0.299  0.3006E-15  0.8259E-17  0.3087E-03
      0.401  0.6381E-27  0.7426E-26  0.2293E-12
      0.504  0.6489E-17  0.7942E-16  0.2166E-03
      0.606  0.0000E+00  0.0000E+00  0.0000E+00
      0.708  0.0000E+00  0.0000E+00  0.0000E+00
      0.810  0.0000E+00  0.0000E+00  0.0000E+00
      0.912  0.0000E+00  0.0000E+00  0.0000E+00
      1.014  0.3778E-16  0.9907E-18  0.2328E-15
      1.116  0.0000E+00  0.0000E+00  0.0000E+00
      1.218  0.0000E+00  0.0000E+00  0.0000E+00
      1.321  0.0000E+00  0.0000E+00  0.0000E+00
      1.423  0.0000E+00  0.0000E+00  0.0000E+00
      1.525  0.0000E+00  0.0000E+00  0.0000E+00
      1.627  0.0000E+00  0.0000E+00  0.0000E+00
      1.729  0.0000E+00  0.0000E+00  0.0000E+00
      1.831  0.0000E+00  0.0000E+00  0.0000E+00
      1.933  0.0000E+00  0.0000E+00  0.0000E+00
      2.036  0.0000E+00  0.0000E+00  0.0000E+00
      2.138  0.0000E+00  0.0000E+00  0.0000E+00
      2.240  0.0000E+00  0.0000E+00  0.0000E+00
      2.342  0.0000E+00  0.0000E+00  0.0000E+00
      2.444  0.0000E+00  0.0000E+00  0.0000E+00
      2.546  0.0000E+00  0.0000E+00  0.0000E+00
      2.648  0.0000E+00  0.0000E+00  0.0000E+00
      2.751  0.0000E+00  0.0000E+00  0.0000E+00
      2.853  0.3788E-15  0.3500E-15  0.2557E-02
      2.955  0.0000E+00  0.0000E+00  0.0000E+00
      3.057  0.2328E-26  0.1898E-15  0.2399E-13
      3.159  0.4557E-15  0.1597E-03  0.4680E-02
      3.261  0.0000E+00  0.0000E+00  0.0000E+00
      3.363  0.1479E-03  0.3182E-03  0.2398E-02
      3.465  0.0000E+00  0.0000E+00  0.0000E+00
      3.568  0.2539E-08  0.2540E-08  0.1167E-08
      3.670  0.4106E-03  0.2992E-03  0.1289E-03
      3.772  0.0000E+00  0.0000E+00  0.0000E+00
      3.874  0.1952E-03  0.2934E-17  0.1281E-03
      3.976  0.0000E+00  0.0000E+00  0.0000E+00
      4.078  0.0000E+00  0.0000E+00  0.0000E+00
      4.180  0.0000E+00  0.0000E+00  0.0000E+00
      4.283  0.0000E+00  0.0000E+00  0.0000E+00
      4.385  0.0000E+00  0.0000E+00  0.0000E+00
      4.487  0.0000E+00  0.0000E+00  0.0000E+00
      4.589  0.1465E-01  0.8140E-18  0.1848E-04
      4.691  0.9369E-14  0.2252E-12  0.1837E-01
      4.793  0.5489E-15  0.7945E-04  0.6083E-02
      4.895  0.4291E-14  0.5789E-02  0.2142E-01
      4.998  0.4017E-03  0.3889E-03  0.1057E-01
      5.100  0.1302E-01  0.1275E-01  0.1526E-01
      5.202  0.7814E-06  0.4538E-06  0.1317E-06
      5.304  0.3476E-01  0.2303E-01  0.5068E-02
      5.406  0.0000E+00  0.0000E+00  0.0000E+00
      5.508  0.9403E-10  0.1043E-20  0.1324E-05
      5.610  0.2989E-02  0.1213E-02  0.7360E-01
      5.712  0.1913E-11  0.4565E-12  0.1121E-11
      5.815  0.1090E+00  0.2637E-01  0.6104E-01
      5.917  0.4666E-06  0.9284E-04  0.1237E-02
      6.019  0.3235E-01  0.5456E-02  0.3525E+00
      6.121  0.1049E+00  0.6907E-02  0.7429E-01
      6.223  0.3240E-09  0.4069E-11  0.4688E-08
      6.325  0.4359E-02  0.3386E-02  0.5182E+00
      6.427  0.6695E-01  0.2704E-01  0.6111E+00
      6.530  0.1857E+00  0.3029E-01  0.2798E+00
      6.632  0.3987E-01  0.3370E-01  0.8586E+00
      6.734  0.1513E-04  0.6239E-01  0.1356E+00
      6.836  0.9612E-06  0.3428E-07  0.1240E+00
      6.938  0.0000E+00  0.0000E+00  0.0000E+00
      7.040  0.0000E+00  0.0000E+00  0.0000E+00
      7.142  0.0000E+00  0.0000E+00  0.0000E+00
      7.245  0.0000E+00  0.0000E+00  0.0000E+00
      7.347  0.0000E+00  0.0000E+00  0.0000E+00
      7.449  0.0000E+00  0.0000E+00  0.0000E+00
      7.551  0.0000E+00  0.0000E+00  0.0000E+00
      7.653  0.0000E+00  0.0000E+00  0.0000E+00
      7.755  0.0000E+00  0.0000E+00  0.0000E+00
      7.857  0.0000E+00  0.0000E+00  0.0000E+00
      7.959  0.0000E+00  0.0000E+00  0.0000E+00
      8.062  0.0000E+00  0.0000E+00  0.0000E+00
      8.164  0.0000E+00  0.0000E+00  0.0000E+00
      8.16376019    -22.47725879  301      1.06525746      1.00000000
    -22.477  0.0000E+00  0.0000E+00  0.0000E+00
    -22.375  0.0000E+00  0.0000E+00  0.0000E+00
    -22.273  0.0000E+00  0.0000E+00  0.0000E+00
    -22.171  0.0000E+00  0.0000E+00  0.0000E+00
    -22.069  0.0000E+00  0.0000E+00  0.0000E+00
    -21.967  0.0000E+00  0.0000E+00  0.0000E+00
    -21.864  0.0000E+00  0.0000E+00  0.0000E+00
    -21.762  0.0000E+00  0.0000E+00  0.0000E+00
    -21.660  0.0000E+00  0.0000E+00  0.0000E+00
    -21.558  0.0000E+00  0.0000E+00  0.0000E+00
    -21.456  0.0000E+00  0.0000E+00  0.0000E+00
    -21.354  0.0000E+00  0.0000E+00  0.0000E+00
    -21.252  0.0000E+00  0.0000E+00  0.0000E+00
    -21.149  0.0000E+00  0.0000E+00  0.0000E+00
    -21.047  0.1738E+02  0.7407E-07  0.6543E-06
    -20.945  0.0000E+00  0.0000E+00  0.0000E+00
    -20.843  0.0000E+00  0.0000E+00  0.0000E+00
    -20.741  0.0000E+00  0.0000E+00  0.0000E+00
    -20.639  0.0000E+00  0.0000E+00  0.0000E+00
    -20.537  0.0000E+00  0.0000E+00  0.0000E+00
    -20.435  0.0000E+00  0.0000E+00  0.0000E+00
    -20.332  0.0000E+00  0.0000E+00  0.0000E+00
    -20.230  0.0000E+00  0.0000E+00  0.0000E+00
    -20.128  0.0000E+00  0.0000E+00  0.0000E+00
    -20.026  0.0000E+00  0.0000E+00  0.0000E+00
    -19.924  0.0000E+00  0.0000E+00  0.0000E+00
    -19.822  0.0000E+00  0.0000E+00  0.0000E+00
    -19.720  0.0000E+00  0.0000E+00  0.0000E+00
    -19.617  0.0000E+00  0.0000E+00  0.0000E+00
    -19.515  0.0000E+00  0.0000E+00  0.0000E+00
    -19.413  0.0000E+00  0.0000E+00  0.0000E+00
    -19.311  0.0000E+00  0.0000E+00  0.0000E+00
    -19.209  0.0000E+00  0.0000E+00  0.0000E+00
    -19.107  0.0000E+00  0.0000E+00  0.0000E+00
    -19.005  0.0000E+00  0.0000E+00  0.0000E+00
    -18.902  0.0000E+00  0.0000E+00  0.0000E+00
    -18.800  0.0000E+00  0.0000E+00  0.0000E+00
    -18.698  0.0000E+00  0.0000E+00  0.0000E+00
    -18.596  0.0000E+00  0.0000E+00  0.0000E+00
    -18.494  0.0000E+00  0.0000E+00  0.0000E+00
    -18.392  0.0000E+00  0.0000E+00  0.0000E+00
    -18.290  0.0000E+00  0.0000E+00  0.0000E+00
    -18.188  0.0000E+00  0.0000E+00  0.0000E+00
    -18.085  0.0000E+00  0.0000E+00  0.0000E+00
    -17.983  0.0000E+00  0.0000E+00  0.0000E+00
    -17.881  0.0000E+00  0.0000E+00  0.0000E+00
    -17.779  0.0000E+00  0.0000E+00  0.0000E+00
    -17.677  0.0000E+00  0.0000E+00  0.0000E+00
    -17.575  0.0000E+00  0.0000E+00  0.0000E+00
    -17.473  0.0000E+00  0.0000E+00  0.0000E+00
    -17.370  0.0000E+00  0.0000E+00  0.0000E+00
    -17.268  0.0000E+00  0.0000E+00  0.0000E+00
    -17.166  0.0000E+00  0.0000E+00  0.0000E+00
    -17.064  0.0000E+00  0.0000E+00  0.0000E+00
    -16.962  0.0000E+00  0.0000E+00  0.0000E+00
    -16.860  0.0000E+00  0.0000E+00  0.0000E+00
    -16.758  0.0000E+00  0.0000E+00  0.0000E+00
    -16.655  0.0000E+00  0.0000E+00  0.0000E+00
    -16.553  0.0000E+00  0.0000E+00  0.0000E+00
    -16.451  0.0000E+00  0.0000E+00  0.0000E+00
    -16.349  0.0000E+00  0.0000E+00  0.0000E+00
    -16.247  0.2158E-05  0.4275E-05  0.3937E-05
    -16.145  0.1540E-05  0.3659E-04  0.4635E-05
    -16.043  0.2633E-04  0.2081E-04  0.2078E-05
    -15.941  0.0000E+00  0.0000E+00  0.0000E+00
    -15.838  0.0000E+00  0.0000E+00  0.0000E+00
    -15.736  0.0000E+00  0.0000E+00  0.0000E+00
    -15.634  0.0000E+00  0.0000E+00  0.0000E+00
    -15.532  0.0000E+00  0.0000E+00  0.0000E+00
    -15.430  0.0000E+00  0.0000E+00  0.0000E+00
    -15.328  0.0000E+00  0.0000E+00  0.0000E+00
    -15.226  0.0000E+00  0.0000E+00  0.0000E+00
    -15.123  0.0000E+00  0.0000E+00  0.0000E+00
    -15.021  0.0000E+00  0.0000E+00  0.0000E+00
    -14.919  0.0000E+00  0.0000E+00  0.0000E+00
    -14.817  0.0000E+00  0.0000E+00  0.0000E+00
    -14.715  0.0000E+00  0.0000E+00  0.0000E+00
    -14.613  0.0000E+00  0.0000E+00  0.0000E+00
    -14.511  0.0000E+00  0.0000E+00  0.0000E+00
    -14.408  0.3082E-05  0.5616E-21  0.1067E-08
    -14.306  0.8530E-03  0.2683E-03  0.1094E-05
    -14.204  0.1390E-02  0.1295E-02  0.2002E-04
    -14.102  0.3497E-15  0.1965E-02  0.1962E-04
    -14.000  0.9343E-04  0.1389E-02  0.7708E-04
    -13.898  0.7895E-17  0.7516E-18  0.9432E-04
    -13.796  0.2831E-04  0.1088E-02  0.1484E-03
    -13.694  0.1446E-03  0.2949E-03  0.8418E-04
    -13.591  0.1397E-04  0.2891E-04  0.2267E-04
    -13.489  0.0000E+00  0.0000E+00  0.0000E+00
    -13.387  0.0000E+00  0.0000E+00  0.0000E+00