       N       E                     dE             d eps       ncg     rms          rms(c)
DAV:   1     0.134286141636E+04    0.13429E+04   -0.11295E+05  2688   0.958E+02
DAV:   2    -0.112823127526E+04   -0.24711E+04   -0.23829E+04  3104   0.295E+02
DAV:   3    -0.149433245217E+04   -0.36610E+03   -0.36374E+03  3480   0.135E+02
DAV:   4    -0.150700184947E+04   -0.12669E+02   -0.12614E+02  3080   0.325E+01
DAV:   5    -0.150761254191E+04   -0.61069E+00   -0.61032E+00  3456   0.557E+00    0.107E+01
DAV:   6    -0.142918657497E+04    0.78426E+02   -0.22490E+01  3344   0.279E+01    0.755E+00
DAV:   7    -0.142868342625E+04    0.50315E+00   -0.74771E+00  3216   0.486E+00    0.363E+00
DAV:   8    -0.142885301299E+04   -0.16959E+00   -0.36847E-01  3168   0.174E+00    0.209E+00
DAV:   9    -0.142893296325E+04   -0.79950E-01   -0.14807E-01  2832   0.118E+00    0.476E-01
DAV:  10    -0.142893399412E+04   -0.10309E-02   -0.92536E-03  3600   0.347E-01    0.272E-01
DAV:  11    -0.142893688681E+04   -0.28927E-02   -0.26412E-03  3016   0.166E-01    0.966E-02
DAV:  12    -0.142893768480E+04   -0.79799E-03   -0.10041E-03  2904   0.997E-02    0.413E-02
DAV:  13    -0.142893770035E+04   -0.15545E-04   -0.11650E-04  3272   0.264E-02    0.157E-02
DAV:  14    -0.142893773311E+04   -0.32765E-04   -0.10353E-05  2880   0.695E-03    0.779E-03
DAV:  15    -0.142893772195E+04    0.11162E-04   -0.96270E-07  1784   0.379E-03    0.116E-03
DAV:  16    -0.142893771623E+04    0.57215E-05   -0.50090E-07  1696   0.189E-03    0.815E-04
DAV:  17    -0.142893770987E+04    0.63627E-05   -0.10788E-07  1656   0.147E-03    0.184E-04
DAV:  18    -0.142893770793E+04    0.19390E-05   -0.51197E-08  1656   0.643E-04    0.186E-04
DAV:  19    -0.142893770891E+04   -0.97731E-06   -0.16493E-08  1656   0.576E-04
   1 F= -.14289377E+04 E0= -.14289377E+04  d E =-.284647E-13
