<?xml version="1.0" encoding="ISO-8859-1"?>
<modeling>
 <generator>
  <i name="program" type="string">vasp </i>
  <i name="version" type="string">5.4.4.18Apr17-6-g9f103f2a35  </i>
  <i name="subversion" type="string">(build Jun 22 2020 09:27:21) complex            parallel </i>
  <i name="platform" type="string">tx2_gcc-7.3_libsci-18.07_cray-fftw-3.3.8 </i>
  <i name="date" type="string">2021 09 22 </i>
  <i name="time" type="string">08:17:59 </i>
 </generator>
 <incar>
  <i type="string" name="SYSTEM"> CsPbBr3 cubic bulk</i>
  <i type="string" name="PREC">accurate</i>
  <i type="string" name="ALGO"> Normal   ! Electronic minimisation algo</i>
  <i type="logical" name="ADDGRID"> T  </i>
  <i type="int" name="NELM">   200</i>
  <i type="int" name="IBRION">     2</i>
  <i name="EDIFF">      0.00000100</i>
  <i name="EDIFFG">     -0.01000000</i>
  <i type="int" name="NSW">     0</i>
  <i type="int" name="ISIF">     3</i>
  <i type="int" name="ISYM">     2</i>
  <i name="ENCUT">    300.00000000</i>
  <i name="POTIM">      0.50000000</i>
  <i type="string" name="LREAL"> AUTO</i>
  <i type="int" name="ISMEAR">     0</i>
  <i name="SIGMA">      0.01000000</i>
  <i name="PSTRESS">      0.00000000</i>
  <i type="logical" name="LWAVE"> F  </i>
  <i type="logical" name="LCHARG"> T  </i>
  <i type="logical" name="LVHAR"> T  </i>
  <i type="int" name="LORBIT">    10</i>
  <i type="logical" name="LASPH"> T  </i>
  <v type="int" name="KPOINT_BSE">    -1     0     0     0</v>
  <i type="int" name="NELM">   200</i>
  <i type="string" name="METAGGA"> SCAN       ! PBE exchange-correlation</i>
  <i type="logical" name="LASPH"> T  </i>
 </incar>
 <structure name="primitive_cell" >
  <crystal>
   <varray name="basis" >
    <v>       5.86767600      -5.86767600       0.00000000 </v>
    <v>      -5.86767600      -5.86767600       0.00000000 </v>
    <v>       0.00000000       0.00000000      -5.86767600 </v>
   </varray>
   <i name="volume">    404.04372918 </i>
   <varray name="rec_basis" >
    <v>       0.08521261      -0.08521261       0.00000000 </v>
    <v>      -0.08521261      -0.08521261      -0.00000000 </v>
    <v>       0.00000000      -0.00000000      -0.17042522 </v>
   </varray>
  </crystal>
  <varray name="positions" >
   <v>       0.00000000      -0.50000000      -0.50000000 </v>
   <v>       0.23875000      -0.26125000       0.00000000 </v>
   <v>      -0.23875000       0.26125000       0.00000000 </v>
   <v>       0.00000000       0.00000000      -0.50000000 </v>
   <v>      -0.50000000      -0.50000000      -0.50000000 </v>
   <v>      -0.26125000      -0.23875000       0.00000000 </v>
   <v>       0.26125000       0.23875000       0.00000000 </v>
   <v>       0.00000000       0.00000000       0.00000000 </v>
   <v>      -0.50000000      -0.50000000       0.00000000 </v>
   <v>      -0.50000000       0.00000000      -0.50000000 </v>
  </varray>
 </structure>
 <varray name="primitive_index" >
  <v type="int" >        1 </v>
  <v type="int" >       33 </v>
  <v type="int" >       35 </v>
  <v type="int" >       25 </v>
  <v type="int" >       27 </v>
  <v type="int" >       17 </v>
  <v type="int" >       21 </v>
  <v type="int" >        9 </v>
  <v type="int" >       11 </v>
  <v type="int" >        3 </v>
 </varray>
 <kpoints>
  <generation param="Gamma">
   <v type="int" name="divisions">       2        2        2 </v>
   <v name="usershift">      0.00000000       0.00000000       0.00000000 </v>
   <v name="genvec1">      0.50000000       0.00000000       0.00000000 </v>
   <v name="genvec2">      0.00000000       0.50000000       0.00000000 </v>
   <v name="genvec3">      0.00000000       0.00000000       0.50000000 </v>
   <v name="shift">      0.00000000       0.00000000       0.00000000 </v>
  </generation>
  <varray name="kpointlist" >
   <v>       0.00000000       0.00000000       0.00000000 </v>
   <v>       0.50000000       0.00000000       0.00000000 </v>
   <v>       0.50000000       0.50000000       0.00000000 </v>
   <v>       0.00000000       0.00000000       0.50000000 </v>
   <v>       0.50000000       0.00000000       0.50000000 </v>
   <v>       0.50000000       0.50000000       0.50000000 </v>
  </varray>
  <varray name="weights" >
   <v>       0.12500000 </v>
   <v>       0.25000000 </v>
   <v>       0.12500000 </v>
   <v>       0.12500000 </v>
   <v>       0.25000000 </v>
   <v>       0.12500000 </v>
  </varray>
 </kpoints>
 <parameters>
  <separator name="general" >
   <i type="string" name="SYSTEM">CsPbBr3 cubic bulk</i>
   <i type="logical" name="LCOMPAT"> F  </i>
  </separator>
  <separator name="electronic" >
   <i type="string" name="PREC">accura</i>
   <i name="ENMAX">    300.00000000</i>
   <i name="ENAUG">    503.85200000</i>
   <i name="EDIFF">      0.00000100</i>
   <i type="int" name="IALGO">    38</i>
   <i type="int" name="IWAVPR">    10</i>
   <i type="int" name="NBANDS">   216</i>
   <i name="NELECT">    352.00000000</i>
   <i type="int" name="TURBO">     0</i>
   <i type="int" name="IRESTART">     0</i>
   <i type="int" name="NREBOOT">     0</i>
   <i type="int" name="NMIN">     0</i>
   <i name="EREF">      0.00000000</i>
   <separator name="electronic smearing" >
    <i type="int" name="ISMEAR">     0</i>
    <i name="SIGMA">      0.01000000</i>
    <i name="KSPACING">      0.50000000</i>
    <i type="logical" name="KGAMMA"> T  </i>
   </separator>
   <separator name="electronic projectors" >
    <i type="logical" name="LREAL"> T  </i>
    <v name="ROPT">     -0.00025000     -0.00025000     -0.00025000</v>
    <i type="int" name="LMAXPAW">  -100</i>
    <i type="int" name="LMAXMIX">     2</i>
    <i type="logical" name="NLSPLINE"> F  </i>
   </separator>
   <separator name="electronic startup" >
    <i type="int" name="ISTART">     0</i>
    <i type="int" name="ICHARG">     2</i>
    <i type="int" name="INIWAV">     1</i>
   </separator>
   <separator name="electronic spin" >
    <i type="int" name="ISPIN">     1</i>
    <i type="logical" name="LNONCOLLINEAR"> F  </i>
    <v name="MAGMOM">      1.00000000      1.00000000      1.00000000      1.00000000      1.00000000      1.00000000      1.00000000      1.00000000      1.00000000      1.00000000      1.00000000      1.00000000      1.00000000      1.00000000      1.00000000      1.00000000      1.00000000      1.00000000      1.00000000      1.00000000
      1.00000000      1.00000000      1.00000000      1.00000000      1.00000000      1.00000000      1.00000000      1.00000000      1.00000000      1.00000000      1.00000000      1.00000000      1.00000000      1.00000000      1.00000000      1.00000000      1.00000000      1.00000000      1.00000000      1.00000000
</v>
    <i name="NUPDOWN">     -1.00000000</i>
    <i type="logical" name="LSORBIT"> F  </i>
    <v name="SAXIS">      0.00000000      0.00000000      1.00000000</v>
    <i type="logical" name="LSPIRAL"> F  </i>
    <v name="QSPIRAL">      0.00000000      0.00000000      0.00000000</v>
    <i type="logical" name="LZEROZ"> F  </i>
   </separator>
   <separator name="electronic exchange-correlation" >
    <i type="logical" name="LASPH"> T  </i>
    <i type="logical" name="LMETAGGA"> F  </i>
   </separator>
   <separator name="electronic convergence" >
    <i type="int" name="NELM">   200</i>
    <i type="int" name="NELMDL">    -5</i>
    <i type="int" name="NELMIN">     2</i>
    <i name="ENINI">    300.00000000</i>
    <separator name="electronic convergence detail" >
     <i type="logical" name="LDIAG"> T  </i>
     <i type="logical" name="LSUBROT"> F  </i>
     <i name="WEIMIN">      0.00000000</i>
     <i name="EBREAK">      0.00000000</i>
     <i name="DEPER">      0.30000000</i>
     <i type="int" name="NRMM">     4</i>
     <i name="TIME">      0.40000000</i>
    </separator>
   </separator>
   <separator name="electronic mixer" >
    <i name="AMIX">      0.40000000</i>
    <i name="BMIX">      1.00000000</i>
    <i name="AMIN">      0.10000000</i>
    <i name="AMIX_MAG">      1.60000000</i>
    <i name="BMIX_MAG">      1.00000000</i>
    <separator name="electronic mixer details" >
     <i type="int" name="IMIX">     4</i>
     <i type="logical" name="MIXFIRST"> F  </i>
     <i type="int" name="MAXMIX">   -45</i>
     <i name="WC">    100.00000000</i>
     <i type="int" name="INIMIX">     1</i>
     <i type="int" name="MIXPRE">     1</i>
     <i type="int" name="MREMOVE">     5</i>
    </separator>
   </separator>
   <separator name="electronic dipolcorrection" >
    <i type="logical" name="LDIPOL"> F  </i>
    <i type="logical" name="LMONO"> F  </i>
    <i type="int" name="IDIPOL">     0</i>
    <i name="EPSILON">      1.00000000</i>
    <v name="DIPOL">   -100.00000000   -100.00000000   -100.00000000</v>
    <i name="EFIELD">      0.00000000</i>
   </separator>
  </separator>
  <separator name="grids" >
   <i type="int" name="NGX">    70</i>
   <i type="int" name="NGY">    70</i>
   <i type="int" name="NGZ">    70</i>
   <i type="int" name="NGXF">   140</i>
   <i type="int" name="NGYF">   140</i>
   <i type="int" name="NGZF">   140</i>
   <i type="logical" name="ADDGRID"> T  </i>
  </separator>
  <separator name="ionic" >
   <i type="int" name="NSW">     0</i>
   <i type="int" name="IBRION">    -1</i>
   <i type="int" name="MDALGO">     0</i>
   <i type="int" name="ISIF">     3</i>
   <i name="PSTRESS">      0.00000000</i>
   <i name="EDIFFG">     -0.01000000</i>
   <i type="int" name="NFREE">     1</i>
   <i name="POTIM">      0.50000000</i>
   <i name="SMASS">     -3.00000000</i>
   <i name="SCALEE">      1.00000000</i>
  </separator>
  <separator name="ionic md" >
   <i name="TEBEG">      0.00010000</i>
   <i name="TEEND">      0.00010000</i>
   <i type="int" name="NBLOCK">     1</i>
   <i type="int" name="KBLOCK">     1</i>
   <i type="int" name="NPACO">   256</i>
   <i name="APACO">     16.00000000</i>
  </separator>
  <separator name="symmetry" >
   <i type="int" name="ISYM">     2</i>
   <i name="SYMPREC">      0.00001000</i>
  </separator>
  <separator name="dos" >
   <i type="int" name="LORBIT">    10</i>
   <v name="RWIGS">     -1.00000000     -1.00000000     -1.00000000</v>
   <i type="int" name="NEDOS">   301</i>
   <i name="EMIN">     10.00000000</i>
   <i name="EMAX">    -10.00000000</i>
   <i name="EFERMI">      0.00000000</i>
  </separator>
  <separator name="writing" >
   <i type="int" name="NWRITE">     2</i>
   <i type="logical" name="LWAVE"> F  </i>
   <i type="logical" name="LDOWNSAMPLE"> F  </i>
   <i type="logical" name="LCHARG"> T  </i>
   <i type="logical" name="LPARD"> F  </i>
   <i type="logical" name="LVTOT"> F  </i>
   <i type="logical" name="LVHAR"> T  </i>
   <i type="logical" name="LELF"> F  </i>
   <i type="logical" name="LOPTICS"> F  </i>
   <v name="STM">      0.00000000      0.00000000      0.00000000      0.00000000      0.00000000      0.00000000      0.00000000</v>
  </separator>
  <separator name="performance" >
   <i type="int" name="NPAR">     8</i>
   <i type="int" name="NSIM">     4</i>
   <i type="int" name="NBLK">    -1</i>
   <i type="logical" name="LPLANE"> T  </i>
   <i type="logical" name="LSCALAPACK"> T  </i>
   <i type="logical" name="LSCAAWARE"> F  </i>
   <i type="logical" name="LSCALU"> F  </i>
   <i type="logical" name="LASYNC"> F  </i>
   <i type="logical" name="LORBITALREAL"> F  </i>
  </separator>
  <separator name="miscellaneous" >
   <i type="int" name="IDIOT">     3</i>
   <i type="int" name="ISPECIAL">     0</i>
   <i type="logical" name="LMUSIC"> F  </i>
   <v name="POMASS">    132.90000000    207.20000000     79.90400000</v>
   <v name="DARWINR">      0.00000000      0.00000000      0.00000000</v>
   <v name="DARWINV">      1.00000000      1.00000000      1.00000000</v>
   <i type="logical" name="LCORR"> T  </i>
  </separator>
  <i type="logical" name="GGA_COMPAT"> T  </i>
  <i type="logical" name="LBERRY"> F  </i>
  <i type="int" name="ICORELEVEL">     0</i>
  <i type="logical" name="LDAU"> F  </i>
  <i type="int" name="I_CONSTRAINED_M">     0</i>
  <separator name="electronic exchange-correlation" >
   <i type="string" name="GGA">--</i>
   <i type="int" name="VOSKOWN">     0</i>
   <i type="logical" name="LHFCALC"> F  </i>
   <i type="string" name="PRECFOCK"></i>
   <i type="logical" name="LSYMGRAD"> F  </i>
   <i type="logical" name="LHFONE"> F  </i>
   <i type="logical" name="LRHFCALC"> F  </i>
   <i type="logical" name="LTHOMAS"> F  </i>
   <i type="logical" name="LMODELHF"> F  </i>
   <i name="ENCUT4O">     -1.00000000</i>
   <i type="int" name="EXXOEP">     0</i>
   <i type="int" name="FOURORBIT">     0</i>
   <i name="AEXX">      0.00000000</i>
   <i name="HFALPHA">      0.00000000</i>
   <i name="MCALPHA">      0.00000000</i>
   <i name="ALDAX">      1.00000000</i>
   <i name="AGGAX">      1.00000000</i>
   <i name="ALDAC">      1.00000000</i>
   <i name="AGGAC">      1.00000000</i>
   <i type="int" name="NKREDX">     1</i>
   <i type="int" name="NKREDY">     1</i>
   <i type="int" name="NKREDZ">     1</i>
   <i type="logical" name="SHIFTRED"> F  </i>
   <i type="logical" name="ODDONLY"> F  </i>
   <i type="logical" name="EVENONLY"> F  </i>
   <i type="int" name="LMAXFOCK">     0</i>
   <i type="int" name="NMAXFOCKAE">     0</i>
   <i type="logical" name="LFOCKAEDFT"> F  </i>
   <i name="HFSCREEN">      0.00000000</i>
   <i name="HFSCREENC">      0.00000000</i>
   <i type="int" name="NBANDSGWLOW">     0</i>
  </separator>
  <separator name="vdW DFT" >
   <i type="logical" name="LUSE_VDW"> F  </i>
   <i name="Zab_VDW">     -0.84910000</i>
   <i name="PARAM1">      0.12340000</i>
   <i name="PARAM2">      1.00000000</i>
   <i name="PARAM3">      0.00000000</i>
  </separator>
  <separator name="model GW" >
   <i type="int" name="MODEL_GW">     0</i>
   <i name="MODEL_EPS0">     24.24262375</i>
   <i name="MODEL_ALPHA">      1.00000000</i>
  </separator>
  <separator name="linear response parameters" >
   <i type="logical" name="LEPSILON"> F  </i>
   <i type="logical" name="LRPA"> F  </i>
   <i type="logical" name="LNABLA"> F  </i>
   <i type="logical" name="LVEL"> F  </i>
   <i type="int" name="KINTER">     0</i>
   <i name="CSHIFT">      0.10000000</i>
   <i name="OMEGAMAX">     -1.00000000</i>
   <i name="DEG_THRESHOLD">      0.00200000</i>
   <i name="RTIME">     -0.10000000</i>
   <i name="WPLASMAI">      0.00000000</i>
   <v name="DFIELD">      0.00000000      0.00000000      0.00000000</v>
   <v name="WPLASMA">      0.00000000      0.00000000      0.00000000      0.00000000      0.00000000      0.00000000      0.00000000      0.00000000      0.00000000</v>
  </separator>
  <separator name="orbital magnetization" >
   <i type="logical" name="NUCIND"> F  </i>
   <v name="MAGPOS">      0.00000000      0.00000000      0.00000000</v>
   <i type="logical" name="LNICSALL"> T  </i>
   <i type="logical" name="ORBITALMAG"> F  </i>
   <i type="logical" name="LMAGBLOCH"> F  </i>
   <i type="logical" name="LCHIMAG"> F  </i>
   <i type="logical" name="LGAUGE"> T  </i>
   <i type="int" name="MAGATOM">     0</i>
   <v name="MAGDIPOL">      0.00000000      0.00000000      0.00000000</v>
   <v name="AVECCONST">      0.00000000      0.00000000      0.00000000</v>
  </separator>
  <separator name="response functions" >
   <i type="logical" name="LADDER"> F  </i>
   <i type="logical" name="LRPAFORCE"> F  </i>
   <i type="logical" name="LFXC"> F  </i>
   <i type="logical" name="LHARTREE"> T  </i>
   <i type="int" name="IBSE">     0</i>
   <v type="int" name="KPOINT">    -1     0     0     0</v>
   <i type="logical" name="LTCTE"> F  </i>
   <i type="logical" name="LTETE"> F  </i>
   <i type="logical" name="LTRIPLET"> F  </i>
   <i type="logical" name="LFXCEPS"> F  </i>
   <i type="logical" name="LFXHEG"> F  </i>
   <i type="int" name="NATURALO">     2</i>
   <i type="logical" name="L2ORDER"> F  </i>
   <i type="logical" name="LMP2LT"> F  </i>
   <i type="logical" name="LUSEW"> F  </i>
   <i name="ENCUTGW">     -2.00000000</i>
   <i name="ENCUTGWSOFT">     -2.00000000</i>
   <i name="ENCUTLF">     -1.00000000</i>
   <i type="int" name="LMAXMP2">    -1</i>
   <i name="SCISSOR">      0.00000000</i>
   <i type="int" name="NOMEGA">     0</i>
   <i type="int" name="NOMEGAR">     0</i>
   <i type="int" name="NBANDSGW">    -1</i>
   <i type="int" name="NBANDSO">    -1</i>
   <i type="int" name="NBANDSV">    -1</i>
   <i type="int" name="NELM">   200</i>
   <i type="int" name="NELMHF">     1</i>
   <i type="int" name="DIM">     3</i>
   <i type="int" name="ANTIRES">     0</i>
   <i name="OMEGAMAX">    -30.00000000</i>
   <i name="OMEGAMIN">    -30.00000000</i>
   <i name="OMEGATL">   -200.00000000</i>
   <i type="int" name="OMEGAGRID">   140</i>
   <i name="CSHIFT">     -0.10000000</i>
   <i type="logical" name="SELFENERGY"> F  </i>
   <i type="logical" name="LSPECTRAL"> F  </i>
   <i type="logical" name="LSPECTRALGW"> F  </i>
   <i type="logical" name="LSINGLES"> F  </i>
   <i type="logical" name="LFERMIGW"> F  </i>
   <i type="logical" name="ODDONLYGW"> F  </i>
   <i type="logical" name="EVENONLYGW"> F  </i>
   <i type="int" name="NKREDLFX">     1</i>
   <i type="int" name="NKREDLFY">     1</i>
   <i type="int" name="NKREDLFZ">     1</i>
   <i type="int" name="MAXMEM">  2800</i>
   <i type="int" name="TELESCOPE">     0</i>
   <i type="int" name="TAUPAR">     1</i>
   <i type="int" name="OMEGAPAR">    -1</i>
   <i name="LAMBDA">      1.00000000</i>
  </separator>
  <separator name="External order field" >
   <i name="OFIELD_KAPPA">      0.00000000</i>
   <v name="OFIELD_K">      0.00000000      0.00000000      0.00000000</v>
   <i name="OFIELD_Q6_NEAR">      0.00000000</i>
   <i name="OFIELD_Q6_FAR">      0.00000000</i>
   <i name="OFIELD_A">      0.00000000</i>
  </separator>
 </parameters>
 <atominfo>
  <atoms>      40 </atoms>
  <types>       3 </types>
  <array name="atoms" >
   <dimension dim="1">ion</dimension>
   <field type="string">element</field>
   <field type="int">atomtype</field>
   <set>
    <rc><c>Cs</c><c>   1</c></rc>
    <rc><c>Cs</c><c>   1</c></rc>
    <rc><c>Cs</c><c>   1</c></rc>
    <rc><c>Cs</c><c>   1</c></rc>
    <rc><c>Cs</c><c>   1</c></rc>
    <rc><c>Cs</c><c>   1</c></rc>
    <rc><c>Cs</c><c>   1</c></rc>
    <rc><c>Cs</c><c>   1</c></rc>
    <rc><c>Pb</c><c>   2</c></rc>
    <rc><c>Pb</c><c>   2</c></rc>
    <rc><c>Pb</c><c>   2</c></rc>
    <rc><c>Pb</c><c>   2</c></rc>
    <rc><c>Pb</c><c>   2</c></rc>
    <rc><c>Pb</c><c>   2</c></rc>
    <rc><c>Pb</c><c>   2</c></rc>
    <rc><c>Pb</c><c>   2</c></rc>
    <rc><c>Br</c><c>   3</c></rc>
    <rc><c>Br</c><c>   3</c></rc>
    <rc><c>Br</c><c>   3</c></rc>
    <rc><c>Br</c><c>   3</c></rc>
    <rc><c>Br</c><c>   3</c></rc>
    <rc><c>Br</c><c>   3</c></rc>
    <rc><c>Br</c><c>   3</c></rc>
    <rc><c>Br</c><c>   3</c></rc>
    <rc><c>Br</c><c>   3</c></rc>
    <rc><c>Br</c><c>   3</c></rc>
    <rc><c>Br</c><c>   3</c></rc>
    <rc><c>Br</c><c>   3</c></rc>
    <rc><c>Br</c><c>   3</c></rc>
    <rc><c>Br</c><c>   3</c></rc>
    <rc><c>Br</c><c>   3</c></rc>
    <rc><c>Br</c><c>   3</c></rc>
    <rc><c>Br</c><c>   3</c></rc>
    <rc><c>Br</c><c>   3</c></rc>
    <rc><c>Br</c><c>   3</c></rc>
    <rc><c>Br</c><c>   3</c></rc>
    <rc><c>Br</c><c>   3</c></rc>
    <rc><c>Br</c><c>   3</c></rc>
    <rc><c>Br</c><c>   3</c></rc>
    <rc><c>Br</c><c>   3</c></rc>
   </set>
  </array>
  <array name="atomtypes" >
   <dimension dim="1">type</dimension>
   <field type="int">atomspertype</field>
   <field type="string">element</field>
   <field>mass</field>
   <field>valence</field>
   <field type="string">pseudopotential</field>
   <set>
    <rc><c>   8</c><c>Cs</c><c>    132.90000000</c><c>      9.00000000</c><c>  PAW_PBE Cs_sv 08Apr2002               </c></rc>
    <rc><c>   8</c><c>Pb</c><c>    207.20000000</c><c>     14.00000000</c><c>  PAW_PBE Pb_d 06Sep2000                </c></rc>
    <rc><c>  24</c><c>Br</c><c>     79.90400000</c><c>      7.00000000</c><c>  PAW_PBE Br 06Sep2000                  </c></rc>
   </set>
  </array>
 </atominfo>
 <structure name="initialpos" >
  <crystal>
   <varray name="basis" >
    <v>      11.73535200       0.00000000       0.00000000 </v>
    <v>       0.00000000      11.73535200       0.00000000 </v>
    <v>       0.00000000       0.00000000      11.73535200 </v>
   </varray>
   <i name="volume">   1616.17491673 </i>
   <varray name="rec_basis" >
    <v>       0.08521261       0.00000000       0.00000000 </v>
    <v>       0.00000000       0.08521261       0.00000000 </v>
    <v>       0.00000000       0.00000000       0.08521261 </v>
   </varray>
  </crystal>
  <varray name="positions" >
   <v>       0.25000000       0.25000000       0.25000000 </v>
   <v>       0.25000000       0.25000000       0.75000000 </v>
   <v>       0.25000000       0.75000000       0.25000000 </v>
   <v>       0.25000000       0.75000000       0.75000000 </v>
   <v>       0.75000000       0.25000000       0.25000000 </v>
   <v>       0.75000000       0.25000000       0.75000000 </v>
   <v>       0.75000000       0.75000000       0.25000000 </v>
   <v>       0.75000000       0.75000000       0.75000000 </v>
   <v>       0.00000000       0.00000000       0.00000000 </v>
   <v>       0.00000000       0.00000000       0.50000000 </v>
   <v>       0.00000000       0.50000000       0.00000000 </v>
   <v>       0.00000000       0.50000000       0.50000000 </v>
   <v>       0.50000000       0.00000000       0.00000000 </v>
   <v>       0.50000000       0.00000000       0.50000000 </v>
   <v>       0.50000000       0.50000000       0.00000000 </v>
   <v>       0.50000000       0.50000000       0.50000000 </v>
   <v>       0.98875000       0.25000000       0.00000000 </v>
   <v>       0.98875000       0.25000000       0.50000000 </v>
   <v>       0.01125000       0.75000000       0.00000000 </v>
   <v>       0.01125000       0.75000000       0.50000000 </v>
   <v>       0.51125000       0.25000000       0.00000000 </v>
   <v>       0.51125000       0.25000000       0.50000000 </v>
   <v>       0.48875000       0.75000000       0.00000000 </v>
   <v>       0.48875000       0.75000000       0.50000000 </v>
   <v>       0.00000000       0.00000000       0.25000000 </v>
   <v>       0.00000000       0.00000000       0.75000000 </v>
   <v>       0.00000000       0.50000000       0.25000000 </v>
   <v>       0.00000000       0.50000000       0.75000000 </v>
   <v>       0.50000000       0.00000000       0.25000000 </v>
   <v>       0.50000000       0.00000000       0.75000000 </v>
   <v>       0.50000000       0.50000000       0.25000000 </v>
   <v>       0.50000000       0.50000000       0.75000000 </v>
   <v>       0.25000000       0.01125000       0.00000000 </v>
   <v>       0.25000000       0.01125000       0.50000000 </v>
   <v>       0.25000000       0.48875000       0.00000000 </v>
   <v>       0.25000000       0.48875000       0.50000000 </v>
   <v>       0.75000000       0.98875000       0.00000000 </v>
   <v>       0.75000000       0.98875000       0.50000000 </v>
   <v>       0.75000000       0.51125000       0.00000000 </v>
   <v>       0.75000000       0.51125000       0.50000000 </v>
  </varray>
 </structure>
 <calculation>
  <scstep>
   <time name="dav">   12.75   12.75</time>
   <time name="total">   14.21   14.22</time>
   <energy>
    <i name="alphaZ">    892.99476195 </i>
    <i name="ewald"> -18197.53448300 </i>
    <i name="hartreedc">  -7551.26240539 </i>
    <i name="XCdc">    924.97182674 </i>
    <i name="pawpsdc">  21633.96174531 </i>
    <i name="pawaedc"> -22707.92185401 </i>
    <i name="eentropy">     -0.00054108 </i>
    <i name="bandstr">   -232.90783275 </i>
    <i name="atom">  26580.56019858 </i>
    <i name="e_fr_energy">   1342.86141636 </i>
    <i name="e_wo_entrp">   1342.86195744 </i>
    <i name="e_0_energy">   1342.86168690 </i>
   </energy>
  </scstep>
  <scstep>
   <time name="dav">   13.99   14.02</time>
   <time name="total">   13.99   14.02</time>
   <energy>
    <i name="e_fr_energy">  -1128.23127526 </i>
    <i name="e_wo_entrp">  -1128.23127526 </i>
    <i name="e_0_energy">  -1128.23127526 </i>
   </energy>
  </scstep>
  <scstep>
   <time name="dav">   15.02   15.07</time>
   <time name="total">   15.02   15.07</time>
   <energy>
    <i name="e_fr_energy">  -1494.33245217 </i>
    <i name="e_wo_entrp">  -1494.33245217 </i>
    <i name="e_0_energy">  -1494.33245217 </i>
   </energy>
  </scstep>
  <scstep>
   <time name="dav">   13.89   13.90</time>
   <time name="total">   13.89   13.90</time>
   <energy>
    <i name="e_fr_energy">  -1507.00184947 </i>
    <i name="e_wo_entrp">  -1507.00184947 </i>
    <i name="e_0_energy">  -1507.00184947 </i>
   </energy>
  </scstep>
  <scstep>
   <time name="dav">   14.94   14.98</time>
   <time name="total">   18.00   18.04</time>
   <energy>
    <i name="e_fr_energy">  -1507.61254191 </i>
    <i name="e_wo_entrp">  -1507.61254191 </i>
    <i name="e_0_energy">  -1507.61254191 </i>
   </energy>
  </scstep>
  <scstep>
   <time name="dav">   14.62   14.62</time>
   <time name="total">   19.19   19.21</time>
   <energy>
    <i name="e_fr_energy">  -1429.18657497 </i>
    <i name="e_wo_entrp">  -1429.18657497 </i>
    <i name="e_0_energy">  -1429.18657497 </i>
   </energy>
  </scstep>
  <scstep>
   <time name="dav">   14.25   14.25</time>
   <time name="total">   18.82   18.85</time>
   <energy>
    <i name="e_fr_energy">  -1428.68342625 </i>
    <i name="e_wo_entrp">  -1428.68342625 </i>
    <i name="e_0_energy">  -1428.68342625 </i>
   </energy>
  </scstep>
  <scstep>
   <time name="dav">   14.11   14.11</time>
   <time name="total">   18.67   18.69</time>
   <energy>
    <i name="e_fr_energy">  -1428.85301299 </i>
    <i name="e_wo_entrp">  -1428.85301299 </i>
    <i name="e_0_energy">  -1428.85301299 </i>
   </energy>
  </scstep>
  <scstep>
   <time name="dav">   13.16   13.16</time>
   <time name="total">   17.75   17.76</time>
   <energy>
    <i name="e_fr_energy">  -1428.93296325 </i>
    <i name="e_wo_entrp">  -1428.93296325 </i>
    <i name="e_0_energy">  -1428.93296325 </i>
   </energy>
  </scstep>
  <scstep>
   <time name="dav">   15.34   15.34</time>
   <time name="total">   19.92   19.94</time>
   <energy>
    <i name="e_fr_energy">  -1428.93399412 </i>
    <i name="e_wo_entrp">  -1428.93399412 </i>
    <i name="e_0_energy">  -1428.93399412 </i>
   </energy>
  </scstep>
  <scstep>
   <time name="dav">   13.68   13.68</time>
   <time name="total">   18.27   18.30</time>
   <energy>
    <i name="e_fr_energy">  -1428.93688681 </i>
    <i name="e_wo_entrp">  -1428.93688681 </i>
    <i name="e_0_energy">  -1428.93688681 </i>
   </energy>
  </scstep>
  <scstep>
   <time name="dav">   13.36   13.36</time>
   <time name="total">   17.94   17.96</time>
   <energy>
    <i name="e_fr_energy">  -1428.93768480 </i>
    <i name="e_wo_entrp">  -1428.93768480 </i>
    <i name="e_0_energy">  -1428.93768480 </i>
   </energy>
  </scstep>
  <scstep>
   <time name="dav">   14.41   14.41</time>
   <time name="total">   19.01   19.03</time>
   <energy>
    <i name="e_fr_energy">  -1428.93770035 </i>
    <i name="e_wo_entrp">  -1428.93770035 </i>
    <i name="e_0_energy">  -1428.93770035 </i>
   </energy>
  </scstep>
  <scstep>
   <time name="dav">   13.32   13.32</time>
   <time name="total">   17.90   17.93</time>
   <energy>
    <i name="e_fr_energy">  -1428.93773311 </i>
    <i name="e_wo_entrp">  -1428.93773311 </i>
    <i name="e_0_energy">  -1428.93773311 </i>
   </energy>
  </scstep>
  <scstep>
   <time name="dav">   10.25   10.25</time>
   <time name="total">   14.81   14.85</time>
   <energy>
    <i name="e_fr_energy">  -1428.93772195 </i>
    <i name="e_wo_entrp">  -1428.93772195 </i>
    <i name="e_0_energy">  -1428.93772195 </i>
   </energy>
  </scstep>
  <scstep>
   <time name="dav">   10.00   10.00</time>
   <time name="total">   14.58   14.60</time>
   <energy>
    <i name="e_fr_energy">  -1428.93771623 </i>
    <i name="e_wo_entrp">  -1428.93771623 </i>
    <i name="e_0_energy">  -1428.93771623 </i>
   </energy>
  </scstep>
  <scstep>
   <time name="dav">    9.90    9.90</time>
   <time name="total">   14.48   14.49</time>
   <energy>
    <i name="e_fr_energy">  -1428.93770987 </i>
    <i name="e_wo_entrp">  -1428.93770987 </i>
    <i name="e_0_energy">  -1428.93770987 </i>
   </energy>
  </scstep>
  <scstep>
   <time name="dav">    9.90    9.90</time>
   <time name="total">   14.46   14.50</time>
   <energy>
    <i name="e_fr_energy">  -1428.93770793 </i>
    <i name="e_wo_entrp">  -1428.93770793 </i>
    <i name="e_0_energy">  -1428.93770793 </i>
   </energy>
  </scstep>
  <scstep>
   <time name="dav">    9.89    9.89</time>
   <time name="total">   11.33   11.38</time>
   <energy>
    <i name="alphaZ">    892.99476195 </i>
    <i name="ewald"> -18197.53448300 </i>
    <i name="hartreedc">  -7593.81772260 </i>
    <i name="XCdc">    964.27566607 </i>
    <i name="pawpsdc">  23336.72472011 </i>
    <i name="pawaedc"> -24411.42045250 </i>
    <i name="eentropy">     -0.00000000 </i>
    <i name="bandstr">  -3000.72039752 </i>
    <i name="atom">  26580.56019858 </i>
    <i name="e_fr_energy">  -1428.93770891 </i>
    <i name="e_wo_entrp">  -1428.93770891 </i>
    <i name="e_0_energy">  -1428.93770891 </i>
   </energy>
  </scstep>
  <structure>
   <crystal>
    <varray name="basis" >
     <v>      11.73535200       0.00000000       0.00000000 </v>
     <v>       0.00000000      11.73535200       0.00000000 </v>
     <v>       0.00000000       0.00000000      11.73535200 </v>
    </varray>
    <i name="volume">   1616.17491673 </i>
    <varray name="rec_basis" >
     <v>       0.08521261       0.00000000       0.00000000 </v>
     <v>       0.00000000       0.08521261       0.00000000 </v>
     <v>       0.00000000       0.00000000       0.08521261 </v>
    </varray>
   </crystal>
   <varray name="positions" >
    <v>       0.25000000       0.25000000       0.25000000 </v>
    <v>       0.25000000       0.25000000       0.75000000 </v>
    <v>       0.25000000       0.75000000       0.25000000 </v>
    <v>       0.25000000       0.75000000       0.75000000 </v>
    <v>       0.75000000       0.25000000       0.25000000 </v>
    <v>       0.75000000       0.25000000       0.75000000 </v>
    <v>       0.75000000       0.75000000       0.25000000 </v>
    <v>       0.75000000       0.75000000       0.75000000 </v>
    <v>       0.00000000       0.00000000       0.00000000 </v>
    <v>       0.00000000       0.00000000       0.50000000 </v>
    <v>       0.00000000       0.50000000       0.00000000 </v>
    <v>       0.00000000       0.50000000       0.50000000 </v>
    <v>       0.50000000       0.00000000       0.00000000 </v>
    <v>       0.50000000       0.00000000       0.50000000 </v>
    <v>       0.50000000       0.50000000       0.00000000 </v>
    <v>       0.50000000       0.50000000       0.50000000 </v>
    <v>       0.98875000       0.25000000       0.00000000 </v>
    <v>       0.98875000       0.25000000       0.50000000 </v>
    <v>       0.01125000       0.75000000       0.00000000 </v>
    <v>       0.01125000       0.75000000       0.50000000 </v>
    <v>       0.51125000       0.25000000       0.00000000 </v>
    <v>       0.51125000       0.25000000       0.50000000 </v>
    <v>       0.48875000       0.75000000       0.00000000 </v>
    <v>       0.48875000       0.75000000       0.50000000 </v>
    <v>       0.00000000       0.00000000       0.25000000 </v>
    <v>       0.00000000       0.00000000       0.75000000 </v>
    <v>       0.00000000       0.50000000       0.25000000 </v>
    <v>       0.00000000       0.50000000       0.75000000 </v>
    <v>       0.50000000       0.00000000       0.25000000 </v>
    <v>       0.50000000       0.00000000       0.75000000 </v>
    <v>       0.50000000       0.50000000       0.25000000 </v>
    <v>       0.50000000       0.50000000       0.75000000 </v>
    <v>       0.25000000       0.01125000       0.00000000 </v>
    <v>       0.25000000       0.01125000       0.50000000 </v>
    <v>       0.25000000       0.48875000       0.00000000 </v>
    <v>       0.25000000       0.48875000       0.50000000 </v>
    <v>       0.75000000       0.98875000       0.00000000 </v>
    <v>       0.75000000       0.98875000       0.50000000 </v>
    <v>       0.75000000       0.51125000       0.00000000 </v>
    <v>       0.75000000       0.51125000       0.50000000 </v>
   </varray>
  </structure>
  <varray name="forces" >
   <v>      -0.00000000      -0.00000000       0.00000000 </v>
   <v>      -0.00000000      -0.00000000       0.00000000 </v>
   <v>      -0.00000000      -0.00000000       0.00000000 </v>
   <v>      -0.00000000      -0.00000000       0.00000000 </v>
   <v>      -0.00000000      -0.00000000       0.00000000 </v>
   <v>      -0.00000000      -0.00000000       0.00000000 </v>
   <v>      -0.00000000      -0.00000000       0.00000000 </v>
   <v>      -0.00000000      -0.00000000       0.00000000 </v>
   <v>      -0.00000000      -0.00000000       0.00000000 </v>
   <v>      -0.00000000      -0.00000000       0.00000000 </v>
   <v>      -0.00000000      -0.00000000       0.00000000 </v>
   <v>      -0.00000000      -0.00000000       0.00000000 </v>
   <v>      -0.00000000      -0.00000000       0.00000000 </v>
   <v>      -0.00000000      -0.00000000       0.00000000 </v>
   <v>      -0.00000000      -0.00000000       0.00000000 </v>
   <v>      -0.00000000      -0.00000000       0.00000000 </v>
   <v>      -0.04541755      -0.00000000      -0.00000000 </v>
   <v>      -0.04541755      -0.00000000      -0.00000000 </v>
   <v>       0.04541755      -0.00000000       0.00000000 </v>
   <v>       0.04541755      -0.00000000      -0.00000000 </v>
   <v>       0.04541755      -0.00000000      -0.00000000 </v>
   <v>       0.04541755      -0.00000000       0.00000000 </v>
   <v>      -0.04541755      -0.00000000      -0.00000000 </v>
   <v>      -0.04541755      -0.00000000      -0.00000000 </v>
   <v>      -0.00000000      -0.00000000       0.00000000 </v>
   <v>      -0.00000000      -0.00000000       0.00000000 </v>
   <v>      -0.00000000      -0.00000000       0.00000000 </v>
   <v>      -0.00000000      -0.00000000       0.00000000 </v>
   <v>      -0.00000000      -0.00000000       0.00000000 </v>
   <v>      -0.00000000      -0.00000000       0.00000000 </v>
   <v>      -0.00000000      -0.00000000       0.00000000 </v>
   <v>      -0.00000000      -0.00000000       0.00000000 </v>
   <v>      -0.00000000       0.04541755       0.00000000 </v>
   <v>      -0.00000000       0.04541755       0.00000000 </v>
   <v>      -0.00000000      -0.04541755      -0.00000000 </v>
   <v>      -0.00000000      -0.04541755      -0.00000000 </v>
   <v>      -0.00000000      -0.04541755      -0.00000000 </v>
   <v>      -0.00000000      -0.04541755       0.00000000 </v>
   <v>      -0.00000000       0.04541755      -0.00000000 </v>
   <v>      -0.00000000       0.04541755       0.00000000 </v>
  </varray>
  <varray name="stress" >
   <v>       4.01747939       0.00000000       0.00000000 </v>
   <v>       0.00000000       4.01747939      -0.00000000 </v>
   <v>       0.00000000       0.00000000       4.75869325 </v>
  </varray>
  <energy>
   <i name="e_fr_energy">  -1428.93770891 </i>
   <i name="e_wo_entrp">  -1428.93770891 </i>
   <i name="e_0_energy">     -0.00000000 </i>
  </energy>
  <time name="totalsc">  361.77  362.94</time>
  <eigenvalues>
   <array>
    <dimension dim="1">band</dimension>
    <dimension dim="2">kpoint</dimension>
    <dimension dim="3">spin</dimension>
    <field>eigene</field>
    <field>occ</field>
    <set>
     <set comment="spin 1">
      <set comment="kpoint 1">
       <r>  -21.0845    1.0000 </r>
       <r>  -21.0834    1.0000 </r>
       <r>  -21.0834    1.0000 </r>
       <r>  -21.0834    1.0000 </r>
       <r>  -21.0825    1.0000 </r>
       <r>  -21.0825    1.0000 </r>
       <r>  -21.0825    1.0000 </r>
       <r>  -21.0813    1.0000 </r>
       <r>  -16.2853    1.0000 </r>
       <r>  -16.2847    1.0000 </r>
       <r>  -16.2847    1.0000 </r>
       <r>  -16.2832    1.0000 </r>
       <r>  -16.2832    1.0000 </r>
       <r>  -16.2493    1.0000 </r>
       <r>  -16.2472    1.0000 </r>
       <r>  -16.2472    1.0000 </r>
       <r>  -16.2065    1.0000 </r>
       <r>  -16.2063    1.0000 </r>
       <r>  -16.2063    1.0000 </r>
       <r>  -16.1574    1.0000 </r>
       <r>  -16.1574    1.0000 </r>
       <r>  -16.1571    1.0000 </r>
       <r>  -16.1567    1.0000 </r>
       <r>  -16.1563    1.0000 </r>
       <r>  -16.0585    1.0000 </r>
       <r>  -16.0583    1.0000 </r>
       <r>  -16.0583    1.0000 </r>
       <r>  -16.0582    1.0000 </r>
       <r>  -16.0580    1.0000 </r>
       <r>  -16.0580    1.0000 </r>
       <r>  -16.0575    1.0000 </r>
       <r>  -16.0575    1.0000 </r>
       <r>  -16.0574    1.0000 </r>
       <r>  -16.0574    1.0000 </r>
       <r>  -16.0573    1.0000 </r>
       <r>  -16.0573    1.0000 </r>
       <r>  -16.0573    1.0000 </r>
       <r>  -16.0573    1.0000 </r>
       <r>  -16.0571    1.0000 </r>
       <r>  -16.0571    1.0000 </r>
       <r>  -16.0571    1.0000 </r>
       <r>  -16.0571    1.0000 </r>
       <r>  -16.0562    1.0000 </r>
       <r>  -16.0561    1.0000 </r>
       <r>  -16.0560    1.0000 </r>
       <r>  -16.0560    1.0000 </r>
       <r>  -16.0559    1.0000 </r>
       <r>  -16.0559    1.0000 </r>
       <r>  -14.3930    1.0000 </r>
       <r>  -14.1610    1.0000 </r>
       <r>  -14.1610    1.0000 </r>
       <r>  -14.1582    1.0000 </r>
       <r>  -13.9952    1.0000 </r>
       <r>  -13.9952    1.0000 </r>
       <r>  -13.9940    1.0000 </r>
       <r>  -13.9907    1.0000 </r>
       <r>  -13.9900    1.0000 </r>
       <r>  -13.9900    1.0000 </r>
       <r>  -13.9895    1.0000 </r>
       <r>  -13.9895    1.0000 </r>
       <r>  -13.9885    1.0000 </r>
       <r>  -13.9885    1.0000 </r>
       <r>  -13.9850    1.0000 </r>
       <r>  -13.9850    1.0000 </r>
       <r>  -13.9023    1.0000 </r>
       <r>  -13.8984    1.0000 </r>
       <r>  -13.8984    1.0000 </r>
       <r>  -13.6218    1.0000 </r>
       <r>  -13.6212    1.0000 </r>
       <r>  -13.6199    1.0000 </r>
       <r>  -13.6199    1.0000 </r>
       <r>  -13.6198    1.0000 </r>
       <r>   -8.2653    1.0000 </r>
       <r>   -7.6437    1.0000 </r>
       <r>   -7.6437    1.0000 </r>
       <r>   -7.6355    1.0000 </r>
       <r>   -7.4707    1.0000 </r>
       <r>   -7.4707    1.0000 </r>
       <r>   -7.4675    1.0000 </r>
       <r>   -7.4488    1.0000 </r>
       <r>   -7.4488    1.0000 </r>
       <r>   -7.4452    1.0000 </r>
       <r>   -7.4452    1.0000 </r>
       <r>   -7.4422    1.0000 </r>
       <r>   -7.4422    1.0000 </r>
       <r>   -7.4339    1.0000 </r>
       <r>   -7.4304    1.0000 </r>
       <r>   -7.4304    1.0000 </r>
       <r>   -7.4292    1.0000 </r>
       <r>   -7.4292    1.0000 </r>
       <r>   -7.4222    1.0000 </r>
       <r>   -7.4222    1.0000 </r>
       <r>   -7.4208    1.0000 </r>
       <r>   -7.4208    1.0000 </r>
       <r>   -7.4196    1.0000 </r>
       <r>   -7.4147    1.0000 </r>
       <r>   -7.4147    1.0000 </r>
       <r>   -7.4121    1.0000 </r>
       <r>   -7.4121    1.0000 </r>
       <r>   -7.4110    1.0000 </r>
       <r>   -6.9754    1.0000 </r>
       <r>   -6.9661    1.0000 </r>
       <r>   -6.9661    1.0000 </r>
       <r>   -6.1812    1.0000 </r>
       <r>   -3.4338    1.0000 </r>
       <r>   -3.4248    1.0000 </r>
       <r>   -3.4248    1.0000 </r>
       <r>   -3.3379    1.0000 </r>
       <r>   -3.3379    1.0000 </r>
       <r>   -3.3277    1.0000 </r>
       <r>   -3.3277    1.0000 </r>
       <r>   -3.3270    1.0000 </r>
       <r>   -3.3270    1.0000 </r>
       <r>   -3.1881    1.0000 </r>
       <r>   -3.1757    1.0000 </r>
       <r>   -3.1757    1.0000 </r>
       <r>   -2.1448    1.0000 </r>
       <r>   -2.1448    1.0000 </r>
       <r>   -2.1395    1.0000 </r>
       <r>   -1.9528    1.0000 </r>
       <r>   -1.9528    1.0000 </r>
       <r>   -1.9474    1.0000 </r>
       <r>   -1.8771    1.0000 </r>
       <r>   -1.8771    1.0000 </r>
       <r>   -1.8717    1.0000 </r>
       <r>   -1.5334    1.0000 </r>
       <r>   -1.5334    1.0000 </r>
       <r>   -1.5259    1.0000 </r>
       <r>   -1.5259    1.0000 </r>
       <r>   -1.5227    1.0000 </r>
       <r>   -1.5227    1.0000 </r>
       <r>   -1.4591    1.0000 </r>
       <r>   -1.4591    1.0000 </r>
       <r>   -1.4584    1.0000 </r>
       <r>   -1.4584    1.0000 </r>
       <r>   -1.4513    1.0000 </r>
       <r>   -1.4513    1.0000 </r>
       <r>   -1.3834    1.0000 </r>
       <r>   -1.3834    1.0000 </r>
       <r>   -1.3800    1.0000 </r>
       <r>   -1.3800    1.0000 </r>
       <r>   -1.3713    1.0000 </r>
       <r>   -1.3713    1.0000 </r>
       <r>   -1.3708    1.0000 </r>
       <r>   -1.3686    1.0000 </r>
       <r>   -1.3686    1.0000 </r>
       <r>   -1.3238    1.0000 </r>
       <r>   -1.3181    1.0000 </r>
       <r>   -1.3181    1.0000 </r>
       <r>   -1.3174    1.0000 </r>
       <r>   -1.3154    1.0000 </r>
       <r>   -1.2395    1.0000 </r>
       <r>   -1.2361    1.0000 </r>
       <r>   -1.2361    1.0000 </r>
       <r>   -1.2317    1.0000 </r>
       <r>   -1.2317    1.0000 </r>
       <r>   -1.2285    1.0000 </r>
       <r>   -1.2285    1.0000 </r>
       <r>   -1.2256    1.0000 </r>
       <r>   -1.2256    1.0000 </r>
       <r>   -1.1196    1.0000 </r>
       <r>   -1.1155    1.0000 </r>
       <r>   -1.1155    1.0000 </r>
       <r>   -0.7598    1.0000 </r>
       <r>   -0.7598    1.0000 </r>
       <r>   -0.7588    1.0000 </r>
       <r>   -0.7514    1.0000 </r>
       <r>   -0.7464    1.0000 </r>
       <r>   -0.7464    1.0000 </r>
       <r>   -0.4594    1.0000 </r>
       <r>   -0.4594    1.0000 </r>
       <r>   -0.4397    1.0000 </r>
       <r>    0.2912    1.0000 </r>
       <r>    0.2972    1.0000 </r>
       <r>    0.2972    1.0000 </r>
       <r>    1.0163    1.0000 </r>
       <r>    2.8366    0.0000 </r>
       <r>    2.8366    0.0000 </r>
       <r>    2.8369    0.0000 </r>
       <r>    3.3628    0.0000 </r>
       <r>    3.3628    0.0000 </r>
       <r>    3.3641    0.0000 </r>
       <r>    3.3641    0.0000 </r>
       <r>    3.3686    0.0000 </r>
       <r>    3.3686    0.0000 </r>
       <r>    3.8319    0.0000 </r>
       <r>    3.8326    0.0000 </r>
       <r>    3.8326    0.0000 </r>
       <r>    4.5494    0.0000 </r>
       <r>    5.5363    0.0000 </r>
       <r>    5.5567    0.0000 </r>
       <r>    5.9767    0.0000 </r>
       <r>    6.0007    0.0000 </r>
       <r>    6.0007    0.0000 </r>
       <r>    6.0920    0.0000 </r>
       <r>    6.2055    0.0000 </r>
       <r>    6.2055    0.0000 </r>
       <r>    6.2316    0.0000 </r>
       <r>    6.4020    0.0000 </r>
       <r>    6.4020    0.0000 </r>
       <r>    6.4216    0.0000 </r>
       <r>    6.5486    0.0000 </r>
       <r>    6.5486    0.0000 </r>
       <r>    6.5672    0.0000 </r>
       <r>    6.6011    0.0000 </r>
       <r>    6.6012    0.0000 </r>
       <r>    6.6346    0.0000 </r>
       <r>    6.6384    0.0000 </r>
       <r>    6.6432    0.0000 </r>
       <r>    6.6493    0.0000 </r>
       <r>    6.6529    0.0000 </r>
       <r>    6.6611    0.0000 </r>
       <r>    6.6658    0.0000 </r>
       <r>    6.7374    0.0000 </r>
       <r>    6.7612    0.0000 </r>
       <r>    6.7710    0.0000 </r>
      </set>
      <set comment="kpoint 2">
       <r>  -21.0841    1.0000 </r>
       <r>  -21.0841    1.0000 </r>
       <r>  -21.0828    1.0000 </r>
       <r>  -21.0828    1.0000 </r>
       <r>  -21.0828    1.0000 </r>
       <r>  -21.0828    1.0000 </r>
       <r>  -21.0820    1.0000 </r>
       <r>  -21.0820    1.0000 </r>
       <r>  -16.2850    1.0000 </r>
       <r>  -16.2850    1.0000 </r>
       <r>  -16.2618    1.0000 </r>
       <r>  -16.2618    1.0000 </r>
       <r>  -16.2598    1.0000 </r>
       <r>  -16.2598    1.0000 </r>
       <r>  -16.2456    1.0000 </r>
       <r>  -16.2456    1.0000 </r>
       <r>  -16.2033    1.0000 </r>
       <r>  -16.2033    1.0000 </r>
       <r>  -16.1880    1.0000 </r>
       <r>  -16.1880    1.0000 </r>
       <r>  -16.1874    1.0000 </r>
       <r>  -16.1874    1.0000 </r>
       <r>  -16.1572    1.0000 </r>
       <r>  -16.1572    1.0000 </r>
       <r>  -16.0584    1.0000 </r>
       <r>  -16.0584    1.0000 </r>
       <r>  -16.0580    1.0000 </r>
       <r>  -16.0580    1.0000 </r>
       <r>  -16.0578    1.0000 </r>
       <r>  -16.0578    1.0000 </r>
       <r>  -16.0578    1.0000 </r>
       <r>  -16.0578    1.0000 </r>
       <r>  -16.0576    1.0000 </r>
       <r>  -16.0576    1.0000 </r>
       <r>  -16.0570    1.0000 </r>
       <r>  -16.0570    1.0000 </r>
       <r>  -16.0570    1.0000 </r>
       <r>  -16.0570    1.0000 </r>
       <r>  -16.0569    1.0000 </r>
       <r>  -16.0569    1.0000 </r>
       <r>  -16.0567    1.0000 </r>
       <r>  -16.0567    1.0000 </r>
       <r>  -16.0566    1.0000 </r>
       <r>  -16.0566    1.0000 </r>
       <r>  -16.0564    1.0000 </r>
       <r>  -16.0564    1.0000 </r>
       <r>  -16.0562    1.0000 </r>
       <r>  -16.0562    1.0000 </r>
       <r>  -14.3206    1.0000 </r>
       <r>  -14.3206    1.0000 </r>
       <r>  -14.1114    1.0000 </r>
       <r>  -14.1114    1.0000 </r>
       <r>  -14.1091    1.0000 </r>
       <r>  -14.1091    1.0000 </r>
       <r>  -13.9945    1.0000 </r>
       <r>  -13.9945    1.0000 </r>
       <r>  -13.9930    1.0000 </r>
       <r>  -13.9930    1.0000 </r>
       <r>  -13.9890    1.0000 </r>
       <r>  -13.9890    1.0000 </r>
       <r>  -13.9875    1.0000 </r>
       <r>  -13.9875    1.0000 </r>
       <r>  -13.9403    1.0000 </r>
       <r>  -13.9403    1.0000 </r>
       <r>  -13.7605    1.0000 </r>
       <r>  -13.7605    1.0000 </r>
       <r>  -13.7236    1.0000 </r>
       <r>  -13.7236    1.0000 </r>
       <r>  -13.7228    1.0000 </r>
       <r>  -13.7228    1.0000 </r>
       <r>  -13.6208    1.0000 </r>
       <r>  -13.6208    1.0000 </r>
       <r>   -7.9875    1.0000 </r>
       <r>   -7.9875    1.0000 </r>
       <r>   -7.4580    1.0000 </r>
       <r>   -7.4580    1.0000 </r>
       <r>   -7.4550    1.0000 </r>
       <r>   -7.4550    1.0000 </r>
       <r>   -7.4432    1.0000 </r>
       <r>   -7.4432    1.0000 </r>
       <r>   -7.4387    1.0000 </r>
       <r>   -7.4387    1.0000 </r>
       <r>   -7.4386    1.0000 </r>
       <r>   -7.4386    1.0000 </r>
       <r>   -7.4323    1.0000 </r>
       <r>   -7.4323    1.0000 </r>
       <r>   -7.4322    1.0000 </r>
       <r>   -7.4322    1.0000 </r>
       <r>   -7.4274    1.0000 </r>
       <r>   -7.4274    1.0000 </r>
       <r>   -7.4251    1.0000 </r>
       <r>   -7.4251    1.0000 </r>
       <r>   -7.4224    1.0000 </r>
       <r>   -7.4224    1.0000 </r>
       <r>   -7.4170    1.0000 </r>
       <r>   -7.4170    1.0000 </r>
       <r>   -7.4158    1.0000 </r>
       <r>   -7.4158    1.0000 </r>
       <r>   -7.3541    1.0000 </r>
       <r>   -7.3541    1.0000 </r>
       <r>   -7.3447    1.0000 </r>
       <r>   -7.3447    1.0000 </r>
       <r>   -6.6474    1.0000 </r>
       <r>   -6.6474    1.0000 </r>
       <r>   -3.3874    1.0000 </r>
       <r>   -3.3874    1.0000 </r>
       <r>   -3.3779    1.0000 </r>
       <r>   -3.3779    1.0000 </r>
       <r>   -3.2670    1.0000 </r>
       <r>   -3.2670    1.0000 </r>
       <r>   -3.2555    1.0000 </r>
       <r>   -3.2555    1.0000 </r>
       <r>   -2.4559    1.0000 </r>
       <r>   -2.4559    1.0000 </r>
       <r>   -2.4166    1.0000 </r>
       <r>   -2.4166    1.0000 </r>
       <r>   -2.4151    1.0000 </r>
       <r>   -2.4151    1.0000 </r>
       <r>   -2.2750    1.0000 </r>
       <r>   -2.2750    1.0000 </r>
       <r>   -2.0504    1.0000 </r>
       <r>   -2.0504    1.0000 </r>
       <r>   -2.0162    1.0000 </r>
       <r>   -2.0162    1.0000 </r>
       <r>   -2.0112    1.0000 </r>
       <r>   -2.0112    1.0000 </r>
       <r>   -1.8370    1.0000 </r>
       <r>   -1.8370    1.0000 </r>
       <r>   -1.8307    1.0000 </r>
       <r>   -1.8307    1.0000 </r>
       <r>   -1.5486    1.0000 </r>
       <r>   -1.5486    1.0000 </r>
       <r>   -1.5422    1.0000 </r>
       <r>   -1.5422    1.0000 </r>
       <r>   -1.4212    1.0000 </r>
       <r>   -1.4212    1.0000 </r>
       <r>   -1.4206    1.0000 </r>
       <r>   -1.4206    1.0000 </r>
       <r>   -1.3416    1.0000 </r>
       <r>   -1.3416    1.0000 </r>
       <r>   -1.3413    1.0000 </r>
       <r>   -1.3413    1.0000 </r>
       <r>   -1.3071    1.0000 </r>
       <r>   -1.3071    1.0000 </r>
       <r>   -1.3040    1.0000 </r>
       <r>   -1.3040    1.0000 </r>
       <r>   -1.3039    1.0000 </r>
       <r>   -1.3039    1.0000 </r>
       <r>   -1.2967    1.0000 </r>
       <r>   -1.2967    1.0000 </r>
       <r>   -1.2471    1.0000 </r>
       <r>   -1.2471    1.0000 </r>
       <r>   -1.2457    1.0000 </r>
       <r>   -1.2457    1.0000 </r>
       <r>   -1.1801    1.0000 </r>
       <r>   -1.1801    1.0000 </r>
       <r>   -1.1776    1.0000 </r>
       <r>   -1.1776    1.0000 </r>
       <r>   -1.0866    1.0000 </r>
       <r>   -1.0866    1.0000 </r>
       <r>   -1.0110    1.0000 </r>
       <r>   -1.0110    1.0000 </r>
       <r>   -1.0099    1.0000 </r>
       <r>   -1.0099    1.0000 </r>
       <r>   -0.9715    1.0000 </r>
       <r>   -0.9715    1.0000 </r>
       <r>   -0.9563    1.0000 </r>
       <r>   -0.9563    1.0000 </r>
       <r>   -0.7531    1.0000 </r>
       <r>   -0.7531    1.0000 </r>
       <r>   -0.2811    1.0000 </r>
       <r>   -0.2811    1.0000 </r>
       <r>   -0.2677    1.0000 </r>
       <r>   -0.2677    1.0000 </r>
       <r>    0.4492    1.0000 </r>
       <r>    0.4492    1.0000 </r>
       <r>    3.1042    0.0000 </r>
       <r>    3.1042    0.0000 </r>
       <r>    3.1054    0.0000 </r>
       <r>    3.1054    0.0000 </r>
       <r>    3.5979    0.0000 </r>
       <r>    3.5979    0.0000 </r>
       <r>    3.5993    0.0000 </r>
       <r>    3.5993    0.0000 </r>
       <r>    4.6210    0.0000 </r>
       <r>    4.6210    0.0000 </r>
       <r>    5.1030    0.0000 </r>
       <r>    5.1030    0.0000 </r>
       <r>    5.1064    0.0000 </r>
       <r>    5.1064    0.0000 </r>
       <r>    5.1126    0.0000 </r>
       <r>    5.1126    0.0000 </r>
       <r>    5.6061    0.0000 </r>
       <r>    5.6061    0.0000 </r>
       <r>    5.9333    0.0000 </r>
       <r>    5.9333    0.0000 </r>
       <r>    6.0100    0.0000 </r>
       <r>    6.0100    0.0000 </r>
       <r>    6.3830    0.0000 </r>
       <r>    6.3830    0.0000 </r>
       <r>    6.3959    0.0000 </r>
       <r>    6.3959    0.0000 </r>
       <r>    6.4505    0.0000 </r>
       <r>    6.4505    0.0000 </r>
       <r>    6.4774    0.0000 </r>
       <r>    6.4774    0.0000 </r>
       <r>    6.5249    0.0000 </r>
       <r>    6.5249    0.0000 </r>
       <r>    6.6216    0.0000 </r>
       <r>    6.6233    0.0000 </r>
       <r>    6.6270    0.0000 </r>
       <r>    6.6290    0.0000 </r>
       <r>    6.6337    0.0000 </r>
       <r>    6.6365    0.0000 </r>
       <r>    6.7185    0.0000 </r>
       <r>    6.7269    0.0000 </r>
      </set>
      <set comment="kpoint 3">
       <r>  -21.0834    1.0000 </r>
       <r>  -21.0834    1.0000 </r>
       <r>  -21.0834    1.0000 </r>
       <r>  -21.0834    1.0000 </r>
       <r>  -21.0825    1.0000 </r>
       <r>  -21.0825    1.0000 </r>
       <r>  -21.0825    1.0000 </r>
       <r>  -21.0825    1.0000 </r>
       <r>  -16.2670    1.0000 </r>
       <r>  -16.2670    1.0000 </r>
       <r>  -16.2670    1.0000 </r>
       <r>  -16.2670    1.0000 </r>
       <r>  -16.2236    1.0000 </r>
       <r>  -16.2236    1.0000 </r>
       <r>  -16.2236    1.0000 </r>
       <r>  -16.2236    1.0000 </r>
       <r>  -16.2235    1.0000 </r>
       <r>  -16.2235    1.0000 </r>
       <r>  -16.2235    1.0000 </r>
       <r>  -16.2235    1.0000 </r>
       <r>  -16.1816    1.0000 </r>
       <r>  -16.1816    1.0000 </r>
       <r>  -16.1816    1.0000 </r>
       <r>  -16.1816    1.0000 </r>
       <r>  -16.0578    1.0000 </r>
       <r>  -16.0578    1.0000 </r>
       <r>  -16.0578    1.0000 </r>
       <r>  -16.0578    1.0000 </r>
       <r>  -16.0577    1.0000 </r>
       <r>  -16.0577    1.0000 </r>
       <r>  -16.0577    1.0000 </r>
       <r>  -16.0577    1.0000 </r>
       <r>  -16.0574    1.0000 </r>
       <r>  -16.0574    1.0000 </r>
       <r>  -16.0574    1.0000 </r>
       <r>  -16.0574    1.0000 </r>
       <r>  -16.0574    1.0000 </r>
       <r>  -16.0574    1.0000 </r>
       <r>  -16.0574    1.0000 </r>
       <r>  -16.0574    1.0000 </r>
       <r>  -16.0566    1.0000 </r>
       <r>  -16.0566    1.0000 </r>
       <r>  -16.0566    1.0000 </r>
       <r>  -16.0566    1.0000 </r>
       <r>  -16.0565    1.0000 </r>
       <r>  -16.0565    1.0000 </r>
       <r>  -16.0565    1.0000 </r>
       <r>  -16.0565    1.0000 </r>
       <r>  -14.2578    1.0000 </r>
       <r>  -14.2578    1.0000 </r>
       <r>  -14.2578    1.0000 </r>
       <r>  -14.2578    1.0000 </r>
       <r>  -14.0763    1.0000 </r>
       <r>  -14.0763    1.0000 </r>
       <r>  -14.0763    1.0000 </r>
       <r>  -14.0763    1.0000 </r>
       <r>  -13.9938    1.0000 </r>
       <r>  -13.9938    1.0000 </r>
       <r>  -13.9938    1.0000 </r>
       <r>  -13.9938    1.0000 </r>
       <r>  -13.8053    1.0000 </r>
       <r>  -13.8053    1.0000 </r>
       <r>  -13.8053    1.0000 </r>
       <r>  -13.8053    1.0000 </r>
       <r>  -13.8022    1.0000 </r>
       <r>  -13.8022    1.0000 </r>
       <r>  -13.8022    1.0000 </r>
       <r>  -13.8022    1.0000 </r>
       <r>  -13.6988    1.0000 </r>
       <r>  -13.6988    1.0000 </r>
       <r>  -13.6988    1.0000 </r>
       <r>  -13.6988    1.0000 </r>
       <r>   -7.7092    1.0000 </r>
       <r>   -7.7092    1.0000 </r>
       <r>   -7.7092    1.0000 </r>
       <r>   -7.7092    1.0000 </r>
       <r>   -7.4471    1.0000 </r>
       <r>   -7.4471    1.0000 </r>
       <r>   -7.4471    1.0000 </r>
       <r>   -7.4471    1.0000 </r>
       <r>   -7.4426    1.0000 </r>
       <r>   -7.4426    1.0000 </r>
       <r>   -7.4426    1.0000 </r>
       <r>   -7.4426    1.0000 </r>
       <r>   -7.4419    1.0000 </r>
       <r>   -7.4419    1.0000 </r>
       <r>   -7.4419    1.0000 </r>
       <r>   -7.4419    1.0000 </r>
       <r>   -7.4283    1.0000 </r>
       <r>   -7.4283    1.0000 </r>
       <r>   -7.4283    1.0000 </r>
       <r>   -7.4283    1.0000 </r>
       <r>   -7.4216    1.0000 </r>
       <r>   -7.4216    1.0000 </r>
       <r>   -7.4216    1.0000 </r>
       <r>   -7.4216    1.0000 </r>
       <r>   -7.4193    1.0000 </r>
       <r>   -7.4193    1.0000 </r>
       <r>   -7.4193    1.0000 </r>
       <r>   -7.4193    1.0000 </r>
       <r>   -7.0510    1.0000 </r>
       <r>   -7.0510    1.0000 </r>
       <r>   -7.0510    1.0000 </r>
       <r>   -7.0510    1.0000 </r>
       <r>   -3.3298    1.0000 </r>
       <r>   -3.3298    1.0000 </r>
       <r>   -3.3298    1.0000 </r>
       <r>   -3.3298    1.0000 </r>
       <r>   -2.6444    1.0000 </r>
       <r>   -2.6444    1.0000 </r>
       <r>   -2.6444    1.0000 </r>
       <r>   -2.6444    1.0000 </r>
       <r>   -2.4966    1.0000 </r>
       <r>   -2.4966    1.0000 </r>
       <r>   -2.4966    1.0000 </r>
       <r>   -2.4966    1.0000 </r>
       <r>   -2.2641    1.0000 </r>
       <r>   -2.2641    1.0000 </r>
       <r>   -2.2641    1.0000 </r>
       <r>   -2.2641    1.0000 </r>
       <r>   -2.2246    1.0000 </r>
       <r>   -2.2246    1.0000 </r>
       <r>   -2.2246    1.0000 </r>
       <r>   -2.2246    1.0000 </r>
       <r>   -2.0050    1.0000 </r>
       <r>   -2.0050    1.0000 </r>
       <r>   -2.0050    1.0000 </r>
       <r>   -2.0050    1.0000 </r>
       <r>   -1.8021    1.0000 </r>
       <r>   -1.8021    1.0000 </r>
       <r>   -1.8021    1.0000 </r>
       <r>   -1.8021    1.0000 </r>
       <r>   -1.5849    1.0000 </r>
       <r>   -1.5849    1.0000 </r>
       <r>   -1.5849    1.0000 </r>
       <r>   -1.5849    1.0000 </r>
       <r>   -1.5542    1.0000 </r>
       <r>   -1.5542    1.0000 </r>
       <r>   -1.5542    1.0000 </r>
       <r>   -1.5542    1.0000 </r>
       <r>   -1.3547    1.0000 </r>
       <r>   -1.3547    1.0000 </r>
       <r>   -1.3547    1.0000 </r>
       <r>   -1.3547    1.0000 </r>
       <r>   -1.2666    1.0000 </r>
       <r>   -1.2666    1.0000 </r>
       <r>   -1.2666    1.0000 </r>
       <r>   -1.2666    1.0000 </r>
       <r>   -1.2274    1.0000 </r>
       <r>   -1.2274    1.0000 </r>
       <r>   -1.2274    1.0000 </r>
       <r>   -1.2274    1.0000 </r>
       <r>   -1.0783    1.0000 </r>
       <r>   -1.0783    1.0000 </r>
       <r>   -1.0783    1.0000 </r>
       <r>   -1.0783    1.0000 </r>
       <r>   -1.0255    1.0000 </r>
       <r>   -1.0255    1.0000 </r>
       <r>   -1.0255    1.0000 </r>
       <r>   -1.0255    1.0000 </r>
       <r>   -1.0252    1.0000 </r>
       <r>   -1.0252    1.0000 </r>
       <r>   -1.0252    1.0000 </r>
       <r>   -1.0252    1.0000 </r>
       <r>   -0.9552    1.0000 </r>
       <r>   -0.9552    1.0000 </r>
       <r>   -0.9552    1.0000 </r>
       <r>   -0.9552    1.0000 </r>
       <r>   -0.9206    1.0000 </r>
       <r>   -0.9206    1.0000 </r>
       <r>   -0.9206    1.0000 </r>
       <r>   -0.9206    1.0000 </r>
       <r>   -0.1347    1.0000 </r>
       <r>   -0.1347    1.0000 </r>
       <r>   -0.1347    1.0000 </r>
       <r>   -0.1347    1.0000 </r>
       <r>    3.3533    0.0000 </r>
       <r>    3.3533    0.0000 </r>
       <r>    3.3533    0.0000 </r>
       <r>    3.3533    0.0000 </r>
       <r>    4.7865    0.0000 </r>
       <r>    4.7865    0.0000 </r>
       <r>    4.7865    0.0000 </r>
       <r>    4.7865    0.0000 </r>
       <r>    4.8838    0.0000 </r>
       <r>    4.8838    0.0000 </r>
       <r>    4.8838    0.0000 </r>
       <r>    4.8838    0.0000 </r>
       <r>    5.2288    0.0000 </r>
       <r>    5.2288    0.0000 </r>
       <r>    5.2288    0.0000 </r>
       <r>    5.2288    0.0000 </r>
       <r>    5.2563    0.0000 </r>
       <r>    5.2563    0.0000 </r>
       <r>    5.2563    0.0000 </r>
       <r>    5.2563    0.0000 </r>
       <r>    5.7622    0.0000 </r>
       <r>    5.7622    0.0000 </r>
       <r>    5.7622    0.0000 </r>
       <r>    5.7622    0.0000 </r>
       <r>    6.2936    0.0000 </r>
       <r>    6.2936    0.0000 </r>
       <r>    6.2936    0.0000 </r>
       <r>    6.2936    0.0000 </r>
       <r>    6.3842    0.0000 </r>
       <r>    6.3842    0.0000 </r>
       <r>    6.3842    0.0000 </r>
       <r>    6.3842    0.0000 </r>
       <r>    6.3986    0.0000 </r>
       <r>    6.3986    0.0000 </r>
       <r>    6.3986    0.0000 </r>
       <r>    6.3986    0.0000 </r>
       <r>    6.4900    0.0000 </r>
       <r>    6.4900    0.0000 </r>
       <r>    6.4900    0.0000 </r>
       <r>    6.4900    0.0000 </r>
      </set>
      <set comment="kpoint 4">
       <r>  -21.0841    1.0000 </r>
       <r>  -21.0841    1.0000 </r>
       <r>  -21.0828    1.0000 </r>
       <r>  -21.0828    1.0000 </r>
       <r>  -21.0828    1.0000 </r>
       <r>  -21.0828    1.0000 </r>
       <r>  -21.0821    1.0000 </r>
       <r>  -21.0821    1.0000 </r>
       <r>  -16.2834    1.0000 </r>
       <r>  -16.2834    1.0000 </r>
       <r>  -16.2604    1.0000 </r>
       <r>  -16.2604    1.0000 </r>
       <r>  -16.2604    1.0000 </r>
       <r>  -16.2604    1.0000 </r>
       <r>  -16.2465    1.0000 </r>
       <r>  -16.2465    1.0000 </r>
       <r>  -16.2047    1.0000 </r>
       <r>  -16.2047    1.0000 </r>
       <r>  -16.1881    1.0000 </r>
       <r>  -16.1881    1.0000 </r>
       <r>  -16.1881    1.0000 </r>
       <r>  -16.1881    1.0000 </r>
       <r>  -16.1566    1.0000 </r>
       <r>  -16.1566    1.0000 </r>
       <r>  -16.0586    1.0000 </r>
       <r>  -16.0586    1.0000 </r>
       <r>  -16.0578    1.0000 </r>
       <r>  -16.0578    1.0000 </r>
       <r>  -16.0578    1.0000 </r>
       <r>  -16.0578    1.0000 </r>
       <r>  -16.0576    1.0000 </r>
       <r>  -16.0576    1.0000 </r>
       <r>  -16.0576    1.0000 </r>
       <r>  -16.0576    1.0000 </r>
       <r>  -16.0572    1.0000 </r>
       <r>  -16.0572    1.0000 </r>
       <r>  -16.0572    1.0000 </r>
       <r>  -16.0572    1.0000 </r>
       <r>  -16.0567    1.0000 </r>
       <r>  -16.0567    1.0000 </r>
       <r>  -16.0567    1.0000 </r>
       <r>  -16.0567    1.0000 </r>
       <r>  -16.0564    1.0000 </r>
       <r>  -16.0564    1.0000 </r>
       <r>  -16.0564    1.0000 </r>
       <r>  -16.0564    1.0000 </r>
       <r>  -16.0564    1.0000 </r>
       <r>  -16.0564    1.0000 </r>
       <r>  -14.3206    1.0000 </r>
       <r>  -14.3206    1.0000 </r>
       <r>  -14.1123    1.0000 </r>
       <r>  -14.1123    1.0000 </r>
       <r>  -14.1123    1.0000 </r>
       <r>  -14.1123    1.0000 </r>
       <r>  -13.9892    1.0000 </r>
       <r>  -13.9892    1.0000 </r>
       <r>  -13.9892    1.0000 </r>
       <r>  -13.9892    1.0000 </r>
       <r>  -13.9873    1.0000 </r>
       <r>  -13.9873    1.0000 </r>
       <r>  -13.9873    1.0000 </r>
       <r>  -13.9873    1.0000 </r>
       <r>  -13.9451    1.0000 </r>
       <r>  -13.9451    1.0000 </r>
       <r>  -13.7621    1.0000 </r>
       <r>  -13.7621    1.0000 </r>
       <r>  -13.7235    1.0000 </r>
       <r>  -13.7235    1.0000 </r>
       <r>  -13.7235    1.0000 </r>
       <r>  -13.7235    1.0000 </r>
       <r>  -13.6205    1.0000 </r>
       <r>  -13.6205    1.0000 </r>
       <r>   -7.9844    1.0000 </r>
       <r>   -7.9844    1.0000 </r>
       <r>   -7.4586    1.0000 </r>
       <r>   -7.4586    1.0000 </r>
       <r>   -7.4586    1.0000 </r>
       <r>   -7.4586    1.0000 </r>
       <r>   -7.4396    1.0000 </r>
       <r>   -7.4396    1.0000 </r>
       <r>   -7.4352    1.0000 </r>
       <r>   -7.4352    1.0000 </r>
       <r>   -7.4352    1.0000 </r>
       <r>   -7.4352    1.0000 </r>
       <r>   -7.4315    1.0000 </r>
       <r>   -7.4315    1.0000 </r>
       <r>   -7.4315    1.0000 </r>
       <r>   -7.4315    1.0000 </r>
       <r>   -7.4276    1.0000 </r>
       <r>   -7.4276    1.0000 </r>
       <r>   -7.4276    1.0000 </r>
       <r>   -7.4276    1.0000 </r>
       <r>   -7.4264    1.0000 </r>
       <r>   -7.4264    1.0000 </r>
       <r>   -7.4183    1.0000 </r>
       <r>   -7.4183    1.0000 </r>
       <r>   -7.4183    1.0000 </r>
       <r>   -7.4183    1.0000 </r>
       <r>   -7.3491    1.0000 </r>
       <r>   -7.3491    1.0000 </r>
       <r>   -7.3491    1.0000 </r>
       <r>   -7.3491    1.0000 </r>
       <r>   -6.6536    1.0000 </r>
       <r>   -6.6536    1.0000 </r>
       <r>   -3.3776    1.0000 </r>
       <r>   -3.3776    1.0000 </r>
       <r>   -3.3776    1.0000 </r>
       <r>   -3.3776    1.0000 </r>
       <r>   -3.2559    1.0000 </r>
       <r>   -3.2559    1.0000 </r>
       <r>   -3.2559    1.0000 </r>
       <r>   -3.2559    1.0000 </r>
       <r>   -2.4522    1.0000 </r>
       <r>   -2.4522    1.0000 </r>
       <r>   -2.4161    1.0000 </r>
       <r>   -2.4161    1.0000 </r>
       <r>   -2.4161    1.0000 </r>
       <r>   -2.4161    1.0000 </r>
       <r>   -2.2771    1.0000 </r>
       <r>   -2.2771    1.0000 </r>
       <r>   -2.0445    1.0000 </r>
       <r>   -2.0445    1.0000 </r>
       <r>   -2.0172    1.0000 </r>
       <r>   -2.0172    1.0000 </r>
       <r>   -2.0172    1.0000 </r>
       <r>   -2.0172    1.0000 </r>
       <r>   -1.8394    1.0000 </r>
       <r>   -1.8394    1.0000 </r>
       <r>   -1.8394    1.0000 </r>
       <r>   -1.8394    1.0000 </r>
       <r>   -1.5457    1.0000 </r>
       <r>   -1.5457    1.0000 </r>
       <r>   -1.5457    1.0000 </r>
       <r>   -1.5457    1.0000 </r>
       <r>   -1.4087    1.0000 </r>
       <r>   -1.4087    1.0000 </r>
       <r>   -1.4087    1.0000 </r>
       <r>   -1.4087    1.0000 </r>
       <r>   -1.3395    1.0000 </r>
       <r>   -1.3395    1.0000 </r>
       <r>   -1.3395    1.0000 </r>
       <r>   -1.3395    1.0000 </r>
       <r>   -1.3206    1.0000 </r>
       <r>   -1.3206    1.0000 </r>
       <r>   -1.3064    1.0000 </r>
       <r>   -1.3064    1.0000 </r>
       <r>   -1.3060    1.0000 </r>
       <r>   -1.3060    1.0000 </r>
       <r>   -1.3060    1.0000 </r>
       <r>   -1.3060    1.0000 </r>
       <r>   -1.2473    1.0000 </r>
       <r>   -1.2473    1.0000 </r>
       <r>   -1.2473    1.0000 </r>
       <r>   -1.2473    1.0000 </r>
       <r>   -1.1767    1.0000 </r>
       <r>   -1.1767    1.0000 </r>
       <r>   -1.1767    1.0000 </r>
       <r>   -1.1767    1.0000 </r>
       <r>   -1.0829    1.0000 </r>
       <r>   -1.0829    1.0000 </r>
       <r>   -1.0112    1.0000 </r>
       <r>   -1.0112    1.0000 </r>
       <r>   -1.0112    1.0000 </r>
       <r>   -1.0112    1.0000 </r>
       <r>   -0.9693    1.0000 </r>
       <r>   -0.9693    1.0000 </r>
       <r>   -0.9693    1.0000 </r>
       <r>   -0.9693    1.0000 </r>
       <r>   -0.7465    1.0000 </r>
       <r>   -0.7465    1.0000 </r>
       <r>   -0.2820    1.0000 </r>
       <r>   -0.2820    1.0000 </r>
       <r>   -0.2820    1.0000 </r>
       <r>   -0.2820    1.0000 </r>
       <r>    0.4428    1.0000 </r>
       <r>    0.4428    1.0000 </r>
       <r>    3.1074    0.0000 </r>
       <r>    3.1074    0.0000 </r>
       <r>    3.1074    0.0000 </r>
       <r>    3.1074    0.0000 </r>
       <r>    3.5976    0.0000 </r>
       <r>    3.5976    0.0000 </r>
       <r>    3.5976    0.0000 </r>
       <r>    3.5976    0.0000 </r>
       <r>    4.6370    0.0000 </r>
       <r>    4.6370    0.0000 </r>
       <r>    5.1090    0.0000 </r>
       <r>    5.1090    0.0000 </r>
       <r>    5.1196    0.0000 </r>
       <r>    5.1196    0.0000 </r>
       <r>    5.1196    0.0000 </r>
       <r>    5.1196    0.0000 </r>
       <r>    5.6216    0.0000 </r>
       <r>    5.6216    0.0000 </r>
       <r>    5.9487    0.0000 </r>
       <r>    5.9487    0.0000 </r>
       <r>    5.9802    0.0000 </r>
       <r>    5.9802    0.0000 </r>
       <r>    6.3819    0.0000 </r>
       <r>    6.3819    0.0000 </r>
       <r>    6.3819    0.0000 </r>
       <r>    6.3821    0.0000 </r>
       <r>    6.4680    0.0000 </r>
       <r>    6.4680    0.0000 </r>
       <r>    6.4680    0.0000 </r>
       <r>    6.4680    0.0000 </r>
       <r>    6.5952    0.0000 </r>
       <r>    6.5954    0.0000 </r>
       <r>    6.6169    0.0000 </r>
       <r>    6.6169    0.0000 </r>
       <r>    6.6207    0.0000 </r>
       <r>    6.6244    0.0000 </r>
       <r>    6.6299    0.0000 </r>
       <r>    6.6388    0.0000 </r>
       <r>    6.7219    0.0000 </r>
       <r>    6.7223    0.0000 </r>
      </set>
      <set comment="kpoint 5">
       <r>  -21.0834    1.0000 </r>
       <r>  -21.0834    1.0000 </r>
       <r>  -21.0834    1.0000 </r>
       <r>  -21.0834    1.0000 </r>
       <r>  -21.0825    1.0000 </r>
       <r>  -21.0825    1.0000 </r>
       <r>  -21.0825    1.0000 </r>
       <r>  -21.0825    1.0000 </r>
       <r>  -16.2652    1.0000 </r>
       <r>  -16.2652    1.0000 </r>
       <r>  -16.2652    1.0000 </r>
       <r>  -16.2652    1.0000 </r>
       <r>  -16.2247    1.0000 </r>
       <r>  -16.2247    1.0000 </r>
       <r>  -16.2247    1.0000 </r>
       <r>  -16.2247    1.0000 </r>
       <r>  -16.2247    1.0000 </r>
       <r>  -16.2247    1.0000 </r>
       <r>  -16.2247    1.0000 </r>
       <r>  -16.2247    1.0000 </r>
       <r>  -16.1812    1.0000 </r>
       <r>  -16.1812    1.0000 </r>
       <r>  -16.1812    1.0000 </r>
       <r>  -16.1812    1.0000 </r>
       <r>  -16.0579    1.0000 </r>
       <r>  -16.0579    1.0000 </r>
       <r>  -16.0579    1.0000 </r>
       <r>  -16.0579    1.0000 </r>
       <r>  -16.0577    1.0000 </r>
       <r>  -16.0577    1.0000 </r>
       <r>  -16.0577    1.0000 </r>
       <r>  -16.0577    1.0000 </r>
       <r>  -16.0572    1.0000 </r>
       <r>  -16.0572    1.0000 </r>
       <r>  -16.0572    1.0000 </r>
       <r>  -16.0572    1.0000 </r>
       <r>  -16.0572    1.0000 </r>
       <r>  -16.0572    1.0000 </r>
       <r>  -16.0572    1.0000 </r>
       <r>  -16.0572    1.0000 </r>
       <r>  -16.0568    1.0000 </r>
       <r>  -16.0568    1.0000 </r>
       <r>  -16.0568    1.0000 </r>
       <r>  -16.0568    1.0000 </r>
       <r>  -16.0565    1.0000 </r>
       <r>  -16.0565    1.0000 </r>
       <r>  -16.0565    1.0000 </r>
       <r>  -16.0565    1.0000 </r>
       <r>  -14.2579    1.0000 </r>
       <r>  -14.2579    1.0000 </r>
       <r>  -14.2579    1.0000 </r>
       <r>  -14.2579    1.0000 </r>
       <r>  -14.0792    1.0000 </r>
       <r>  -14.0792    1.0000 </r>
       <r>  -14.0792    1.0000 </r>
       <r>  -14.0792    1.0000 </r>
       <r>  -13.9883    1.0000 </r>
       <r>  -13.9883    1.0000 </r>
       <r>  -13.9883    1.0000 </r>
       <r>  -13.9883    1.0000 </r>
       <r>  -13.8070    1.0000 </r>
       <r>  -13.8070    1.0000 </r>
       <r>  -13.8070    1.0000 </r>
       <r>  -13.8070    1.0000 </r>
       <r>  -13.8036    1.0000 </r>
       <r>  -13.8036    1.0000 </r>
       <r>  -13.8036    1.0000 </r>
       <r>  -13.8036    1.0000 </r>
       <r>  -13.6981    1.0000 </r>
       <r>  -13.6981    1.0000 </r>
       <r>  -13.6981    1.0000 </r>
       <r>  -13.6981    1.0000 </r>
       <r>   -7.7062    1.0000 </r>
       <r>   -7.7062    1.0000 </r>
       <r>   -7.7062    1.0000 </r>
       <r>   -7.7062    1.0000 </r>
       <r>   -7.4472    1.0000 </r>
       <r>   -7.4472    1.0000 </r>
       <r>   -7.4472    1.0000 </r>
       <r>   -7.4472    1.0000 </r>
       <r>   -7.4465    1.0000 </r>
       <r>   -7.4465    1.0000 </r>
       <r>   -7.4465    1.0000 </r>
       <r>   -7.4465    1.0000 </r>
       <r>   -7.4371    1.0000 </r>
       <r>   -7.4371    1.0000 </r>
       <r>   -7.4371    1.0000 </r>
       <r>   -7.4371    1.0000 </r>
       <r>   -7.4277    1.0000 </r>
       <r>   -7.4277    1.0000 </r>
       <r>   -7.4277    1.0000 </r>
       <r>   -7.4277    1.0000 </r>
       <r>   -7.4212    1.0000 </r>
       <r>   -7.4212    1.0000 </r>
       <r>   -7.4212    1.0000 </r>
       <r>   -7.4212    1.0000 </r>
       <r>   -7.4208    1.0000 </r>
       <r>   -7.4208    1.0000 </r>
       <r>   -7.4208    1.0000 </r>
       <r>   -7.4208    1.0000 </r>
       <r>   -7.0565    1.0000 </r>
       <r>   -7.0565    1.0000 </r>
       <r>   -7.0565    1.0000 </r>
       <r>   -7.0565    1.0000 </r>
       <r>   -3.3194    1.0000 </r>
       <r>   -3.3194    1.0000 </r>
       <r>   -3.3194    1.0000 </r>
       <r>   -3.3194    1.0000 </r>
       <r>   -2.6435    1.0000 </r>
       <r>   -2.6435    1.0000 </r>
       <r>   -2.6435    1.0000 </r>
       <r>   -2.6435    1.0000 </r>
       <r>   -2.4972    1.0000 </r>
       <r>   -2.4972    1.0000 </r>
       <r>   -2.4972    1.0000 </r>
       <r>   -2.4972    1.0000 </r>
       <r>   -2.2650    1.0000 </r>
       <r>   -2.2650    1.0000 </r>
       <r>   -2.2650    1.0000 </r>
       <r>   -2.2650    1.0000 </r>
       <r>   -2.2285    1.0000 </r>
       <r>   -2.2285    1.0000 </r>
       <r>   -2.2285    1.0000 </r>
       <r>   -2.2285    1.0000 </r>
       <r>   -2.0030    1.0000 </r>
       <r>   -2.0030    1.0000 </r>
       <r>   -2.0030    1.0000 </r>
       <r>   -2.0030    1.0000 </r>
       <r>   -1.7987    1.0000 </r>
       <r>   -1.7987    1.0000 </r>
       <r>   -1.7987    1.0000 </r>
       <r>   -1.7987    1.0000 </r>
       <r>   -1.5883    1.0000 </r>
       <r>   -1.5883    1.0000 </r>
       <r>   -1.5883    1.0000 </r>
       <r>   -1.5883    1.0000 </r>
       <r>   -1.5617    1.0000 </r>
       <r>   -1.5617    1.0000 </r>
       <r>   -1.5617    1.0000 </r>
       <r>   -1.5617    1.0000 </r>
       <r>   -1.3475    1.0000 </r>
       <r>   -1.3475    1.0000 </r>
       <r>   -1.3475    1.0000 </r>
       <r>   -1.3475    1.0000 </r>
       <r>   -1.2623    1.0000 </r>
       <r>   -1.2623    1.0000 </r>
       <r>   -1.2623    1.0000 </r>
       <r>   -1.2623    1.0000 </r>
       <r>   -1.2289    1.0000 </r>
       <r>   -1.2289    1.0000 </r>
       <r>   -1.2289    1.0000 </r>
       <r>   -1.2289    1.0000 </r>
       <r>   -1.0895    1.0000 </r>
       <r>   -1.0895    1.0000 </r>
       <r>   -1.0895    1.0000 </r>
       <r>   -1.0895    1.0000 </r>
       <r>   -1.0280    1.0000 </r>
       <r>   -1.0280    1.0000 </r>
       <r>   -1.0280    1.0000 </r>
       <r>   -1.0280    1.0000 </r>
       <r>   -0.9995    1.0000 </r>
       <r>   -0.9995    1.0000 </r>
       <r>   -0.9995    1.0000 </r>
       <r>   -0.9995    1.0000 </r>
       <r>   -0.9865    1.0000 </r>
       <r>   -0.9865    1.0000 </r>
       <r>   -0.9865    1.0000 </r>
       <r>   -0.9865    1.0000 </r>
       <r>   -0.9047    1.0000 </r>
       <r>   -0.9047    1.0000 </r>
       <r>   -0.9047    1.0000 </r>
       <r>   -0.9047    1.0000 </r>
       <r>   -0.1474    1.0000 </r>
       <r>   -0.1474    1.0000 </r>
       <r>   -0.1474    1.0000 </r>
       <r>   -0.1474    1.0000 </r>
       <r>    3.3534    0.0000 </r>
       <r>    3.3534    0.0000 </r>
       <r>    3.3534    0.0000 </r>
       <r>    3.3534    0.0000 </r>
       <r>    4.7964    0.0000 </r>
       <r>    4.7964    0.0000 </r>
       <r>    4.7964    0.0000 </r>
       <r>    4.7964    0.0000 </r>
       <r>    4.8928    0.0000 </r>
       <r>    4.8928    0.0000 </r>
       <r>    4.8928    0.0000 </r>
       <r>    4.8928    0.0000 </r>
       <r>    5.2336    0.0000 </r>
       <r>    5.2336    0.0000 </r>
       <r>    5.2336    0.0000 </r>
       <r>    5.2336    0.0000 </r>
       <r>    5.2674    0.0000 </r>
       <r>    5.2674    0.0000 </r>
       <r>    5.2674    0.0000 </r>
       <r>    5.2674    0.0000 </r>
       <r>    5.7589    0.0000 </r>
       <r>    5.7589    0.0000 </r>
       <r>    5.7589    0.0000 </r>
       <r>    5.7589    0.0000 </r>
       <r>    6.2694    0.0000 </r>
       <r>    6.2694    0.0000 </r>
       <r>    6.2694    0.0000 </r>
       <r>    6.2694    0.0000 </r>
       <r>    6.3624    0.0000 </r>
       <r>    6.3624    0.0000 </r>
       <r>    6.3624    0.0000 </r>
       <r>    6.3624    0.0000 </r>
       <r>    6.4490    0.0000 </r>
       <r>    6.4490    0.0000 </r>
       <r>    6.4490    0.0000 </r>
       <r>    6.4490    0.0000 </r>
       <r>    6.4833    0.0000 </r>
       <r>    6.4833    0.0000 </r>
       <r>    6.4833    0.0000 </r>
       <r>    6.4834    0.0000 </r>
      </set>
      <set comment="kpoint 6">
       <r>  -21.0829    1.0000 </r>
       <r>  -21.0829    1.0000 </r>
       <r>  -21.0829    1.0000 </r>
       <r>  -21.0829    1.0000 </r>
       <r>  -21.0829    1.0000 </r>
       <r>  -21.0829    1.0000 </r>
       <r>  -21.0829    1.0000 </r>
       <r>  -21.0829    1.0000 </r>
       <r>  -16.2251    1.0000 </r>
       <r>  -16.2251    1.0000 </r>
       <r>  -16.2251    1.0000 </r>
       <r>  -16.2251    1.0000 </r>
       <r>  -16.2251    1.0000 </r>
       <r>  -16.2251    1.0000 </r>
       <r>  -16.2251    1.0000 </r>
       <r>  -16.2251    1.0000 </r>
       <r>  -16.2236    1.0000 </r>
       <r>  -16.2236    1.0000 </r>
       <r>  -16.2236    1.0000 </r>
       <r>  -16.2236    1.0000 </r>
       <r>  -16.2236    1.0000 </r>
       <r>  -16.2236    1.0000 </r>
       <r>  -16.2236    1.0000 </r>
       <r>  -16.2236    1.0000 </r>
       <r>  -16.0574    1.0000 </r>
       <r>  -16.0574    1.0000 </r>
       <r>  -16.0574    1.0000 </r>
       <r>  -16.0574    1.0000 </r>
       <r>  -16.0574    1.0000 </r>
       <r>  -16.0574    1.0000 </r>
       <r>  -16.0574    1.0000 </r>
       <r>  -16.0574    1.0000 </r>
       <r>  -16.0572    1.0000 </r>
       <r>  -16.0572    1.0000 </r>
       <r>  -16.0572    1.0000 </r>
       <r>  -16.0572    1.0000 </r>
       <r>  -16.0572    1.0000 </r>
       <r>  -16.0572    1.0000 </r>
       <r>  -16.0572    1.0000 </r>
       <r>  -16.0572    1.0000 </r>
       <r>  -16.0571    1.0000 </r>
       <r>  -16.0571    1.0000 </r>
       <r>  -16.0571    1.0000 </r>
       <r>  -16.0571    1.0000 </r>
       <r>  -16.0571    1.0000 </r>
       <r>  -16.0571    1.0000 </r>
       <r>  -16.0571    1.0000 </r>
       <r>  -16.0571    1.0000 </r>
       <r>  -14.2063    1.0000 </r>
       <r>  -14.2063    1.0000 </r>
       <r>  -14.2063    1.0000 </r>
       <r>  -14.2063    1.0000 </r>
       <r>  -14.2063    1.0000 </r>
       <r>  -14.2063    1.0000 </r>
       <r>  -14.2063    1.0000 </r>
       <r>  -14.2063    1.0000 </r>
       <r>  -13.8060    1.0000 </r>
       <r>  -13.8060    1.0000 </r>
       <r>  -13.8060    1.0000 </r>
       <r>  -13.8060    1.0000 </r>
       <r>  -13.8060    1.0000 </r>
       <r>  -13.8060    1.0000 </r>
       <r>  -13.8060    1.0000 </r>
       <r>  -13.8060    1.0000 </r>
       <r>  -13.8036    1.0000 </r>
       <r>  -13.8036    1.0000 </r>
       <r>  -13.8036    1.0000 </r>
       <r>  -13.8036    1.0000 </r>
       <r>  -13.8036    1.0000 </r>
       <r>  -13.8036    1.0000 </r>
       <r>  -13.8036    1.0000 </r>
       <r>  -13.8036    1.0000 </r>
       <r>   -7.4480    1.0000 </r>
       <r>   -7.4480    1.0000 </r>
       <r>   -7.4480    1.0000 </r>
       <r>   -7.4480    1.0000 </r>
       <r>   -7.4480    1.0000 </r>
       <r>   -7.4480    1.0000 </r>
       <r>   -7.4480    1.0000 </r>
       <r>   -7.4480    1.0000 </r>
       <r>   -7.4390    1.0000 </r>
       <r>   -7.4390    1.0000 </r>
       <r>   -7.4390    1.0000 </r>
       <r>   -7.4390    1.0000 </r>
       <r>   -7.4390    1.0000 </r>
       <r>   -7.4390    1.0000 </r>
       <r>   -7.4390    1.0000 </r>
       <r>   -7.4390    1.0000 </r>
       <r>   -7.4230    1.0000 </r>
       <r>   -7.4230    1.0000 </r>
       <r>   -7.4230    1.0000 </r>
       <r>   -7.4230    1.0000 </r>
       <r>   -7.4230    1.0000 </r>
       <r>   -7.4230    1.0000 </r>
       <r>   -7.4230    1.0000 </r>
       <r>   -7.4230    1.0000 </r>
       <r>   -7.4140    1.0000 </r>
       <r>   -7.4140    1.0000 </r>
       <r>   -7.4140    1.0000 </r>
       <r>   -7.4140    1.0000 </r>
       <r>   -7.4140    1.0000 </r>
       <r>   -7.4140    1.0000 </r>
       <r>   -7.4140    1.0000 </r>
       <r>   -7.4140    1.0000 </r>
       <r>   -2.5836    1.0000 </r>
       <r>   -2.5836    1.0000 </r>
       <r>   -2.5836    1.0000 </r>
       <r>   -2.5836    1.0000 </r>
       <r>   -2.5836    1.0000 </r>
       <r>   -2.5836    1.0000 </r>
       <r>   -2.5836    1.0000 </r>
       <r>   -2.5836    1.0000 </r>
       <r>   -2.5714    1.0000 </r>
       <r>   -2.5714    1.0000 </r>
       <r>   -2.5714    1.0000 </r>
       <r>   -2.5714    1.0000 </r>
       <r>   -2.5714    1.0000 </r>
       <r>   -2.5714    1.0000 </r>
       <r>   -2.5714    1.0000 </r>
       <r>   -2.5714    1.0000 </r>
       <r>   -2.1609    1.0000 </r>
       <r>   -2.1609    1.0000 </r>
       <r>   -2.1609    1.0000 </r>
       <r>   -2.1609    1.0000 </r>
       <r>   -2.1609    1.0000 </r>
       <r>   -2.1609    1.0000 </r>
       <r>   -2.1609    1.0000 </r>
       <r>   -2.1609    1.0000 </r>
       <r>   -1.6347    1.0000 </r>
       <r>   -1.6347    1.0000 </r>
       <r>   -1.6347    1.0000 </r>
       <r>   -1.6347    1.0000 </r>
       <r>   -1.6347    1.0000 </r>
       <r>   -1.6347    1.0000 </r>
       <r>   -1.6347    1.0000 </r>
       <r>   -1.6347    1.0000 </r>
       <r>   -1.6273    1.0000 </r>
       <r>   -1.6273    1.0000 </r>
       <r>   -1.6273    1.0000 </r>
       <r>   -1.6273    1.0000 </r>
       <r>   -1.6273    1.0000 </r>
       <r>   -1.6273    1.0000 </r>
       <r>   -1.6273    1.0000 </r>
       <r>   -1.6273    1.0000 </r>
[...]
        <r>  0.0033  0.0002  0.0056 </r>
        <r>  0.0043  0.0005  0.0017 </r>
        <r>  0.0059  0.0001  0.0052 </r>
        <r>  0.0037  0.0006  0.0018 </r>
        <r>  0.0018  0.0004  0.0022 </r>
        <r>  0.0056  0.0003  0.0053 </r>
        <r>  0.0009  0.0021  0.0001 </r>
        <r>  0.0000  0.0172  0.0000 </r>
        <r>  0.0002  0.0150  0.0000 </r>
        <r>  0.0004  0.0014  0.0001 </r>
        <r>  0.0001  0.0170  0.0000 </r>
        <r>  0.0007  0.0008  0.0001 </r>
        <r>  0.0004  0.0021  0.0001 </r>
        <r>  0.0000  0.0131  0.0000 </r>
        <r>  0.0013  0.0018  0.0023 </r>
        <r>  0.0004  0.0028  0.0005 </r>
        <r>  0.0002  0.0075  0.0007 </r>
        <r>  0.0004  0.0018  0.0010 </r>
        <r>  0.0000  0.0051  0.0005 </r>
        <r>  0.0006  0.0022  0.0016 </r>
        <r>  0.0006  0.0014  0.0013 </r>
        <r>  0.0005  0.0031  0.0007 </r>
        <r>  0.0007  0.0035  0.0014 </r>
        <r>  0.0007  0.0049  0.0012 </r>
        <r>  0.0001  0.0050  0.0003 </r>
        <r>  0.0009  0.0011  0.0019 </r>
        <r>  0.0002  0.0054  0.0004 </r>
        <r>  0.0010  0.0018  0.0020 </r>
        <r>  0.0004  0.0016  0.0011 </r>
        <r>  0.0003  0.0033  0.0009 </r>
        <r>  0.0012  0.0016  0.0019 </r>
        <r>  0.0004  0.0040  0.0008 </r>
        <r>  0.0001  0.0047  0.0004 </r>
        <r>  0.0003  0.0022  0.0014 </r>
        <r>  0.0004  0.0063  0.0006 </r>
        <r>  0.0005  0.0032  0.0014 </r>
        <r>  0.0009  0.0005  0.0015 </r>
        <r>  0.0002  0.0032  0.0007 </r>
       </set>
       <set comment="band 208">
        <r>  0.0082  0.0003  0.0047 </r>
        <r>  0.0012  0.0004  0.0024 </r>
        <r>  0.0046  0.0005  0.0016 </r>
        <r>  0.0041  0.0002  0.0056 </r>
        <r>  0.0033  0.0006  0.0019 </r>
        <r>  0.0050  0.0001  0.0054 </r>
        <r>  0.0081  0.0002  0.0047 </r>
        <r>  0.0011  0.0005  0.0023 </r>
        <r>  0.0000  0.0152  0.0000 </r>
        <r>  0.0006  0.0024  0.0001 </r>
        <r>  0.0005  0.0011  0.0001 </r>
        <r>  0.0001  0.0149  0.0000 </r>
        <r>  0.0006  0.0014  0.0001 </r>
        <r>  0.0002  0.0161  0.0000 </r>
        <r>  0.0000  0.0152  0.0000 </r>
        <r>  0.0006  0.0024  0.0001 </r>
        <r>  0.0004  0.0029  0.0006 </r>
        <r>  0.0009  0.0015  0.0018 </r>
        <r>  0.0005  0.0018  0.0013 </r>
        <r>  0.0001  0.0060  0.0006 </r>
        <r>  0.0006  0.0022  0.0014 </r>
        <r>  0.0001  0.0063  0.0006 </r>
        <r>  0.0005  0.0033  0.0007 </r>
        <r>  0.0009  0.0016  0.0018 </r>
        <r>  0.0004  0.0041  0.0009 </r>
        <r>  0.0005  0.0023  0.0012 </r>
        <r>  0.0009  0.0013  0.0020 </r>
        <r>  0.0001  0.0050  0.0003 </r>
        <r>  0.0011  0.0016  0.0021 </r>
        <r>  0.0002  0.0058  0.0004 </r>
        <r>  0.0004  0.0041  0.0009 </r>
        <r>  0.0005  0.0023  0.0012 </r>
        <r>  0.0004  0.0040  0.0008 </r>
        <r>  0.0011  0.0010  0.0017 </r>
        <r>  0.0004  0.0025  0.0014 </r>
        <r>  0.0002  0.0054  0.0005 </r>
        <r>  0.0005  0.0029  0.0015 </r>
        <r>  0.0002  0.0056  0.0004 </r>
        <r>  0.0003  0.0036  0.0007 </r>
        <r>  0.0010  0.0009  0.0017 </r>
       </set>
       <set comment="band 209">
        <r>  0.0000  0.0005  0.0067 </r>
        <r>  0.0000  0.0001  0.0436 </r>
        <r>  0.0000  0.0002  0.0354 </r>
        <r>  0.0000  0.0011  0.0127 </r>
        <r>  0.0000  0.0003  0.0206 </r>
        <r>  0.0000  0.0003  0.0034 </r>
        <r>  0.0000  0.0009  0.0139 </r>
        <r>  0.0000  0.0003  0.0089 </r>
        <r>  0.0000  0.0026  0.0003 </r>
        <r>  0.0000  0.0032  0.0002 </r>
        <r>  0.0000  0.0021  0.0002 </r>
        <r>  0.0000  0.0030  0.0001 </r>
        <r>  0.0000  0.0011  0.0002 </r>
        <r>  0.0000  0.0028  0.0002 </r>
        <r>  0.0000  0.0026  0.0002 </r>
        <r>  0.0000  0.0033  0.0002 </r>
        <r>  0.0002  0.0005  0.0010 </r>
        <r>  0.0004  0.0004  0.0011 </r>
        <r>  0.0003  0.0006  0.0015 </r>
        <r>  0.0002  0.0008  0.0007 </r>
        <r>  0.0004  0.0006  0.0013 </r>
        <r>  0.0004  0.0009  0.0010 </r>
        <r>  0.0001  0.0008  0.0009 </r>
        <r>  0.0006  0.0007  0.0017 </r>
        <r>  0.0001  0.0009  0.0010 </r>
        <r>  0.0001  0.0008  0.0011 </r>
        <r>  0.0002  0.0008  0.0014 </r>
        <r>  0.0002  0.0005  0.0007 </r>
        <r>  0.0001  0.0006  0.0012 </r>
        <r>  0.0000  0.0006  0.0018 </r>
        <r>  0.0001  0.0007  0.0013 </r>
        <r>  0.0000  0.0009  0.0006 </r>
        <r>  0.0004  0.0012  0.0012 </r>
        <r>  0.0010  0.0008  0.0028 </r>
        <r>  0.0005  0.0004  0.0019 </r>
        <r>  0.0000  0.0008  0.0006 </r>
        <r>  0.0001  0.0004  0.0006 </r>
        <r>  0.0000  0.0007  0.0004 </r>
        <r>  0.0002  0.0009  0.0004 </r>
        <r>  0.0004  0.0002  0.0013 </r>
       </set>
       <set comment="band 210">
        <r>  0.0000  0.0007  0.0348 </r>
        <r>  0.0000  0.0005  0.0205 </r>
        <r>  0.0000  0.0009  0.0151 </r>
        <r>  0.0000  0.0005  0.0047 </r>
        <r>  0.0000  0.0003  0.0267 </r>
        <r>  0.0000  0.0003  0.0178 </r>
        <r>  0.0000  0.0005  0.0140 </r>
        <r>  0.0000  0.0000  0.0115 </r>
        <r>  0.0000  0.0026  0.0004 </r>
        <r>  0.0000  0.0049  0.0002 </r>
        <r>  0.0000  0.0029  0.0001 </r>
        <r>  0.0000  0.0007  0.0002 </r>
        <r>  0.0000  0.0006  0.0002 </r>
        <r>  0.0000  0.0014  0.0002 </r>
        <r>  0.0000  0.0029  0.0004 </r>
        <r>  0.0000  0.0050  0.0002 </r>
        <r>  0.0001  0.0006  0.0009 </r>
        <r>  0.0006  0.0004  0.0015 </r>
        <r>  0.0000  0.0004  0.0002 </r>
        <r>  0.0003  0.0004  0.0010 </r>
        <r>  0.0005  0.0008  0.0023 </r>
        <r>  0.0008  0.0010  0.0016 </r>
        <r>  0.0003  0.0005  0.0011 </r>
        <r>  0.0001  0.0009  0.0004 </r>
        <r>  0.0001  0.0016  0.0004 </r>
        <r>  0.0001  0.0004  0.0006 </r>
        <r>  0.0004  0.0003  0.0019 </r>
        <r>  0.0002  0.0005  0.0007 </r>
        <r>  0.0003  0.0002  0.0030 </r>
        <r>  0.0000  0.0005  0.0009 </r>
        <r>  0.0002  0.0014  0.0007 </r>
        <r>  0.0001  0.0007  0.0011 </r>
        <r>  0.0002  0.0012  0.0012 </r>
        <r>  0.0004  0.0010  0.0017 </r>
        <r>  0.0001  0.0011  0.0007 </r>
        <r>  0.0003  0.0005  0.0017 </r>
        <r>  0.0005  0.0003  0.0013 </r>
        <r>  0.0002  0.0006  0.0007 </r>
        <r>  0.0004  0.0005  0.0009 </r>
        <r>  0.0003  0.0004  0.0012 </r>
       </set>
       <set comment="band 211">
        <r>  0.0000  0.0006  0.0251 </r>
        <r>  0.0000  0.0006  0.0051 </r>
        <r>  0.0000  0.0007  0.0066 </r>
        <r>  0.0000  0.0001  0.0188 </r>
        <r>  0.0000  0.0004  0.0249 </r>
        <r>  0.0000  0.0005  0.0312 </r>
        <r>  0.0000  0.0001  0.0188 </r>
        <r>  0.0000  0.0008  0.0146 </r>
        <r>  0.0000  0.0020  0.0001 </r>
        <r>  0.0000  0.0036  0.0002 </r>
        <r>  0.0000  0.0026  0.0004 </r>
        <r>  0.0000  0.0018  0.0002 </r>
        <r>  0.0000  0.0028  0.0002 </r>
        <r>  0.0000  0.0053  0.0002 </r>
        <r>  0.0000  0.0026  0.0003 </r>
        <r>  0.0000  0.0011  0.0002 </r>
        <r>  0.0004  0.0010  0.0012 </r>
        <r>  0.0006  0.0009  0.0020 </r>
        <r>  0.0001  0.0008  0.0009 </r>
        <r>  0.0003  0.0011  0.0011 </r>
        <r>  0.0003  0.0004  0.0013 </r>
        <r>  0.0003  0.0004  0.0014 </r>
        <r>  0.0001  0.0004  0.0010 </r>
        <r>  0.0001  0.0006  0.0006 </r>
        <r>  0.0000  0.0002  0.0023 </r>
        <r>  0.0001  0.0005  0.0003 </r>
        <r>  0.0002  0.0011  0.0008 </r>
        <r>  0.0000  0.0006  0.0020 </r>
        <r>  0.0002  0.0010  0.0007 </r>
        <r>  0.0004  0.0005  0.0010 </r>
        <r>  0.0005  0.0003  0.0011 </r>
        <r>  0.0001  0.0013  0.0011 </r>
        <r>  0.0001  0.0006  0.0009 </r>
        <r>  0.0004  0.0007  0.0009 </r>
        <r>  0.0002  0.0007  0.0010 </r>
        <r>  0.0000  0.0004  0.0004 </r>
        <r>  0.0005  0.0004  0.0010 </r>
        <r>  0.0005  0.0007  0.0013 </r>
        <r>  0.0004  0.0009  0.0014 </r>
        <r>  0.0002  0.0004  0.0020 </r>
       </set>
       <set comment="band 212">
        <r>  0.0000  0.0001  0.0211 </r>
        <r>  0.0000  0.0007  0.0114 </r>
        <r>  0.0000  0.0003  0.0065 </r>
        <r>  0.0000  0.0002  0.0187 </r>
        <r>  0.0000  0.0004  0.0040 </r>
        <r>  0.0000  0.0007  0.0257 </r>
        <r>  0.0000  0.0005  0.0244 </r>
        <r>  0.0000  0.0009  0.0335 </r>
        <r>  0.0000  0.0035  0.0002 </r>
        <r>  0.0000  0.0021  0.0002 </r>
        <r>  0.0000  0.0023  0.0003 </r>
        <r>  0.0000  0.0037  0.0001 </r>
        <r>  0.0000  0.0004  0.0003 </r>
        <r>  0.0000  0.0038  0.0002 </r>
        <r>  0.0000  0.0021  0.0002 </r>
        <r>  0.0000  0.0032  0.0003 </r>
        <r>  0.0001  0.0011  0.0007 </r>
        <r>  0.0003  0.0001  0.0011 </r>
        <r>  0.0010  0.0010  0.0018 </r>
        <r>  0.0000  0.0007  0.0003 </r>
        <r>  0.0004  0.0006  0.0010 </r>
        <r>  0.0003  0.0003  0.0011 </r>
        <r>  0.0002  0.0006  0.0016 </r>
        <r>  0.0001  0.0006  0.0010 </r>
        <r>  0.0001  0.0003  0.0005 </r>
        <r>  0.0000  0.0009  0.0013 </r>
        <r>  0.0003  0.0003  0.0015 </r>
        <r>  0.0004  0.0007  0.0013 </r>
        <r>  0.0004  0.0005  0.0011 </r>
        <r>  0.0005  0.0010  0.0023 </r>
        <r>  0.0001  0.0010  0.0004 </r>
        <r>  0.0005  0.0009  0.0012 </r>
        <r>  0.0001  0.0003  0.0007 </r>
        <r>  0.0002  0.0003  0.0007 </r>
        <r>  0.0003  0.0003  0.0015 </r>
        <r>  0.0000  0.0006  0.0003 </r>
        <r>  0.0001  0.0014  0.0023 </r>
        <r>  0.0004  0.0012  0.0012 </r>
        <r>  0.0001  0.0009  0.0023 </r>
        <r>  0.0001  0.0006  0.0004 </r>
       </set>
       <set comment="band 213">
        <r>  0.0000  0.0004  0.0170 </r>
        <r>  0.0000  0.0007  0.0140 </r>
        <r>  0.0000  0.0002  0.0301 </r>
        <r>  0.0000  0.0003  0.0118 </r>
        <r>  0.0000  0.0004  0.0139 </r>
        <r>  0.0000  0.0002  0.0191 </r>
        <r>  0.0000  0.0008  0.0262 </r>
        <r>  0.0000  0.0005  0.0127 </r>
        <r>  0.0000  0.0019  0.0002 </r>
        <r>  0.0000  0.0019  0.0002 </r>
        <r>  0.0000  0.0029  0.0002 </r>
        <r>  0.0000  0.0034  0.0004 </r>
        <r>  0.0000  0.0056  0.0002 </r>
        <r>  0.0000  0.0020  0.0004 </r>
        <r>  0.0000  0.0038  0.0001 </r>
        <r>  0.0000  0.0026  0.0002 </r>
        <r>  0.0007  0.0004  0.0015 </r>
        <r>  0.0000  0.0010  0.0005 </r>
        <r>  0.0003  0.0009  0.0011 </r>
        <r>  0.0003  0.0011  0.0009 </r>
        <r>  0.0000  0.0008  0.0002 </r>
        <r>  0.0000  0.0008  0.0020 </r>
        <r>  0.0001  0.0003  0.0008 </r>
        <r>  0.0007  0.0002  0.0026 </r>
        <r>  0.0002  0.0004  0.0013 </r>
        <r>  0.0000  0.0003  0.0010 </r>
        <r>  0.0000  0.0004  0.0013 </r>
        <r>  0.0001  0.0004  0.0006 </r>
        <r>  0.0007  0.0012  0.0016 </r>
        <r>  0.0004  0.0011  0.0011 </r>
        <r>  0.0006  0.0004  0.0017 </r>
        <r>  0.0001  0.0006  0.0008 </r>
        <r>  0.0002  0.0005  0.0011 </r>
        <r>  0.0000  0.0007  0.0011 </r>
        <r>  0.0003  0.0002  0.0009 </r>
        <r>  0.0006  0.0005  0.0015 </r>
        <r>  0.0001  0.0004  0.0008 </r>
        <r>  0.0004  0.0006  0.0022 </r>
        <r>  0.0002  0.0004  0.0007 </r>
        <r>  0.0002  0.0012  0.0011 </r>
       </set>
       <set comment="band 214">
        <r>  0.0000  0.0008  0.0068 </r>
        <r>  0.0000  0.0003  0.0394 </r>
        <r>  0.0000  0.0002  0.0320 </r>
        <r>  0.0000  0.0009  0.0110 </r>
        <r>  0.0000  0.0003  0.0139 </r>
        <r>  0.0000  0.0003  0.0068 </r>
        <r>  0.0000  0.0004  0.0186 </r>
        <r>  0.0000  0.0001  0.0169 </r>
        <r>  0.0000  0.0066  0.0003 </r>
        <r>  0.0000  0.0021  0.0003 </r>
        <r>  0.0000  0.0029  0.0002 </r>
        <r>  0.0000  0.0027  0.0001 </r>
        <r>  0.0000  0.0014  0.0002 </r>
        <r>  0.0000  0.0022  0.0002 </r>
        <r>  0.0000  0.0020  0.0002 </r>
        <r>  0.0000  0.0043  0.0005 </r>
        <r>  0.0000  0.0007  0.0005 </r>
        <r>  0.0004  0.0004  0.0014 </r>
        <r>  0.0005  0.0006  0.0017 </r>
        <r>  0.0001  0.0004  0.0012 </r>
        <r>  0.0000  0.0001  0.0011 </r>
        <r>  0.0001  0.0009  0.0006 </r>
        <r>  0.0001  0.0006  0.0014 </r>
        <r>  0.0003  0.0009  0.0011 </r>
        <r>  0.0013  0.0002  0.0025 </r>
        <r>  0.0002  0.0012  0.0012 </r>
        <r>  0.0001  0.0005  0.0005 </r>
        <r>  0.0002  0.0005  0.0011 </r>
        <r>  0.0001  0.0007  0.0005 </r>
        <r>  0.0000  0.0003  0.0004 </r>
        <r>  0.0001  0.0011  0.0013 </r>
        <r>  0.0011  0.0004  0.0025 </r>
        <r>  0.0000  0.0010  0.0003 </r>
        <r>  0.0004  0.0003  0.0024 </r>
        <r>  0.0003  0.0008  0.0022 </r>
        <r>  0.0001  0.0012  0.0014 </r>
        <r>  0.0001  0.0004  0.0007 </r>
        <r>  0.0000  0.0006  0.0011 </r>
        <r>  0.0003  0.0005  0.0007 </r>
        <r>  0.0001  0.0005  0.0008 </r>
       </set>
       <set comment="band 215">
        <r>  0.0000  0.0009  0.0079 </r>
        <r>  0.0000  0.0002  0.0338 </r>
        <r>  0.0000  0.0002  0.0333 </r>
        <r>  0.0000  0.0005  0.0132 </r>
        <r>  0.0000  0.0002  0.0318 </r>
        <r>  0.0000  0.0009  0.0058 </r>
        <r>  0.0000  0.0004  0.0065 </r>
        <r>  0.0000  0.0001  0.0126 </r>
        <r>  0.0000  0.0034  0.0002 </r>
        <r>  0.0000  0.0054  0.0004 </r>
        <r>  0.0000  0.0033  0.0003 </r>
        <r>  0.0000  0.0047  0.0002 </r>
        <r>  0.0000  0.0035  0.0004 </r>
        <r>  0.0000  0.0034  0.0002 </r>
        <r>  0.0000  0.0050  0.0005 </r>
        <r>  0.0000  0.0009  0.0003 </r>
        <r>  0.0003  0.0004  0.0028 </r>
        <r>  0.0000  0.0010  0.0008 </r>
        <r>  0.0003  0.0007  0.0009 </r>
        <r>  0.0006  0.0002  0.0015 </r>
        <r>  0.0005  0.0009  0.0013 </r>
        <r>  0.0002  0.0004  0.0010 </r>
        <r>  0.0001  0.0005  0.0014 </r>
        <r>  0.0002  0.0004  0.0010 </r>
        <r>  0.0007  0.0005  0.0022 </r>
        <r>  0.0004  0.0006  0.0012 </r>
        <r>  0.0001  0.0007  0.0006 </r>
        <r>  0.0003  0.0003  0.0012 </r>
        <r>  0.0000  0.0005  0.0005 </r>
        <r>  0.0002  0.0002  0.0011 </r>
        <r>  0.0005  0.0002  0.0020 </r>
        <r>  0.0001  0.0007  0.0006 </r>
        <r>  0.0007  0.0002  0.0026 </r>
        <r>  0.0001  0.0006  0.0009 </r>
        <r>  0.0003  0.0010  0.0010 </r>
        <r>  0.0001  0.0002  0.0019 </r>
        <r>  0.0001  0.0010  0.0009 </r>
        <r>  0.0001  0.0003  0.0006 </r>
        <r>  0.0000  0.0004  0.0011 </r>
        <r>  0.0001  0.0003  0.0004 </r>
       </set>
       <set comment="band 216">
        <r>  0.0000  0.0001  0.0212 </r>
        <r>  0.0000  0.0007  0.0042 </r>
        <r>  0.0000  0.0009  0.0074 </r>
        <r>  0.0000  0.0002  0.0437 </r>
        <r>  0.0000  0.0006  0.0107 </r>
        <r>  0.0000  0.0002  0.0254 </r>
        <r>  0.0000  0.0003  0.0211 </r>
        <r>  0.0000  0.0004  0.0117 </r>
        <r>  0.0000  0.0024  0.0003 </r>
        <r>  0.0000  0.0028  0.0004 </r>
        <r>  0.0000  0.0033  0.0003 </r>
        <r>  0.0000  0.0052  0.0003 </r>
        <r>  0.0000  0.0031  0.0004 </r>
        <r>  0.0000  0.0032  0.0003 </r>
        <r>  0.0000  0.0052  0.0002 </r>
        <r>  0.0000  0.0038  0.0003 </r>
        <r>  0.0001  0.0003  0.0010 </r>
        <r>  0.0002  0.0009  0.0008 </r>
        <r>  0.0003  0.0007  0.0015 </r>
        <r>  0.0002  0.0005  0.0018 </r>
        <r>  0.0000  0.0007  0.0005 </r>
        <r>  0.0002  0.0004  0.0020 </r>
        <r>  0.0003  0.0005  0.0016 </r>
        <r>  0.0003  0.0008  0.0014 </r>
        <r>  0.0001  0.0003  0.0011 </r>
        <r>  0.0002  0.0004  0.0005 </r>
        <r>  0.0001  0.0009  0.0004 </r>
        <r>  0.0010  0.0003  0.0026 </r>
        <r>  0.0001  0.0008  0.0003 </r>
        <r>  0.0006  0.0001  0.0022 </r>
        <r>  0.0008  0.0001  0.0020 </r>
        <r>  0.0001  0.0010  0.0005 </r>
        <r>  0.0000  0.0007  0.0006 </r>
        <r>  0.0002  0.0002  0.0018 </r>
        <r>  0.0002  0.0002  0.0018 </r>
        <r>  0.0001  0.0009  0.0005 </r>
        <r>  0.0000  0.0001  0.0007 </r>
        <r>  0.0001  0.0012  0.0007 </r>
        <r>  0.0001  0.0006  0.0004 </r>
        <r>  0.0004  0.0002  0.0025 </r>
       </set>
      </set>
     </set>
    </set>
   </array>
  </projected>
 </calculation>
 <structure name="finalpos" >
  <crystal>
   <varray name="basis" >
    <v>      11.73535200       0.00000000       0.00000000 </v>
    <v>       0.00000000      11.73535200       0.00000000 </v>
    <v>       0.00000000       0.00000000      11.73535200 </v>
   </varray>
   <i name="volume">   1616.17491673 </i>
   <varray name="rec_basis" >
    <v>       0.08521261       0.00000000       0.00000000 </v>
    <v>       0.00000000       0.08521261       0.00000000 </v>
    <v>       0.00000000       0.00000000       0.08521261 </v>
   </varray>
  </crystal>
  <varray name="positions" >
   <v>       0.25000000       0.25000000       0.25000000 </v>
   <v>       0.25000000       0.25000000       0.75000000 </v>
   <v>       0.25000000       0.75000000       0.25000000 </v>
   <v>       0.25000000       0.75000000       0.75000000 </v>
   <v>       0.75000000       0.25000000       0.25000000 </v>
   <v>       0.75000000       0.25000000       0.75000000 </v>
   <v>       0.75000000       0.75000000       0.25000000 </v>
   <v>       0.75000000       0.75000000       0.75000000 </v>
   <v>       0.00000000       0.00000000       0.00000000 </v>
   <v>       0.00000000       0.00000000       0.50000000 </v>
   <v>       0.00000000       0.50000000       0.00000000 </v>
   <v>       0.00000000       0.50000000       0.50000000 </v>
   <v>       0.50000000       0.00000000       0.00000000 </v>
   <v>       0.50000000       0.00000000       0.50000000 </v>
   <v>       0.50000000       0.50000000       0.00000000 </v>
   <v>       0.50000000       0.50000000       0.50000000 </v>
   <v>       0.98875000       0.25000000       0.00000000 </v>
   <v>       0.98875000       0.25000000       0.50000000 </v>
   <v>       0.01125000       0.75000000       0.00000000 </v>
   <v>       0.01125000       0.75000000       0.50000000 </v>
   <v>       0.51125000       0.25000000       0.00000000 </v>
   <v>       0.51125000       0.25000000       0.50000000 </v>
   <v>       0.48875000       0.75000000       0.00000000 </v>
   <v>       0.48875000       0.75000000       0.50000000 </v>
   <v>       0.00000000       0.00000000       0.25000000 </v>
   <v>       0.00000000       0.00000000       0.75000000 </v>
   <v>       0.00000000       0.50000000       0.25000000 </v>
   <v>       0.00000000       0.50000000       0.75000000 </v>
   <v>       0.50000000       0.00000000       0.25000000 </v>
   <v>       0.50000000       0.00000000       0.75000000 </v>
   <v>       0.50000000       0.50000000       0.25000000 </v>
   <v>       0.50000000       0.50000000       0.75000000 </v>
   <v>       0.25000000       0.01125000       0.00000000 </v>
   <v>       0.25000000       0.01125000       0.50000000 </v>
   <v>       0.25000000       0.48875000       0.00000000 </v>
   <v>       0.25000000       0.48875000       0.50000000 </v>
   <v>       0.75000000       0.98875000       0.00000000 </v>
   <v>       0.75000000       0.98875000       0.50000000 </v>
   <v>       0.75000000       0.51125000       0.00000000 </v>
   <v>       0.75000000       0.51125000       0.50000000 </v>
  </varray>
 </structure>
</modeling>
