CsPbBr3 cubic bulk                      
           1
    11.735352    0.000000    0.000000
     0.000000   11.735352    0.000000
     0.000000    0.000000   11.735352
   Cs   Pb   Br
   8   8  24
Direct configuration=     1
   0.25000000  0.25000000  0.25000000
   0.25000000  0.25000000  0.75000000
   0.25000000  0.75000000  0.25000000
   0.25000000  0.75000000  0.75000000
   0.75000000  0.25000000  0.25000000
   0.75000000  0.25000000  0.75000000
   0.75000000  0.75000000  0.25000000
   0.75000000  0.75000000  0.75000000
   0.00000000  0.00000000  0.00000000
   0.00000000  0.00000000  0.50000000
   0.00000000  0.50000000  0.00000000
   0.00000000  0.50000000  0.50000000
   0.50000000  0.00000000  0.00000000
   0.50000000  0.00000000  0.50000000
   0.50000000  0.50000000  0.00000000
   0.50000000  0.50000000  0.50000000
   0.98875000  0.25000000  0.00000000
   0.98875000  0.25000000  0.50000000
   0.01125000  0.75000000  0.00000000
   0.01125000  0.75000000  0.50000000
   0.51125000  0.25000000  0.00000000
   0.51125000  0.25000000  0.50000000
   0.48875000  0.75000000  0.00000000
   0.48875000  0.75000000  0.50000000
   0.00000000  0.00000000  0.25000000
   0.00000000  0.00000000  0.75000000
   0.00000000  0.50000000  0.25000000
   0.00000000  0.50000000  0.75000000
   0.50000000  0.00000000  0.25000000
   0.50000000  0.00000000  0.75000000
   0.50000000  0.50000000  0.25000000
   0.50000000  0.50000000  0.75000000
   0.25000000  0.01125000  0.00000000
   0.25000000  0.01125000  0.50000000
   0.25000000  0.48875000  0.00000000
   0.25000000  0.48875000  0.50000000
   0.75000000  0.98875000  0.00000000
   0.75000000  0.98875000  0.50000000
   0.75000000  0.51125000  0.00000000
   0.75000000  0.51125000  0.50000000
