|===============================================================================
|
|  DFTB+ release 21.1
|
|  Copyright (C) 2006 - 2021  DFTB+ developers group
|
|===============================================================================
|
|  When publishing results obtained with DFTB+, please cite the following
|  reference:
|
|  * DFTB+, a software package for efficient approximate density functional
|    theory based atomistic simulations, J. Chem. Phys. 152, 124101 (2020).
|    [doi: 10.1063/1.5143190]
|
|  You should also cite additional publications crediting the parametrization
|  data you use. Please consult the documentation of the SK-files for the
|  references.
|
|===============================================================================

Reading input file 'dftb_in.hsd'
Parser version: 9

--------------------------------------------------------------------------------
Reading SK-files:
Done.


Processed input in HSD format written to 'dftb_pin.hsd'

Starting initialization...
--------------------------------------------------------------------------------
OpenMP threads:              8
Chosen random seed:          166714680
Mode:                        Static calculation
Self consistent charges:     Yes
SCC-tolerance:                 0.100000E-05
Max. scc iterations:                   1500
Shell resolved Hubbard:      Yes
Spin polarisation:           No
Nr. of up electrons:           103.500000
Nr. of down electrons:         103.500000
Periodic boundaries:         Yes
Electronic solver:           Relatively robust
Mixer:                       Broyden mixer
Mixing parameter:                  0.200000
Maximal SCC-cycles:                    1500
Nr. of chrg. vec. in memory:              0
Electronic temperature:        0.633363E-04 H      0.172347E-02 eV
Initial charges:             Set automatically (system chrg:   0.000E+00)
Included shells:            Cs:  s
                            Pb:  s, p
                            Br:  s, p
K-points and weights:           1:  0.000000  0.000000  0.000000     0.125000
                                2:  0.000000  0.000000  0.500000     0.125000
                                3:  0.000000  0.500000  0.000000     0.125000
                                4:  0.000000  0.500000  0.500000     0.125000
                                5:  0.500000  0.000000  0.000000     0.125000
                                6:  0.500000  0.000000  0.500000     0.125000
                                7:  0.500000  0.500000  0.000000     0.125000
                                8:  0.500000  0.500000  0.500000     0.125000

K-points in absolute space:     1:  0.000000  0.000000  0.000000
                                2: -0.015712  0.000000  0.016377
                                3:  0.000000  0.022492  0.000000
                                4: -0.015712  0.022492  0.016377
                                5:  0.015712  0.000000  0.016377
                                6:  0.000000  0.000000  0.032754
                                7:  0.015712  0.022492  0.016377
                                8:  0.000000  0.022492  0.032754

Extra options:
                             Mulliken analysis

--------------------------------------------------------------------------------

***  Geometry step: 0

 iSCC Total electronic   Diff electronic      SCC error    
    1    0.00000000E+00    0.00000000E+00    0.12395005E+01
    2   -0.84347600E+02   -0.84347600E+02    0.92629609E+00
    3   -0.84376157E+02   -0.28557402E-01    0.11844383E+00
    4   -0.84416925E+02   -0.40767505E-01    0.99539595E-01
    5   -0.84417693E+02   -0.76848200E-03    0.52721079E-01
    6   -0.84416949E+02    0.74414555E-03    0.12492854E-01
    7   -0.84418147E+02   -0.11983783E-02    0.90040793E-02
    8   -0.84418179E+02   -0.31947168E-04    0.13987356E-02
    9   -0.84418228E+02   -0.48309151E-04    0.46291327E-03
   10   -0.84418229E+02   -0.11618214E-05    0.15845522E-03
   11   -0.84418229E+02   -0.10904755E-06    0.34920211E-04
   12   -0.84418229E+02   -0.36723520E-07    0.67701464E-04
   13   -0.84418229E+02    0.64883920E-08    0.12761895E-04
   14   -0.84418229E+02   -0.55709108E-08    0.26440476E-04
   15   -0.84418229E+02    0.11387300E-08    0.27362474E-05
   16   -0.84418229E+02   -0.87557339E-09    0.49031596E-06
>> Charges saved for restart in charges.bin

Total Energy:                      -84.4182289049 H        -2297.1369 eV
Extrapolated to 0K:                -84.4182302748 H        -2297.1369 eV
Total Mermin free energy:          -84.4182316448 H        -2297.1370 eV
Force related energy:              -84.4182316448 H        -2297.1370 eV


--------------------------------------------------------------------------------
DFTB+ running times                          cpu [s]             wall clock [s]
--------------------------------------------------------------------------------
Pre-SCC initialisation                 +     0.16  (  1.5%)      0.04  (  2.1%)
SCC                                    +    10.25  ( 98.2%)      1.67  ( 97.6%)
Post-geometry optimisation             +     0.02  (  0.2%)      0.00  (  0.2%)
--------------------------------------------------------------------------------
Missing                                +     0.00  (  0.0%)      0.00  (  0.1%)
Total                                  =    10.43  (100.0%)      1.72  (100.0%)
--------------------------------------------------------------------------------
