 vasp.5.4.4.18Apr17-6-g9f103f2a35 (build Jun 22 2020 09:27:21) complex           
 executed on tx2_gcc-7.3_libsci-1 date 2021.10.12  05:52:04
 running on   64 total cores
 distrk:  each k-point on   64 cores,    1 groups
 distr:  one band on NCORES_PER_BAND=   8 cores,    8 groups


--------------------------------------------------------------------------------------------------------


 INCAR:
 POTCAR:    PAW_PBE Cs_sv 08Apr2002               
 POTCAR:    PAW_PBE Pb_d 06Sep2000                
 POTCAR:    PAW_PBE Br 06Sep2000                  
 POTCAR:    PAW_PBE Cs_sv 08Apr2002               
 POTCAR:    PAW_PBE Cs_sv 08Apr2002               
   SHA256 =  c1463496f0f6037ed62c6012a8013a89ee9ad6ffb38599dcd6c079e7ed31779b Cs
   COPYR  = (c) Copyright 08Apr2002 Georg Kresse                                
   COPYR  = This file is part of the software VASP. Any use, copying, and all ot
   COPYR  = If you do not have a valid VASP license, you may not use, copy or di
   VRHFIN =Cs: 5s5p6s                                                           
   LEXCH  = PE                                                                  
   EATOM  =   555.6835 eV,   40.8416 Ry                                         
                                                                                
   TITEL  = PAW_PBE Cs_sv 08Apr2002                                             
   LULTRA =        F    use ultrasoft PP ?                                      
   IUNSCR =        1    unscreen: 0-lin 1-nonlin 2-no                           
   RPACOR =    2.200    partial core radius                                     
   POMASS =  132.900; ZVAL   =    9.000    mass and valenz                      
   RCORE  =    2.500    outmost cutoff radius                                   
   RWIGS  =    2.500; RWIGS  =    1.323    wigner-seitz radius (au A)           
   ENMAX  =  220.318; ENMIN  =  165.238 eV                                      
   RCLOC  =    2.207    cutoff for local pot                                    
   LCOR   =        T    correct aug charges                                     
   LPAW   =        T    paw PP                                                  
   EAUG   =  407.933                                                            
   DEXC   =    0.000                                                            
   RMAX   =    2.554    core radius for proj-oper                               
   RAUG   =    1.300    factor for augmentation sphere                          
   RDEP   =    2.590    radius for radial grids                                 
   RDEPT  =    2.117    core radius for aug-charge                              
                                                                                
   Atomic configuration                                                         
   13 entries                                                                   
     n  l   j            E        occ.                                          
     1  0  0.50    -35790.1377   2.0000                                         
     2  0  0.50     -5613.6201   2.0000                                         
     2  1  1.50     -5035.0101   6.0000                                         
     3  0  0.50     -1167.0767   2.0000                                         
     3  1  1.50      -980.9754   6.0000                                         
     3  2  2.50      -708.0703  10.0000                                         
     4  0  0.50      -220.2386   2.0000                                         
     4  1  1.50      -160.7596   6.0000                                         
     4  2  2.50       -74.2354  10.0000                                         
     5  0  0.50       -26.7287   2.0000                                         
     6  0  0.50        -2.0862   1.0000                                         
     5  1  1.50       -13.5159   6.0000                                         
     5  2  2.50        -0.4136   0.0000                                         
   Description                                                                  
     l       E           TYP  RCUT    TYP  RCUT                                 
     0    -26.7287425     23  1.900                                             
     0     -2.0862306     23  1.900                                             
     1    -13.5158719     23  2.500                                             
     1     -2.7211652     23  2.500                                             
     2     -0.4136171     23  2.500                                             
  local pseudopotential read in
  partial core-charges read in
  partial kinetic energy density read in
  atomic valenz-charges read in
  non local Contribution for L=           0  read in
    real space projection operators read in
  non local Contribution for L=           0  read in
    real space projection operators read in
  non local Contribution for L=           1  read in
    real space projection operators read in
  non local Contribution for L=           1  read in
    real space projection operators read in
  non local Contribution for L=           2  read in
    real space projection operators read in
    PAW grid and wavefunctions read in

   number of l-projection  operators is LMAX  =           5
   number of lm-projection operators is LMMAX =          13

 POTCAR:    PAW_PBE Pb_d 06Sep2000                
   SHA256 =  fb885b08f0fba73a15f6a6b0e39bd200c13ec96ef97cf3ecd8e63bade5137abd Pb
   COPYR  = (c) Copyright 06Sep2000 Georg Kresse                                
   COPYR  = This file is part of the software VASP. Any use, copying, and all ot
   COPYR  = If you do not have a valid VASP license, you may not use, copy or di
   VRHFIN =Pb:                                                                  
   LEXCH  = PE                                                                  
   EATOM  =  1661.6185 eV,  122.1255 Ry                                         
                                                                                
   TITEL  = PAW_PBE Pb_d 06Sep2000                                              
   LULTRA =        F    use ultrasoft PP ?                                      
   IUNSCR =        1    unscreen: 0-lin 1-nonlin 2-no                           
   RPACOR =    2.200    partial core radius                                     
   POMASS =  207.200; ZVAL   =   14.000    mass and valenz                      
   RCORE  =    2.500    outmost cutoff radius                                   
   RWIGS  =    3.260; RWIGS  =    1.725    wigner-seitz radius (au A)           
   ENMAX  =  237.835; ENMIN  =  178.376 eV                                      
   ICORE  =        3    local potential                                         
   LCOR   =        T    correct aug charges                                     
   LPAW   =        T    paw PP                                                  
   EAUG   =  391.914                                                            
   DEXC   =    0.000                                                            
   RMAX   =    2.565    core radius for proj-oper                               
   RAUG   =    1.300    factor for augmentation sphere                          
   RDEP   =    2.643    radius for radial grids                                 
   RDEPT  =    2.092    core radius for aug-charge                              
                                                                                
   Atomic configuration                                                         
   16 entries                                                                   
     n  l   j            E        occ.                                          
     1  0  0.50    -88091.8466   2.0000                                         
     2  0  0.50    -15753.4197   2.0000                                         
     2  1  1.50    -13508.1797   6.0000                                         
     3  0  0.50     -3781.7194   2.0000                                         
     3  1  1.50     -3138.2529   6.0000                                         
     3  2  2.50     -2483.2977  10.0000                                         
     4  0  0.50      -856.2895   2.0000                                         
     4  1  1.50      -645.4942   6.0000                                         
     4  2  2.50      -401.8768  10.0000                                         
     4  3  3.50      -132.9059  14.0000                                         
     5  0  0.50      -144.0950   2.0000                                         
     5  1  1.50       -85.7879   6.0000                                         
     5  2  2.50       -21.1769  10.0000                                         
     6  0  0.50       -12.0372   2.0000                                         
     6  1  1.50        -3.4971   2.0000                                         
     5  3  2.50        -2.7212   0.0000                                         
   Description                                                                  
     l       E           TYP  RCUT    TYP  RCUT                                 
     2    -21.1768523     23  2.500                                             
     2      1.3605826     23  2.500                                             
     0    -12.0371562     23  2.500                                             
     0     13.6058260     23  2.500                                             
     1     -3.4971339     23  2.500                                             
     1     13.6058260     23  2.500                                             
     3     -1.3605826      7  2.500                                             
  local pseudopotential read in
  partial core-charges read in
  partial kinetic energy density read in
  atomic valenz-charges read in
  non local Contribution for L=           2  read in
    real space projection operators read in
  non local Contribution for L=           2  read in
    real space projection operators read in
  non local Contribution for L=           0  read in
    real space projection operators read in
  non local Contribution for L=           0  read in
    real space projection operators read in
  non local Contribution for L=           1  read in
    real space projection operators read in
  non local Contribution for L=           1  read in
    real space projection operators read in
    PAW grid and wavefunctions read in

   number of l-projection  operators is LMAX  =           6
   number of lm-projection operators is LMMAX =          18

 POTCAR:    PAW_PBE Br 06Sep2000                  
   SHA256 =  96a73d2954943bbee26f4990d676cc6c3bf44b8dd2c75cd4b3b825d8403f0103 Br
   COPYR  = (c) Copyright 06Sep2000 Georg Kresse                                
   COPYR  = This file is part of the software VASP. Any use, copying, and all ot
   COPYR  = If you do not have a valid VASP license, you may not use, copy or di
   VRHFIN =Br: s2p5                                                             
   LEXCH  = PE                                                                  
   EATOM  =   368.4488 eV,   27.0802 Ry                                         
                                                                                
   TITEL  = PAW_PBE Br 06Sep2000                                                
   LULTRA =        F    use ultrasoft PP ?                                      
   IUNSCR =        1    unscreen: 0-lin 1-nonlin 2-no                           
   RPACOR =    1.900    partial core radius                                     
   POMASS =   79.904; ZVAL   =    7.000    mass and valenz                      
   RCORE  =    2.100    outmost cutoff radius                                   
   RWIGS  =    2.200; RWIGS  =    1.164    wigner-seitz radius (au A)           
   ENMAX  =  216.285; ENMIN  =  162.214 eV                                      
   ICORE  =        3    local potential                                         
   LCOR   =        T    correct aug charges                                     
   LPAW   =        T    paw PP                                                  
   EAUG   =  503.852                                                            
   DEXC   =    0.000                                                            
   RMAX   =    2.139    core radius for proj-oper                               
   RAUG   =    1.300    factor for augmentation sphere                          
   RDEP   =    2.186    radius for radial grids                                 
   RDEPT  =    1.890    core radius for aug-charge                              
                                                                                
   Atomic configuration                                                         
   10 entries                                                                   
     n  l   j            E        occ.                                          
     1  0  0.50    -13316.2796   2.0000                                         
     2  0  0.50     -1732.8239   2.0000                                         
     2  1  1.50     -1528.2193   6.0000                                         
     3  0  0.50      -238.0460   2.0000                                         
     3  1  1.50      -173.4609   6.0000                                         
     3  2  2.50       -66.7132  10.0000                                         
     4  0  0.50       -20.1334   2.0000                                         
     4  1  0.50        -7.8591   5.0000                                         
     4  2  2.50        -8.1635   0.0000                                         
     4  3  2.50        -8.1635   0.0000                                         
   Description                                                                  
     l       E           TYP  RCUT    TYP  RCUT                                 
     0    -20.1333652     23  2.100                                             
     0    -21.4939478     23  2.100                                             
     1     -7.8591052     23  2.100                                             
     1     -3.1608434     23  2.100                                             
     2     -8.1634956     23  2.100                                             
     3     -1.3605826      7  2.100                                             
  local pseudopotential read in
  partial core-charges read in
  partial kinetic energy density read in
  atomic valenz-charges read in
  non local Contribution for L=           0  read in
    real space projection operators read in
  non local Contribution for L=           0  read in
    real space projection operators read in
  non local Contribution for L=           1  read in
    real space projection operators read in
  non local Contribution for L=           1  read in
    real space projection operators read in
  non local Contribution for L=           2  read in
    real space projection operators read in
    PAW grid and wavefunctions read in

   number of l-projection  operators is LMAX  =           5
   number of lm-projection operators is LMMAX =          13

 POTCAR:    PAW_PBE Cs_sv 08Apr2002               
   SHA256 =  c1463496f0f6037ed62c6012a8013a89ee9ad6ffb38599dcd6c079e7ed31779b Cs
   COPYR  = (c) Copyright 08Apr2002 Georg Kresse                                
   COPYR  = This file is part of the software VASP. Any use, copying, and all ot
   COPYR  = If you do not have a valid VASP license, you may not use, copy or di
   VRHFIN =Cs: 5s5p6s                                                           
   LEXCH  = PE                                                                  
   EATOM  =   555.6835 eV,   40.8416 Ry                                         
                                                                                
   TITEL  = PAW_PBE Cs_sv 08Apr2002                                             
   LULTRA =        F    use ultrasoft PP ?                                      
   IUNSCR =        1    unscreen: 0-lin 1-nonlin 2-no                           
   RPACOR =    2.200    partial core radius                                     
   POMASS =  132.900; ZVAL   =    9.000    mass and valenz                      
   RCORE  =    2.500    outmost cutoff radius                                   
   RWIGS  =    2.500; RWIGS  =    1.323    wigner-seitz radius (au A)           
   ENMAX  =  220.318; ENMIN  =  165.238 eV                                      
   RCLOC  =    2.207    cutoff for local pot                                    
   LCOR   =        T    correct aug charges                                     
   LPAW   =        T    paw PP                                                  
   EAUG   =  407.933                                                            
   DEXC   =    0.000                                                            
   RMAX   =    2.554    core radius for proj-oper                               
   RAUG   =    1.300    factor for augmentation sphere                          
   RDEP   =    2.590    radius for radial grids                                 
   RDEPT  =    2.117    core radius for aug-charge                              
                                                                                
   Atomic configuration                                                         
   13 entries                                                                   
     n  l   j            E        occ.                                          
     1  0  0.50    -35790.1377   2.0000                                         
     2  0  0.50     -5613.6201   2.0000                                         
     2  1  1.50     -5035.0101   6.0000                                         
     3  0  0.50     -1167.0767   2.0000                                         
     3  1  1.50      -980.9754   6.0000                                         
     3  2  2.50      -708.0703  10.0000                                         
     4  0  0.50      -220.2386   2.0000                                         
     4  1  1.50      -160.7596   6.0000                                         
     4  2  2.50       -74.2354  10.0000                                         
     5  0  0.50       -26.7287   2.0000                                         
     6  0  0.50        -2.0862   1.0000                                         
     5  1  1.50       -13.5159   6.0000                                         
     5  2  2.50        -0.4136   0.0000                                         
   Description                                                                  
     l       E           TYP  RCUT    TYP  RCUT                                 
     0    -26.7287425     23  1.900                                             
     0     -2.0862306     23  1.900                                             
     1    -13.5158719     23  2.500                                             
     1     -2.7211652     23  2.500                                             
     2     -0.4136171     23  2.500                                             
  local pseudopotential read in
  partial core-charges read in
  partial kinetic energy density read in
  atomic valenz-charges read in
  non local Contribution for L=           0  read in
    real space projection operators read in
  non local Contribution for L=           0  read in
    real space projection operators read in
  non local Contribution for L=           1  read in
    real space projection operators read in
  non local Contribution for L=           1  read in
    real space projection operators read in
  non local Contribution for L=           2  read in
    real space projection operators read in
    PAW grid and wavefunctions read in

   number of l-projection  operators is LMAX  =           5
   number of lm-projection operators is LMMAX =          13

 Optimization of the real space projectors (new method)

 maximal supplied QI-value         = 15.12
 optimisation between [QCUT,QGAM] = [  8.77, 17.69] = [ 21.53, 87.61] Ry 
 Optimized for a Real-space Cutoff    1.85 Angstroem

   l    n(q)    QCUT    max X(q) W(low)/X(q) W(high)/X(q)  e(spline) 
   0     10     8.768    25.322    0.81E-04    0.51E-04    0.48E-06
   0     10     8.768    99.187    0.78E-04    0.50E-04    0.47E-06
   1      9     8.768    11.761    0.21E-03    0.20E-03    0.37E-06
   1      9     8.768     8.275    0.24E-03    0.22E-03    0.41E-06
   2      9     8.768     3.829    0.23E-04    0.15E-03    0.18E-06
 Optimization of the real space projectors (new method)

 maximal supplied QI-value         = 15.12
 optimisation between [QCUT,QGAM] = [  8.77, 17.69] = [ 21.53, 87.61] Ry 
 Optimized for a Real-space Cutoff    1.59 Angstroem

   l    n(q)    QCUT    max X(q) W(low)/X(q) W(high)/X(q)  e(spline) 
   2      7     8.768     3.846    0.48E-04    0.11E-03    0.11E-06
   2      7     8.768     8.593    0.20E-03    0.22E-04    0.24E-06
   0      8     8.768    20.082    0.68E-04    0.88E-04    0.41E-07
   0      8     8.768     8.597    0.89E-04    0.13E-03    0.59E-07
   1      8     8.768    33.223    0.15E-03    0.53E-04    0.87E-07
   1      8     8.768    15.899    0.14E-03    0.44E-04    0.78E-07
 Optimization of the real space projectors (new method)

 maximal supplied QI-value         = 17.95
 optimisation between [QCUT,QGAM] = [  8.80, 17.59] = [ 21.67, 86.68] Ry 
 Optimized for a Real-space Cutoff    1.59 Angstroem

   l    n(q)    QCUT    max X(q) W(low)/X(q) W(high)/X(q)  e(spline) 
   0      8     8.797   175.082    0.82E-04    0.14E-03    0.89E-07
   0      8     8.797   174.004    0.79E-04    0.14E-03    0.86E-07
   1      8     8.797    54.315    0.16E-03    0.14E-04    0.30E-06
   1      8     8.797    42.441    0.16E-03    0.14E-04    0.30E-06
   2      7     8.797     3.596    0.92E-04    0.15E-03    0.85E-07
 Optimization of the real space projectors (new method)

 maximal supplied QI-value         = 15.12
 optimisation between [QCUT,QGAM] = [  8.77, 17.69] = [ 21.53, 87.61] Ry 
 Optimized for a Real-space Cutoff    1.85 Angstroem

   l    n(q)    QCUT    max X(q) W(low)/X(q) W(high)/X(q)  e(spline) 
   0     10     8.768    25.322    0.81E-04    0.51E-04    0.48E-06
   0     10     8.768    99.187    0.78E-04    0.50E-04    0.47E-06
   1      9     8.768    11.761    0.21E-03    0.20E-03    0.37E-06
   1      9     8.768     8.275    0.24E-03    0.22E-03    0.41E-06
   2      9     8.768     3.829    0.23E-04    0.15E-03    0.18E-06
  PAW_PBE Cs_sv 08Apr2002               :
 energy of atom  1       EATOM= -555.6835
 kinetic energy error for atom=    0.0069 (will be added to EATOM!!)
  PAW_PBE Pb_d 06Sep2000                :
 energy of atom  2       EATOM=-1661.6185
 kinetic energy error for atom=    0.0498 (will be added to EATOM!!)
  PAW_PBE Br 06Sep2000                  :
 energy of atom  3       EATOM= -368.4488
 kinetic energy error for atom=    0.0072 (will be added to EATOM!!)
  PAW_PBE Cs_sv 08Apr2002               :
 energy of atom  4       EATOM= -555.6835
 kinetic energy error for atom=    0.0069 (will be added to EATOM!!)


 POSCAR: Cs7 Pb8 Br24                            
  positions in direct lattice
  No initial velocities read in

 METAGGA = SCAN     LMAXTAU =  6    LMIXTAU =  F

 exchange correlation table for  LEXCH =        8
   RHO(1)=    0.500       N(1)  =     2000
   RHO(2)=  100.500       N(2)  =     4000

 VTST: version 3.2, (02/03/18)

 CHAIN: initializing optimizer
 
 OPT: Using VASP Conjugate-Gradient optimizer
 CHAIN: Read ICHAIN            0

 POSCAR: Cs7 Pb8 Br24                            
  positions in direct lattice
  No initial velocities read in



--------------------------------------------------------------------------------------------------------


 ion  position               nearest neighbor table
   1  0.266  0.250  0.207-
   2  0.773  0.250  0.713-
   3  0.200  0.750  0.762-
   4  0.289  0.250  0.734-
   5  0.775  0.250  0.226-
   6  0.736  0.750  0.788-
   7  0.997  0.998  0.003-  19 2.97  28 2.99  29 2.99  34 3.00  17 3.02  31 3.04
   8  0.502  0.000  0.499-  27 2.98  18 2.98  32 2.99  33 3.00  20 3.00  30 3.02
   9  0.501  1.000  0.995-  33 2.97  21 2.98  29 2.98  27 2.99  31 3.01  15 3.02
  10  0.002  1.000  0.498-  16 2.96  28 2.97  30 3.01  32 3.01  22 3.02  34 3.04
  11  0.501  0.500  0.995-  25 2.97  21 2.98  35 2.98  37 2.99  23 3.01  15 3.02
  12  0.002  0.500  0.498-  16 2.96  38 2.97  36 3.01  24 3.01  22 3.02  26 3.04
  13  0.997  0.502  0.003-  19 2.97  38 2.99  35 2.99  26 3.00  17 3.02  23 3.04
  14  0.502  0.500  0.499-  37 2.98  18 2.98  24 2.99  25 3.00  20 3.00  36 3.02
  15  0.464  0.750  0.944-  11 3.02   9 3.02
  16  0.970  0.750  0.487-  10 2.96  12 2.96
  17  0.959  0.250  0.973-  13 3.02   7 3.02
  18  0.462  0.250  0.482-  14 2.98   8 2.98
  19  0.043  0.750  0.025-   7 2.97  13 2.97
  20  0.538  0.750  0.535-   8 3.00  14 3.00
  21  0.536  0.250  0.009-   9 2.98  11 2.98
  22  0.033  0.250  0.546-  12 3.02  10 3.02
  23  0.247  0.463  0.953-  11 3.01  13 3.04
  24  0.750  0.452  0.460-  14 2.99  12 3.01
  25  0.458  0.499  0.244-  39 2.96  11 2.97  14 3.00
  26  0.951  0.529  0.750-  13 3.00  12 3.04
  27  0.557  0.029  0.748-   8 2.98   9 2.99
  28  0.038  0.049  0.253-  10 2.97   7 2.99
  29  0.749  0.959  0.049-   9 2.98   7 2.99
  30  0.254  0.977  0.558-  10 3.01   8 3.02
  31  0.247  0.037  0.953-   9 3.01   7 3.04
  32  0.750  0.048  0.460-   8 2.99  10 3.01
  33  0.458  0.001  0.244-  39 2.96   9 2.97   8 3.00
  34  0.951  0.971  0.750-   7 3.00  10 3.04
  35  0.749  0.541  0.049-  11 2.98  13 2.99
  36  0.254  0.523  0.558-  12 3.01  14 3.02
  37  0.557  0.471  0.748-  14 2.98  11 2.99
  38  0.038  0.451  0.253-  12 2.97  13 2.99
  39  0.470  0.750  0.267-  33 2.96  25 2.96


IMPORTANT INFORMATION: All symmetrisations will be switched off!
NOSYMM: (Re-)initialisation of all symmetry stuff for point group C_1.



 KPOINTS: 1x1x1                                   

Automatic generation of k-mesh.
Space group operators:
 irot       det(A)        alpha          n_x          n_y          n_z        tau_x        tau_y        tau_z
    1     1.000000     0.000000     1.000000     0.000000     0.000000     0.000000     0.000000     0.000000
 
 Subroutine IBZKPT returns following result:
 ===========================================
 
 Found      8 irreducible k-points:
 
 Following reciprocal coordinates:
            Coordinates               Weight
  0.000000  0.000000  0.000000      1.000000
  0.500000  0.000000  0.000000      1.000000
  0.000000  0.500000  0.000000      1.000000
  0.500000  0.500000  0.000000      1.000000
  0.000000  0.000000  0.500000      1.000000
  0.500000  0.000000  0.500000      1.000000
  0.000000  0.500000  0.500000      1.000000
  0.500000  0.500000  0.500000      1.000000
 
 Following cartesian coordinates:
            Coordinates               Weight
  0.000000  0.000000  0.000000      1.000000
  0.029691  0.000000  0.030948      1.000000
  0.000000  0.042503  0.000000      1.000000
  0.029691  0.042503  0.030948      1.000000
 -0.029691  0.000000  0.030948      1.000000
  0.000000  0.000000  0.061897      1.000000
 -0.029691  0.042503  0.030948      1.000000
  0.000000  0.042503  0.061897      1.000000
 


--------------------------------------------------------------------------------------------------------




 Dimension of arrays:
   k-points           NKPTS =      8   k-points in BZ     NKDIM =      8   number of bands    NBANDS=    208
   number of dos      NEDOS =    301   number of ions     NIONS =     39
   non local maximal  LDIM  =      6   non local SUM 2l+1 LMDIM =     18
   total plane-waves  NPLWV = 343000
   max r-space proj   IRMAX =   5716   max aug-charges    IRDMAX=  91227
   dimension x,y,z NGX =    70 NGY =   70 NGZ =   70
   dimension x,y,z NGXF=   140 NGYF=  140 NGZF=  140
   support grid    NGXF=   280 NGYF=  280 NGZF=  280
   ions per type =               6   8  24   1
   NGX,Y,Z   is equivalent  to a cutoff of   9.97,  9.89,  9.97 a.u.
   NGXF,Y,Z  is equivalent  to a cutoff of  19.95, 19.78, 19.95 a.u.

 SYSTEM =  CsPbBr3 cubic bulk                      
 POSCAR =  Cs7 Pb8 Br24                            

 Startparameter for this run:
   NWRITE =      2    write-flag & timer
   PREC   = accura    normal or accurate (medium, high low for compatibility)
   ISTART =      0    job   : 0-new  1-cont  2-samecut
   ICHARG =      2    charge: 1-file 2-atom 10-const
   ISPIN  =      1    spin polarized calculation?
   LNONCOLLINEAR =      F non collinear calculations
   LSORBIT =      F    spin-orbit coupling
   INIWAV =      1    electr: 0-lowe 1-rand  2-diag
   LASPH  =      T    aspherical Exc in radial PAW
   METAGGA=      F    non-selfconsistent MetaGGA calc.

 Electronic Relaxation 1
   ENCUT  =  300.0 eV  22.05 Ry    4.70 a.u.  16.48 16.61 16.48*2*pi/ulx,y,z
   ENINI  =  300.0     initial cutoff
   ENAUG  =  503.9 eV  augmentation charge cutoff
   NELM   =    200;   NELMIN=  2; NELMDL= -5     # of ELM steps 
   EDIFF  = 0.1E-05   stopping-criterion for ELM
   LREAL  =      T    real-space projection
   NLSPLINE    = F    spline interpolate recip. space projectors
   LCOMPAT=      F    compatible to vasp.4.4
   GGA_COMPAT  = T    GGA compatible to vasp.4.4-vasp.4.6
   LMAXPAW     = -100 max onsite density
   LMAXMIX     =    2 max onsite mixed and CHGCAR
   VOSKOWN=      0    Vosko Wilk Nusair interpolation
   ROPT   =   -0.00025  -0.00025  -0.00025  -0.00025
 Ionic relaxation
   EDIFFG = -.1E-01   stopping-criterion for IOM
   NSW    =      0    number of steps for IOM
   NBLOCK =      1;   KBLOCK =      1    inner block; outer block 
   IBRION =     -1    ionic relax: 0-MD 1-quasi-New 2-CG
   NFREE  =      1    steps in history (QN), initial steepest desc. (CG)
   ISIF   =      2    stress and relaxation
   IWAVPR =     10    prediction:  0-non 1-charg 2-wave 3-comb
   ISYM   =      0    0-nonsym 1-usesym 2-fastsym
   LCORR  =      T    Harris-Foulkes like correction to forces

   POTIM  = 0.5000    time-step for ionic-motion
   TEIN   =    0.0    initial temperature
   TEBEG  =    0.0;   TEEND  =   0.0 temperature during run
   SMASS  =  -3.00    Nose mass-parameter (am)
   estimated Nose-frequenzy (Omega)   =  0.10E-29 period in steps =****** mass=  -0.311E-26a.u.
   SCALEE = 1.0000    scale energy and forces
   NPACO  =    256;   APACO  = 16.0  distance and # of slots for P.C.
   PSTRESS=    0.0 pullay stress

  Mass of Ions in am
   POMASS = 132.90207.20 79.90132.90
  Ionic Valenz
   ZVAL   =   9.00 14.00  7.00  9.00
  Atomic Wigner-Seitz radii
   RWIGS  =  -1.00 -1.00 -1.00 -1.00
  virtual crystal weights 
   VCA    =   1.00  1.00  1.00  1.00
   NELECT =     344.0000    total number of electrons
   NUPDOWN=       0.0000    fix difference up-down

 DOS related values:
   EMIN   =  10.00;   EMAX   =-10.00  energy-range for DOS
   EFERMI =   0.00
   ISMEAR =     0;   SIGMA  =   0.01  broadening in eV -4-tet -1-fermi 0-gaus

 Electronic relaxation 2 (details)
   IALGO  =     38    algorithm
   LDIAG  =      T    sub-space diagonalisation (order eigenvalues)
   LSUBROT=      F    optimize rotation matrix (better conditioning)
   TURBO    =      0    0=normal 1=particle mesh
   IRESTART =      0    0=no restart 2=restart with 2 vectors
   NREBOOT  =      0    no. of reboots
   NMIN     =      0    reboot dimension
   EREF     =   0.00    reference energy to select bands
   IMIX   =      4    mixing-type and parameters
     AMIX     =   0.40;   BMIX     =  1.00
     AMIX_MAG =   1.60;   BMIX_MAG =  1.00
     AMIN     =   0.10
     WC   =   100.;   INIMIX=   1;  MIXPRE=   1;  MAXMIX= -45

 Intra band minimization:
   WEIMIN = 0.0000     energy-eigenvalue tresh-hold
   EBREAK =  0.12E-08  absolut break condition
   DEPER  =   0.30     relativ break condition  

   TIME   =   0.40     timestep for ELM

  volume/ion in A,a.u.               =      41.03       276.90
  Fermi-wavevector in a.u.,A,eV,Ry     =   0.980685  1.853227 13.085320  0.961744
  Thomas-Fermi vector in A             =   2.111635

 Write flags
   LWAVE        =      F    write WAVECAR
   LDOWNSAMPLE  =      F    k-point downsampling of WAVECAR
   LCHARG       =      F    write CHGCAR
   LVTOT        =      F    write LOCPOT, total local potential
   LVHAR        =      T    write LOCPOT, Hartree potential only
   LELF         =      F    write electronic localiz. function (ELF)
   LORBIT       =     10    0 simple, 1 ext, 2 COOP (PROOUT), +10 PAW based schemes


 Dipole corrections
   LMONO  =      F    monopole corrections only (constant potential shift)
   LDIPOL =      F    correct potential (dipole corrections)
   IDIPOL =      0    1-x, 2-y, 3-z, 4-all directions 
   EPSILON=  1.0000000 bulk dielectric constant

 Exchange correlation treatment:
   GGA     =    --    GGA type
   LEXCH   =     8    internal setting for exchange type
   VOSKOWN=      0    Vosko Wilk Nusair interpolation
   LHFCALC =     F    Hartree Fock is set to
   LHFONE  =     F    Hartree Fock one center treatment
   AEXX    =    0.0000 exact exchange contribution

 Linear response parameters
   LEPSILON=     F    determine dielectric tensor
   LRPA    =     F    only Hartree local field effects (RPA)
   LNABLA  =     F    use nabla operator in PAW spheres
   LVEL    =     F    velocity operator in full k-point grid
   LINTERFAST=   F  fast interpolation
   KINTER  =     0    interpolate to denser k-point grid
   CSHIFT  =0.1000    complex shift for real part using Kramers Kronig
   OMEGAMAX=  -1.0    maximum frequency
   DEG_THRESHOLD= 0.2000000E-02 threshold for treating states as degnerate
   RTIME   =   -0.100 relaxation time in fs
  (WPLASMAI=    0.000 imaginary part of plasma frequency in eV, 0.658/RTIME)
   DFIELD  = 0.0000000 0.0000000 0.0000000 field for delta impulse in time

 Orbital magnetization related:
   ORBITALMAG=     F  switch on orbital magnetization
   LCHIMAG   =     F  perturbation theory with respect to B field
   DQ        =  0.001000  dq finite difference perturbation B field
   LLRAUG    =     F  two centre corrections for induced B field



--------------------------------------------------------------------------------------------------------


 Static calculation
 charge density and potential will be updated during run
 non-spin polarized calculation
 Variant of blocked Davidson
 Davidson routine will perform the subspace rotation
 perform sub-space diagonalisation
    after iterative eigenvector-optimisation
 modified Broyden-mixing scheme, WC =      100.0
 initial mixing is a Kerker type mixing with AMIX =  0.4000 and BMIX =      1.0000
 Hartree-type preconditioning will be used
 using additional bands           36
 real space projection scheme for non local part
 use partial core corrections
 calculate Harris-corrections to forces   (improved forces if not selfconsistent)
 use gradient corrections 
 use of overlap-Matrix (Vanderbilt PP)
 Gauss-broadening in eV      SIGMA  =   0.01


--------------------------------------------------------------------------------------------------------


  energy-cutoff  :      300.00
  volume of cell :     1600.27
      direct lattice vectors                 reciprocal lattice vectors
     8.420018000  0.000000000  8.077981000     0.059382296 -0.000000000  0.061896655
     0.000000000 11.763808000  0.000000000     0.000000000  0.085006488 -0.000000000
    -8.420018000  0.000000000  8.077981000    -0.059382296  0.000000000  0.061896655

  length of vectors
    11.668353789 11.763808000 11.668353789     0.085775596  0.085006488  0.085775596



 k-points in units of 2pi/SCALE and weight: 1x1x1                                   
   0.00000000  0.00000000  0.00000000       0.125
   0.02969115  0.00000000  0.03094833       0.125
   0.00000000  0.04250324  0.00000000       0.125
   0.02969115  0.04250324  0.03094833       0.125
  -0.02969115  0.00000000  0.03094833       0.125
   0.00000000  0.00000000  0.06189665       0.125
  -0.02969115  0.04250324  0.03094833       0.125
   0.00000000  0.04250324  0.06189665       0.125

 k-points in reciprocal lattice and weights: 1x1x1                                   
   0.00000000  0.00000000  0.00000000       0.125
   0.50000000  0.00000000  0.00000000       0.125
   0.00000000  0.50000000  0.00000000       0.125
   0.50000000  0.50000000  0.00000000       0.125
   0.00000000  0.00000000  0.50000000       0.125
   0.50000000  0.00000000  0.50000000       0.125
   0.00000000  0.50000000  0.50000000       0.125
   0.50000000  0.50000000  0.50000000       0.125

 position of ions in fractional coordinates (direct lattice) 
   0.26567700  0.24999600  0.20697100
   0.77288400  0.25000200  0.71336800
   0.19988400  0.75000100  0.76152200
   0.28915900  0.25000300  0.73374400
   0.77470100  0.25000300  0.22568200
   0.73579800  0.75000100  0.78845100
   0.99685000  0.99753400  0.00334700
   0.50233000  0.00028300  0.49854800
   0.50075200  0.99962000  0.99481600
   0.00169800  0.99979900  0.49827900
   0.50074900  0.50036900  0.99482200
   0.00170000  0.50019800  0.49828100
   0.99684400  0.50244800  0.00335200
   0.50233900  0.49972500  0.49854700
   0.46445800  0.74999200  0.94359500
   0.96994100  0.75000200  0.48660100
   0.95875600  0.25000400  0.97275400
   0.46191000  0.25000800  0.48213800
   0.04338500  0.74999800  0.02514400
   0.53839400  0.75001300  0.53478800
   0.53617700  0.24999300  0.00883900
   0.03296200  0.25000100  0.54610800
   0.24717500  0.46337700  0.95295800
   0.74953200  0.45186200  0.46035900
   0.45758800  0.49946100  0.24379700
   0.95053200  0.52896500  0.75033300
   0.55677300  0.02949300  0.74849100
   0.03813800  0.04917200  0.25252400
   0.74932200  0.95870700  0.04926000
   0.25402300  0.97655800  0.55834500
   0.24717500  0.03662100  0.95295600
   0.74953500  0.04814400  0.46036400
   0.45759000  0.00053500  0.24380000
   0.95053400  0.97104000  0.75033600
   0.74932400  0.54128800  0.04925500
   0.25402400  0.52345100  0.55834500
   0.55677400  0.47051000  0.74849000
   0.03814000  0.45082500  0.25252600
   0.47019600  0.74999900  0.26655400

 position of ions in cartesian coordinates  (Angst):
   0.49430558  2.94090494  3.81804156
   0.50112579  2.94097553 12.00591542
  -4.72900207  8.82286776  7.76621940
  -3.74341370  2.94098729  8.26299100
   4.62274986  2.94098729  8.08107487
  -0.44333921  8.82286776 12.31285446
   8.36531314 11.73479845  8.07957236
   0.03184451  0.00332916  8.08507347
  -4.16002777 11.75933775 12.08116989
  -4.18122096 11.76144347  4.03880471
  -4.16010355  5.88624485 12.08119412
  -4.18122096  5.88423323  4.03883702
   8.36522052  5.91070180  8.07956428
   0.03192871  5.87866895  8.08513809
  -4.03434216  8.82276189 11.37422538
   4.06973150  8.82287953 11.76591860
  -0.11786341  2.94099906 15.60270108
  -0.17032012  2.94104611  7.62600181
   0.15358955  8.82283247  0.55357596
   0.03036258  8.82300893  8.66914381
   4.44019545  2.94086965  4.40262889
  -4.32069856  2.94096376  4.67771646
  -5.94270556  5.45107806  9.69465157
   2.43484187  5.31561781  9.77347651
   1.80012407  5.87556331  5.66577470
   1.68567918  6.22264270 13.73955515
  -1.61426901  0.34694999 10.54389779
  -1.80513398  0.57844997  2.34796211
   5.89453464 11.27804508  6.45093022
  -2.56239672 11.48804081  6.56229327
  -5.94268872  0.43080241  9.69463542
   2.43482503  0.56635677  9.77354113
   1.80011565  0.00629364  5.66581509
   1.68567076 11.42312812 13.73959554
   5.89459358  6.36760810  6.45090599
  -2.56238830  6.15777706  6.56230135
  -1.61425217  5.53498930 10.54389779
  -1.80513398  5.30341874  2.34799443
   1.71466931  8.82284424  5.95145250



--------------------------------------------------------------------------------------------------------


 k-point  1 :   0.0000 0.0000 0.0000  plane waves:   18901
 k-point  2 :   0.5000 0.0000 0.0000  plane waves:   18892
 k-point  3 :   0.0000 0.5000 0.0000  plane waves:   18858
 k-point  4 :   0.5000 0.5000 0.0000  plane waves:   18900
 k-point  5 :   0.0000 0.0000 0.5000  plane waves:   18892
 k-point  6 :   0.5000 0.0000 0.5000  plane waves:   18810
 k-point  7 :   0.0000 0.5000 0.5000  plane waves:   18900
 k-point  8 :   0.5000 0.5000 0.5000  plane waves:   18888

 maximum and minimum number of plane-waves per node :      2391     2328

 maximum number of plane-waves:     18901
 maximum index in each direction: 
   IXMAX=   16   IYMAX=   16   IZMAX=   16
   IXMIN=  -16   IYMIN=  -17   IZMIN=  -16


 real space projection operators:
  total allocation   :      16498.95 KBytes
  max/ min on nodes  :       2164.13       1788.55


 parallel 3D FFT for wavefunctions:
    minimum data exchange during FFTs selected (reduces bandwidth)
 parallel 3D FFT for charge:
    minimum data exchange during FFTs selected (reduces bandwidth)


 total amount of memory used by VASP MPI-rank0    61030. kBytes
=======================================================================

   base      :      30000. kBytes
   nonlr-proj:       6442. kBytes
   fftplans  :       8423. kBytes
   grid      :       7942. kBytes
   one-center:         77. kBytes
   wavefun   :       8146. kBytes

     INWAV:  cpu time    0.0000: real time    0.0000
 Broyden mixing: mesh for mixing (old mesh)
   NGX = 33   NGY = 33   NGZ = 33
  (NGX  =140   NGY  =140   NGZ  =140)
  gives a total of  35937 points

 initial charge density was supplied:
 charge density of overlapping atoms calculated
 number of electron     343.0000000 magnetization 
 keeping initial charge density in first step


--------------------------------------------------------------------------------------------------------


 Maximum index for non-local projection operator          726
 Maximum index for augmentation-charges         3117 (set IRDMAX)


--------------------------------------------------------------------------------------------------------


 First call to EWALD:  gamma=   0.152
 Maximum number of real-space cells 3x 3x 3
 Maximum number of reciprocal cells 3x 3x 3

    FEWALD:  cpu time    0.0038: real time    0.0038


--------------------------------------- Iteration      1(   1)  ---------------------------------------


    POTLOK:  cpu time    0.2623: real time    0.2659
    SETDIJ:  cpu time    1.1948: real time    1.1949
     EDDAV:  cpu time   16.6401: real time   16.6468
       DOS:  cpu time    0.0008: real time    0.0008
    --------------------------------------------
      LOOP:  cpu time   18.0980: real time   18.1084

 eigenvalue-minimisations  :  3488
 total energy-change (2. order) : 0.1360969E+04  (-0.1106556E+05)
 number of electron     343.0000000 magnetization 
 augmentation part      343.0000000 magnetization 

 Free energy of the ion-electron system (eV)
  ---------------------------------------------------
  alpha Z        PSCENC =       835.99855037
  Ewald energy   TEWEN  =    -17361.01278701
  -Hartree energ DENC   =     -7762.17831620
  -exchange      EXHF   =         0.00000000
  -V(xc)+E(xc)   XCENC  =       905.82375825
  PAW double counting   =     21217.07306836   -22257.58625956
  entropy T*S    EENTRO =        -0.00173894
  eigenvalues    EBANDS =      -242.03122368
  atomic energy  EATOM  =     26024.88362379
  Solvation  Ediel_sol  =         0.00000000
  ---------------------------------------------------
  free energy    TOTEN  =      1360.96867536 eV

  energy without entropy =     1360.97041431  energy(sigma->0) =     1360.96954484


--------------------------------------------------------------------------------------------------------




--------------------------------------- Iteration      1(   2)  ---------------------------------------


     EDDAV:  cpu time   18.5075: real time   18.5377
       DOS:  cpu time    0.0004: real time    0.0004
    --------------------------------------------
      LOOP:  cpu time   18.5079: real time   18.5381

 eigenvalue-minimisations  :  4112
 total energy-change (2. order) :-0.2449951E+04  (-0.2364569E+04)
 number of electron     343.0000000 magnetization 
 augmentation part      343.0000000 magnetization 

 Free energy of the ion-electron system (eV)
  ---------------------------------------------------
  alpha Z        PSCENC =       835.99855037
  Ewald energy   TEWEN  =    -17361.01278701
  -Hartree energ DENC   =     -7762.17831620
  -exchange      EXHF   =         0.00000000
  -V(xc)+E(xc)   XCENC  =       905.82375825
  PAW double counting   =     21217.07306836   -22257.58625956
  entropy T*S    EENTRO =        -0.00000000
  eigenvalues    EBANDS =     -2691.98367481
  atomic energy  EATOM  =     26024.88362379
  Solvation  Ediel_sol  =         0.00000000
  ---------------------------------------------------
  free energy    TOTEN  =     -1088.98203682 eV

  energy without entropy =    -1088.98203682  energy(sigma->0) =    -1088.98203682


--------------------------------------------------------------------------------------------------------




--------------------------------------- Iteration      1(   3)  ---------------------------------------


     EDDAV:  cpu time   19.3258: real time   19.3821
       DOS:  cpu time    0.0004: real time    0.0004
    --------------------------------------------
      LOOP:  cpu time   19.3261: real time   19.3824

 eigenvalue-minimisations  :  4408
 total energy-change (2. order) :-0.3629015E+03  (-0.3609114E+03)
 number of electron     343.0000000 magnetization 
 augmentation part      343.0000000 magnetization 

 Free energy of the ion-electron system (eV)
  ---------------------------------------------------
  alpha Z        PSCENC =       835.99855037
  Ewald energy   TEWEN  =    -17361.01278701
  -Hartree energ DENC   =     -7762.17831620
  -exchange      EXHF   =         0.00000000
  -V(xc)+E(xc)   XCENC  =       905.82375825
  PAW double counting   =     21217.07306836   -22257.58625956
  entropy T*S    EENTRO =        -0.00000000
  eigenvalues    EBANDS =     -3054.88516640
  atomic energy  EATOM  =     26024.88362379
  Solvation  Ediel_sol  =         0.00000000
  ---------------------------------------------------
  free energy    TOTEN  =     -1451.88352841 eV

  energy without entropy =    -1451.88352841  energy(sigma->0) =    -1451.88352841


--------------------------------------------------------------------------------------------------------




--------------------------------------- Iteration      1(   4)  ---------------------------------------


     EDDAV:  cpu time   17.9901: real time   18.0009
       DOS:  cpu time    0.0004: real time    0.0004
    --------------------------------------------
      LOOP:  cpu time   17.9905: real time   18.0013

 eigenvalue-minimisations  :  3928
 total energy-change (2. order) :-0.1235099E+02  (-0.1231651E+02)
 number of electron     343.0000000 magnetization 
 augmentation part      343.0000000 magnetization 

 Free energy of the ion-electron system (eV)
  ---------------------------------------------------
  alpha Z        PSCENC =       835.99855037
  Ewald energy   TEWEN  =    -17361.01278701
  -Hartree energ DENC   =     -7762.17831620
  -exchange      EXHF   =         0.00000000
  -V(xc)+E(xc)   XCENC  =       905.82375825
  PAW double counting   =     21217.07306836   -22257.58625956
  entropy T*S    EENTRO =        -0.00000000
  eigenvalues    EBANDS =     -3067.23615779
  atomic energy  EATOM  =     26024.88362379
  Solvation  Ediel_sol  =         0.00000000
  ---------------------------------------------------
  free energy    TOTEN  =     -1464.23451980 eV

  energy without entropy =    -1464.23451980  energy(sigma->0) =    -1464.23451980


--------------------------------------------------------------------------------------------------------




--------------------------------------- Iteration      1(   5)  ---------------------------------------


     EDDAV:  cpu time   19.2806: real time   19.2936
       DOS:  cpu time    0.0004: real time    0.0004
    CHARGE:  cpu time    2.7000: real time    2.7000
    MIXING:  cpu time    0.0014: real time    0.0014
    --------------------------------------------
      LOOP:  cpu time   21.9824: real time   21.9955

 eigenvalue-minimisations  :  4376
 total energy-change (2. order) :-0.5773139E+00  (-0.5770500E+00)
 number of electron     344.0000001 magnetization 
 augmentation part       -4.6233025 magnetization 

 Broyden mixing:
  rms(total) = 0.10568E+01    rms(broyden)= 0.10562E+01
  rms(prec ) = 0.14433E+01
  weight for this iteration     100.00

 Free energy of the ion-electron system (eV)
  ---------------------------------------------------
  alpha Z        PSCENC =       835.99855037
  Ewald energy   TEWEN  =    -17361.01278701
  -Hartree energ DENC   =     -7762.17831620
  -exchange      EXHF   =         0.00000000
  -V(xc)+E(xc)   XCENC  =       905.82375825
  PAW double counting   =     21217.07306836   -22257.58625956
  entropy T*S    EENTRO =        -0.00000000
  eigenvalues    EBANDS =     -3067.81347171
  atomic energy  EATOM  =     26024.88362379
  Solvation  Ediel_sol  =         0.00000000
  ---------------------------------------------------
  free energy    TOTEN  =     -1464.81183372 eV

  energy without entropy =    -1464.81183372  energy(sigma->0) =    -1464.81183372


--------------------------------------------------------------------------------------------------------




--------------------------------------- Iteration      1(   6)  ---------------------------------------


    POTLOK:  cpu time    0.2980: real time    0.3210
    SETDIJ:  cpu time    1.1969: real time    1.1969
     EDDAV:  cpu time   19.0434: real time   19.0444
       DOS:  cpu time    0.0004: real time    0.0004
    CHARGE:  cpu time    2.6872: real time    2.6873
    MIXING:  cpu time    0.0016: real time    0.0016
    --------------------------------------------
      LOOP:  cpu time   23.2274: real time   23.2515

 eigenvalue-minimisations  :  4312
 total energy-change (2. order) : 0.7898609E+02  (-0.2334368E+01)
 number of electron     344.0000001 magnetization 
 augmentation part       -3.2031565 magnetization 

 Broyden mixing:
  rms(total) = 0.73226E+00    rms(broyden)= 0.73217E+00
  rms(prec ) = 0.90610E+00
  weight for this iteration     100.00

 eigenvalues of (default mixing * dielectric matrix)
  average eigenvalue GAMMA=   1.2446
  1.2446

 Free energy of the ion-electron system (eV)
  ---------------------------------------------------
  alpha Z        PSCENC =       835.99855037
  Ewald energy   TEWEN  =    -17361.01278701
  -Hartree energ DENC   =     -7746.89397099
  -exchange      EXHF   =         0.00000000
  -V(xc)+E(xc)   XCENC  =       939.74618291
  PAW double counting   =     21569.89555460   -22609.09862738
  entropy T*S    EENTRO =        -0.00000000
  eigenvalues    EBANDS =     -3039.34427481
  atomic energy  EATOM  =     26024.88362379
  Solvation  Ediel_sol  =         0.00000000
  ---------------------------------------------------
  free energy    TOTEN  =     -1385.82574853 eV

  energy without entropy =    -1385.82574853  energy(sigma->0) =    -1385.82574853


--------------------------------------------------------------------------------------------------------




--------------------------------------- Iteration      1(   7)  ---------------------------------------


    POTLOK:  cpu time    0.2682: real time    0.2850
    SETDIJ:  cpu time    1.1956: real time    1.1957
     EDDAV:  cpu time   18.4985: real time   18.4994
       DOS:  cpu time    0.0004: real time    0.0004
    CHARGE:  cpu time    2.6832: real time    2.6832
    MIXING:  cpu time    0.0016: real time    0.0016
    --------------------------------------------
      LOOP:  cpu time   22.6475: real time   22.6653

 eigenvalue-minimisations  :  4128
 total energy-change (2. order) : 0.4119513E+00  (-0.9326872E+00)
 number of electron     344.0000001 magnetization 
 augmentation part       -2.5815926 magnetization 

 Broyden mixing:
  rms(total) = 0.37867E+00    rms(broyden)= 0.37866E+00
  rms(prec ) = 0.41440E+00
  weight for this iteration     100.00

 eigenvalues of (default mixing * dielectric matrix)
  average eigenvalue GAMMA=   1.3024
  1.3024  1.3024

 Free energy of the ion-electron system (eV)
  ---------------------------------------------------
  alpha Z        PSCENC =       835.99855037
  Ewald energy   TEWEN  =    -17361.01278701
  -Hartree energ DENC   =     -7789.65251824
  -exchange      EXHF   =         0.00000000
  -V(xc)+E(xc)   XCENC  =       945.25368621
  PAW double counting   =     22278.50023701   -23316.10628579
  entropy T*S    EENTRO =        -0.00000000
  eigenvalues    EBANDS =     -3003.27830352
  atomic energy  EATOM  =     26024.88362379
  Solvation  Ediel_sol  =         0.00000000
  ---------------------------------------------------
  free energy    TOTEN  =     -1385.41379718 eV

  energy without entropy =    -1385.41379718  energy(sigma->0) =    -1385.41379718


--------------------------------------------------------------------------------------------------------




--------------------------------------- Iteration      1(   8)  ---------------------------------------


    POTLOK:  cpu time    0.2946: real time    0.3098
    SETDIJ:  cpu time    1.1971: real time    1.1971
     EDDAV:  cpu time   17.9067: real time   17.9075
       DOS:  cpu time    0.0004: real time    0.0004
    CHARGE:  cpu time    2.6861: real time    2.6862
    MIXING:  cpu time    0.0015: real time    0.0015
    --------------------------------------------
      LOOP:  cpu time   22.0865: real time   22.1026

 eigenvalue-minimisations  :  3920
 total energy-change (2. order) :-0.1816828E+00  (-0.4071316E-01)
 number of electron     344.0000001 magnetization 
 augmentation part       -2.6800471 magnetization 

 Broyden mixing:
  rms(total) = 0.22236E+00    rms(broyden)= 0.22236E+00
  rms(prec ) = 0.24673E+00
  weight for this iteration     100.00

 eigenvalues of (default mixing * dielectric matrix)
  average eigenvalue GAMMA=   1.6945
  1.1263  1.3057  2.6515

 Free energy of the ion-electron system (eV)
  ---------------------------------------------------
  alpha Z        PSCENC =       835.99855037
  Ewald energy   TEWEN  =    -17361.01278701
  -Hartree energ DENC   =     -7793.95157293
  -exchange      EXHF   =         0.00000000
  -V(xc)+E(xc)   XCENC  =       945.85357854
  PAW double counting   =     22523.84651930   -23561.93155548
  entropy T*S    EENTRO =        -0.00000000
  eigenvalues    EBANDS =     -2999.28183657
  atomic energy  EATOM  =     26024.88362379
  Solvation  Ediel_sol  =         0.00000000
  ---------------------------------------------------
  free energy    TOTEN  =     -1385.59548001 eV

  energy without entropy =    -1385.59548001  energy(sigma->0) =    -1385.59548001


--------------------------------------------------------------------------------------------------------




--------------------------------------- Iteration      1(   9)  ---------------------------------------


    POTLOK:  cpu time    0.2995: real time    0.3136
    SETDIJ:  cpu time    1.1957: real time    1.1957
     EDDAV:  cpu time   17.0156: real time   17.0162
       DOS:  cpu time    0.0004: real time    0.0004
    CHARGE:  cpu time    2.6814: real time    2.6815
    MIXING:  cpu time    0.0017: real time    0.0017
    --------------------------------------------
      LOOP:  cpu time   21.1943: real time   21.2091

 eigenvalue-minimisations  :  3616
 total energy-change (2. order) :-0.8586334E-01  (-0.1624921E-01)
 number of electron     344.0000001 magnetization 
 augmentation part       -2.7252304 magnetization 

 Broyden mixing:
  rms(total) = 0.44803E-01    rms(broyden)= 0.44800E-01
  rms(prec ) = 0.51204E-01
  weight for this iteration     100.00

 eigenvalues of (default mixing * dielectric matrix)
  average eigenvalue GAMMA=   1.4652
  2.5329  1.2462  1.2462  0.8356

 Free energy of the ion-electron system (eV)
  ---------------------------------------------------
  alpha Z        PSCENC =       835.99855037
  Ewald energy   TEWEN  =    -17361.01278701
  -Hartree energ DENC   =     -7800.47454823
  -exchange      EXHF   =         0.00000000
  -V(xc)+E(xc)   XCENC  =       947.88640027
  PAW double counting   =     22884.45977731   -23923.50311414
  entropy T*S    EENTRO =        -0.00000000
  eigenvalues    EBANDS =     -2993.91924570
  atomic energy  EATOM  =     26024.88362379
  Solvation  Ediel_sol  =         0.00000000
  ---------------------------------------------------
  free energy    TOTEN  =     -1385.68134334 eV

  energy without entropy =    -1385.68134334  energy(sigma->0) =    -1385.68134334


--------------------------------------------------------------------------------------------------------




--------------------------------------- Iteration      1(  10)  ---------------------------------------


    POTLOK:  cpu time    0.2552: real time    0.3016
    SETDIJ:  cpu time    1.1956: real time    1.1956
     EDDAV:  cpu time   20.3530: real time   20.3539
       DOS:  cpu time    0.0004: real time    0.0004
    CHARGE:  cpu time    2.6814: real time    2.6815
    MIXING:  cpu time    0.0016: real time    0.0016
    --------------------------------------------
      LOOP:  cpu time   24.4872: real time   24.5346

 eigenvalue-minimisations  :  4760
 total energy-change (2. order) :-0.2355123E-02  (-0.1443174E-02)
 number of electron     344.0000001 magnetization 
 augmentation part       -2.7104665 magnetization 

 Broyden mixing:
  rms(total) = 0.28288E-01    rms(broyden)= 0.28287E-01
  rms(prec ) = 0.34235E-01
  weight for this iteration     100.00

 eigenvalues of (default mixing * dielectric matrix)
  average eigenvalue GAMMA=   1.3874
  2.2537  1.5112  1.3688  0.9016  0.9016

 Free energy of the ion-electron system (eV)
  ---------------------------------------------------
  alpha Z        PSCENC =       835.99855037
  Ewald energy   TEWEN  =    -17361.01278701
  -Hartree energ DENC   =     -7798.77614947
  -exchange      EXHF   =         0.00000000
  -V(xc)+E(xc)   XCENC  =       947.72238414
  PAW double counting   =     22850.61381914   -23889.71440621
  entropy T*S    EENTRO =        -0.00000000
  eigenvalues    EBANDS =     -2995.39873320
  atomic energy  EATOM  =     26024.88362379
  Solvation  Ediel_sol  =         0.00000000
  ---------------------------------------------------
  free energy    TOTEN  =     -1385.68369847 eV

  energy without entropy =    -1385.68369847  energy(sigma->0) =    -1385.68369847


--------------------------------------------------------------------------------------------------------




--------------------------------------- Iteration      1(  11)  ---------------------------------------


    POTLOK:  cpu time    0.2965: real time    0.2993
    SETDIJ:  cpu time    1.1993: real time    1.1993
     EDDAV:  cpu time   17.4058: real time   17.4065
       DOS:  cpu time    0.0006: real time    0.0006
    CHARGE:  cpu time    2.6878: real time    2.6879
    MIXING:  cpu time    0.0019: real time    0.0019
    --------------------------------------------
      LOOP:  cpu time   21.5920: real time   21.5956

 eigenvalue-minimisations  :  3744
 total energy-change (2. order) :-0.3291661E-02  (-0.2706861E-03)
 number of electron     344.0000001 magnetization 
 augmentation part       -2.7087408 magnetization 

 Broyden mixing:
  rms(total) = 0.11166E-01    rms(broyden)= 0.11165E-01
  rms(prec ) = 0.16532E-01
  weight for this iteration     100.00

 eigenvalues of (default mixing * dielectric matrix)
  average eigenvalue GAMMA=   1.5942
  2.7142  2.7142  1.2030  1.2030  0.8654  0.8654

 Free energy of the ion-electron system (eV)
  ---------------------------------------------------
  alpha Z        PSCENC =       835.99855037
  Ewald energy   TEWEN  =    -17361.01278701
  -Hartree energ DENC   =     -7797.08712360
  -exchange      EXHF   =         0.00000000
  -V(xc)+E(xc)   XCENC  =       947.66550037
  PAW double counting   =     22827.02868172   -23866.34353115
  entropy T*S    EENTRO =        -0.00000000
  eigenvalues    EBANDS =     -2996.81990461
  atomic energy  EATOM  =     26024.88362379
  Solvation  Ediel_sol  =         0.00000000
  ---------------------------------------------------
  free energy    TOTEN  =     -1385.68699013 eV

  energy without entropy =    -1385.68699013  energy(sigma->0) =    -1385.68699013


--------------------------------------------------------------------------------------------------------




--------------------------------------- Iteration      1(  12)  ---------------------------------------


    POTLOK:  cpu time    0.3106: real time    0.3186
    SETDIJ:  cpu time    1.1995: real time    1.1996
     EDDAV:  cpu time   17.0192: real time   17.0200
       DOS:  cpu time    0.0004: real time    0.0004
    CHARGE:  cpu time    2.6894: real time    2.6895
    MIXING:  cpu time    0.0016: real time    0.0016
    --------------------------------------------
      LOOP:  cpu time   21.2208: real time   21.2297

 eigenvalue-minimisations  :  3608
 total energy-change (2. order) :-0.2530235E-02  (-0.2549114E-03)
 number of electron     344.0000001 magnetization 
 augmentation part       -2.7120835 magnetization 

 Broyden mixing:
  rms(total) = 0.70302E-02    rms(broyden)= 0.70294E-02
  rms(prec ) = 0.93510E-02
  weight for this iteration     100.00

 eigenvalues of (default mixing * dielectric matrix)
  average eigenvalue GAMMA=   1.6075
  2.7851  2.7851  1.3720  1.3720  0.9317  1.0035  1.0035

 Free energy of the ion-electron system (eV)
  ---------------------------------------------------
  alpha Z        PSCENC =       835.99855037
  Ewald energy   TEWEN  =    -17361.01278701
  -Hartree energ DENC   =     -7796.55761684
  -exchange      EXHF   =         0.00000000
  -V(xc)+E(xc)   XCENC  =       947.74374934
  PAW double counting   =     22823.30416200   -23862.84404039
  entropy T*S    EENTRO =        -0.00000000
  eigenvalues    EBANDS =     -2997.20516161
  atomic energy  EATOM  =     26024.88362379
  Solvation  Ediel_sol  =         0.00000000
  ---------------------------------------------------
  free energy    TOTEN  =     -1385.68952036 eV

  energy without entropy =    -1385.68952036  energy(sigma->0) =    -1385.68952036


--------------------------------------------------------------------------------------------------------




--------------------------------------- Iteration      1(  13)  ---------------------------------------


    POTLOK:  cpu time    0.2662: real time    0.3157
    SETDIJ:  cpu time    1.1992: real time    1.1993
     EDDAV:  cpu time   19.5768: real time   19.5776
       DOS:  cpu time    0.0004: real time    0.0004
    CHARGE:  cpu time    2.6947: real time    2.6950
    MIXING:  cpu time    0.0022: real time    0.0022
    --------------------------------------------
      LOOP:  cpu time   23.7395: real time   23.7902

 eigenvalue-minimisations  :  4488
 total energy-change (2. order) : 0.1871194E-03  (-0.9522670E-04)
 number of electron     344.0000001 magnetization 
 augmentation part       -2.7131436 magnetization 

 Broyden mixing:
  rms(total) = 0.28835E-02    rms(broyden)= 0.28827E-02
  rms(prec ) = 0.35984E-02
  weight for this iteration     100.00

 eigenvalues of (default mixing * dielectric matrix)
  average eigenvalue GAMMA=   1.5701
  3.1019  2.2251  1.5904  1.3591  1.1972  1.1972  0.8829  1.0070

 Free energy of the ion-electron system (eV)
  ---------------------------------------------------
  alpha Z        PSCENC =       835.99855037
  Ewald energy   TEWEN  =    -17361.01278701
  -Hartree energ DENC   =     -7797.54344683
  -exchange      EXHF   =         0.00000000
  -V(xc)+E(xc)   XCENC  =       947.80218911
  PAW double counting   =     22823.85905525   -23863.36732020
  entropy T*S    EENTRO =        -0.00000000
  eigenvalues    EBANDS =     -2996.30919772
  atomic energy  EATOM  =     26024.88362379
  Solvation  Ediel_sol  =         0.00000000
  ---------------------------------------------------
  free energy    TOTEN  =     -1385.68933324 eV

  energy without entropy =    -1385.68933324  energy(sigma->0) =    -1385.68933324


--------------------------------------------------------------------------------------------------------




--------------------------------------- Iteration      1(  14)  ---------------------------------------


    POTLOK:  cpu time    0.2709: real time    0.3172
    SETDIJ:  cpu time    1.2005: real time    1.2005
     EDDAV:  cpu time   17.2543: real time   17.2551
       DOS:  cpu time    0.0004: real time    0.0004
    CHARGE:  cpu time    2.6896: real time    2.6896
    MIXING:  cpu time    0.0017: real time    0.0017
    --------------------------------------------
      LOOP:  cpu time   21.4174: real time   21.4646

 eigenvalue-minimisations  :  3688
 total energy-change (2. order) : 0.1952741E-04  (-0.1718585E-04)
 number of electron     344.0000001 magnetization 
 augmentation part       -2.7125607 magnetization 

 Broyden mixing:
  rms(total) = 0.18649E-02    rms(broyden)= 0.18639E-02
  rms(prec ) = 0.25524E-02
  weight for this iteration     100.00

 eigenvalues of (default mixing * dielectric matrix)
  average eigenvalue GAMMA=   1.5908
  3.1331  2.3340  2.3340  1.1603  1.1603  0.9027  0.9027  1.1950  1.1950

 Free energy of the ion-electron system (eV)
  ---------------------------------------------------
  alpha Z        PSCENC =       835.99855037
  Ewald energy   TEWEN  =    -17361.01278701
  -Hartree energ DENC   =     -7797.67435486
  -exchange      EXHF   =         0.00000000
  -V(xc)+E(xc)   XCENC  =       947.80905355
  PAW double counting   =     22825.97831804   -23865.47423029
  entropy T*S    EENTRO =        -0.00000000
  eigenvalues    EBANDS =     -2996.19748730
  atomic energy  EATOM  =     26024.88362379
  Solvation  Ediel_sol  =         0.00000000
  ---------------------------------------------------
  free energy    TOTEN  =     -1385.68931371 eV

  energy without entropy =    -1385.68931371  energy(sigma->0) =    -1385.68931371


--------------------------------------------------------------------------------------------------------




--------------------------------------- Iteration      1(  15)  ---------------------------------------


    POTLOK:  cpu time    0.2540: real time    0.3219
    SETDIJ:  cpu time    1.2000: real time    1.2000
     EDDAV:  cpu time   16.7819: real time   16.7825
       DOS:  cpu time    0.0005: real time    0.0005
    CHARGE:  cpu time    2.6937: real time    2.6939
    MIXING:  cpu time    0.0018: real time    0.0018
    --------------------------------------------
      LOOP:  cpu time   20.9318: real time   21.0006

 eigenvalue-minimisations  :  3528
 total energy-change (2. order) :-0.1836996E-04  (-0.2413945E-05)
 number of electron     344.0000001 magnetization 
 augmentation part       -2.7124570 magnetization 

 Broyden mixing:
  rms(total) = 0.10630E-02    rms(broyden)= 0.10615E-02
  rms(prec ) = 0.15209E-02
  weight for this iteration     100.00

 eigenvalues of (default mixing * dielectric matrix)
  average eigenvalue GAMMA=   1.6504
  3.6100  2.4515  2.4515  1.3921  1.3921  1.2194  1.2194  0.8689  0.9495  0.9495

 Free energy of the ion-electron system (eV)
  ---------------------------------------------------
  alpha Z        PSCENC =       835.99855037
  Ewald energy   TEWEN  =    -17361.01278701
  -Hartree energ DENC   =     -7797.81036173
  -exchange      EXHF   =         0.00000000
  -V(xc)+E(xc)   XCENC  =       947.81269007
  PAW double counting   =     22825.47453817   -23864.96412028
  entropy T*S    EENTRO =        -0.00000000
  eigenvalues    EBANDS =     -2996.07146546
  atomic energy  EATOM  =     26024.88362379
  Solvation  Ediel_sol  =         0.00000000
  ---------------------------------------------------
  free energy    TOTEN  =     -1385.68933208 eV

  energy without entropy =    -1385.68933208  energy(sigma->0) =    -1385.68933208


--------------------------------------------------------------------------------------------------------




--------------------------------------- Iteration      1(  16)  ---------------------------------------


    POTLOK:  cpu time    0.2665: real time    0.3174
    SETDIJ:  cpu time    1.2003: real time    1.2003
     EDDAV:  cpu time   17.0181: real time   17.0188
       DOS:  cpu time    0.0006: real time    0.0006
    CHARGE:  cpu time    2.6861: real time    2.6863
    MIXING:  cpu time    0.0018: real time    0.0018
    --------------------------------------------
      LOOP:  cpu time   21.1734: real time   21.2252

 eigenvalue-minimisations  :  3608
 total energy-change (2. order) :-0.6557245E-04  (-0.2627728E-05)
 number of electron     344.0000001 magnetization 
 augmentation part       -2.7120234 magnetization 

 Broyden mixing:
  rms(total) = 0.52604E-03    rms(broyden)= 0.52294E-03
  rms(prec ) = 0.60862E-03
  weight for this iteration     100.00

 eigenvalues of (default mixing * dielectric matrix)
  average eigenvalue GAMMA=   1.7404
  4.2942  2.8415  2.5750  1.8025  1.2331  1.2331  1.1347  1.1347  0.8802  1.0075
  1.0075

 Free energy of the ion-electron system (eV)
  ---------------------------------------------------
  alpha Z        PSCENC =       835.99855037
  Ewald energy   TEWEN  =    -17361.01278701
  -Hartree energ DENC   =     -7797.78863857
  -exchange      EXHF   =         0.00000000
  -V(xc)+E(xc)   XCENC  =       947.80603177
  PAW double counting   =     22824.66899827   -23864.15699153
  entropy T*S    EENTRO =        -0.00000000
  eigenvalues    EBANDS =     -2996.08818474
  atomic energy  EATOM  =     26024.88362379
  Solvation  Ediel_sol  =         0.00000000
  ---------------------------------------------------
  free energy    TOTEN  =     -1385.68939766 eV

  energy without entropy =    -1385.68939766  energy(sigma->0) =    -1385.68939766


--------------------------------------------------------------------------------------------------------




--------------------------------------- Iteration      1(  17)  ---------------------------------------


    POTLOK:  cpu time    0.2824: real time    0.3194
    SETDIJ:  cpu time    1.2011: real time    1.2011
     EDDAV:  cpu time   16.7253: real time   16.7259
       DOS:  cpu time    0.0004: real time    0.0004
    CHARGE:  cpu time    2.6923: real time    2.6924
    MIXING:  cpu time    0.0020: real time    0.0020
    --------------------------------------------
      LOOP:  cpu time   20.9035: real time   20.9412

 eigenvalue-minimisations  :  3488
 total energy-change (2. order) : 0.7941976E-05  (-0.4849485E-06)
 number of electron     344.0000001 magnetization 
 augmentation part       -2.7119720 magnetization 

 Broyden mixing:
  rms(total) = 0.30012E-03    rms(broyden)= 0.29470E-03
  rms(prec ) = 0.32496E-03
  weight for this iteration     100.00

 eigenvalues of (default mixing * dielectric matrix)
  average eigenvalue GAMMA=   1.6697
  4.2379  2.9451  2.4372  1.7694  1.2946  1.2946  1.1122  1.1122  1.1261  1.0270
  0.8403  0.8403

 Free energy of the ion-electron system (eV)
  ---------------------------------------------------
  alpha Z        PSCENC =       835.99855037
  Ewald energy   TEWEN  =    -17361.01278701
  -Hartree energ DENC   =     -7797.79343175
  -exchange      EXHF   =         0.00000000
  -V(xc)+E(xc)   XCENC  =       947.80401763
  PAW double counting   =     22825.14240527   -23864.62611832
  entropy T*S    EENTRO =        -0.00000000
  eigenvalues    EBANDS =     -2996.08564969
  atomic energy  EATOM  =     26024.88362379
  Solvation  Ediel_sol  =         0.00000000
  ---------------------------------------------------
  free energy    TOTEN  =     -1385.68938971 eV

  energy without entropy =    -1385.68938971  energy(sigma->0) =    -1385.68938971


--------------------------------------------------------------------------------------------------------




--------------------------------------- Iteration      1(  18)  ---------------------------------------


    POTLOK:  cpu time    0.2780: real time    0.3147
    SETDIJ:  cpu time    1.2020: real time    1.2020
     EDDAV:  cpu time   12.8851: real time   12.8856
       DOS:  cpu time    0.0004: real time    0.0004
    --------------------------------------------
      LOOP:  cpu time   14.3654: real time   14.4026

 eigenvalue-minimisations  :  2144
 total energy-change (2. order) :-0.5735551E-06  (-0.6862996E-07)
 number of electron     344.0000001 magnetization 
 augmentation part       -2.7119720 magnetization 

 Free energy of the ion-electron system (eV)
  ---------------------------------------------------
  alpha Z        PSCENC =       835.99855037
  Ewald energy   TEWEN  =    -17361.01278701
  -Hartree energ DENC   =     -7797.79627762
  -exchange      EXHF   =         0.00000000
  -V(xc)+E(xc)   XCENC  =       947.80396258
  PAW double counting   =     22825.10123102   -23864.58474620
  entropy T*S    EENTRO =        -0.00000000
  eigenvalues    EBANDS =     -2996.08294721
  atomic energy  EATOM  =     26024.88362379
  Solvation  Ediel_sol  =         0.00000000
  ---------------------------------------------------
  free energy    TOTEN  =     -1385.68939029 eV

  energy without entropy =    -1385.68939029  energy(sigma->0) =    -1385.68939029


--------------------------------------------------------------------------------------------------------




 average (electrostatic) potential at core
  the test charge radii are     1.1312  1.1541  1.0178  1.1312
  (the norm of the test charge is              1.0000)
       1 -55.4910       2 -55.3316       3 -55.4091       4 -55.4153       5 -55.4359
       6 -55.4668       7-101.7822       8-102.0195       9-102.0050      10-101.7318
      11-102.0050      12-101.7318      13-101.7821      14-102.0196      15 -69.4009
      16 -68.7732      17 -69.0613      18 -69.2912      19 -68.9637      20 -69.4019
      21 -69.3599      22 -68.9880      23 -69.1685      24 -69.0682      25 -69.4603
      26 -69.0670      27 -69.3062      28 -69.0222      29 -69.0864      30 -69.0812
      31 -69.1686      32 -69.0681      33 -69.4603      34 -69.0671      35 -69.0864
      36 -69.0811      37 -69.3061      38 -69.0223      39 -55.3757



 E-fermi :   0.3211     XC(G=0):  -7.9050     alpha+bet : -6.8224


 k-point     1 :       0.0000    0.0000    0.0000
  band No.  band energies     occupation 
      1     -21.1348      2.00000
      2     -21.0266      2.00000
      3     -20.9982      2.00000
      4     -20.9647      2.00000
      5     -20.9532      2.00000
      6     -20.9424      2.00000
      7     -20.8709      2.00000
      8     -16.8583      2.00000
      9     -16.8331      2.00000
     10     -16.8216      2.00000
     11     -16.7925      2.00000
     12     -16.7650      2.00000
     13     -16.7614      2.00000
     14     -16.7614      2.00000
     15     -16.7549      2.00000
     16     -16.7001      2.00000
     17     -16.6988      2.00000
     18     -16.6875      2.00000
     19     -16.6858      2.00000
     20     -16.6834      2.00000
     21     -16.6828      2.00000
     22     -16.6641      2.00000
     23     -16.6635      2.00000
     24     -16.6629      2.00000
     25     -16.6625      2.00000
     26     -16.6572      2.00000
     27     -16.6566      2.00000
     28     -16.5804      2.00000
     29     -16.5619      2.00000
     30     -16.5608      2.00000
     31     -16.5265      2.00000
     32     -16.5184      2.00000
     33     -16.4921      2.00000
     34     -16.4910      2.00000
     35     -16.4618      2.00000
     36     -16.4479      2.00000
     37     -16.4469      2.00000
     38     -16.4455      2.00000
     39     -16.4452      2.00000
     40     -16.4350      2.00000
     41     -16.4340      2.00000
     42     -16.3999      2.00000
     43     -16.3998      2.00000
     44     -16.3878      2.00000
     45     -16.3860      2.00000
     46     -16.3831      2.00000
     47     -16.3820      2.00000
     48     -14.7237      2.00000
     49     -14.6914      2.00000
     50     -14.5332      2.00000
     51     -14.4648      2.00000
     52     -14.4163      2.00000
     53     -14.3776      2.00000
     54     -14.3691      2.00000
     55     -14.3034      2.00000
     56     -14.1808      2.00000
     57     -14.1597      2.00000
     58     -14.1249      2.00000
     59     -14.1205      2.00000
     60     -14.1085      2.00000
     61     -14.1018      2.00000
     62     -14.0974      2.00000
     63     -14.0874      2.00000
     64     -14.0739      2.00000
     65     -14.0490      2.00000
     66     -14.0391      2.00000
     67     -13.9294      2.00000
     68     -13.8757      2.00000
     69     -13.8686      2.00000
     70     -13.8112      2.00000
     71     -13.6663      2.00000
     72      -8.4718      2.00000
     73      -8.0171      2.00000
     74      -7.9491      2.00000
     75      -7.9086      2.00000
     76      -7.7937      2.00000
     77      -7.6359      2.00000
     78      -7.5915      2.00000
     79      -7.4548      2.00000
     80      -7.4399      2.00000
     81      -7.4143      2.00000
     82      -7.4142      2.00000
     83      -7.4057      2.00000
     84      -7.3901      2.00000
     85      -7.3856      2.00000
     86      -7.3777      2.00000
     87      -7.3712      2.00000
     88      -7.3662      2.00000
     89      -7.3624      2.00000
     90      -7.3542      2.00000
     91      -7.3486      2.00000
     92      -7.3451      2.00000
     93      -7.3434      2.00000
     94      -7.3228      2.00000
     95      -7.3143      2.00000
     96      -7.2862      2.00000
     97      -7.2654      2.00000
     98      -7.2638      2.00000
     99      -7.2630      2.00000
    100      -6.7330      2.00000
    101      -3.6990      2.00000
    102      -3.6607      2.00000
    103      -3.5831      2.00000
    104      -3.5234      2.00000
    105      -3.4233      2.00000
    106      -3.3293      2.00000
    107      -3.3234      2.00000
    108      -3.2779      2.00000
    109      -3.2673      2.00000
    110      -3.2489      2.00000
    111      -3.1449      2.00000
    112      -3.0479      2.00000
    113      -2.5496      2.00000
    114      -2.3734      2.00000
    115      -2.3238      2.00000
    116      -2.2723      2.00000
    117      -2.2084      2.00000
    118      -2.1763      2.00000
    119      -2.1428      2.00000
    120      -2.0755      2.00000
    121      -2.0005      2.00000
    122      -1.9962      2.00000
    123      -1.9600      2.00000
    124      -1.9153      2.00000
    125      -1.8694      2.00000
    126      -1.8674      2.00000
    127      -1.8551      2.00000
    128      -1.7917      2.00000
    129      -1.7581      2.00000
    130      -1.7206      2.00000
    131      -1.6920      2.00000
    132      -1.6774      2.00000
    133      -1.6485      2.00000
    134      -1.6463      2.00000
    135      -1.6180      2.00000
    136      -1.6041      2.00000
    137      -1.5890      2.00000
    138      -1.5645      2.00000
    139      -1.5537      2.00000
    140      -1.5421      2.00000
    141      -1.5220      2.00000
    142      -1.5146      2.00000
    143      -1.5050      2.00000
    144      -1.4819      2.00000
    145      -1.4767      2.00000
    146      -1.4423      2.00000
    147      -1.4316      2.00000
    148      -1.4072      2.00000
    149      -1.4038      2.00000
    150      -1.3639      2.00000
    151      -1.3523      2.00000
    152      -1.3186      2.00000
    153      -1.3138      2.00000
    154      -1.3002      2.00000
    155      -1.2904      2.00000
    156      -1.2817      2.00000
    157      -1.2429      2.00000
[...]


--------------------------------------------------------------------------------------------------------


 soft charge-density along one line, spin component           1
         0         1         2         3         4         5         6         7         8         9
 total charge-density along one line

 pseudopotential strength for first ion, spin component:           1
 18.069  -4.730  -0.000   0.001   0.001   0.000  -0.002  -0.002
 -4.730   1.247   0.000  -0.000  -0.000  -0.000   0.000   0.000
 -0.000   0.000   2.306  -0.000  -0.000  -2.767   0.000   0.000
  0.001  -0.000  -0.000   2.308  -0.001   0.000  -2.769   0.002
  0.001  -0.000  -0.000  -0.001   2.308   0.000   0.002  -2.769
  0.000  -0.000  -2.767   0.000   0.000   3.290  -0.000  -0.000
 -0.002   0.000   0.000  -2.769   0.002  -0.000   3.294  -0.002
 -0.002   0.000   0.000   0.002  -2.769  -0.000  -0.002   3.293
 -0.000   0.000   0.001   0.000   0.000  -0.001  -0.000  -0.000
 -0.000   0.000   0.001   0.000   0.000  -0.001  -0.000  -0.000
  0.001  -0.000   0.000  -0.000  -0.000  -0.000   0.001   0.000
 -0.002   0.000   0.000   0.001   0.002  -0.000  -0.001  -0.003
  0.001  -0.000   0.000   0.001   0.001  -0.000  -0.001  -0.001
 total augmentation occupancy for first ion, spin component:           1
  1.912  -0.140  -0.000   0.000   0.000   0.000   0.001   0.001   0.000  -0.000   0.001  -0.002   0.001
 -0.140   0.128   0.000   0.003   0.004  -0.000  -0.002  -0.002   0.000   0.000  -0.003   0.008  -0.004
 -0.000   0.000   2.014  -0.000   0.000   0.002  -0.000   0.000   0.002   0.002  -0.000   0.000   0.000
  0.000   0.003  -0.000   2.019  -0.004  -0.000   0.005  -0.003   0.000   0.000  -0.002   0.001   0.001
  0.000   0.004   0.000  -0.004   2.018   0.000  -0.003   0.004   0.000   0.000  -0.001   0.004   0.001
  0.000  -0.000   0.002  -0.000   0.000   0.011   0.000   0.000  -0.001  -0.001   0.000  -0.000   0.000
  0.001  -0.002  -0.000   0.005  -0.003   0.000   0.008   0.002  -0.000  -0.000   0.002  -0.000  -0.001
  0.001  -0.002   0.000  -0.003   0.004   0.000   0.002   0.008  -0.000  -0.000   0.000  -0.002  -0.000
  0.000   0.000   0.002   0.000   0.000  -0.001  -0.000  -0.000   0.008   0.003  -0.000   0.000   0.000
 -0.000   0.000   0.002   0.000   0.000  -0.001  -0.000  -0.000   0.003   0.007   0.000  -0.000   0.000
  0.001  -0.003  -0.000  -0.002  -0.001   0.000   0.002   0.000  -0.000   0.000   0.004  -0.002   0.000
 -0.002   0.008   0.000   0.001   0.004  -0.000  -0.000  -0.002   0.000  -0.000  -0.002   0.005  -0.000
  0.001  -0.004   0.000   0.001   0.001   0.000  -0.001  -0.000   0.000   0.000   0.000  -0.000   0.004


------------------------ aborting loop because EDIFF is reached ----------------------------------------





 total charge     

# of ion       s       p       d       tot
------------------------------------------
    1        1.787   4.722   0.020   6.529
    2        1.787   4.721   0.022   6.530
    3        1.786   4.721   0.020   6.528
    4        1.787   4.721   0.021   6.530
    5        1.786   4.721   0.019   6.526
    6        1.786   4.721   0.020   6.527
    7        1.554   0.421   9.834  11.809
    8        1.552   0.432   9.834  11.818
    9        1.554   0.430   9.835  11.819
   10        1.555   0.417   9.834  11.806
   11        1.554   0.430   9.835  11.819
   12        1.555   0.417   9.834  11.806
   13        1.554   0.421   9.834  11.809
   14        1.552   0.432   9.834  11.818
   15        1.615   3.292   0.006   4.913
   16        1.615   3.277   0.006   4.898
   17        1.614   3.291   0.006   4.911
   18        1.615   3.289   0.007   4.911
   19        1.615   3.282   0.006   4.904
   20        1.617   3.304   0.008   4.929
   21        1.615   3.289   0.007   4.910
   22        1.614   3.292   0.006   4.912
   23        1.614   3.289   0.006   4.908
   24        1.614   3.287   0.006   4.907
   25        1.620   3.324   0.010   4.954
   26        1.614   3.291   0.006   4.911
   27        1.615   3.289   0.006   4.910
   28        1.615   3.288   0.006   4.909
   29        1.615   3.278   0.006   4.899
   30        1.614   3.287   0.006   4.907
   31        1.614   3.289   0.006   4.908
   32        1.614   3.287   0.006   4.907
   33        1.620   3.324   0.010   4.954
   34        1.614   3.291   0.006   4.911
   35        1.615   3.278   0.006   4.899
   36        1.614   3.287   0.006   4.907
   37        1.615   3.289   0.006   4.910
   38        1.615   3.288   0.006   4.909
   39        1.808   4.739   0.068   6.615
--------------------------------------------------
tot         63.716 115.448  79.021 258.185

    CHARGE:  cpu time    0.3872: real time    0.3872
    FORLOC:  cpu time    0.0121: real time    0.0121
    FORNL :  cpu time    1.8930: real time    1.8931
    STRESS:  cpu time   49.6360: real time   49.6378
    FORCOR:  cpu time    0.2452: real time    0.2452
    FORHAR:  cpu time    0.0287: real time    0.0287
    MIXING:  cpu time    0.0019: real time    0.0019
    OFIELD:  cpu time    0.0001: real time    0.0001

  FORCE on cell =-STRESS in cart. coord.  units (eV):
  Direction    XX          YY          ZZ          XY          YZ          ZX
  --------------------------------------------------------------------------------------
  Alpha Z   835.99855   835.99855   835.99855
  Ewald   -5905.02062 -5465.23097 -5990.83901    -0.01537    -0.00674  -257.07100
  Hartree  2550.44575  2769.57504  2477.77862    -0.00836    -0.00513  -149.30537
  E(xc)   -1447.88833 -1447.13592 -1447.79495    -0.00005     0.00005    -0.12469
  Local   -3035.05588 -3690.72116 -2877.48736     0.02394     0.01129   403.98862
  n-local  1795.40431  1796.68732  1794.78071     0.00032    -0.00030    -0.42546
  augment   825.13644   824.14075   824.32496    -0.00007    -0.00007     0.33515
  Kinetic  4386.49222  4394.94157  4391.17768    -0.00077     0.00139    -0.87825
  Fock        0.00000     0.00000     0.00000     0.00000     0.00000     0.00000
  -------------------------------------------------------------------------------------
  Total       5.51245    18.25519     7.93920    -0.00037     0.00049    -3.48100
  in kB       5.51901    18.27693     7.94866    -0.00037     0.00049    -3.48514
  external pressure =       10.58 kB  Pullay stress =        0.00 kB


 VOLUME and BASIS-vectors are now :
 -----------------------------------------------------------------------------
  energy-cutoff  :      300.00
  volume of cell :     1600.27
      direct lattice vectors                 reciprocal lattice vectors
     8.420018000  0.000000000  8.077981000     0.059382296 -0.000000000  0.061896655
     0.000000000 11.763808000  0.000000000     0.000000000  0.085006488 -0.000000000
    -8.420018000  0.000000000  8.077981000    -0.059382296  0.000000000  0.061896655

  length of vectors
    11.668353789 11.763808000 11.668353789     0.085775596  0.085006488  0.085775596


 FORCES acting on ions
    electron-ion (+dipol)            ewald-force                    non-local-force                 convergence-correction
 -----------------------------------------------------------------------------------------------
   0.364E+02 0.164E-02 -.123E+02   -.365E+02 -.171E-02 0.122E+02   0.118E+00 0.632E-04 0.119E+00   0.138E-03 -.236E-05 0.844E-04
   0.198E+02 0.260E-02 -.153E+02   -.195E+02 -.259E-02 0.154E+02   -.299E+00 -.245E-06 -.380E-01   0.156E-03 -.107E-05 -.303E-03
   -.287E+02 0.337E-02 -.937E+01   0.285E+02 -.346E-02 0.921E+01   0.139E+00 0.951E-04 0.102E+00   0.132E-04 0.465E-05 -.187E-03
   0.290E+02 -.418E-03 0.171E+02   -.289E+02 0.477E-03 -.174E+02   -.627E-01 -.761E-04 0.302E+00   0.307E-03 0.483E-07 0.815E-04
   0.205E+02 0.862E-02 -.368E+00   -.203E+02 -.868E-02 0.606E+00   -.176E+00 -.225E-04 -.200E+00   -.199E-03 -.239E-06 0.169E-03
   -.283E+02 0.117E-02 0.272E+01   0.283E+02 -.122E-02 -.264E+01   0.153E-01 0.477E-04 -.282E-01   0.137E-04 0.625E-06 -.301E-04
   0.369E+02 0.552E+02 -.516E+02   -.367E+02 -.548E+02 0.519E+02   -.299E+00 -.359E+00 -.272E+00   -.137E-03 -.628E-03 0.712E-03
   -.183E+02 0.499E+02 0.315E+02   0.185E+02 -.509E+02 -.324E+02   -.435E+00 0.123E+01 0.117E+01   0.250E-03 -.814E-03 -.522E-03
   0.221E+02 0.408E+02 -.158E+02   -.223E+02 -.415E+02 0.155E+02   0.508E+00 0.753E+00 0.259E+00   -.469E-03 -.627E-03 0.525E-04
   -.655E+02 0.796E+02 0.467E+02   0.655E+02 -.796E+02 -.466E+02   0.612E-01 -.436E-01 -.128E+00   0.535E-03 -.846E-03 -.283E-03
   0.221E+02 -.408E+02 -.158E+02   -.223E+02 0.415E+02 0.155E+02   0.507E+00 -.752E+00 0.259E+00   -.467E-03 0.627E-03 0.455E-04
   -.655E+02 -.796E+02 0.467E+02   0.655E+02 0.796E+02 -.466E+02   0.612E-01 0.425E-01 -.127E+00   0.539E-03 0.830E-03 -.285E-03
   0.369E+02 -.552E+02 -.516E+02   -.366E+02 0.549E+02 0.519E+02   -.301E+00 0.354E+00 -.273E+00   -.138E-03 0.635E-03 0.707E-03
   -.183E+02 -.499E+02 0.315E+02   0.185E+02 0.509E+02 -.324E+02   -.434E+00 -.124E+01 0.117E+01   0.243E-03 0.815E-03 -.526E-03
   0.159E+02 -.755E-02 0.370E+02   -.158E+02 0.770E-02 -.375E+02   -.164E+00 -.265E-04 0.464E+00   -.191E-03 -.107E-05 0.159E-04
   -.375E+02 0.979E-02 0.791E+02   0.374E+02 -.998E-02 -.795E+02   0.120E+00 0.111E-03 0.385E+00   0.442E-03 0.271E-05 -.149E-03
   -.332E+01 0.336E-01 0.227E+02   0.339E+01 -.342E-01 -.229E+02   -.591E-01 0.273E-03 0.209E+00   -.230E-04 -.290E-05 0.126E-03
   -.343E+01 0.912E-02 0.461E+02   0.341E+01 -.939E-02 -.464E+02   0.544E-01 0.289E-03 0.256E+00   0.118E-03 -.186E-06 0.454E-04
   0.422E+02 0.172E-01 -.939E+02   -.423E+02 -.175E-01 0.944E+02   0.738E-01 0.432E-03 -.512E+00   -.208E-03 -.228E-06 0.560E-03
   -.874E+01 0.247E-01 -.378E+02   0.861E+01 -.251E-01 0.382E+02   -.185E+00 0.179E-03 0.130E+00   0.105E-03 0.295E-06 -.212E-03
   -.120E+02 -.392E-02 -.341E+02   0.122E+02 0.407E-02 0.343E+02   -.274E+00 -.199E-04 -.214E+00   -.902E-04 0.904E-06 -.302E-04
   -.179E+02 0.577E-02 -.292E+02   0.180E+02 -.592E-02 0.295E+02   -.280E-01 0.169E-03 -.260E+00   -.102E-04 0.880E-06 -.169E-03
   0.362E+01 -.267E+01 0.182E+02   -.349E+01 0.253E+01 -.184E+02   -.908E-01 0.127E+00 0.247E+00   -.128E-03 0.325E-03 0.157E-03
   -.465E+02 -.190E+02 0.320E+02   0.468E+02 0.188E+02 -.322E+02   -.302E+00 0.203E+00 0.987E-01   0.369E-04 0.233E-03 -.695E-04
   0.330E+02 0.384E+01 0.236E+02   -.333E+02 -.435E+01 -.237E+02   0.192E+00 -.128E+01 -.476E-01   -.177E-03 0.292E-03 0.902E-05
   0.109E+02 -.245E+02 0.245E+02   -.110E+02 0.246E+02 -.248E+02   0.883E-01 -.133E+00 0.261E+00   0.112E-03 0.154E-03 -.303E-04
   -.212E+02 -.212E+01 -.247E+02   0.214E+02 0.233E+01 0.251E+02   -.228E+00 -.197E+00 -.375E+00   0.573E-04 -.594E-04 -.856E-04
   -.163E+02 0.315E+02 -.313E+02   0.165E+02 -.313E+02 0.315E+02   -.172E+00 -.184E+00 -.138E+00   0.770E-06 -.605E-03 0.941E-04
   0.440E+02 0.638E+02 -.677E+02   -.443E+02 -.641E+02 0.681E+02   0.252E+00 0.346E+00 -.433E+00   -.171E-03 -.250E-03 0.183E-03
   0.367E+01 0.461E+02 0.913E+01   -.388E+01 -.462E+02 -.889E+01   0.265E+00 0.137E+00 -.182E+00   0.239E-03 -.374E-03 -.257E-03
   0.361E+01 0.267E+01 0.182E+02   -.349E+01 -.252E+01 -.184E+02   -.909E-01 -.127E+00 0.246E+00   -.130E-03 -.325E-03 0.156E-03
   -.465E+02 0.190E+02 0.320E+02   0.468E+02 -.188E+02 -.322E+02   -.302E+00 -.203E+00 0.988E-01   0.381E-04 -.233E-03 -.686E-04
   0.330E+02 -.384E+01 0.236E+02   -.332E+02 0.435E+01 -.238E+02   0.192E+00 0.128E+01 -.476E-01   -.177E-03 -.289E-03 0.752E-05
   0.109E+02 0.244E+02 0.245E+02   -.110E+02 -.246E+02 -.248E+02   0.882E-01 0.133E+00 0.261E+00   0.114E-03 -.154E-03 -.306E-04
   0.440E+02 -.638E+02 -.676E+02   -.443E+02 0.642E+02 0.681E+02   0.252E+00 -.346E+00 -.432E+00   -.169E-03 0.250E-03 0.182E-03
   0.366E+01 -.461E+02 0.912E+01   -.387E+01 0.462E+02 -.888E+01   0.265E+00 -.137E+00 -.182E+00   0.242E-03 0.372E-03 -.256E-03
   -.212E+02 0.212E+01 -.247E+02   0.214E+02 -.233E+01 0.251E+02   -.228E+00 0.197E+00 -.376E+00   0.539E-04 0.589E-04 -.849E-04
   -.163E+02 -.315E+02 -.314E+02   0.165E+02 0.313E+02 0.315E+02   -.172E+00 0.184E+00 -.138E+00   0.405E-06 0.604E-03 0.950E-04
   0.409E+01 -.300E-04 0.376E+02   -.393E+01 0.666E-04 -.376E+02   0.192E+00 -.213E-03 -.342E+00   -.372E-03 -.375E-05 -.243E-04
 -----------------------------------------------------------------------------------------------
   0.716E+00 0.783E-02 -.138E+01   -.338E-13 -.106E-13 0.426E-13   -.858E+00 -.748E-02 0.129E+01   0.498E-03 -.762E-05 -.120E-03


 POSITION                                       TOTAL-FORCE (eV/Angst)
 -----------------------------------------------------------------------------------
      0.49431      2.94090      3.81804         0.010534      0.000025     -0.011820
      0.50113      2.94098     12.00592         0.022728     -0.000022      0.021885
     -4.72900      8.82287      7.76622        -0.025767     -0.000015     -0.051217
     -3.74341      2.94099      8.26299         0.002809     -0.000052     -0.004864
      4.62275      2.94099      8.08107         0.047495     -0.000120      0.042806
     -0.44334      8.82287     12.31285         0.034922     -0.000022      0.049315
      8.36531     11.73480      8.07957        -0.034395     -0.043106      0.029209
      0.03184      0.00333      8.08507        -0.211669      0.259608      0.268857
     -4.16003     11.75934     12.08117         0.245316      0.069464     -0.112166
     -4.18122     11.76144      4.03880         0.001613     -0.121446     -0.047574
     -4.16010      5.88624     12.08119         0.245498     -0.069500     -0.112258
     -4.18122      5.88423      4.03884         0.001629      0.121713     -0.047558
      8.36522      5.91070      8.07956        -0.034118      0.043358      0.029137
      0.03193      5.87867      8.08514        -0.212089     -0.259483      0.268845
     -4.03434      8.82276     11.37423        -0.068959      0.000034      0.067210
      4.06973      8.82288     11.76592        -0.014337     -0.000040      0.041951
     -0.11786      2.94100     15.60270         0.006039     -0.000192     -0.004269
     -0.17032      2.94105      7.62600         0.027890      0.000103     -0.035589
      0.15359      8.82283      0.55358         0.032709      0.000111     -0.007536
      0.03036      8.82301      8.66914        -0.309155     -0.000119      0.544428
      4.44020      2.94087      4.40263        -0.036867      0.000042     -0.022118
     -4.32070      2.94096      4.67772        -0.006578      0.000042      0.019100
     -5.94271      5.45108      9.69465         0.028813     -0.010764      0.020928
      2.43484      5.31562      9.77348        -0.080210     -0.007592     -0.053466
      1.80012      5.87556      5.66577         0.002329     -1.767737     -0.229578
      1.68568      6.22264     13.73956        -0.015076     -0.010157      0.008057
     -1.61427      0.34695     10.54390         0.020027     -0.003307     -0.042636
     -1.80513      0.57845      2.34796        -0.000599      0.046146      0.006250
      5.89453     11.27805      6.45093        -0.063294     -0.014791     -0.054228
     -2.56240     11.48804      6.56229         0.066507      0.017890      0.048378
     -5.94269      0.43080      9.69464         0.028803      0.010735      0.020905
      2.43483      0.56636      9.77354        -0.080265      0.007570     -0.053542
      1.80012      0.00629      5.66582         0.002407      1.767891     -0.229645
      1.68567     11.42313     13.73960        -0.015054      0.010022      0.007975
      5.89459      6.36761      6.45091        -0.063410      0.014742     -0.054239
     -2.56239      6.15778      6.56230         0.066515     -0.017977      0.048312
     -1.61425      5.53499     10.54390         0.020092      0.003278     -0.042731
     -1.80513      5.30342      2.34799        -0.000551     -0.046171      0.006208
      1.71467      8.82284      5.95145         0.357719     -0.000164     -0.332719
 -----------------------------------------------------------------------------------
    total drift:                               -0.140966      0.000344     -0.089849


--------------------------------------------------------------------------------------------------------



  FREE ENERGIE OF THE ION-ELECTRON SYSTEM (eV)
  ---------------------------------------------------
  free  energy   TOTEN  =     -1385.68939029 eV

  energy  without entropy=    -1385.68939029  energy(sigma->0) =    -1385.68939029



--------------------------------------------------------------------------------------------------------


    POTLOK:  cpu time    1.4364: real time    1.4365


--------------------------------------------------------------------------------------------------------


 stress matrix after NEB project (eV)
      5.51245     -0.00037     -3.48100
     -0.00037     18.25519      0.00049
     -3.48092      0.00049      7.93920
  FORCES: max atom, RMS     1.782745    0.442640
  FORCE total and by dimension    2.764288    1.767891
  Stress total and by dimension   21.234503   18.255191
     LOOP+:  cpu time  429.8631: real time  430.4385
    4ORBIT:  cpu time    0.0000: real time    0.0000



 total charge     

# of ion       s       p       d       tot
------------------------------------------
    1        1.787   4.722   0.020   6.529
    2        1.787   4.721   0.022   6.530
    3        1.786   4.721   0.020   6.528
    4        1.787   4.721   0.021   6.530
    5        1.786   4.721   0.019   6.526
    6        1.786   4.721   0.020   6.527
    7        1.554   0.421   9.834  11.809
    8        1.552   0.432   9.834  11.818
    9        1.554   0.430   9.835  11.819
   10        1.555   0.417   9.834  11.806
   11        1.554   0.430   9.835  11.819
   12        1.555   0.417   9.834  11.806
   13        1.554   0.421   9.834  11.809
   14        1.552   0.432   9.834  11.818
   15        1.615   3.292   0.006   4.913
   16        1.615   3.277   0.006   4.898
   17        1.614   3.291   0.006   4.911
   18        1.615   3.289   0.007   4.911
   19        1.615   3.282   0.006   4.904
   20        1.617   3.304   0.008   4.929
   21        1.615   3.289   0.007   4.910
   22        1.614   3.292   0.006   4.912
   23        1.614   3.289   0.006   4.908
   24        1.614   3.287   0.006   4.907
   25        1.620   3.324   0.010   4.954
   26        1.614   3.291   0.006   4.911
   27        1.615   3.289   0.006   4.910
   28        1.615   3.288   0.006   4.909
   29        1.615   3.278   0.006   4.899
   30        1.614   3.287   0.006   4.907
   31        1.614   3.289   0.006   4.908
   32        1.614   3.287   0.006   4.907
   33        1.620   3.324   0.010   4.954
   34        1.614   3.291   0.006   4.911
   35        1.615   3.278   0.006   4.899
   36        1.614   3.287   0.006   4.907
   37        1.615   3.289   0.006   4.910
   38        1.615   3.288   0.006   4.909
   39        1.808   4.739   0.068   6.615
--------------------------------------------------
tot         63.716 115.448  79.021 258.185


 total amount of memory used by VASP MPI-rank0    61030. kBytes
=======================================================================

   base      :      30000. kBytes
   nonlr-proj:       6442. kBytes
   fftplans  :       8423. kBytes
   grid      :       7942. kBytes
   one-center:         77. kBytes
   wavefun   :       8146. kBytes

  
  
 General timing and accounting informations for this job:
 ========================================================
  
                  Total CPU time used (sec):      442.345
                            User time (sec):      440.861
                          System time (sec):        1.484
                         Elapsed time (sec):      443.283
  
                   Maximum memory used (kb):       78668.
                   Average memory used (kb):           0.
  
                          Minor page faults:        20824
                          Major page faults:            2
                 Voluntary context switches:         1504
