PROCAR new format
# of k-points:    8         # of bands:  208         # of ions:   39

 k-point     1 :    0.00000000 0.00000000 0.00000000     weight = 0.12500000

band     1 # energy  -21.13483725 # occ.  2.00000000

ion      s      p      d    tot
    1  0.000  0.000  0.000  0.000
    2  0.000  0.000  0.000  0.000
    3  0.000  0.000  0.000  0.000
    4  0.000  0.000  0.000  0.000
    5  0.000  0.000  0.000  0.000
    6  0.000  0.000  0.000  0.000
    7  0.000  0.000  0.000  0.000
    8  0.000  0.000  0.000  0.000
    9  0.000  0.000  0.000  0.000
   10  0.000  0.000  0.000  0.000
   11  0.000  0.000  0.000  0.000
   12  0.000  0.000  0.000  0.000
   13  0.000  0.000  0.000  0.000
   14  0.000  0.000  0.000  0.000
   15  0.000  0.000  0.000  0.000
   16  0.000  0.000  0.000  0.000
   17  0.000  0.000  0.000  0.000
   18  0.000  0.000  0.000  0.000
   19  0.000  0.000  0.000  0.000
   20  0.000  0.000  0.000  0.001
   21  0.000  0.000  0.000  0.000
   22  0.000  0.000  0.000  0.000
   23  0.000  0.000  0.000  0.000
   24  0.000  0.000  0.000  0.000
   25  0.002  0.000  0.000  0.002
   26  0.000  0.000  0.000  0.000
   27  0.000  0.000  0.000  0.000
   28  0.000  0.000  0.000  0.000
   29  0.000  0.000  0.000  0.000
   30  0.000  0.000  0.000  0.000
   31  0.000  0.000  0.000  0.000
   32  0.000  0.000  0.000  0.000
   33  0.002  0.000  0.000  0.002
   34  0.000  0.000  0.000  0.000
   35  0.000  0.000  0.000  0.000
   36  0.000  0.000  0.000  0.000
   37  0.000  0.000  0.000  0.000
   38  0.000  0.000  0.000  0.000
   39  0.882  0.000  0.000  0.882
tot    0.886  0.001  0.000  0.887

band     2 # energy  -21.02662007 # occ.  2.00000000

ion      s      p      d    tot
    1  0.887  0.000  0.000  0.887
    2  0.000  0.000  0.000  0.000
    3  0.000  0.000  0.000  0.000
    4  0.000  0.000  0.000  0.000
    5  0.000  0.000  0.000  0.000
    6  0.000  0.000  0.000  0.000
    7  0.000  0.000  0.000  0.000
    8  0.000  0.000  0.000  0.000
    9  0.000  0.000  0.000  0.000
   10  0.000  0.000  0.000  0.000
   11  0.000  0.000  0.000  0.000
   12  0.000  0.000  0.000  0.000
   13  0.000  0.000  0.000  0.000
   14  0.000  0.000  0.000  0.000
   15  0.000  0.000  0.000  0.000
   16  0.000  0.000  0.000  0.000
   17  0.000  0.000  0.000  0.000
   18  0.000  0.000  0.000  0.000
   19  0.000  0.000  0.000  0.000
   20  0.000  0.000  0.000  0.000
   21  0.000  0.000  0.000  0.000
   22  0.000  0.000  0.000  0.000
   23  0.000  0.000  0.000  0.000
   24  0.000  0.000  0.000  0.000
   25  0.000  0.000  0.000  0.000
   26  0.000  0.000  0.000  0.000
   27  0.000  0.000  0.000  0.000
   28  0.000  0.000  0.000  0.000
   29  0.000  0.000  0.000  0.000
   30  0.000  0.000  0.000  0.000
   31  0.000  0.000  0.000  0.000
   32  0.000  0.000  0.000  0.000
   33  0.000  0.000  0.000  0.000
   34  0.000  0.000  0.000  0.000
   35  0.000  0.000  0.000  0.000
   36  0.000  0.000  0.000  0.000
   37  0.000  0.000  0.000  0.000
   38  0.000  0.000  0.000  0.000
   39  0.000  0.000  0.000  0.000
tot    0.888  0.000  0.000  0.888

band     3 # energy  -20.99815078 # occ.  2.00000000

ion      s      p      d    tot
    1  0.000  0.000  0.000  0.000
    2  0.000  0.000  0.000  0.000
    3  0.000  0.000  0.000  0.000
    4  0.000  0.000  0.000  0.000
    5  0.000  0.000  0.000  0.000
    6  0.887  0.000  0.000  0.887
    7  0.000  0.000  0.000  0.000
    8  0.000  0.000  0.000  0.000
    9  0.000  0.000  0.000  0.000
   10  0.000  0.000  0.000  0.000
   11  0.000  0.000  0.000  0.000
   12  0.000  0.000  0.000  0.000
   13  0.000  0.000  0.000  0.000
   14  0.000  0.000  0.000  0.000
   15  0.000  0.000  0.000  0.000
   16  0.000  0.000  0.000  0.000
   17  0.000  0.000  0.000  0.000
   18  0.000  0.000  0.000  0.000
   19  0.000  0.000  0.000  0.000
   20  0.000  0.000  0.000  0.000
   21  0.000  0.000  0.000  0.000
   22  0.000  0.000  0.000  0.000
   23  0.000  0.000  0.000  0.000
   24  0.000  0.000  0.000  0.000
   25  0.000  0.000  0.000  0.000
   26  0.000  0.000  0.000  0.000
   27  0.000  0.000  0.000  0.000
   28  0.000  0.000  0.000  0.000
   29  0.000  0.000  0.000  0.000
   30  0.000  0.000  0.000  0.000
   31  0.000  0.000  0.000  0.000
   32  0.000  0.000  0.000  0.000
   33  0.000  0.000  0.000  0.000
   34  0.000  0.000  0.000  0.000
   35  0.000  0.000  0.000  0.000
   36  0.000  0.000  0.000  0.000
   37  0.000  0.000  0.000  0.000
   38  0.000  0.000  0.000  0.000
   39  0.000  0.000  0.000  0.000
tot    0.888  0.000  0.000  0.888

band     4 # energy  -20.96469153 # occ.  2.00000000

ion      s      p      d    tot
    1  0.000  0.000  0.000  0.000
    2  0.000  0.000  0.000  0.000
    3  0.000  0.000  0.000  0.000
    4  0.000  0.000  0.000  0.000
    5  0.887  0.000  0.000  0.887
    6  0.000  0.000  0.000  0.000
    7  0.000  0.000  0.000  0.000
    8  0.000  0.000  0.000  0.000
    9  0.000  0.000  0.000  0.000
   10  0.000  0.000  0.000  0.000
   11  0.000  0.000  0.000  0.000
   12  0.000  0.000  0.000  0.000
   13  0.000  0.000  0.000  0.000
   14  0.000  0.000  0.000  0.000
   15  0.000  0.000  0.000  0.000
   16  0.000  0.000  0.000  0.000
   17  0.000  0.000  0.000  0.000
   18  0.000  0.000  0.000  0.000
   19  0.000  0.000  0.000  0.000
   20  0.000  0.000  0.000  0.000
   21  0.000  0.000  0.000  0.000
   22  0.000  0.000  0.000  0.000
   23  0.000  0.000  0.000  0.000
   24  0.000  0.000  0.000  0.000
   25  0.000  0.000  0.000  0.000
   26  0.000  0.000  0.000  0.000
   27  0.000  0.000  0.000  0.000
   28  0.000  0.000  0.000  0.000
   29  0.000  0.000  0.000  0.000
   30  0.000  0.000  0.000  0.000
   31  0.000  0.000  0.000  0.000
   32  0.000  0.000  0.000  0.000
   33  0.000  0.000  0.000  0.000
   34  0.000  0.000  0.000  0.000
   35  0.000  0.000  0.000  0.000
   36  0.000  0.000  0.000  0.000
   37  0.000  0.000  0.000  0.000
   38  0.000  0.000  0.000  0.000
   39  0.000  0.000  0.000  0.000
tot    0.888  0.000  0.000  0.888

band     5 # energy  -20.95315673 # occ.  2.00000000

ion      s      p      d    tot
    1  0.000  0.000  0.000  0.000
    2  0.000  0.000  0.000  0.000
    3  0.004  0.000  0.000  0.004
    4  0.883  0.000  0.000  0.883
    5  0.000  0.000  0.000  0.000
    6  0.000  0.000  0.000  0.000
    7  0.000  0.000  0.000  0.000
    8  0.000  0.000  0.000  0.000
    9  0.000  0.000  0.000  0.000
   10  0.000  0.000  0.000  0.000
   11  0.000  0.000  0.000  0.000
   12  0.000  0.000  0.000  0.000
   13  0.000  0.000  0.000  0.000
   14  0.000  0.000  0.000  0.000
   15  0.000  0.000  0.000  0.000
   16  0.000  0.000  0.000  0.000
   17  0.000  0.000  0.000  0.000
   18  0.000  0.000  0.000  0.000
   19  0.000  0.000  0.000  0.000
   20  0.000  0.000  0.000  0.000
   21  0.000  0.000  0.000  0.000
   22  0.000  0.000  0.000  0.000
   23  0.000  0.000  0.000  0.000
   24  0.000  0.000  0.000  0.000
   25  0.000  0.000  0.000  0.000
   26  0.000  0.000  0.000  0.000
   27  0.000  0.000  0.000  0.000
   28  0.000  0.000  0.000  0.000
   29  0.000  0.000  0.000  0.000
   30  0.000  0.000  0.000  0.000
   31  0.000  0.000  0.000  0.000
   32  0.000  0.000  0.000  0.000
   33  0.000  0.000  0.000  0.000
   34  0.000  0.000  0.000  0.000
   35  0.000  0.000  0.000  0.000
   36  0.000  0.000  0.000  0.000
   37  0.000  0.000  0.000  0.000
   38  0.000  0.000  0.000  0.000
   39  0.000  0.000  0.000  0.000
tot    0.888  0.000  0.000  0.888

band     6 # energy  -20.94243239 # occ.  2.00000000

ion      s      p      d    tot
    1  0.000  0.000  0.000  0.000
    2  0.000  0.000  0.000  0.000
    3  0.883  0.000  0.000  0.883
    4  0.004  0.000  0.000  0.004
    5  0.000  0.000  0.000  0.000
    6  0.000  0.000  0.000  0.000
    7  0.000  0.000  0.000  0.000
    8  0.000  0.000  0.000  0.000
    9  0.000  0.000  0.000  0.000
   10  0.000  0.000  0.000  0.000
   11  0.000  0.000  0.000  0.000
   12  0.000  0.000  0.000  0.000
   13  0.000  0.000  0.000  0.000
   14  0.000  0.000  0.000  0.000
   15  0.000  0.000  0.000  0.000
   16  0.000  0.000  0.000  0.000
   17  0.000  0.000  0.000  0.000
   18  0.000  0.000  0.000  0.000
   19  0.000  0.000  0.000  0.000
   20  0.000  0.000  0.000  0.000
   21  0.000  0.000  0.000  0.000
   22  0.000  0.000  0.000  0.000
   23  0.000  0.000  0.000  0.000
   24  0.000  0.000  0.000  0.000
   25  0.000  0.000  0.000  0.000
   26  0.000  0.000  0.000  0.000
   27  0.000  0.000  0.000  0.000
   28  0.000  0.000  0.000  0.000
   29  0.000  0.000  0.000  0.000
   30  0.000  0.000  0.000  0.000
   31  0.000  0.000  0.000  0.000
   32  0.000  0.000  0.000  0.000
   33  0.000  0.000  0.000  0.000
   34  0.000  0.000  0.000  0.000
   35  0.000  0.000  0.000  0.000
   36  0.000  0.000  0.000  0.000
   37  0.000  0.000  0.000  0.000
   38  0.000  0.000  0.000  0.000
   39  0.000  0.000  0.000  0.000
tot    0.888  0.000  0.000  0.888

band     7 # energy  -20.87089598 # occ.  2.00000000

ion      s      p      d    tot
    1  0.000  0.000  0.000  0.000
    2  0.887  0.000  0.000  0.887
    3  0.000  0.000  0.000  0.000
    4  0.000  0.000  0.000  0.000
    5  0.000  0.000  0.000  0.000
    6  0.000  0.000  0.000  0.000
    7  0.000  0.000  0.000  0.000
    8  0.000  0.000  0.000  0.000
    9  0.000  0.000  0.000  0.000
   10  0.000  0.000  0.000  0.000
   11  0.000  0.000  0.000  0.000
   12  0.000  0.000  0.000  0.000
   13  0.000  0.000  0.000  0.000
   14  0.000  0.000  0.000  0.000
   15  0.000  0.000  0.000  0.000
   16  0.000  0.000  0.000  0.000
   17  0.000  0.000  0.000  0.000
   18  0.000  0.000  0.000  0.000
   19  0.000  0.000  0.000  0.000
   20  0.000  0.000  0.000  0.000
   21  0.000  0.000  0.000  0.000
   22  0.000  0.000  0.000  0.000
   23  0.000  0.000  0.000  0.000
   24  0.000  0.000  0.000  0.000
   25  0.000  0.000  0.000  0.000
   26  0.000  0.000  0.000  0.000
   27  0.000  0.000  0.000  0.000
   28  0.000  0.000  0.000  0.000
   29  0.000  0.000  0.000  0.000
   30  0.000  0.000  0.000  0.000
   31  0.000  0.000  0.000  0.000
   32  0.000  0.000  0.000  0.000
   33  0.000  0.000  0.000  0.000
   34  0.000  0.000  0.000  0.000
   35  0.000  0.000  0.000  0.000
   36  0.000  0.000  0.000  0.000
   37  0.000  0.000  0.000  0.000
   38  0.000  0.000  0.000  0.000
   39  0.000  0.000  0.000  0.000
tot    0.888  0.000  0.000  0.888

band     8 # energy  -16.85828305 # occ.  2.00000000

ion      s      p      d    tot
    1  0.000  0.000  0.000  0.000
    2  0.000  0.000  0.000  0.000
    3  0.000  0.000  0.000  0.000
    4  0.000  0.000  0.000  0.000
    5  0.000  0.000  0.000  0.000
    6  0.000  0.000  0.000  0.000
    7  0.000  0.000  0.000  0.000
    8  0.000  0.000  0.324  0.324
    9  0.000  0.000  0.136  0.136
   10  0.000  0.000  0.000  0.000
   11  0.000  0.000  0.136  0.136
   12  0.000  0.000  0.000  0.000
   13  0.000  0.000  0.000  0.000
   14  0.000  0.000  0.325  0.325
   15  0.002  0.000  0.000  0.002
   16  0.000  0.000  0.000  0.000
   17  0.000  0.000  0.000  0.000
   18  0.007  0.000  0.000  0.007
   19  0.000  0.000  0.000  0.000
   20  0.007  0.000  0.000  0.008
   21  0.002  0.000  0.000  0.002
   22  0.000  0.000  0.000  0.000
   23  0.000  0.000  0.000  0.000
   24  0.000  0.000  0.000  0.000
   25  0.006  0.000  0.000  0.006
   26  0.000  0.000  0.000  0.000
   27  0.004  0.000  0.000  0.005
   28  0.000  0.000  0.000  0.000
   29  0.000  0.000  0.000  0.000
   30  0.000  0.000  0.000  0.000
   31  0.000  0.000  0.000  0.000
   32  0.000  0.000  0.000  0.000
   33  0.006  0.000  0.000  0.006
   34  0.000  0.000  0.000  0.000
   35  0.000  0.000  0.000  0.000
   36  0.000  0.000  0.000  0.000
   37  0.004  0.000  0.000  0.005
   38  0.000  0.000  0.000  0.000
   39  0.000  0.000  0.000  0.000
tot    0.039  0.000  0.921  0.960

band     9 # energy  -16.83307990 # occ.  2.00000000

ion      s      p      d    tot
    1  0.000  0.000  0.000  0.000
    2  0.000  0.000  0.000  0.000
    3  0.000  0.000  0.000  0.000
    4  0.000  0.000  0.000  0.000
    5  0.000  0.000  0.000  0.000
    6  0.000  0.000  0.000  0.000
    7  0.000  0.000  0.000  0.000
    8  0.000  0.000  0.270  0.270
    9  0.000  0.000  0.193  0.193
   10  0.000  0.000  0.000  0.000
   11  0.000  0.000  0.192  0.192
   12  0.000  0.000  0.000  0.000
   13  0.000  0.000  0.000  0.000
   14  0.000  0.000  0.270  0.270
   15  0.000  0.000  0.000  0.000
   16  0.000  0.000  0.000  0.000
   17  0.000  0.000  0.000  0.000
   18  0.000  0.000  0.000  0.000
   19  0.000  0.000  0.000  0.000
   20  0.000  0.000  0.000  0.000
   21  0.000  0.000  0.000  0.000
   22  0.000  0.000  0.000  0.000
   23  0.000  0.000  0.000  0.000
   24  0.000  0.000  0.000  0.000
   25  0.009  0.000  0.000  0.009
   26  0.000  0.000  0.000  0.000
   27  0.007  0.000  0.000  0.007
   28  0.000  0.000  0.000  0.000
   29  0.000  0.000  0.000  0.000
   30  0.000  0.000  0.000  0.000
   31  0.000  0.000  0.000  0.000
   32  0.000  0.000  0.000  0.000
   33  0.009  0.000  0.000  0.009
   34  0.000  0.000  0.000  0.000
   35  0.000  0.000  0.000  0.000
   36  0.000  0.000  0.000  0.000
   37  0.007  0.000  0.000  0.007
   38  0.000  0.000  0.000  0.000
   39  0.000  0.000  0.000  0.000
tot    0.034  0.001  0.928  0.962

band    10 # energy  -16.82160193 # occ.  2.00000000

ion      s      p      d    tot
    1  0.000  0.000  0.000  0.000
    2  0.000  0.000  0.000  0.000
    3  0.000  0.000  0.000  0.000
    4  0.000  0.000  0.000  0.000
    5  0.000  0.000  0.000  0.000
    6  0.000  0.000  0.000  0.000
    7  0.000  0.000  0.000  0.000
    8  0.000  0.000  0.169  0.169
    9  0.000  0.000  0.297  0.297
   10  0.000  0.000  0.000  0.000
   11  0.000  0.000  0.297  0.297
   12  0.000  0.000  0.000  0.000
   13  0.000  0.000  0.000  0.000
   14  0.000  0.000  0.169  0.169
   15  0.007  0.000  0.000  0.007
   16  0.000  0.000  0.000  0.000
   17  0.000  0.000  0.000  0.000
   18  0.005  0.000  0.000  0.005
   19  0.000  0.000  0.000  0.000
   20  0.005  0.000  0.000  0.005
   21  0.009  0.000  0.000  0.009
   22  0.000  0.000  0.000  0.000
   23  0.000  0.000  0.000  0.000
   24  0.000  0.000  0.000  0.000
   25  0.001  0.000  0.000  0.001
   26  0.000  0.000  0.000  0.000
   27  0.000  0.000  0.000  0.000
   28  0.000  0.000  0.000  0.000
   29  0.000  0.000  0.000  0.000
   30  0.000  0.000  0.000  0.000
   31  0.000  0.000  0.000  0.000
   32  0.000  0.000  0.000  0.000
   33  0.001  0.000  0.000  0.001
   34  0.000  0.000  0.000  0.000
   35  0.000  0.000  0.000  0.000
   36  0.000  0.000  0.000  0.000
   37  0.000  0.000  0.000  0.000
   38  0.000  0.000  0.000  0.000
   39  0.000  0.000  0.000  0.000
tot    0.030  0.001  0.933  0.964

band    11 # energy  -16.79249168 # occ.  2.00000000

ion      s      p      d    tot
    1  0.000  0.000  0.000  0.000
    2  0.000  0.000  0.000  0.000
    3  0.000  0.000  0.000  0.000
    4  0.000  0.000  0.000  0.000
    5  0.000  0.000  0.000  0.000
    6  0.000  0.000  0.000  0.000
    7  0.000  0.000  0.003  0.003
    8  0.000  0.000  0.235  0.235
    9  0.000  0.000  0.229  0.229
   10  0.000  0.000  0.002  0.002
   11  0.000  0.000  0.229  0.229
   12  0.000  0.000  0.002  0.002
   13  0.000  0.000  0.003  0.003
   14  0.000  0.000  0.235  0.235
   15  0.003  0.000  0.000  0.003
   16  0.000  0.000  0.000  0.000
   17  0.000  0.000  0.000  0.000
   18  0.002  0.000  0.000  0.002
   19  0.000  0.000  0.000  0.000
   20  0.002  0.000  0.000  0.002
   21  0.003  0.000  0.000  0.003
   22  0.000  0.000  0.000  0.000
   23  0.001  0.000  0.000  0.002
   24  0.002  0.000  0.000  0.002
   25  0.002  0.000  0.000  0.002
   26  0.000  0.000  0.000  0.000
   27  0.001  0.000  0.000  0.001
   28  0.000  0.000  0.000  0.000
   29  0.002  0.000  0.000  0.002
   30  0.001  0.000  0.000  0.001
   31  0.001  0.000  0.000  0.002
   32  0.001  0.000  0.000  0.002
   33  0.002  0.000  0.000  0.002
   34  0.000  0.000  0.000  0.000
   35  0.002  0.000  0.000  0.002
   36  0.001  0.000  0.000  0.001
   37  0.001  0.000  0.000  0.001
   38  0.000  0.000  0.000  0.000
   39  0.000  0.000  0.000  0.000
tot    0.027  0.001  0.937  0.965

band    12 # energy  -16.76496134 # occ.  2.00000000

ion      s      p      d    tot
    1  0.000  0.000  0.000  0.000
    2  0.000  0.000  0.000  0.000
    3  0.000  0.000  0.000  0.000
    4  0.000  0.000  0.000  0.000
    5  0.000  0.000  0.000  0.000
    6  0.000  0.000  0.000  0.000
    7  0.000  0.000  0.000  0.000
    8  0.000  0.000  0.417  0.417
    9  0.000  0.000  0.063  0.063
   10  0.000  0.000  0.002  0.002
   11  0.000  0.000  0.062  0.062
   12  0.000  0.000  0.002  0.002
   13  0.000  0.000  0.000  0.000
   14  0.000  0.000  0.417  0.417
   15  0.000  0.000  0.000  0.000
   16  0.000  0.000  0.000  0.000
   17  0.000  0.000  0.000  0.000
   18  0.000  0.001  0.000  0.001
   19  0.000  0.000  0.000  0.000
   20  0.000  0.001  0.000  0.001
   21  0.000  0.000  0.000  0.000
   22  0.000  0.000  0.000  0.000
   23  0.000  0.000  0.000  0.000
   24  0.001  0.000  0.000  0.001
   25  0.000  0.000  0.000  0.000
   26  0.000  0.000  0.000  0.000
   27  0.000  0.000  0.000  0.000
   28  0.000  0.000  0.000  0.000
   29  0.000  0.000  0.000  0.000
   30  0.001  0.000  0.000  0.001
   31  0.000  0.000  0.000  0.000
   32  0.001  0.000  0.000  0.001
   33  0.000  0.000  0.000  0.000
   34  0.000  0.000  0.000  0.000
   35  0.000  0.000  0.000  0.000
   36  0.001  0.000  0.000  0.001
   37  0.000  0.000  0.000  0.000
   38  0.000  0.000  0.000  0.000
   39  0.000  0.000  0.000  0.000
tot    0.006  0.002  0.964  0.972

band    13 # energy  -16.76142666 # occ.  2.00000000

ion      s      p      d    tot
    1  0.000  0.000  0.000  0.000
    2  0.000  0.000  0.000  0.000
    3  0.000  0.000  0.000  0.000
    4  0.000  0.000  0.000  0.000
    5  0.000  0.000  0.000  0.000
    6  0.000  0.000  0.000  0.000
    7  0.000  0.000  0.000  0.000
    8  0.000  0.000  0.004  0.004
    9  0.000  0.000  0.022  0.022
   10  0.000  0.000  0.000  0.000
   11  0.000  0.000  0.480  0.480
   12  0.000  0.000  0.003  0.003
   13  0.000  0.000  0.005  0.005
   14  0.000  0.000  0.444  0.444
   15  0.000  0.000  0.000  0.000
   16  0.000  0.000  0.000  0.000
   17  0.000  0.000  0.000  0.000
   18  0.000  0.000  0.000  0.000
   19  0.000  0.000  0.000  0.000
   20  0.000  0.000  0.000  0.000
   21  0.000  0.000  0.000  0.000
   22  0.000  0.000  0.000  0.000
   23  0.002  0.000  0.000  0.003
   24  0.002  0.000  0.000  0.003
   25  0.000  0.001  0.000  0.001
   26  0.000  0.000  0.000  0.000
   27  0.000  0.000  0.000  0.000
   28  0.000  0.000  0.000  0.000
   29  0.000  0.000  0.000  0.000
   30  0.000  0.000  0.000  0.000
   31  0.000  0.000  0.000  0.000
   32  0.000  0.000  0.000  0.000
   33  0.000  0.000  0.000  0.000
   34  0.000  0.000  0.000  0.000
   35  0.003  0.000  0.000  0.003
   36  0.002  0.000  0.000  0.002
   37  0.000  0.001  0.000  0.001
   38  0.000  0.000  0.000  0.000
   39  0.000  0.000  0.000  0.000
tot    0.010  0.002  0.959  0.971

band    14 # energy  -16.76138992 # occ.  2.00000000

ion      s      p      d    tot
    1  0.000  0.000  0.000  0.000
    2  0.000  0.000  0.000  0.000
    3  0.000  0.000  0.000  0.000
    4  0.000  0.000  0.000  0.000
    5  0.000  0.000  0.000  0.000
    6  0.000  0.000  0.000  0.000
    7  0.000  0.000  0.005  0.005
    8  0.000  0.000  0.457  0.457
    9  0.000  0.000  0.468  0.468
   10  0.000  0.000  0.003  0.003
   11  0.000  0.000  0.011  0.011
   12  0.000  0.000  0.000  0.000
   13  0.000  0.000  0.000  0.000
   14  0.000  0.000  0.016  0.016
   15  0.000  0.000  0.000  0.000
   16  0.000  0.000  0.000  0.000
   17  0.000  0.000  0.000  0.000
   18  0.000  0.000  0.000  0.000
   19  0.000  0.000  0.000  0.000
   20  0.000  0.000  0.000  0.000
   21  0.000  0.000  0.000  0.000
   22  0.000  0.000  0.000  0.000
   23  0.000  0.000  0.000  0.000
   24  0.000  0.000  0.000  0.000
   25  0.000  0.000  0.000  0.000
   26  0.000  0.000  0.000  0.000
   27  0.000  0.001  0.000  0.001
   28  0.000  0.000  0.000  0.000
   29  0.002  0.000  0.000  0.003
   30  0.002  0.000  0.000  0.002
   31  0.002  0.000  0.000  0.002
   32  0.003  0.000  0.000  0.003
   33  0.000  0.001  0.000  0.001
   34  0.000  0.000  0.000  0.000
   35  0.000  0.000  0.000  0.000
   36  0.000  0.000  0.000  0.000
   37  0.000  0.000  0.000  0.000
   38  0.000  0.000  0.000  0.000
   39  0.000  0.000  0.000  0.000
tot    0.010  0.002  0.959  0.971

band    15 # energy  -16.75494406 # occ.  2.00000000

ion      s      p      d    tot
    1  0.000  0.000  0.000  0.000
    2  0.000  0.000  0.000  0.000
    3  0.000  0.000  0.000  0.000
    4  0.000  0.000  0.000  0.000
    5  0.000  0.000  0.000  0.000
    6  0.000  0.000  0.000  0.000
    7  0.000  0.000  0.005  0.005
    8  0.000  0.000  0.010  0.010
    9  0.000  0.000  0.466  0.466
   10  0.000  0.000  0.000  0.000
   11  0.000  0.000  0.466  0.466
   12  0.000  0.000  0.000  0.000
   13  0.000  0.000  0.005  0.005
   14  0.000  0.000  0.010  0.010
   15  0.000  0.001  0.000  0.001
   16  0.000  0.000  0.000  0.000
   17  0.000  0.000  0.000  0.000
   18  0.000  0.000  0.000  0.000
   19  0.000  0.000  0.000  0.000
   20  0.000  0.000  0.000  0.000
   21  0.000  0.001  0.000  0.001
   22  0.000  0.000  0.000  0.000
   23  0.002  0.000  0.000  0.002
   24  0.000  0.000  0.000  0.000
   25  0.000  0.000  0.000  0.000
   26  0.000  0.000  0.000  0.000
   27  0.000  0.000  0.000  0.000
   28  0.000  0.000  0.000  0.000
   29  0.002  0.000  0.000  0.002
   30  0.000  0.000  0.000  0.000
   31  0.002  0.000  0.000  0.002
   32  0.000  0.000  0.000  0.000
   33  0.000  0.000  0.000  0.000
   34  0.000  0.000  0.000  0.000
   35  0.002  0.000  0.000  0.002
   36  0.000  0.000  0.000  0.000
   37  0.000  0.000  0.000  0.000
   38  0.000  0.000  0.000  0.000
   39  0.000  0.000  0.000  0.000
tot    0.009  0.002  0.961  0.971

band    16 # energy  -16.70006527 # occ.  2.00000000

ion      s      p      d    tot
    1  0.000  0.000  0.000  0.000
    2  0.000  0.000  0.000  0.000
    3  0.000  0.000  0.000  0.000
    4  0.000  0.000  0.000  0.000
    5  0.000  0.000  0.000  0.000
    6  0.000  0.000  0.000  0.000
    7  0.000  0.000  0.000  0.000
    8  0.000  0.000  0.453  0.453
    9  0.000  0.000  0.003  0.003
   10  0.000  0.000  0.000  0.000
   11  0.000  0.000  0.003  0.003
   12  0.000  0.000  0.000  0.000
   13  0.000  0.000  0.000  0.000
   14  0.000  0.000  0.517  0.517
   15  0.000  0.000  0.000  0.000
   16  0.000  0.000  0.000  0.000
   17  0.000  0.000  0.000  0.000
   18  0.000  0.000  0.000  0.000
   19  0.000  0.000  0.000  0.000
   20  0.000  0.000  0.000  0.000
   21  0.000  0.000  0.000  0.000
   22  0.000  0.000  0.000  0.000
   23  0.000  0.000  0.000  0.000
   24  0.000  0.000  0.000  0.000
   25  0.000  0.000  0.000  0.000
   26  0.000  0.000  0.000  0.000
   27  0.000  0.000  0.000  0.000
   28  0.000  0.000  0.000  0.000
   29  0.000  0.000  0.000  0.000
   30  0.000  0.000  0.000  0.000
   31  0.000  0.000  0.000  0.000
   32  0.000  0.000  0.000  0.000
   33  0.000  0.000  0.000  0.000
   34  0.000  0.000  0.000  0.000
   35  0.000  0.000  0.000  0.000
   36  0.000  0.000  0.000  0.000
   37  0.000  0.000  0.000  0.000
   38  0.000  0.000  0.000  0.000
   39  0.000  0.000  0.000  0.000
tot    0.001  0.000  0.976  0.977

band    17 # energy  -16.69875410 # occ.  2.00000000

ion      s      p      d    tot
    1  0.000  0.000  0.000  0.000
    2  0.000  0.000  0.000  0.000
    3  0.000  0.000  0.000  0.000
    4  0.000  0.000  0.000  0.000
    5  0.000  0.000  0.000  0.000
    6  0.000  0.000  0.000  0.000
    7  0.000  0.000  0.000  0.000
    8  0.000  0.000  0.518  0.518
    9  0.000  0.000  0.003  0.003
   10  0.000  0.000  0.000  0.000
   11  0.000  0.000  0.003  0.003
   12  0.000  0.000  0.000  0.000
   13  0.000  0.000  0.000  0.000
   14  0.000  0.000  0.453  0.453
   15  0.000  0.000  0.000  0.000
   16  0.000  0.000  0.000  0.000
   17  0.000  0.000  0.000  0.000
   18  0.000  0.000  0.000  0.000
   19  0.000  0.000  0.000  0.000
   20  0.000  0.000  0.000  0.000
   21  0.000  0.000  0.000  0.000
   22  0.000  0.000  0.000  0.000
   23  0.000  0.000  0.000  0.000
   24  0.000  0.000  0.000  0.000
   25  0.000  0.000  0.000  0.000
   26  0.000  0.000  0.000  0.000
   27  0.000  0.000  0.000  0.000
   28  0.000  0.000  0.000  0.000
   29  0.000  0.000  0.000  0.000
   30  0.000  0.000  0.000  0.000
   31  0.000  0.000  0.000  0.000
   32  0.000  0.000  0.000  0.000
   33  0.000  0.000  0.000  0.000
   34  0.000  0.000  0.000  0.000
   35  0.000  0.000  0.000  0.000
   36  0.000  0.000  0.000  0.000
   37  0.000  0.000  0.000  0.000
   38  0.000  0.000  0.000  0.000
   39  0.000  0.000  0.000  0.000
tot    0.000  0.000  0.977  0.977

band    18 # energy  -16.68753887 # occ.  2.00000000

ion      s      p      d    tot
    1  0.000  0.000  0.000  0.000
    2  0.000  0.000  0.000  0.000
    3  0.000  0.000  0.000  0.000
    4  0.000  0.000  0.000  0.000
    5  0.000  0.000  0.000  0.000
    6  0.000  0.000  0.000  0.000
    7  0.000  0.000  0.000  0.000
    8  0.000  0.000  0.003  0.003
    9  0.000  0.000  0.486  0.486
   10  0.000  0.000  0.000  0.000
   11  0.000  0.000  0.485  0.485
   12  0.000  0.000  0.000  0.000
   13  0.000  0.000  0.000  0.000
   14  0.000  0.000  0.003  0.003
   15  0.000  0.000  0.000  0.000
   16  0.000  0.000  0.000  0.000
   17  0.000  0.000  0.000  0.000
   18  0.000  0.000  0.000  0.000
   19  0.000  0.000  0.000  0.000
   20  0.000  0.000  0.000  0.000
   21  0.000  0.000  0.000  0.000
   22  0.000  0.000  0.000  0.000
   23  0.000  0.000  0.000  0.000
   24  0.000  0.000  0.000  0.000
   25  0.000  0.000  0.000  0.000
   26  0.000  0.000  0.000  0.000
   27  0.000  0.000  0.000  0.000
   28  0.000  0.000  0.000  0.000
   29  0.000  0.000  0.000  0.000
   30  0.000  0.000  0.000  0.000
   31  0.000  0.000  0.000  0.000
   32  0.000  0.000  0.000  0.000
   33  0.000  0.000  0.000  0.000
   34  0.000  0.000  0.000  0.000
   35  0.000  0.000  0.000  0.000
   36  0.000  0.000  0.000  0.000
   37  0.000  0.000  0.000  0.000
   38  0.000  0.000  0.000  0.000
   39  0.000  0.000  0.000  0.000
tot    0.001  0.000  0.976  0.977

band    19 # energy  -16.68578174 # occ.  2.00000000

ion      s      p      d    tot
    1  0.000  0.000  0.000  0.000
    2  0.000  0.000  0.000  0.000
    3  0.000  0.000  0.000  0.000
    4  0.000  0.000  0.000  0.000
    5  0.000  0.000  0.000  0.000
    6  0.000  0.000  0.000  0.000
    7  0.000  0.000  0.000  0.000
    8  0.000  0.000  0.003  0.003
    9  0.000  0.000  0.485  0.485
   10  0.000  0.000  0.000  0.000
   11  0.000  0.000  0.486  0.486
   12  0.000  0.000  0.000  0.000
   13  0.000  0.000  0.000  0.000
   14  0.000  0.000  0.003  0.003
   15  0.000  0.000  0.000  0.000
   16  0.000  0.000  0.000  0.000
   17  0.000  0.000  0.000  0.000
   18  0.000  0.000  0.000  0.000
   19  0.000  0.000  0.000  0.000
   20  0.000  0.000  0.000  0.000
   21  0.000  0.000  0.000  0.000
   22  0.000  0.000  0.000  0.000
   23  0.000  0.000  0.000  0.000
   24  0.000  0.000  0.000  0.000
   25  0.000  0.000  0.000  0.000
   26  0.000  0.000  0.000  0.000
   27  0.000  0.000  0.000  0.000
   28  0.000  0.000  0.000  0.000
   29  0.000  0.000  0.000  0.000
   30  0.000  0.000  0.000  0.000
   31  0.000  0.000  0.000  0.000
   32  0.000  0.000  0.000  0.000
   33  0.000  0.000  0.000  0.000
   34  0.000  0.000  0.000  0.000
   35  0.000  0.000  0.000  0.000
   36  0.000  0.000  0.000  0.000
   37  0.000  0.000  0.000  0.000
   38  0.000  0.000  0.000  0.000
   39  0.000  0.000  0.000  0.000
tot    0.000  0.000  0.977  0.978

band    20 # energy  -16.68341518 # occ.  2.00000000

ion      s      p      d    tot
    1  0.000  0.000  0.000  0.000
    2  0.000  0.000  0.000  0.000
    3  0.000  0.000  0.000  0.000
    4  0.000  0.000  0.000  0.000
    5  0.000  0.000  0.000  0.000
    6  0.000  0.000  0.000  0.000
    7  0.000  0.000  0.000  0.000
    8  0.000  0.000  0.420  0.420
    9  0.000  0.000  0.000  0.000
   10  0.000  0.000  0.000  0.000
   11  0.000  0.000  0.001  0.001
   12  0.000  0.000  0.000  0.000
   13  0.000  0.000  0.000  0.000
   14  0.000  0.000  0.556  0.556
   15  0.000  0.000  0.000  0.000
   16  0.000  0.000  0.000  0.000
   17  0.000  0.000  0.000  0.000
   18  0.000  0.000  0.000  0.000
   19  0.000  0.000  0.000  0.000
   20  0.000  0.000  0.000  0.000
   21  0.000  0.000  0.000  0.000
   22  0.000  0.000  0.000  0.000
   23  0.000  0.000  0.000  0.000
   24  0.000  0.000  0.000  0.000
   25  0.000  0.000  0.000  0.000
   26  0.000  0.000  0.000  0.000
   27  0.000  0.000  0.000  0.000
   28  0.000  0.000  0.000  0.000
   29  0.000  0.000  0.000  0.000
   30  0.000  0.000  0.000  0.000
   31  0.000  0.000  0.000  0.000
   32  0.000  0.000  0.000  0.000
   33  0.000  0.000  0.000  0.000
   34  0.000  0.000  0.000  0.000
   35  0.000  0.000  0.000  0.000
   36  0.000  0.000  0.000  0.000
   37  0.000  0.000  0.000  0.000
   38  0.000  0.000  0.000  0.000
   39  0.000  0.000  0.000  0.000
tot    0.000  0.000  0.977  0.978

band    21 # energy  -16.68284128 # occ.  2.00000000

ion      s      p      d    tot
    1  0.000  0.000  0.000  0.000
    2  0.000  0.000  0.000  0.000
    3  0.000  0.000  0.000  0.000
    4  0.000  0.000  0.000  0.000
    5  0.000  0.000  0.000  0.000
    6  0.000  0.000  0.000  0.000
    7  0.000  0.000  0.000  0.000
    8  0.000  0.000  0.556  0.556
    9  0.000  0.000  0.001  0.001
   10  0.000  0.000  0.000  0.000
   11  0.000  0.000  0.001  0.001
   12  0.000  0.000  0.000  0.000
   13  0.000  0.000  0.000  0.000
   14  0.000  0.000  0.419  0.419
   15  0.000  0.000  0.000  0.000
   16  0.000  0.000  0.000  0.000
   17  0.000  0.000  0.000  0.000
   18  0.000  0.000  0.000  0.000
   19  0.000  0.000  0.000  0.000
   20  0.000  0.000  0.000  0.000
   21  0.000  0.000  0.000  0.000
   22  0.000  0.000  0.000  0.000
   23  0.000  0.000  0.000  0.000