 running on   64 total cores
 distrk:  each k-point on   64 cores,    1 groups
 distr:  one band on    8 cores,    8 groups
 using from now: INCAR     
 vasp.5.4.4.18Apr17-6-g9f103f2a35 (build Jun 22 2020 09:27:21) complex           
 POSCAR found type information on POSCAR  Cs Pb Br Cs
 POSCAR found :  4 types and      39 ions
 scaLAPACK will be used
 LDA part: xc-table for Pade appr. of Perdew
 POSCAR found type information on POSCAR  Cs Pb Br Cs
 POSCAR found :  4 types and      39 ions
 POSCAR, INCAR and KPOINTS ok, starting setup
 FFT: planning ...
 WAVECAR not read
 entering main loop
       N       E                     dE             d eps       ncg     rms          rms(c)
DAV:   1     0.136096867536E+04    0.13610E+04   -0.11066E+05  3488   0.971E+02
DAV:   2    -0.108898203682E+04   -0.24500E+04   -0.23646E+04  4112   0.299E+02
DAV:   3    -0.145188352841E+04   -0.36290E+03   -0.36091E+03  4408   0.137E+02
DAV:   4    -0.146423451980E+04   -0.12351E+02   -0.12317E+02  3928   0.334E+01
DAV:   5    -0.146481183372E+04   -0.57731E+00   -0.57705E+00  4376   0.559E+00BRMIX: very serious problems
 the old and the new charge density differ
 old charge density:   343.00000 new  344.00000
    0.106E+01
DAV:   6    -0.138582574853E+04    0.78986E+02   -0.23344E+01  4312   0.324E+01    0.732E+00
DAV:   7    -0.138541379718E+04    0.41195E+00   -0.93269E+00  4128   0.580E+00    0.379E+00
DAV:   8    -0.138559548001E+04   -0.18168E+00   -0.40713E-01  3920   0.199E+00    0.222E+00
DAV:   9    -0.138568134334E+04   -0.85863E-01   -0.16249E-01  3616   0.132E+00    0.448E-01
DAV:  10    -0.138568369847E+04   -0.23551E-02   -0.14432E-02  4760   0.385E-01    0.283E-01
DAV:  11    -0.138568699013E+04   -0.32917E-02   -0.27069E-03  3744   0.157E-01    0.112E-01
DAV:  12    -0.138568952036E+04   -0.25302E-02   -0.25491E-03  3608   0.119E-01    0.703E-02
DAV:  13    -0.138568933324E+04    0.18712E-03   -0.95227E-04  4488   0.911E-02    0.288E-02
DAV:  14    -0.138568931371E+04    0.19527E-04   -0.17186E-04  3688   0.250E-02    0.186E-02
DAV:  15    -0.138568933208E+04   -0.18370E-04   -0.24139E-05  3528   0.115E-02    0.106E-02
DAV:  16    -0.138568939766E+04   -0.65572E-04   -0.26277E-05  3608   0.138E-02    0.526E-03
DAV:  17    -0.138568938971E+04    0.79420E-05   -0.48495E-06  3488   0.510E-03    0.300E-03
DAV:  18    -0.138568939029E+04   -0.57356E-06   -0.68630E-07  2144   0.205E-03
   1 F= -.13856894E+04 E0= -.13856894E+04  d E =-.475987E-13
Application 1923567 resources: utime ~28227s, stime ~121s, Rss ~78668, inblocks ~1752, outblocks ~111104
