<?xml version="1.0" encoding="ISO-8859-1"?>
<modeling>
 <generator>
  <i name="program" type="string">vasp </i>
  <i name="version" type="string">5.4.4.18Apr17-6-g9f103f2a35  </i>
  <i name="subversion" type="string">(build Jun 22 2020 09:27:21) complex            parallel </i>
  <i name="platform" type="string">tx2_gcc-7.3_libsci-18.07_cray-fftw-3.3.8 </i>
  <i name="date" type="string">2021 10 12 </i>
  <i name="time" type="string">05:52:04 </i>
 </generator>
 <incar>
  <i type="string" name="SYSTEM"> CsPbBr3 cubic bulk</i>
  <i type="string" name="PREC">accurate</i>
  <i type="string" name="ALGO"> NORMAL   ! Electronic minimisation algo</i>
  <i type="logical" name="ADDGRID"> T  </i>
  <i type="int" name="ISPIN">     1</i>
  <i type="int" name="NELM">   200</i>
  <i type="int" name="IBRION">     2</i>
  <i name="EDIFF">      0.00000100</i>
  <i name="EDIFFG">     -0.01000000</i>
  <i type="int" name="NSW">     0</i>
  <i type="int" name="ISIF">     2</i>
  <i type="int" name="ISYM">     0</i>
  <i name="ENCUT">    300.00000000</i>
  <i name="POTIM">      0.50000000</i>
  <i name="NUPDOWN">      0.00000000</i>
  <i name="NELECT">    344.00000000</i>
  <i type="string" name="LREAL"> AUTO</i>
  <i type="int" name="ISMEAR">     0</i>
  <i name="SIGMA">      0.01000000</i>
  <i type="logical" name="LWAVE"> F  </i>
  <i type="logical" name="LCHARG"> F  </i>
  <i type="logical" name="LVHAR"> T  </i>
  <i type="int" name="LORBIT">    10</i>
  <i type="logical" name="LASPH"> T  </i>
  <v type="int" name="KPOINT_BSE">    -1     0     0     0</v>
  <i type="int" name="NELM">   200</i>
  <i type="string" name="METAGGA"> SCAN       ! PBE exchange-correlation</i>
  <i type="logical" name="LASPH"> T  </i>
 </incar>
 <structure name="primitive_cell" >
  <crystal>
   <varray name="basis" >
    <v>       8.42001800       0.00000000       8.07798100 </v>
    <v>       0.00000000      11.76380800       0.00000000 </v>
    <v>      -8.42001800       0.00000000       8.07798100 </v>
   </varray>
   <i name="volume">   1600.27186790 </i>
   <varray name="rec_basis" >
    <v>       0.05938230      -0.00000000       0.06189665 </v>
    <v>       0.00000000       0.08500649      -0.00000000 </v>
    <v>      -0.05938230       0.00000000       0.06189665 </v>
   </varray>
  </crystal>
  <varray name="positions" >
   <v>       0.26567700       0.24999600       0.20697100 </v>
   <v>       0.03813800       0.04917200       0.25252400 </v>
   <v>       0.03814000       0.45082500       0.25252600 </v>
   <v>       0.45759000       0.00053500       0.24380000 </v>
   <v>       0.45758800       0.49946100       0.24379700 </v>
   <v>       0.46191000       0.25000800       0.48213800 </v>
   <v>       0.24717500       0.03662100      -0.04704400 </v>
   <v>       0.24717500       0.46337700      -0.04704200 </v>
   <v>      -0.46382300       0.24999300       0.00883900 </v>
   <v>      -0.04124400       0.25000400      -0.02724600 </v>
   <v>      -0.49925100      -0.49963100      -0.00517800 </v>
   <v>      -0.49924800      -0.00038000      -0.00518400 </v>
   <v>      -0.00315600      -0.49755200       0.00335200 </v>
   <v>      -0.00315000      -0.00246600       0.00334700 </v>
   <v>       0.03296200       0.25000100      -0.45389200 </v>
   <v>      -0.49767000       0.00028300       0.49854800 </v>
   <v>      -0.49766100       0.49972500       0.49854700 </v>
   <v>       0.25402300      -0.02344200      -0.44165500 </v>
   <v>       0.25402400      -0.47654900      -0.44165500 </v>
   <v>       0.00169800      -0.00020100       0.49827900 </v>
   <v>       0.00170000      -0.49980200       0.49828100 </v>
   <v>       0.28915900       0.25000300      -0.26625600 </v>
   <v>      -0.22529900       0.25000300       0.22568200 </v>
   <v>       0.47019600      -0.25000100       0.26655400 </v>
   <v>      -0.25046500       0.04814400       0.46036400 </v>
   <v>      -0.25046800       0.45186200       0.46035900 </v>
   <v>       0.04338500      -0.25000200       0.02514400 </v>
   <v>      -0.25067800      -0.04129300       0.04926000 </v>
   <v>      -0.25067600      -0.45871200       0.04925500 </v>
   <v>      -0.44322700       0.02949300      -0.25150900 </v>
   <v>      -0.44322600       0.47051000      -0.25151000 </v>
   <v>       0.46445800      -0.25000800      -0.05640500 </v>
   <v>      -0.04946600      -0.02896000      -0.24966400 </v>
   <v>      -0.04946800      -0.47103500      -0.24966700 </v>
   <v>      -0.03005900      -0.24999800       0.48660100 </v>
   <v>      -0.46160600      -0.24998700      -0.46521200 </v>
   <v>       0.19988400      -0.24999900      -0.23847800 </v>
   <v>      -0.22711600       0.25000200      -0.28663200 </v>
   <v>      -0.26420200      -0.24999900      -0.21154900 </v>
  </varray>
 </structure>
 <varray name="primitive_index" >
  <v type="int" >        1 </v>
  <v type="int" >       28 </v>
  <v type="int" >       38 </v>
  <v type="int" >       33 </v>
  <v type="int" >       25 </v>
  <v type="int" >       18 </v>
  <v type="int" >       31 </v>
  <v type="int" >       23 </v>
  <v type="int" >       21 </v>
  <v type="int" >       17 </v>
  <v type="int" >       11 </v>
  <v type="int" >        9 </v>
  <v type="int" >       13 </v>
  <v type="int" >        7 </v>
  <v type="int" >       22 </v>
  <v type="int" >        8 </v>
  <v type="int" >       14 </v>
  <v type="int" >       30 </v>
  <v type="int" >       36 </v>
  <v type="int" >       10 </v>
  <v type="int" >       12 </v>
  <v type="int" >        4 </v>
  <v type="int" >        5 </v>
  <v type="int" >       39 </v>
  <v type="int" >       32 </v>
  <v type="int" >       24 </v>
  <v type="int" >       19 </v>
  <v type="int" >       29 </v>
  <v type="int" >       35 </v>
  <v type="int" >       27 </v>
  <v type="int" >       37 </v>
  <v type="int" >       15 </v>
  <v type="int" >       34 </v>
  <v type="int" >       26 </v>
  <v type="int" >       16 </v>
  <v type="int" >       20 </v>
  <v type="int" >        3 </v>
  <v type="int" >        2 </v>
  <v type="int" >        6 </v>
 </varray>
 <kpoints>
  <generation param="Gamma">
   <v type="int" name="divisions">       2        2        2 </v>
   <v name="usershift">      0.00000000       0.00000000       0.00000000 </v>
   <v name="genvec1">      0.50000000       0.00000000       0.00000000 </v>
   <v name="genvec2">      0.00000000       0.50000000       0.00000000 </v>
   <v name="genvec3">      0.00000000       0.00000000       0.50000000 </v>
   <v name="shift">      0.00000000       0.00000000       0.00000000 </v>
  </generation>
  <varray name="kpointlist" >
   <v>       0.00000000       0.00000000       0.00000000 </v>
   <v>       0.50000000       0.00000000       0.00000000 </v>
   <v>       0.00000000       0.50000000       0.00000000 </v>
   <v>       0.50000000       0.50000000       0.00000000 </v>
   <v>       0.00000000       0.00000000       0.50000000 </v>
   <v>       0.50000000       0.00000000       0.50000000 </v>
   <v>       0.00000000       0.50000000       0.50000000 </v>
   <v>       0.50000000       0.50000000       0.50000000 </v>
  </varray>
  <varray name="weights" >
   <v>       0.12500000 </v>
   <v>       0.12500000 </v>
   <v>       0.12500000 </v>
   <v>       0.12500000 </v>
   <v>       0.12500000 </v>
   <v>       0.12500000 </v>
   <v>       0.12500000 </v>
   <v>       0.12500000 </v>
  </varray>
 </kpoints>
 <parameters>
  <separator name="general" >
   <i type="string" name="SYSTEM">CsPbBr3 cubic bulk</i>
   <i type="logical" name="LCOMPAT"> F  </i>
  </separator>
  <separator name="electronic" >
   <i type="string" name="PREC">accura</i>
   <i name="ENMAX">    300.00000000</i>
   <i name="ENAUG">    503.85200000</i>
   <i name="EDIFF">      0.00000100</i>
   <i type="int" name="IALGO">    38</i>
   <i type="int" name="IWAVPR">    10</i>
   <i type="int" name="NBANDS">   208</i>
   <i name="NELECT">    344.00000000</i>
   <i type="int" name="TURBO">     0</i>
   <i type="int" name="IRESTART">     0</i>
   <i type="int" name="NREBOOT">     0</i>
   <i type="int" name="NMIN">     0</i>
   <i name="EREF">      0.00000000</i>
   <separator name="electronic smearing" >
    <i type="int" name="ISMEAR">     0</i>
    <i name="SIGMA">      0.01000000</i>
    <i name="KSPACING">      0.50000000</i>
    <i type="logical" name="KGAMMA"> T  </i>
   </separator>
   <separator name="electronic projectors" >
    <i type="logical" name="LREAL"> T  </i>
    <v name="ROPT">     -0.00025000     -0.00025000     -0.00025000     -0.00025000</v>
    <i type="int" name="LMAXPAW">  -100</i>
    <i type="int" name="LMAXMIX">     2</i>
    <i type="logical" name="NLSPLINE"> F  </i>
   </separator>
   <separator name="electronic startup" >
    <i type="int" name="ISTART">     0</i>
    <i type="int" name="ICHARG">     2</i>
    <i type="int" name="INIWAV">     1</i>
   </separator>
   <separator name="electronic spin" >
    <i type="int" name="ISPIN">     1</i>
    <i type="logical" name="LNONCOLLINEAR"> F  </i>
    <v name="MAGMOM">      0.00000000      0.00000000      0.00000000      0.00000000      0.00000000      0.00000000      0.00000000      0.00000000      0.00000000      0.00000000      0.00000000      0.00000000      0.00000000      0.00000000      0.00000000      0.00000000      0.00000000      0.00000000      0.00000000      0.00000000
      0.00000000      0.00000000      0.00000000      0.00000000      0.00000000      0.00000000      0.00000000      0.00000000      0.00000000      0.00000000      0.00000000      0.00000000      0.00000000      0.00000000      0.00000000      0.00000000      0.00000000      0.00000000      0.00000000</v>
    <i name="NUPDOWN">      0.00000000</i>
    <i type="logical" name="LSORBIT"> F  </i>
    <v name="SAXIS">      0.00000000      0.00000000      1.00000000</v>
    <i type="logical" name="LSPIRAL"> F  </i>
    <v name="QSPIRAL">      0.00000000      0.00000000      0.00000000</v>
    <i type="logical" name="LZEROZ"> F  </i>
   </separator>
   <separator name="electronic exchange-correlation" >
    <i type="logical" name="LASPH"> T  </i>
    <i type="logical" name="LMETAGGA"> F  </i>
   </separator>
   <separator name="electronic convergence" >
    <i type="int" name="NELM">   200</i>
    <i type="int" name="NELMDL">    -5</i>
    <i type="int" name="NELMIN">     2</i>
    <i name="ENINI">    300.00000000</i>
    <separator name="electronic convergence detail" >
     <i type="logical" name="LDIAG"> T  </i>
     <i type="logical" name="LSUBROT"> F  </i>
     <i name="WEIMIN">      0.00000000</i>
     <i name="EBREAK">      0.00000000</i>
     <i name="DEPER">      0.30000000</i>
     <i type="int" name="NRMM">     4</i>
     <i name="TIME">      0.40000000</i>
    </separator>
   </separator>
   <separator name="electronic mixer" >
    <i name="AMIX">      0.40000000</i>
    <i name="BMIX">      1.00000000</i>
    <i name="AMIN">      0.10000000</i>
    <i name="AMIX_MAG">      1.60000000</i>
    <i name="BMIX_MAG">      1.00000000</i>
    <separator name="electronic mixer details" >
     <i type="int" name="IMIX">     4</i>
     <i type="logical" name="MIXFIRST"> F  </i>
     <i type="int" name="MAXMIX">   -45</i>
     <i name="WC">    100.00000000</i>
     <i type="int" name="INIMIX">     1</i>
     <i type="int" name="MIXPRE">     1</i>
     <i type="int" name="MREMOVE">     5</i>
    </separator>
   </separator>
   <separator name="electronic dipolcorrection" >
    <i type="logical" name="LDIPOL"> F  </i>
    <i type="logical" name="LMONO"> F  </i>
    <i type="int" name="IDIPOL">     0</i>
    <i name="EPSILON">      1.00000000</i>
    <v name="DIPOL">   -100.00000000   -100.00000000   -100.00000000</v>
    <i name="EFIELD">      0.00000000</i>
   </separator>
  </separator>
  <separator name="grids" >
   <i type="int" name="NGX">    70</i>
   <i type="int" name="NGY">    70</i>
   <i type="int" name="NGZ">    70</i>
   <i type="int" name="NGXF">   140</i>
   <i type="int" name="NGYF">   140</i>
   <i type="int" name="NGZF">   140</i>
   <i type="logical" name="ADDGRID"> T  </i>
  </separator>
  <separator name="ionic" >
   <i type="int" name="NSW">     0</i>
   <i type="int" name="IBRION">    -1</i>
   <i type="int" name="MDALGO">     0</i>
   <i type="int" name="ISIF">     2</i>
   <i name="PSTRESS">      0.00000000</i>
   <i name="EDIFFG">     -0.01000000</i>
   <i type="int" name="NFREE">     1</i>
   <i name="POTIM">      0.50000000</i>
   <i name="SMASS">     -3.00000000</i>
   <i name="SCALEE">      1.00000000</i>
  </separator>
  <separator name="ionic md" >
   <i name="TEBEG">      0.00010000</i>
   <i name="TEEND">      0.00010000</i>
   <i type="int" name="NBLOCK">     1</i>
   <i type="int" name="KBLOCK">     1</i>
   <i type="int" name="NPACO">   256</i>
   <i name="APACO">     16.00000000</i>
  </separator>
  <separator name="symmetry" >
   <i type="int" name="ISYM">     0</i>
   <i name="SYMPREC">      0.00001000</i>
  </separator>
  <separator name="dos" >
   <i type="int" name="LORBIT">    10</i>
   <v name="RWIGS">     -1.00000000     -1.00000000     -1.00000000     -1.00000000</v>
   <i type="int" name="NEDOS">   301</i>
   <i name="EMIN">     10.00000000</i>
   <i name="EMAX">    -10.00000000</i>
   <i name="EFERMI">      0.00000000</i>
  </separator>
  <separator name="writing" >
   <i type="int" name="NWRITE">     2</i>
   <i type="logical" name="LWAVE"> F  </i>
   <i type="logical" name="LDOWNSAMPLE"> F  </i>
   <i type="logical" name="LCHARG"> F  </i>
   <i type="logical" name="LPARD"> F  </i>
   <i type="logical" name="LVTOT"> F  </i>
   <i type="logical" name="LVHAR"> T  </i>
   <i type="logical" name="LELF"> F  </i>
   <i type="logical" name="LOPTICS"> F  </i>
   <v name="STM">      0.00000000      0.00000000      0.00000000      0.00000000      0.00000000      0.00000000      0.00000000</v>
  </separator>
  <separator name="performance" >
   <i type="int" name="NPAR">     8</i>
   <i type="int" name="NSIM">     4</i>
   <i type="int" name="NBLK">    -1</i>
   <i type="logical" name="LPLANE"> T  </i>
   <i type="logical" name="LSCALAPACK"> T  </i>
   <i type="logical" name="LSCAAWARE"> F  </i>
   <i type="logical" name="LSCALU"> F  </i>
   <i type="logical" name="LASYNC"> F  </i>
   <i type="logical" name="LORBITALREAL"> F  </i>
  </separator>
  <separator name="miscellaneous" >
   <i type="int" name="IDIOT">     3</i>
   <i type="int" name="ISPECIAL">     0</i>
   <i type="logical" name="LMUSIC"> F  </i>
   <v name="POMASS">    132.90000000    207.20000000     79.90400000    132.90000000</v>
   <v name="DARWINR">      0.00000000      0.00000000      0.00000000      0.00000000</v>
   <v name="DARWINV">      1.00000000      1.00000000      1.00000000      1.00000000</v>
   <i type="logical" name="LCORR"> T  </i>
  </separator>
  <i type="logical" name="GGA_COMPAT"> T  </i>
  <i type="logical" name="LBERRY"> F  </i>
  <i type="int" name="ICORELEVEL">     0</i>
  <i type="logical" name="LDAU"> F  </i>
  <i type="int" name="I_CONSTRAINED_M">     0</i>
  <separator name="electronic exchange-correlation" >
   <i type="string" name="GGA">--</i>
   <i type="int" name="VOSKOWN">     0</i>
   <i type="logical" name="LHFCALC"> F  </i>
   <i type="string" name="PRECFOCK"></i>
   <i type="logical" name="LSYMGRAD"> F  </i>
   <i type="logical" name="LHFONE"> F  </i>
   <i type="logical" name="LRHFCALC"> F  </i>
   <i type="logical" name="LTHOMAS"> F  </i>
   <i type="logical" name="LMODELHF"> F  </i>
   <i name="ENCUT4O">     -1.00000000</i>
   <i type="int" name="EXXOEP">     0</i>
   <i type="int" name="FOURORBIT">     0</i>
   <i name="AEXX">      0.00000000</i>
   <i name="HFALPHA">      0.00000000</i>
   <i name="MCALPHA">      0.00000000</i>
   <i name="ALDAX">      1.00000000</i>
   <i name="AGGAX">      1.00000000</i>
   <i name="ALDAC">      1.00000000</i>
   <i name="AGGAC">      1.00000000</i>
   <i type="int" name="NKREDX">     1</i>
   <i type="int" name="NKREDY">     1</i>
   <i type="int" name="NKREDZ">     1</i>
   <i type="logical" name="SHIFTRED"> F  </i>
   <i type="logical" name="ODDONLY"> F  </i>
   <i type="logical" name="EVENONLY"> F  </i>
   <i type="int" name="LMAXFOCK">     0</i>
   <i type="int" name="NMAXFOCKAE">     0</i>
   <i type="logical" name="LFOCKAEDFT"> F  </i>
   <i name="HFSCREEN">      0.00000000</i>
   <i name="HFSCREENC">      0.00000000</i>
   <i type="int" name="NBANDSGWLOW">     0</i>
  </separator>
  <separator name="vdW DFT" >
   <i type="logical" name="LUSE_VDW"> F  </i>
   <i name="Zab_VDW">     -0.84910000</i>
   <i name="PARAM1">      0.12340000</i>
   <i name="PARAM2">      1.00000000</i>
   <i name="PARAM3">      0.00000000</i>
  </separator>
  <separator name="model GW" >
   <i type="int" name="MODEL_GW">     0</i>
   <i name="MODEL_EPS0">     24.61956720</i>
   <i name="MODEL_ALPHA">      1.00000000</i>
  </separator>
  <separator name="linear response parameters" >
   <i type="logical" name="LEPSILON"> F  </i>
   <i type="logical" name="LRPA"> F  </i>
   <i type="logical" name="LNABLA"> F  </i>
   <i type="logical" name="LVEL"> F  </i>
   <i type="int" name="KINTER">     0</i>
   <i name="CSHIFT">      0.10000000</i>
   <i name="OMEGAMAX">     -1.00000000</i>
   <i name="DEG_THRESHOLD">      0.00200000</i>
   <i name="RTIME">     -0.10000000</i>
   <i name="WPLASMAI">      0.00000000</i>
   <v name="DFIELD">      0.00000000      0.00000000      0.00000000</v>
   <v name="WPLASMA">      0.00000000      0.00000000      0.00000000      0.00000000      0.00000000      0.00000000      0.00000000      0.00000000      0.00000000</v>
  </separator>
  <separator name="orbital magnetization" >
   <i type="logical" name="NUCIND"> F  </i>
   <v name="MAGPOS">      0.00000000      0.00000000      0.00000000</v>
   <i type="logical" name="LNICSALL"> T  </i>
   <i type="logical" name="ORBITALMAG"> F  </i>
   <i type="logical" name="LMAGBLOCH"> F  </i>
   <i type="logical" name="LCHIMAG"> F  </i>
   <i type="logical" name="LGAUGE"> T  </i>
   <i type="int" name="MAGATOM">     0</i>
   <v name="MAGDIPOL">      0.00000000      0.00000000      0.00000000</v>
   <v name="AVECCONST">      0.00000000      0.00000000      0.00000000</v>
  </separator>
  <separator name="response functions" >
   <i type="logical" name="LADDER"> F  </i>
   <i type="logical" name="LRPAFORCE"> F  </i>
   <i type="logical" name="LFXC"> F  </i>
   <i type="logical" name="LHARTREE"> T  </i>
   <i type="int" name="IBSE">     0</i>
   <v type="int" name="KPOINT">    -1     0     0     0</v>
   <i type="logical" name="LTCTE"> F  </i>
   <i type="logical" name="LTETE"> F  </i>
   <i type="logical" name="LTRIPLET"> F  </i>
   <i type="logical" name="LFXCEPS"> F  </i>
   <i type="logical" name="LFXHEG"> F  </i>
   <i type="int" name="NATURALO">     2</i>
   <i type="logical" name="L2ORDER"> F  </i>
   <i type="logical" name="LMP2LT"> F  </i>
   <i type="logical" name="LUSEW"> F  </i>
   <i name="ENCUTGW">     -2.00000000</i>
   <i name="ENCUTGWSOFT">     -2.00000000</i>
   <i name="ENCUTLF">     -1.00000000</i>
   <i type="int" name="LMAXMP2">    -1</i>
   <i name="SCISSOR">      0.00000000</i>
   <i type="int" name="NOMEGA">     0</i>
   <i type="int" name="NOMEGAR">     0</i>
   <i type="int" name="NBANDSGW">    -1</i>
   <i type="int" name="NBANDSO">    -1</i>
   <i type="int" name="NBANDSV">    -1</i>
   <i type="int" name="NELM">   200</i>
   <i type="int" name="NELMHF">     1</i>
   <i type="int" name="DIM">     3</i>
   <i type="int" name="ANTIRES">     0</i>
   <i name="OMEGAMAX">    -30.00000000</i>
   <i name="OMEGAMIN">    -30.00000000</i>
   <i name="OMEGATL">   -200.00000000</i>
   <i type="int" name="OMEGAGRID">   140</i>
   <i name="CSHIFT">     -0.10000000</i>
   <i type="logical" name="SELFENERGY"> F  </i>
   <i type="logical" name="LSPECTRAL"> F  </i>
   <i type="logical" name="LSPECTRALGW"> F  </i>
   <i type="logical" name="LSINGLES"> F  </i>
   <i type="logical" name="LFERMIGW"> F  </i>
   <i type="logical" name="ODDONLYGW"> F  </i>
   <i type="logical" name="EVENONLYGW"> F  </i>
   <i type="int" name="NKREDLFX">     1</i>
   <i type="int" name="NKREDLFY">     1</i>
   <i type="int" name="NKREDLFZ">     1</i>
   <i type="int" name="MAXMEM">  2800</i>
   <i type="int" name="TELESCOPE">     0</i>
   <i type="int" name="TAUPAR">     1</i>
   <i type="int" name="OMEGAPAR">    -1</i>
   <i name="LAMBDA">      1.00000000</i>
  </separator>
  <separator name="External order field" >
   <i name="OFIELD_KAPPA">      0.00000000</i>
   <v name="OFIELD_K">      0.00000000      0.00000000      0.00000000</v>
   <i name="OFIELD_Q6_NEAR">      0.00000000</i>
   <i name="OFIELD_Q6_FAR">      0.00000000</i>
   <i name="OFIELD_A">      0.00000000</i>
  </separator>
 </parameters>
 <atominfo>
  <atoms>      39 </atoms>
  <types>       4 </types>
  <array name="atoms" >
   <dimension dim="1">ion</dimension>
   <field type="string">element</field>
   <field type="int">atomtype</field>
   <set>
    <rc><c>Cs</c><c>   1</c></rc>
    <rc><c>Cs</c><c>   1</c></rc>
    <rc><c>Cs</c><c>   1</c></rc>
    <rc><c>Cs</c><c>   1</c></rc>
    <rc><c>Cs</c><c>   1</c></rc>
    <rc><c>Cs</c><c>   1</c></rc>
    <rc><c>Pb</c><c>   2</c></rc>
    <rc><c>Pb</c><c>   2</c></rc>
    <rc><c>Pb</c><c>   2</c></rc>
    <rc><c>Pb</c><c>   2</c></rc>
    <rc><c>Pb</c><c>   2</c></rc>
    <rc><c>Pb</c><c>   2</c></rc>
    <rc><c>Pb</c><c>   2</c></rc>
    <rc><c>Pb</c><c>   2</c></rc>
    <rc><c>Br</c><c>   3</c></rc>
    <rc><c>Br</c><c>   3</c></rc>
    <rc><c>Br</c><c>   3</c></rc>
    <rc><c>Br</c><c>   3</c></rc>
    <rc><c>Br</c><c>   3</c></rc>
    <rc><c>Br</c><c>   3</c></rc>
    <rc><c>Br</c><c>   3</c></rc>
    <rc><c>Br</c><c>   3</c></rc>
    <rc><c>Br</c><c>   3</c></rc>
    <rc><c>Br</c><c>   3</c></rc>
    <rc><c>Br</c><c>   3</c></rc>
    <rc><c>Br</c><c>   3</c></rc>
    <rc><c>Br</c><c>   3</c></rc>
    <rc><c>Br</c><c>   3</c></rc>
    <rc><c>Br</c><c>   3</c></rc>
    <rc><c>Br</c><c>   3</c></rc>
    <rc><c>Br</c><c>   3</c></rc>
    <rc><c>Br</c><c>   3</c></rc>
    <rc><c>Br</c><c>   3</c></rc>
    <rc><c>Br</c><c>   3</c></rc>
    <rc><c>Br</c><c>   3</c></rc>
    <rc><c>Br</c><c>   3</c></rc>
    <rc><c>Br</c><c>   3</c></rc>
    <rc><c>Br</c><c>   3</c></rc>
    <rc><c>Cs</c><c>   4</c></rc>
   </set>
  </array>
  <array name="atomtypes" >
   <dimension dim="1">type</dimension>
   <field type="int">atomspertype</field>
   <field type="string">element</field>
   <field>mass</field>
   <field>valence</field>
   <field type="string">pseudopotential</field>
   <set>
    <rc><c>   6</c><c>Cs</c><c>    132.90000000</c><c>      9.00000000</c><c>  PAW_PBE Cs_sv 08Apr2002               </c></rc>
    <rc><c>   8</c><c>Pb</c><c>    207.20000000</c><c>     14.00000000</c><c>  PAW_PBE Pb_d 06Sep2000                </c></rc>
    <rc><c>  24</c><c>Br</c><c>     79.90400000</c><c>      7.00000000</c><c>  PAW_PBE Br 06Sep2000                  </c></rc>
    <rc><c>   1</c><c>Cs</c><c>    132.90000000</c><c>      9.00000000</c><c>  PAW_PBE Cs_sv 08Apr2002               </c></rc>
   </set>
  </array>
 </atominfo>
 <structure name="initialpos" >
  <crystal>
   <varray name="basis" >
    <v>       8.42001800       0.00000000       8.07798100 </v>
    <v>       0.00000000      11.76380800       0.00000000 </v>
    <v>      -8.42001800       0.00000000       8.07798100 </v>
   </varray>
   <i name="volume">   1600.27186790 </i>
   <varray name="rec_basis" >
    <v>       0.05938230      -0.00000000       0.06189665 </v>
    <v>       0.00000000       0.08500649      -0.00000000 </v>
    <v>      -0.05938230       0.00000000       0.06189665 </v>
   </varray>
  </crystal>
  <varray name="positions" >
   <v>       0.26567700       0.24999600       0.20697100 </v>
   <v>       0.77288400       0.25000200       0.71336800 </v>
   <v>       0.19988400       0.75000100       0.76152200 </v>
   <v>       0.28915900       0.25000300       0.73374400 </v>
   <v>       0.77470100       0.25000300       0.22568200 </v>
   <v>       0.73579800       0.75000100       0.78845100 </v>
   <v>       0.99685000       0.99753400       0.00334700 </v>
   <v>       0.50233000       0.00028300       0.49854800 </v>
   <v>       0.50075200       0.99962000       0.99481600 </v>
   <v>       0.00169800       0.99979900       0.49827900 </v>
   <v>       0.50074900       0.50036900       0.99482200 </v>
   <v>       0.00170000       0.50019800       0.49828100 </v>
   <v>       0.99684400       0.50244800       0.00335200 </v>
   <v>       0.50233900       0.49972500       0.49854700 </v>
   <v>       0.46445800       0.74999200       0.94359500 </v>
   <v>       0.96994100       0.75000200       0.48660100 </v>
   <v>       0.95875600       0.25000400       0.97275400 </v>
   <v>       0.46191000       0.25000800       0.48213800 </v>
   <v>       0.04338500       0.74999800       0.02514400 </v>
   <v>       0.53839400       0.75001300       0.53478800 </v>
   <v>       0.53617700       0.24999300       0.00883900 </v>
   <v>       0.03296200       0.25000100       0.54610800 </v>
   <v>       0.24717500       0.46337700       0.95295800 </v>
   <v>       0.74953200       0.45186200       0.46035900 </v>
   <v>       0.45758800       0.49946100       0.24379700 </v>
   <v>       0.95053200       0.52896500       0.75033300 </v>
   <v>       0.55677300       0.02949300       0.74849100 </v>
   <v>       0.03813800       0.04917200       0.25252400 </v>
   <v>       0.74932200       0.95870700       0.04926000 </v>
   <v>       0.25402300       0.97655800       0.55834500 </v>
   <v>       0.24717500       0.03662100       0.95295600 </v>
   <v>       0.74953500       0.04814400       0.46036400 </v>
   <v>       0.45759000       0.00053500       0.24380000 </v>
   <v>       0.95053400       0.97104000       0.75033600 </v>
   <v>       0.74932400       0.54128800       0.04925500 </v>
   <v>       0.25402400       0.52345100       0.55834500 </v>
   <v>       0.55677400       0.47051000       0.74849000 </v>
   <v>       0.03814000       0.45082500       0.25252600 </v>
   <v>       0.47019600       0.74999900       0.26655400 </v>
  </varray>
 </structure>
 <calculation>
  <scstep>
   <time name="dav">   16.64   16.65</time>
   <time name="total">   18.10   18.11</time>
   <energy>
    <i name="alphaZ">    835.99855037 </i>
    <i name="ewald"> -17361.01278701 </i>
    <i name="hartreedc">  -7762.17831620 </i>
    <i name="XCdc">    905.82375825 </i>
    <i name="pawpsdc">  21217.07306836 </i>
    <i name="pawaedc"> -22257.58625956 </i>
    <i name="eentropy">     -0.00173894 </i>
    <i name="bandstr">   -242.03122368 </i>
    <i name="atom">  26024.88362379 </i>
    <i name="e_fr_energy">   1360.96867536 </i>
    <i name="e_wo_entrp">   1360.97041431 </i>
    <i name="e_0_energy">   1360.96954484 </i>
   </energy>
  </scstep>
  <scstep>
   <time name="dav">   18.51   18.54</time>
   <time name="total">   18.51   18.54</time>
   <energy>
    <i name="e_fr_energy">  -1088.98203682 </i>
    <i name="e_wo_entrp">  -1088.98203682 </i>
    <i name="e_0_energy">  -1088.98203682 </i>
   </energy>
  </scstep>
  <scstep>
   <time name="dav">   19.33   19.38</time>
   <time name="total">   19.33   19.38</time>
   <energy>
    <i name="e_fr_energy">  -1451.88352841 </i>
    <i name="e_wo_entrp">  -1451.88352841 </i>
    <i name="e_0_energy">  -1451.88352841 </i>
   </energy>
  </scstep>
  <scstep>
   <time name="dav">   17.99   18.00</time>
   <time name="total">   17.99   18.00</time>
   <energy>
    <i name="e_fr_energy">  -1464.23451980 </i>
    <i name="e_wo_entrp">  -1464.23451980 </i>
    <i name="e_0_energy">  -1464.23451980 </i>
   </energy>
  </scstep>
  <scstep>
   <time name="dav">   19.28   19.29</time>
   <time name="total">   21.98   22.00</time>
   <energy>
    <i name="e_fr_energy">  -1464.81183372 </i>
    <i name="e_wo_entrp">  -1464.81183372 </i>
    <i name="e_0_energy">  -1464.81183372 </i>
   </energy>
  </scstep>
  <scstep>
   <time name="dav">   19.04   19.04</time>
   <time name="total">   23.23   23.25</time>
   <energy>
    <i name="e_fr_energy">  -1385.82574853 </i>
    <i name="e_wo_entrp">  -1385.82574853 </i>
    <i name="e_0_energy">  -1385.82574853 </i>
   </energy>
  </scstep>
  <scstep>
   <time name="dav">   18.50   18.50</time>
   <time name="total">   22.65   22.67</time>
   <energy>
    <i name="e_fr_energy">  -1385.41379718 </i>
    <i name="e_wo_entrp">  -1385.41379718 </i>
    <i name="e_0_energy">  -1385.41379718 </i>
   </energy>
  </scstep>
  <scstep>
   <time name="dav">   17.91   17.91</time>
   <time name="total">   22.09   22.10</time>
   <energy>
    <i name="e_fr_energy">  -1385.59548001 </i>
    <i name="e_wo_entrp">  -1385.59548001 </i>
    <i name="e_0_energy">  -1385.59548001 </i>
   </energy>
  </scstep>
  <scstep>
   <time name="dav">   17.02   17.02</time>
   <time name="total">   21.19   21.21</time>
   <energy>
    <i name="e_fr_energy">  -1385.68134334 </i>
    <i name="e_wo_entrp">  -1385.68134334 </i>
    <i name="e_0_energy">  -1385.68134334 </i>
   </energy>
  </scstep>
  <scstep>
   <time name="dav">   20.35   20.35</time>
   <time name="total">   24.49   24.53</time>
   <energy>
    <i name="e_fr_energy">  -1385.68369847 </i>
    <i name="e_wo_entrp">  -1385.68369847 </i>
    <i name="e_0_energy">  -1385.68369847 </i>
   </energy>
  </scstep>
  <scstep>
   <time name="dav">   17.41   17.41</time>
   <time name="total">   21.59   21.60</time>
   <energy>
    <i name="e_fr_energy">  -1385.68699013 </i>
    <i name="e_wo_entrp">  -1385.68699013 </i>
    <i name="e_0_energy">  -1385.68699013 </i>
   </energy>
  </scstep>
  <scstep>
   <time name="dav">   17.02   17.02</time>
   <time name="total">   21.22   21.23</time>
   <energy>
    <i name="e_fr_energy">  -1385.68952036 </i>
    <i name="e_wo_entrp">  -1385.68952036 </i>
    <i name="e_0_energy">  -1385.68952036 </i>
   </energy>
  </scstep>
  <scstep>
   <time name="dav">   19.58   19.58</time>
   <time name="total">   23.74   23.79</time>
   <energy>
    <i name="e_fr_energy">  -1385.68933324 </i>
    <i name="e_wo_entrp">  -1385.68933324 </i>
    <i name="e_0_energy">  -1385.68933324 </i>
   </energy>
  </scstep>
  <scstep>
   <time name="dav">   17.25   17.26</time>
   <time name="total">   21.42   21.46</time>
   <energy>
    <i name="e_fr_energy">  -1385.68931371 </i>
    <i name="e_wo_entrp">  -1385.68931371 </i>
    <i name="e_0_energy">  -1385.68931371 </i>
   </energy>
  </scstep>
  <scstep>
   <time name="dav">   16.78   16.78</time>
   <time name="total">   20.93   21.00</time>
   <energy>
    <i name="e_fr_energy">  -1385.68933208 </i>
    <i name="e_wo_entrp">  -1385.68933208 </i>
    <i name="e_0_energy">  -1385.68933208 </i>
   </energy>
  </scstep>
  <scstep>
   <time name="dav">   17.02   17.02</time>
   <time name="total">   21.17   21.23</time>
   <energy>
    <i name="e_fr_energy">  -1385.68939766 </i>
    <i name="e_wo_entrp">  -1385.68939766 </i>
    <i name="e_0_energy">  -1385.68939766 </i>
   </energy>
  </scstep>
  <scstep>
   <time name="dav">   16.73   16.73</time>
   <time name="total">   20.90   20.94</time>
   <energy>
    <i name="e_fr_energy">  -1385.68938971 </i>
    <i name="e_wo_entrp">  -1385.68938971 </i>
    <i name="e_0_energy">  -1385.68938971 </i>
   </energy>
  </scstep>
  <scstep>
   <time name="dav">   12.89   12.89</time>
   <time name="total">   14.37   14.40</time>
   <energy>
    <i name="alphaZ">    835.99855037 </i>
    <i name="ewald"> -17361.01278701 </i>
    <i name="hartreedc">  -7797.79627762 </i>
    <i name="XCdc">    947.80396258 </i>
    <i name="pawpsdc">  22825.10123102 </i>
    <i name="pawaedc"> -23864.58474620 </i>
    <i name="eentropy">     -0.00000000 </i>
    <i name="bandstr">  -2996.08294721 </i>
    <i name="atom">  26024.88362379 </i>
    <i name="e_fr_energy">  -1385.68939029 </i>
    <i name="e_wo_entrp">  -1385.68939029 </i>
    <i name="e_0_energy">  -1385.68939029 </i>
   </energy>
  </scstep>
  <structure>
   <crystal>
    <varray name="basis" >
     <v>       8.42001800       0.00000000       8.07798100 </v>
     <v>       0.00000000      11.76380800       0.00000000 </v>
     <v>      -8.42001800       0.00000000       8.07798100 </v>
    </varray>
    <i name="volume">   1600.27186790 </i>
    <varray name="rec_basis" >
     <v>       0.05938230      -0.00000000       0.06189665 </v>
     <v>       0.00000000       0.08500649      -0.00000000 </v>
     <v>      -0.05938230       0.00000000       0.06189665 </v>
    </varray>
   </crystal>
   <varray name="positions" >
    <v>       0.26567700       0.24999600       0.20697100 </v>
    <v>       0.77288400       0.25000200       0.71336800 </v>
    <v>       0.19988400       0.75000100       0.76152200 </v>
    <v>       0.28915900       0.25000300       0.73374400 </v>
    <v>       0.77470100       0.25000300       0.22568200 </v>
    <v>       0.73579800       0.75000100       0.78845100 </v>
    <v>       0.99685000       0.99753400       0.00334700 </v>
    <v>       0.50233000       0.00028300       0.49854800 </v>
    <v>       0.50075200       0.99962000       0.99481600 </v>
    <v>       0.00169800       0.99979900       0.49827900 </v>
    <v>       0.50074900       0.50036900       0.99482200 </v>
    <v>       0.00170000       0.50019800       0.49828100 </v>
    <v>       0.99684400       0.50244800       0.00335200 </v>
    <v>       0.50233900       0.49972500       0.49854700 </v>
    <v>       0.46445800       0.74999200       0.94359500 </v>
    <v>       0.96994100       0.75000200       0.48660100 </v>
    <v>       0.95875600       0.25000400       0.97275400 </v>
    <v>       0.46191000       0.25000800       0.48213800 </v>
    <v>       0.04338500       0.74999800       0.02514400 </v>
    <v>       0.53839400       0.75001300       0.53478800 </v>
    <v>       0.53617700       0.24999300       0.00883900 </v>
    <v>       0.03296200       0.25000100       0.54610800 </v>
    <v>       0.24717500       0.46337700       0.95295800 </v>
    <v>       0.74953200       0.45186200       0.46035900 </v>
    <v>       0.45758800       0.49946100       0.24379700 </v>
    <v>       0.95053200       0.52896500       0.75033300 </v>
    <v>       0.55677300       0.02949300       0.74849100 </v>
    <v>       0.03813800       0.04917200       0.25252400 </v>
    <v>       0.74932200       0.95870700       0.04926000 </v>
    <v>       0.25402300       0.97655800       0.55834500 </v>
    <v>       0.24717500       0.03662100       0.95295600 </v>
    <v>       0.74953500       0.04814400       0.46036400 </v>
    <v>       0.45759000       0.00053500       0.24380000 </v>
    <v>       0.95053400       0.97104000       0.75033600 </v>
    <v>       0.74932400       0.54128800       0.04925500 </v>
    <v>       0.25402400       0.52345100       0.55834500 </v>
    <v>       0.55677400       0.47051000       0.74849000 </v>
    <v>       0.03814000       0.45082500       0.25252600 </v>
    <v>       0.47019600       0.74999900       0.26655400 </v>
   </varray>
  </structure>
  <varray name="forces" >
   <v>       0.01053449       0.00002520      -0.01182024 </v>
   <v>       0.02272837      -0.00002198       0.02188547 </v>
   <v>      -0.02576666      -0.00001500      -0.05121693 </v>
   <v>       0.00280941      -0.00005176      -0.00486413 </v>
   <v>       0.04749528      -0.00011995       0.04280586 </v>
   <v>       0.03492177      -0.00002194       0.04931499 </v>
   <v>      -0.03439498      -0.04310559       0.02920945 </v>
   <v>      -0.21166930       0.25960821       0.26885693 </v>
   <v>       0.24531563       0.06946379      -0.11216633 </v>
   <v>       0.00161266      -0.12144560      -0.04757395 </v>
   <v>       0.24549753      -0.06950021      -0.11225818 </v>
   <v>       0.00162881       0.12171325      -0.04755845 </v>
   <v>      -0.03411799       0.04335774       0.02913690 </v>
   <v>      -0.21208948      -0.25948274       0.26884455 </v>
   <v>      -0.06895911       0.00003408       0.06721017 </v>
   <v>      -0.01433693      -0.00004022       0.04195115 </v>
   <v>       0.00603942      -0.00019208      -0.00426880 </v>
   <v>       0.02788992       0.00010310      -0.03558931 </v>
   <v>       0.03270941       0.00011124      -0.00753607 </v>
   <v>      -0.30915534      -0.00011881       0.54442799 </v>
   <v>      -0.03686690       0.00004236      -0.02211806 </v>
   <v>      -0.00657834       0.00004226       0.01910025 </v>
   <v>       0.02881327      -0.01076357       0.02092770 </v>
   <v>      -0.08021012      -0.00759216      -0.05346621 </v>
   <v>       0.00232942      -1.76773742      -0.22957813 </v>
   <v>      -0.01507563      -0.01015723       0.00805651 </v>
   <v>       0.02002663      -0.00330730      -0.04263585 </v>
   <v>      -0.00059900       0.04614574       0.00625004 </v>
   <v>      -0.06329380      -0.01479097      -0.05422771 </v>
   <v>       0.06650685       0.01789033       0.04837829 </v>
   <v>       0.02880292       0.01073540       0.02090501 </v>
   <v>      -0.08026538       0.00757002      -0.05354233 </v>
   <v>       0.00240715       1.76789096      -0.22964549 </v>
   <v>      -0.01505398       0.01002249       0.00797466 </v>
   <v>      -0.06340985       0.01474156      -0.05423925 </v>
   <v>       0.06651463      -0.01797662       0.04831238 </v>
   <v>       0.02009210       0.00327847      -0.04273144 </v>
   <v>      -0.00055141      -0.04617096       0.00620767 </v>
   <v>       0.35771851      -0.00016410      -0.33271915 </v>
  </varray>
  <varray name="stress" >
   <v>       5.51900874      -0.00036654      -3.48514137 </v>
   <v>      -0.00036649      18.27692790       0.00048675 </v>
   <v>      -3.48506435       0.00048663       7.94865578 </v>
  </varray>
  <energy>
   <i name="e_fr_energy">  -1385.68939029 </i>
   <i name="e_wo_entrp">  -1385.68939029 </i>
   <i name="e_0_energy">     -0.00000000 </i>
  </energy>
  <time name="totalsc">  429.86  430.44</time>
  <eigenvalues>
   <array>
    <dimension dim="1">band</dimension>
    <dimension dim="2">kpoint</dimension>
    <dimension dim="3">spin</dimension>
    <field>eigene</field>
    <field>occ</field>
    <set>
     <set comment="spin 1">
      <set comment="kpoint 1">
       <r>  -21.1348    1.0000 </r>
       <r>  -21.0266    1.0000 </r>
       <r>  -20.9982    1.0000 </r>
       <r>  -20.9647    1.0000 </r>
       <r>  -20.9532    1.0000 </r>
       <r>  -20.9424    1.0000 </r>
       <r>  -20.8709    1.0000 </r>
       <r>  -16.8583    1.0000 </r>
       <r>  -16.8331    1.0000 </r>
       <r>  -16.8216    1.0000 </r>
       <r>  -16.7925    1.0000 </r>
       <r>  -16.7650    1.0000 </r>
       <r>  -16.7614    1.0000 </r>
       <r>  -16.7614    1.0000 </r>
       <r>  -16.7549    1.0000 </r>
       <r>  -16.7001    1.0000 </r>
       <r>  -16.6988    1.0000 </r>
       <r>  -16.6875    1.0000 </r>
       <r>  -16.6858    1.0000 </r>
       <r>  -16.6834    1.0000 </r>
       <r>  -16.6828    1.0000 </r>
       <r>  -16.6641    1.0000 </r>
       <r>  -16.6635    1.0000 </r>
       <r>  -16.6629    1.0000 </r>
       <r>  -16.6625    1.0000 </r>
       <r>  -16.6572    1.0000 </r>
       <r>  -16.6566    1.0000 </r>
       <r>  -16.5804    1.0000 </r>
       <r>  -16.5619    1.0000 </r>
       <r>  -16.5608    1.0000 </r>
       <r>  -16.5265    1.0000 </r>
       <r>  -16.5184    1.0000 </r>
       <r>  -16.4921    1.0000 </r>
       <r>  -16.4910    1.0000 </r>
       <r>  -16.4618    1.0000 </r>
       <r>  -16.4479    1.0000 </r>
       <r>  -16.4469    1.0000 </r>
       <r>  -16.4455    1.0000 </r>
       <r>  -16.4452    1.0000 </r>
       <r>  -16.4350    1.0000 </r>
       <r>  -16.4340    1.0000 </r>
       <r>  -16.3999    1.0000 </r>
       <r>  -16.3998    1.0000 </r>
       <r>  -16.3878    1.0000 </r>
       <r>  -16.3860    1.0000 </r>
       <r>  -16.3831    1.0000 </r>
       <r>  -16.3820    1.0000 </r>
       <r>  -14.7237    1.0000 </r>
       <r>  -14.6914    1.0000 </r>
       <r>  -14.5332    1.0000 </r>
       <r>  -14.4648    1.0000 </r>
       <r>  -14.4163    1.0000 </r>
       <r>  -14.3776    1.0000 </r>
       <r>  -14.3691    1.0000 </r>
       <r>  -14.3034    1.0000 </r>
       <r>  -14.1808    1.0000 </r>
       <r>  -14.1597    1.0000 </r>
       <r>  -14.1249    1.0000 </r>
       <r>  -14.1205    1.0000 </r>
       <r>  -14.1085    1.0000 </r>
       <r>  -14.1018    1.0000 </r>
       <r>  -14.0974    1.0000 </r>
       <r>  -14.0874    1.0000 </r>
       <r>  -14.0739    1.0000 </r>
       <r>  -14.0490    1.0000 </r>
       <r>  -14.0391    1.0000 </r>
       <r>  -13.9294    1.0000 </r>
       <r>  -13.8757    1.0000 </r>
       <r>  -13.8686    1.0000 </r>
       <r>  -13.8112    1.0000 </r>
       <r>  -13.6663    1.0000 </r>
       <r>   -8.4718    1.0000 </r>
       <r>   -8.0171    1.0000 </r>
       <r>   -7.9491    1.0000 </r>
       <r>   -7.9086    1.0000 </r>
       <r>   -7.7937    1.0000 </r>
       <r>   -7.6359    1.0000 </r>
       <r>   -7.5915    1.0000 </r>
       <r>   -7.4548    1.0000 </r>
       <r>   -7.4399    1.0000 </r>
       <r>   -7.4143    1.0000 </r>
       <r>   -7.4142    1.0000 </r>
       <r>   -7.4057    1.0000 </r>
       <r>   -7.3901    1.0000 </r>
       <r>   -7.3856    1.0000 </r>
       <r>   -7.3777    1.0000 </r>
       <r>   -7.3712    1.0000 </r>
       <r>   -7.3662    1.0000 </r>
       <r>   -7.3624    1.0000 </r>
       <r>   -7.3542    1.0000 </r>
       <r>   -7.3486    1.0000 </r>
       <r>   -7.3451    1.0000 </r>
       <r>   -7.3434    1.0000 </r>
       <r>   -7.3228    1.0000 </r>
       <r>   -7.3143    1.0000 </r>
       <r>   -7.2862    1.0000 </r>
       <r>   -7.2654    1.0000 </r>
       <r>   -7.2638    1.0000 </r>
       <r>   -7.2630    1.0000 </r>
       <r>   -6.7330    1.0000 </r>
       <r>   -3.6990    1.0000 </r>
       <r>   -3.6607    1.0000 </r>
       <r>   -3.5831    1.0000 </r>
       <r>   -3.5234    1.0000 </r>
       <r>   -3.4233    1.0000 </r>
       <r>   -3.3293    1.0000 </r>
       <r>   -3.3234    1.0000 </r>
       <r>   -3.2779    1.0000 </r>
       <r>   -3.2673    1.0000 </r>
       <r>   -3.2489    1.0000 </r>
       <r>   -3.1449    1.0000 </r>
       <r>   -3.0479    1.0000 </r>
       <r>   -2.5496    1.0000 </r>
       <r>   -2.3734    1.0000 </r>
       <r>   -2.3238    1.0000 </r>
       <r>   -2.2723    1.0000 </r>
       <r>   -2.2084    1.0000 </r>
       <r>   -2.1763    1.0000 </r>
       <r>   -2.1428    1.0000 </r>
       <r>   -2.0755    1.0000 </r>
       <r>   -2.0005    1.0000 </r>
       <r>   -1.9962    1.0000 </r>
       <r>   -1.9600    1.0000 </r>
       <r>   -1.9153    1.0000 </r>
       <r>   -1.8694    1.0000 </r>
       <r>   -1.8674    1.0000 </r>
       <r>   -1.8551    1.0000 </r>
       <r>   -1.7917    1.0000 </r>
       <r>   -1.7581    1.0000 </r>
       <r>   -1.7206    1.0000 </r>
       <r>   -1.6920    1.0000 </r>
       <r>   -1.6774    1.0000 </r>
       <r>   -1.6485    1.0000 </r>
       <r>   -1.6463    1.0000 </r>
       <r>   -1.6180    1.0000 </r>
       <r>   -1.6041    1.0000 </r>
       <r>   -1.5890    1.0000 </r>
       <r>   -1.5645    1.0000 </r>
       <r>   -1.5537    1.0000 </r>
       <r>   -1.5421    1.0000 </r>
       <r>   -1.5220    1.0000 </r>
       <r>   -1.5146    1.0000 </r>
       <r>   -1.5050    1.0000 </r>
       <r>   -1.4819    1.0000 </r>
       <r>   -1.4767    1.0000 </r>
       <r>   -1.4423    1.0000 </r>
       <r>   -1.4316    1.0000 </r>
       <r>   -1.4072    1.0000 </r>
       <r>   -1.4038    1.0000 </r>
       <r>   -1.3639    1.0000 </r>
       <r>   -1.3523    1.0000 </r>
       <r>   -1.3186    1.0000 </r>
       <r>   -1.3138    1.0000 </r>
       <r>   -1.3002    1.0000 </r>
       <r>   -1.2904    1.0000 </r>
       <r>   -1.2817    1.0000 </r>
       <r>   -1.2429    1.0000 </r>
       <r>   -1.2295    1.0000 </r>
       <r>   -1.1888    1.0000 </r>
       <r>   -1.1555    1.0000 </r>
       <r>   -1.1424    1.0000 </r>
       <r>   -1.1049    1.0000 </r>
       <r>   -1.0472    1.0000 </r>
       <r>   -1.0000    1.0000 </r>
       <r>   -0.9456    1.0000 </r>
       <r>   -0.8274    1.0000 </r>
       <r>   -0.7854    1.0000 </r>
       <r>   -0.7852    1.0000 </r>
       <r>   -0.3848    1.0000 </r>
       <r>   -0.3308    1.0000 </r>
       <r>   -0.2771    1.0000 </r>
       <r>    0.2727    1.0000 </r>
       <r>    2.4875    0.0000 </r>
       <r>    2.5429    0.0000 </r>
       <r>    2.6664    0.0000 </r>
       <r>    2.8435    0.0000 </r>
       <r>    2.8563    0.0000 </r>
       <r>    2.9883    0.0000 </r>
       <r>    2.9899    0.0000 </r>
       <r>    3.0223    0.0000 </r>
       <r>    3.0645    0.0000 </r>
       <r>    3.3225    0.0000 </r>
       <r>    3.3847    0.0000 </r>
       <r>    3.4353    0.0000 </r>
       <r>    4.7609    0.0000 </r>
       <r>    4.7957    0.0000 </r>
       <r>    5.2758    0.0000 </r>
       <r>    5.4399    0.0000 </r>
       <r>    5.5991    0.0000 </r>
       <r>    5.6072    0.0000 </r>
       <r>    5.6599    0.0000 </r>
       <r>    5.6868    0.0000 </r>
       <r>    5.7437    0.0000 </r>
       <r>    5.8581    0.0000 </r>
       <r>    5.9215    0.0000 </r>
       <r>    5.9966    0.0000 </r>
       <r>    6.0395    0.0000 </r>
       <r>    6.0713    0.0000 </r>
       <r>    6.1522    0.0000 </r>
       <r>    6.1757    0.0000 </r>
       <r>    6.2680    0.0000 </r>
       <r>    6.2830    0.0000 </r>
       <r>    6.3080    0.0000 </r>
       <r>    6.3169    0.0000 </r>
       <r>    6.3566    0.0000 </r>
       <r>    6.3782    0.0000 </r>
       <r>    6.5027    0.0000 </r>
       <r>    6.5346    0.0000 </r>
      </set>
      <set comment="kpoint 2">
       <r>  -21.1348    1.0000 </r>
       <r>  -21.0266    1.0000 </r>
       <r>  -20.9981    1.0000 </r>
       <r>  -20.9647    1.0000 </r>
       <r>  -20.9531    1.0000 </r>
       <r>  -20.9424    1.0000 </r>
       <r>  -20.8709    1.0000 </r>
       <r>  -16.8583    1.0000 </r>
       <r>  -16.8327    1.0000 </r>
       <r>  -16.8212    1.0000 </r>
       <r>  -16.7902    1.0000 </r>
       <r>  -16.7639    1.0000 </r>
       <r>  -16.7595    1.0000 </r>
       <r>  -16.7591    1.0000 </r>
       <r>  -16.7527    1.0000 </r>
       <r>  -16.7000    1.0000 </r>
       <r>  -16.6988    1.0000 </r>
       <r>  -16.6875    1.0000 </r>
       <r>  -16.6859    1.0000 </r>
       <r>  -16.6835    1.0000 </r>
       <r>  -16.6829    1.0000 </r>
       <r>  -16.6641    1.0000 </r>
       <r>  -16.6635    1.0000 </r>
       <r>  -16.6629    1.0000 </r>
       <r>  -16.6625    1.0000 </r>
       <r>  -16.6572    1.0000 </r>
       <r>  -16.6566    1.0000 </r>
       <r>  -16.5811    1.0000 </r>
       <r>  -16.5644    1.0000 </r>
       <r>  -16.5633    1.0000 </r>
       <r>  -16.5283    1.0000 </r>
       <r>  -16.5197    1.0000 </r>
       <r>  -16.4935    1.0000 </r>
       <r>  -16.4933    1.0000 </r>
       <r>  -16.4622    1.0000 </r>
       <r>  -16.4479    1.0000 </r>
       <r>  -16.4469    1.0000 </r>
       <r>  -16.4455    1.0000 </r>
       <r>  -16.4452    1.0000 </r>
       <r>  -16.4350    1.0000 </r>
       <r>  -16.4340    1.0000 </r>
       <r>  -16.4000    1.0000 </r>
       <r>  -16.3998    1.0000 </r>
       <r>  -16.3878    1.0000 </r>
       <r>  -16.3860    1.0000 </r>
       <r>  -16.3831    1.0000 </r>
       <r>  -16.3820    1.0000 </r>
       <r>  -14.7239    1.0000 </r>
       <r>  -14.6895    1.0000 </r>
       <r>  -14.5326    1.0000 </r>
       <r>  -14.4628    1.0000 </r>
       <r>  -14.4154    1.0000 </r>
       <r>  -14.3771    1.0000 </r>
       <r>  -14.3628    1.0000 </r>
       <r>  -14.3495    1.0000 </r>
       <r>  -14.2255    1.0000 </r>
       <r>  -14.1916    1.0000 </r>
       <r>  -14.1189    1.0000 </r>
       <r>  -14.1167    1.0000 </r>
       <r>  -14.0900    1.0000 </r>
       <r>  -14.0776    1.0000 </r>
       <r>  -14.0601    1.0000 </r>
       <r>  -14.0588    1.0000 </r>
       <r>  -14.0352    1.0000 </r>
       <r>  -14.0226    1.0000 </r>
       <r>  -13.9983    1.0000 </r>
       <r>  -13.9507    1.0000 </r>
       <r>  -13.9221    1.0000 </r>
       <r>  -13.8960    1.0000 </r>
       <r>  -13.8227    1.0000 </r>
       <r>  -13.6694    1.0000 </r>
       <r>   -8.3724    1.0000 </r>
       <r>   -8.0361    1.0000 </r>
       <r>   -7.9465    1.0000 </r>
       <r>   -7.8249    1.0000 </r>
       <r>   -7.8017    1.0000 </r>
       <r>   -7.5955    1.0000 </r>
       <r>   -7.5634    1.0000 </r>
       <r>   -7.5473    1.0000 </r>
       <r>   -7.5417    1.0000 </r>
       <r>   -7.4476    1.0000 </r>
       <r>   -7.4226    1.0000 </r>
       <r>   -7.4080    1.0000 </r>
       <r>   -7.3948    1.0000 </r>
       <r>   -7.3857    1.0000 </r>
       <r>   -7.3832    1.0000 </r>
       <r>   -7.3775    1.0000 </r>
       <r>   -7.3736    1.0000 </r>
       <r>   -7.3567    1.0000 </r>
       <r>   -7.3505    1.0000 </r>
       <r>   -7.3477    1.0000 </r>
       <r>   -7.3424    1.0000 </r>
       <r>   -7.3416    1.0000 </r>
       <r>   -7.3354    1.0000 </r>
       <r>   -7.3152    1.0000 </r>
       <r>   -7.2875    1.0000 </r>
       <r>   -7.2772    1.0000 </r>
       <r>   -7.2693    1.0000 </r>
       <r>   -7.2049    1.0000 </r>
       <r>   -6.9518    1.0000 </r>
       <r>   -3.6902    1.0000 </r>
       <r>   -3.6564    1.0000 </r>
       <r>   -3.5782    1.0000 </r>
       <r>   -3.5192    1.0000 </r>
       <r>   -3.2969    1.0000 </r>
       <r>   -3.2779    1.0000 </r>
       <r>   -3.2532    1.0000 </r>
       <r>   -3.0662    1.0000 </r>
       <r>   -2.7822    1.0000 </r>
       <r>   -2.6946    1.0000 </r>
       <r>   -2.6894    1.0000 </r>
       <r>   -2.6246    1.0000 </r>
       <r>   -2.5903    1.0000 </r>
       <r>   -2.5548    1.0000 </r>
       <r>   -2.5046    1.0000 </r>
       <r>   -2.4692    1.0000 </r>
       <r>   -2.4408    1.0000 </r>
       <r>   -2.3491    1.0000 </r>
       <r>   -2.2369    1.0000 </r>
       <r>   -2.2093    1.0000 </r>
       <r>   -2.1616    1.0000 </r>
       <r>   -2.0989    1.0000 </r>
       <r>   -2.0505    1.0000 </r>
       <r>   -2.0267    1.0000 </r>
       <r>   -2.0046    1.0000 </r>
       <r>   -1.9180    1.0000 </r>
       <r>   -1.9160    1.0000 </r>
       <r>   -1.8474    1.0000 </r>
       <r>   -1.8271    1.0000 </r>
       <r>   -1.7999    1.0000 </r>
       <r>   -1.7448    1.0000 </r>
       <r>   -1.7163    1.0000 </r>
       <r>   -1.6942    1.0000 </r>
       <r>   -1.6798    1.0000 </r>
       <r>   -1.6638    1.0000 </r>
       <r>   -1.6611    1.0000 </r>
       <r>   -1.6121    1.0000 </r>
       <r>   -1.5699    1.0000 </r>
       <r>   -1.5399    1.0000 </r>
       <r>   -1.5398    1.0000 </r>
       <r>   -1.5241    1.0000 </r>
       <r>   -1.4685    1.0000 </r>
       <r>   -1.4683    1.0000 </r>
       <r>   -1.4294    1.0000 </r>
       <r>   -1.4227    1.0000 </r>
       <r>   -1.4085    1.0000 </r>
       <r>   -1.4027    1.0000 </r>
       <r>   -1.3878    1.0000 </r>
       <r>   -1.3710    1.0000 </r>
       <r>   -1.3608    1.0000 </r>
       <r>   -1.3439    1.0000 </r>
       <r>   -1.3350    1.0000 </r>
       <r>   -1.3228    1.0000 </r>
       <r>   -1.2898    1.0000 </r>
       <r>   -1.2854    1.0000 </r>
       <r>   -1.2699    1.0000 </r>
       <r>   -1.2637    1.0000 </r>
       <r>   -1.2271    1.0000 </r>
       <r>   -1.2097    1.0000 </r>
       <r>   -1.1650    1.0000 </r>
       <r>   -1.1617    1.0000 </r>
       <r>   -1.1285    1.0000 </r>
       <r>   -1.0899    1.0000 </r>
       <r>   -1.0477    1.0000 </r>
       <r>   -1.0078    1.0000 </r>
       <r>   -0.8550    1.0000 </r>
       <r>   -0.8010    1.0000 </r>
       <r>   -0.7881    1.0000 </r>
       <r>   -0.6203    1.0000 </r>
       <r>   -0.5244    1.0000 </r>
       <r>   -0.3633    1.0000 </r>
       <r>   -0.0264    1.0000 </r>
       <r>    2.5838    0.0000 </r>
       <r>    2.6058    0.0000 </r>
       <r>    2.9057    0.0000 </r>
       <r>    2.9336    0.0000 </r>
       <r>    2.9396    0.0000 </r>
       <r>    2.9554    0.0000 </r>
       <r>    3.2139    0.0000 </r>
       <r>    3.3371    0.0000 </r>
       <r>    3.9447    0.0000 </r>
       <r>    4.1092    0.0000 </r>
       <r>    4.2396    0.0000 </r>
       <r>    4.2801    0.0000 </r>
       <r>    4.4243    0.0000 </r>
       <r>    4.5087    0.0000 </r>
       <r>    4.5824    0.0000 </r>
       <r>    4.7117    0.0000 </r>
       <r>    4.8740    0.0000 </r>
       <r>    5.3225    0.0000 </r>
       <r>    5.5119    0.0000 </r>
       <r>    5.5407    0.0000 </r>
       <r>    5.5696    0.0000 </r>
       <r>    5.7077    0.0000 </r>
       <r>    5.8322    0.0000 </r>
       <r>    5.8729    0.0000 </r>
       <r>    5.8812    0.0000 </r>
       <r>    5.9286    0.0000 </r>
       <r>    6.0839    0.0000 </r>
       <r>    6.1520    0.0000 </r>
       <r>    6.1705    0.0000 </r>
       <r>    6.2694    0.0000 </r>
       <r>    6.2958    0.0000 </r>
       <r>    6.3462    0.0000 </r>
       <r>    6.3514    0.0000 </r>
       <r>    6.4337    0.0000 </r>
       <r>    6.4688    0.0000 </r>
       <r>    6.4994    0.0000 </r>
      </set>
      <set comment="kpoint 3">
       <r>  -21.1348    1.0000 </r>
       <r>  -21.0266    1.0000 </r>
       <r>  -20.9981    1.0000 </r>
       <r>  -20.9647    1.0000 </r>
       <r>  -20.9531    1.0000 </r>
       <r>  -20.9425    1.0000 </r>
       <r>  -20.8709    1.0000 </r>
       <r>  -16.8430    1.0000 </r>
       <r>  -16.8410    1.0000 </r>
       <r>  -16.7938    1.0000 </r>
       <r>  -16.7919    1.0000 </r>
       <r>  -16.7805    1.0000 </r>
       <r>  -16.7769    1.0000 </r>
       <r>  -16.7613    1.0000 </r>
       <r>  -16.7613    1.0000 </r>
       <r>  -16.6996    1.0000 </r>
       <r>  -16.6993    1.0000 </r>
       <r>  -16.6867    1.0000 </r>
       <r>  -16.6863    1.0000 </r>
       <r>  -16.6832    1.0000 </r>
       <r>  -16.6831    1.0000 </r>
       <r>  -16.6638    1.0000 </r>
       <r>  -16.6637    1.0000 </r>
       <r>  -16.6627    1.0000 </r>
       <r>  -16.6627    1.0000 </r>
       <r>  -16.6569    1.0000 </r>
       <r>  -16.6568    1.0000 </r>
       <r>  -16.5626    1.0000 </r>
       <r>  -16.5621    1.0000 </r>
       <r>  -16.5542    1.0000 </r>
       <r>  -16.5495    1.0000 </r>
       <r>  -16.4979    1.0000 </r>
       <r>  -16.4967    1.0000 </r>
       <r>  -16.4862    1.0000 </r>
       <r>  -16.4850    1.0000 </r>
       <r>  -16.4475    1.0000 </r>
       <r>  -16.4474    1.0000 </r>
       <r>  -16.4454    1.0000 </r>
       <r>  -16.4453    1.0000 </r>
       <r>  -16.4346    1.0000 </r>
       <r>  -16.4343    1.0000 </r>
       <r>  -16.3999    1.0000 </r>
       <r>  -16.3998    1.0000 </r>
       <r>  -16.3872    1.0000 </r>
       <r>  -16.3863    1.0000 </r>
       <r>  -16.3827    1.0000 </r>
       <r>  -16.3824    1.0000 </r>
       <r>  -14.7645    1.0000 </r>
       <r>  -14.6381    1.0000 </r>
       <r>  -14.5319    1.0000 </r>
       <r>  -14.4815    1.0000 </r>
       <r>  -14.4613    1.0000 </r>
       <r>  -14.3829    1.0000 </r>
       <r>  -14.2795    1.0000 </r>
       <r>  -14.2727    1.0000 </r>
       <r>  -14.2122    1.0000 </r>
       <r>  -14.1712    1.0000 </r>
       <r>  -14.1607    1.0000 </r>
       <r>  -14.1518    1.0000 </r>
       <r>  -14.1134    1.0000 </r>
       <r>  -14.1014    1.0000 </r>
       <r>  -14.0986    1.0000 </r>
       <r>  -14.0836    1.0000 </r>
       <r>  -14.0808    1.0000 </r>
       <r>  -14.0655    1.0000 </r>
       <r>  -13.9477    1.0000 </r>
       <r>  -13.8888    1.0000 </r>
       <r>  -13.8863    1.0000 </r>
       <r>  -13.8517    1.0000 </r>
       <r>  -13.8513    1.0000 </r>
       <r>  -13.6918    1.0000 </r>
       <r>   -8.2696    1.0000 </r>
       <r>   -8.2379    1.0000 </r>
       <r>   -7.8295    1.0000 </r>
       <r>   -7.7407    1.0000 </r>
       <r>   -7.6832    1.0000 </r>
       <r>   -7.6764    1.0000 </r>
       <r>   -7.6516    1.0000 </r>
       <r>   -7.5814    1.0000 </r>
       <r>   -7.5732    1.0000 </r>
       <r>   -7.4472    1.0000 </r>
       <r>   -7.4269    1.0000 </r>
       <r>   -7.4029    1.0000 </r>
       <r>   -7.3994    1.0000 </r>
       <r>   -7.3960    1.0000 </r>
       <r>   -7.3901    1.0000 </r>
       <r>   -7.3827    1.0000 </r>
       <r>   -7.3647    1.0000 </r>
       <r>   -7.3614    1.0000 </r>
       <r>   -7.3578    1.0000 </r>
       <r>   -7.3511    1.0000 </r>
       <r>   -7.3455    1.0000 </r>
       <r>   -7.3334    1.0000 </r>
       <r>   -7.3297    1.0000 </r>
       <r>   -7.3233    1.0000 </r>
       <r>   -7.2826    1.0000 </r>
       <r>   -7.2761    1.0000 </r>
       <r>   -7.2693    1.0000 </r>
       <r>   -7.0980    1.0000 </r>
       <r>   -7.0614    1.0000 </r>
       <r>   -3.7131    1.0000 </r>
       <r>   -3.5984    1.0000 </r>
       <r>   -3.3826    1.0000 </r>
       <r>   -3.3769    1.0000 </r>
       <r>   -3.2913    1.0000 </r>
       <r>   -3.2467    1.0000 </r>
       <r>   -3.2394    1.0000 </r>
       <r>   -3.2097    1.0000 </r>
       <r>   -2.9255    1.0000 </r>
       <r>   -2.8068    1.0000 </r>
       <r>   -2.7537    1.0000 </r>
       <r>   -2.7288    1.0000 </r>
       <r>   -2.5143    1.0000 </r>
       <r>   -2.4776    1.0000 </r>
       <r>   -2.3684    1.0000 </r>
       <r>   -2.3478    1.0000 </r>
       <r>   -2.3406    1.0000 </r>
       <r>   -2.3211    1.0000 </r>
       <r>   -2.2281    1.0000 </r>
       <r>   -2.2197    1.0000 </r>
       <r>   -2.2108    1.0000 </r>
       <r>   -2.1267    1.0000 </r>
       <r>   -2.1101    1.0000 </r>
       <r>   -2.0004    1.0000 </r>
       <r>   -1.9993    1.0000 </r>
       <r>   -1.9782    1.0000 </r>
       <r>   -1.9139    1.0000 </r>
       <r>   -1.9050    1.0000 </r>
       <r>   -1.8656    1.0000 </r>
       <r>   -1.8154    1.0000 </r>
       <r>   -1.8124    1.0000 </r>
       <r>   -1.7145    1.0000 </r>
       <r>   -1.6998    1.0000 </r>
       <r>   -1.6755    1.0000 </r>
       <r>   -1.6111    1.0000 </r>
       <r>   -1.6048    1.0000 </r>
       <r>   -1.5778    1.0000 </r>
       <r>   -1.5750    1.0000 </r>
       <r>   -1.5557    1.0000 </r>
       <r>   -1.5510    1.0000 </r>
       <r>   -1.5438    1.0000 </r>
       <r>   -1.4976    1.0000 </r>
       <r>   -1.4860    1.0000 </r>
       <r>   -1.4796    1.0000 </r>
       <r>   -1.4543    1.0000 </r>
       <r>   -1.4494    1.0000 </r>
       <r>   -1.4307    1.0000 </r>
       <r>   -1.4243    1.0000 </r>
       <r>   -1.4013    1.0000 </r>
       <r>   -1.3870    1.0000 </r>
       <r>   -1.3845    1.0000 </r>
       <r>   -1.3562    1.0000 </r>
       <r>   -1.3328    1.0000 </r>
       <r>   -1.3154    1.0000 </r>
       <r>   -1.2691    1.0000 </r>
       <r>   -1.2680    1.0000 </r>
       <r>   -1.2050    1.0000 </r>
       <r>   -1.1717    1.0000 </r>
       <r>   -1.1654    1.0000 </r>
       <r>   -1.1526    1.0000 </r>
       <r>   -1.1479    1.0000 </r>
       <r>   -1.0680    1.0000 </r>
       <r>   -1.0366    1.0000 </r>
       <r>   -0.9935    1.0000 </r>
       <r>   -0.9623    1.0000 </r>
       <r>   -0.9498    1.0000 </r>
       <r>   -0.7674    1.0000 </r>
       <r>   -0.7506    1.0000 </r>
       <r>   -0.7440    1.0000 </r>
       <r>   -0.6985    1.0000 </r>
       <r>   -0.2462    1.0000 </r>
       <r>   -0.1262    1.0000 </r>
       <r>    2.6348    0.0000 </r>
       <r>    2.6721    0.0000 </r>
       <r>    2.8512    0.0000 </r>
       <r>    2.8544    0.0000 </r>
       <r>    3.1462    0.0000 </r>
       <r>    3.1721    0.0000 </r>
       <r>    3.1803    0.0000 </r>
       <r>    3.1971    0.0000 </r>
       <r>    3.7619    0.0000 </r>
       <r>    4.1724    0.0000 </r>
       <r>    4.2857    0.0000 </r>
       <r>    4.3195    0.0000 </r>
       <r>    4.4723    0.0000 </r>
       <r>    4.4855    0.0000 </r>
       <r>    4.6606    0.0000 </r>
       <r>    4.8075    0.0000 </r>
       <r>    5.2757    0.0000 </r>
       <r>    5.3174    0.0000 </r>
       <r>    5.3992    0.0000 </r>
       <r>    5.4702    0.0000 </r>
       <r>    5.4951    0.0000 </r>
       <r>    5.5583    0.0000 </r>
       <r>    5.7773    0.0000 </r>
       <r>    5.8773    0.0000 </r>
       <r>    5.8905    0.0000 </r>
       <r>    6.0032    0.0000 </r>
       <r>    6.0517    0.0000 </r>
       <r>    6.1586    0.0000 </r>
       <r>    6.1627    0.0000 </r>
       <r>    6.2616    0.0000 </r>
       <r>    6.3635    0.0000 </r>
       <r>    6.3649    0.0000 </r>
       <r>    6.4385    0.0000 </r>
       <r>    6.4879    0.0000 </r>
       <r>    6.5645    0.0000 </r>
       <r>    6.6159    0.0000 </r>
      </set>
      <set comment="kpoint 4">
       <r>  -21.1348    1.0000 </r>
       <r>  -21.0266    1.0000 </r>
       <r>  -20.9981    1.0000 </r>
       <r>  -20.9647    1.0000 </r>
       <r>  -20.9531    1.0000 </r>
       <r>  -20.9425    1.0000 </r>
       <r>  -20.8709    1.0000 </r>
       <r>  -16.8429    1.0000 </r>
       <r>  -16.8409    1.0000 </r>
       <r>  -16.7933    1.0000 </r>
       <r>  -16.7913    1.0000 </r>
       <r>  -16.7784    1.0000 </r>
       <r>  -16.7748    1.0000 </r>
       <r>  -16.7589    1.0000 </r>
       <r>  -16.7589    1.0000 </r>
       <r>  -16.6996    1.0000 </r>
       <r>  -16.6992    1.0000 </r>
       <r>  -16.6867    1.0000 </r>
       <r>  -16.6863    1.0000 </r>
       <r>  -16.6833    1.0000 </r>
       <r>  -16.6831    1.0000 </r>
       <r>  -16.6639    1.0000 </r>
       <r>  -16.6637    1.0000 </r>
       <r>  -16.6627    1.0000 </r>
       <r>  -16.6627    1.0000 </r>
       <r>  -16.6569    1.0000 </r>
       <r>  -16.6569    1.0000 </r>
       <r>  -16.5640    1.0000 </r>
       <r>  -16.5639    1.0000 </r>
       <r>  -16.5565    1.0000 </r>
       <r>  -16.5513    1.0000 </r>
       <r>  -16.5005    1.0000 </r>
       <r>  -16.4993    1.0000 </r>
       <r>  -16.4865    1.0000 </r>
       <r>  -16.4852    1.0000 </r>
       <r>  -16.4476    1.0000 </r>
       <r>  -16.4475    1.0000 </r>
       <r>  -16.4454    1.0000 </r>
       <r>  -16.4453    1.0000 </r>
       <r>  -16.4346    1.0000 </r>
       <r>  -16.4344    1.0000 </r>
       <r>  -16.3999    1.0000 </r>
       <r>  -16.3999    1.0000 </r>
       <r>  -16.3872    1.0000 </r>
       <r>  -16.3864    1.0000 </r>
       <r>  -16.3828    1.0000 </r>
       <r>  -16.3825    1.0000 </r>
       <r>  -14.7646    1.0000 </r>
       <r>  -14.6370    1.0000 </r>
       <r>  -14.5320    1.0000 </r>
       <r>  -14.4773    1.0000 </r>
       <r>  -14.4611    1.0000 </r>
       <r>  -14.3824    1.0000 </r>
       <r>  -14.3202    1.0000 </r>
       <r>  -14.2877    1.0000 </r>
       <r>  -14.2490    1.0000 </r>
       <r>  -14.1822    1.0000 </r>
       <r>  -14.1710    1.0000 </r>
       <r>  -14.1335    1.0000 </r>
       <r>  -14.0858    1.0000 </r>
       <r>  -14.0794    1.0000 </r>
       <r>  -14.0669    1.0000 </r>
       <r>  -14.0636    1.0000 </r>
       <r>  -14.0207    1.0000 </r>
       <r>  -14.0144    1.0000 </r>
       <r>  -13.9755    1.0000 </r>
       <r>  -13.9262    1.0000 </r>
       <r>  -13.9230    1.0000 </r>
       <r>  -13.8608    1.0000 </r>
       <r>  -13.8582    1.0000 </r>
       <r>  -13.6931    1.0000 </r>
       <r>   -8.1841    1.0000 </r>
       <r>   -8.1398    1.0000 </r>
       <r>   -7.8284    1.0000 </r>
       <r>   -7.7842    1.0000 </r>
       <r>   -7.7829    1.0000 </r>
       <r>   -7.6526    1.0000 </r>
       <r>   -7.5971    1.0000 </r>
       <r>   -7.5505    1.0000 </r>
       <r>   -7.5359    1.0000 </r>
       <r>   -7.4442    1.0000 </r>
       <r>   -7.4290    1.0000 </r>
       <r>   -7.4182    1.0000 </r>
       <r>   -7.4094    1.0000 </r>
       <r>   -7.3956    1.0000 </r>
       <r>   -7.3936    1.0000 </r>
       <r>   -7.3780    1.0000 </r>
       <r>   -7.3728    1.0000 </r>
       <r>   -7.3604    1.0000 </r>
       <r>   -7.3548    1.0000 </r>
       <r>   -7.3512    1.0000 </r>
       <r>   -7.3504    1.0000 </r>
       <r>   -7.3432    1.0000 </r>
       <r>   -7.3378    1.0000 </r>
       <r>   -7.3230    1.0000 </r>
       <r>   -7.2874    1.0000 </r>
       <r>   -7.2746    1.0000 </r>
       <r>   -7.2733    1.0000 </r>
       <r>   -7.2661    1.0000 </r>
       <r>   -7.2256    1.0000 </r>
       <r>   -3.7090    1.0000 </r>
       <r>   -3.5922    1.0000 </r>
       <r>   -3.2764    1.0000 </r>
       <r>   -3.2294    1.0000 </r>
       <r>   -2.9919    1.0000 </r>
       <r>   -2.9338    1.0000 </r>
       <r>   -2.8448    1.0000 </r>
       <r>   -2.8009    1.0000 </r>
       <r>   -2.7894    1.0000 </r>
       <r>   -2.7434    1.0000 </r>
       <r>   -2.6448    1.0000 </r>
       <r>   -2.6072    1.0000 </r>
       <r>   -2.5584    1.0000 </r>
       <r>   -2.5108    1.0000 </r>
       <r>   -2.4906    1.0000 </r>
       <r>   -2.4561    1.0000 </r>
       <r>   -2.4339    1.0000 </r>
       <r>   -2.4211    1.0000 </r>
       <r>   -2.3494    1.0000 </r>
       <r>   -2.3430    1.0000 </r>
       <r>   -2.2726    1.0000 </r>
       <r>   -2.2194    1.0000 </r>
       <r>   -2.2060    1.0000 </r>
       <r>   -2.1527    1.0000 </r>
       <r>   -2.0851    1.0000 </r>
       <r>   -1.9634    1.0000 </r>
       <r>   -1.9339    1.0000 </r>
       <r>   -1.9137    1.0000 </r>
       <r>   -1.8631    1.0000 </r>
       <r>   -1.8487    1.0000 </r>
       <r>   -1.8225    1.0000 </r>
       <r>   -1.7914    1.0000 </r>
       <r>   -1.7801    1.0000 </r>
       <r>   -1.7566    1.0000 </r>
       <r>   -1.7426    1.0000 </r>
       <r>   -1.7154    1.0000 </r>
       <r>   -1.6516    1.0000 </r>
       <r>   -1.6268    1.0000 </r>
       <r>   -1.6267    1.0000 </r>
       <r>   -1.6148    1.0000 </r>
       <r>   -1.5716    1.0000 </r>
       <r>   -1.5415    1.0000 </r>
       <r>   -1.5238    1.0000 </r>
       <r>   -1.5061    1.0000 </r>
       <r>   -1.4214    1.0000 </r>
       <r>   -1.4045    1.0000 </r>
       <r>   -1.4041    1.0000 </r>
       <r>   -1.3778    1.0000 </r>
       <r>   -1.3678    1.0000 </r>
       <r>   -1.3555    1.0000 </r>
       <r>   -1.3450    1.0000 </r>
       <r>   -1.3265    1.0000 </r>
       <r>   -1.3097    1.0000 </r>
       <r>   -1.2729    1.0000 </r>
       <r>   -1.2534    1.0000 </r>
       <r>   -1.2233    1.0000 </r>
       <r>   -1.2159    1.0000 </r>
       <r>   -1.1945    1.0000 </r>
       <r>   -1.1654    1.0000 </r>
       <r>   -1.1518    1.0000 </r>
       <r>   -1.1399    1.0000 </r>
       <r>   -1.0748    1.0000 </r>
       <r>   -1.0557    1.0000 </r>
       <r>   -1.0497    1.0000 </r>
       <r>   -1.0337    1.0000 </r>
       <r>   -0.9795    1.0000 </r>
       <r>   -0.9075    1.0000 </r>
       <r>   -0.8750    1.0000 </r>
       <r>   -0.7682    1.0000 </r>
       <r>   -0.7154    1.0000 </r>
       <r>   -0.5487    1.0000 </r>
       <r>   -0.4638    1.0000 </r>
       <r>    2.7227    0.0000 </r>
       <r>    2.7515    0.0000 </r>
       <r>    3.1029    0.0000 </r>
       <r>    3.1245    0.0000 </r>
       <r>    3.7134    0.0000 </r>
       <r>    4.0355    0.0000 </r>
       <r>    4.0809    0.0000 </r>
       <r>    4.1098    0.0000 </r>
       <r>    4.2084    0.0000 </r>
       <r>    4.2765    0.0000 </r>
       <r>    4.3433    0.0000 </r>
       <r>    4.3545    0.0000 </r>
       <r>    4.3872    0.0000 </r>
       <r>    4.3952    0.0000 </r>
       <r>    4.4870    0.0000 </r>
       <r>    4.5213    0.0000 </r>
       <r>    4.5697    0.0000 </r>
       <r>    4.5968    0.0000 </r>
       <r>    4.7241    0.0000 </r>
       <r>    4.7870    0.0000 </r>
       <r>    5.3869    0.0000 </r>
       <r>    5.5369    0.0000 </r>
       <r>    5.6499    0.0000 </r>
       <r>    5.7851    0.0000 </r>
       <r>    5.8385    0.0000 </r>
       <r>    5.8758    0.0000 </r>
       <r>    6.0196    0.0000 </r>
       <r>    6.0215    0.0000 </r>
       <r>    6.1039    0.0000 </r>
       <r>    6.1738    0.0000 </r>
       <r>    6.1931    0.0000 </r>
       <r>    6.2772    0.0000 </r>
       <r>    6.3790    0.0000 </r>
       <r>    6.4117    0.0000 </r>
       <r>    6.5009    0.0000 </r>
       <r>    6.5242    0.0000 </r>
      </set>
      <set comment="kpoint 5">
       <r>  -21.1348    1.0000 </r>
       <r>  -21.0266    1.0000 </r>
       <r>  -20.9982    1.0000 </r>
       <r>  -20.9647    1.0000 </r>
       <r>  -20.9532    1.0000 </r>
       <r>  -20.9424    1.0000 </r>
       <r>  -20.8709    1.0000 </r>
       <r>  -16.8445    1.0000 </r>
       <r>  -16.8266    1.0000 </r>
       <r>  -16.8051    1.0000 </r>
       <r>  -16.7911    1.0000 </r>
       <r>  -16.7845    1.0000 </r>
       <r>  -16.7789    1.0000 </r>
       <r>  -16.7641    1.0000 </r>
       <r>  -16.7552    1.0000 </r>
       <r>  -16.7001    1.0000 </r>
       <r>  -16.6987    1.0000 </r>
       <r>  -16.6875    1.0000 </r>
       <r>  -16.6857    1.0000 </r>
       <r>  -16.6834    1.0000 </r>
       <r>  -16.6829    1.0000 </r>
       <r>  -16.6640    1.0000 </r>
       <r>  -16.6634    1.0000 </r>
       <r>  -16.6630    1.0000 </r>
       <r>  -16.6627    1.0000 </r>
       <r>  -16.6572    1.0000 </r>
       <r>  -16.6567    1.0000 </r>
       <r>  -16.5781    1.0000 </r>
       <r>  -16.5514    1.0000 </r>
       <r>  -16.5512    1.0000 </r>
       <r>  -16.5211    1.0000 </r>
       <r>  -16.5206    1.0000 </r>
       <r>  -16.5034    1.0000 </r>
       <r>  -16.5030    1.0000 </r>
       <r>  -16.4657    1.0000 </r>
       <r>  -16.4479    1.0000 </r>
       <r>  -16.4471    1.0000 </r>
       <r>  -16.4456    1.0000 </r>
       <r>  -16.4453    1.0000 </r>
       <r>  -16.4349    1.0000 </r>
       <r>  -16.4338    1.0000 </r>
       <r>  -16.3999    1.0000 </r>
       <r>  -16.3998    1.0000 </r>
       <r>  -16.3878    1.0000 </r>
       <r>  -16.3859    1.0000 </r>
       <r>  -16.3831    1.0000 </r>
       <r>  -16.3821    1.0000 </r>
       <r>  -14.7220    1.0000 </r>
       <r>  -14.6765    1.0000 </r>
       <r>  -14.5890    1.0000 </r>
       <r>  -14.4566    1.0000 </r>
       <r>  -14.4262    1.0000 </r>
       <r>  -14.3661    1.0000 </r>
       <r>  -14.3065    1.0000 </r>
       <r>  -14.2711    1.0000 </r>
       <r>  -14.2139    1.0000 </r>
       <r>  -14.1848    1.0000 </r>
       <r>  -14.1609    1.0000 </r>
       <r>  -14.1460    1.0000 </r>
       <r>  -14.1293    1.0000 </r>
       <r>  -14.1161    1.0000 </r>
       <r>  -14.1021    1.0000 </r>
       <r>  -14.0978    1.0000 </r>
       <r>  -14.0486    1.0000 </r>
       <r>  -13.9598    1.0000 </r>
       <r>  -13.9430    1.0000 </r>
       <r>  -13.9254    1.0000 </r>
       <r>  -13.9195    1.0000 </r>
       <r>  -13.9063    1.0000 </r>
       <r>  -13.8247    1.0000 </r>
       <r>  -13.6762    1.0000 </r>
       <r>   -8.2557    1.0000 </r>
       <r>   -8.2091    1.0000 </r>
       <r>   -7.8792    1.0000 </r>
       <r>   -7.8326    1.0000 </r>
       <r>   -7.6990    1.0000 </r>
       <r>   -7.6663    1.0000 </r>
       <r>   -7.6280    1.0000 </r>
       <r>   -7.5820    1.0000 </r>
       <r>   -7.5390    1.0000 </r>
       <r>   -7.4475    1.0000 </r>
       <r>   -7.4125    1.0000 </r>
       <r>   -7.4011    1.0000 </r>
       <r>   -7.4011    1.0000 </r>
       <r>   -7.3941    1.0000 </r>
       <r>   -7.3834    1.0000 </r>
       <r>   -7.3776    1.0000 </r>
       <r>   -7.3707    1.0000 </r>
       <r>   -7.3652    1.0000 </r>
       <r>   -7.3543    1.0000 </r>
       <r>   -7.3491    1.0000 </r>
       <r>   -7.3486    1.0000 </r>
       <r>   -7.3451    1.0000 </r>
       <r>   -7.3343    1.0000 </r>
       <r>   -7.3173    1.0000 </r>
       <r>   -7.2823    1.0000 </r>
       <r>   -7.2713    1.0000 </r>
       <r>   -7.2684    1.0000 </r>
       <r>   -7.0897    1.0000 </r>
       <r>   -7.0307    1.0000 </r>
       <r>   -3.6407    1.0000 </r>
       <r>   -3.5412    1.0000 </r>
       <r>   -3.3933    1.0000 </r>
       <r>   -3.3531    1.0000 </r>
       <r>   -3.2829    1.0000 </r>
       <r>   -3.2500    1.0000 </r>
       <r>   -3.2286    1.0000 </r>
       <r>   -3.1476    1.0000 </r>
       <r>   -2.9325    1.0000 </r>
       <r>   -2.9088    1.0000 </r>
       <r>   -2.8426    1.0000 </r>
       <r>   -2.6955    1.0000 </r>
       <r>   -2.5786    1.0000 </r>
       <r>   -2.5460    1.0000 </r>
       <r>   -2.5041    1.0000 </r>
       <r>   -2.4491    1.0000 </r>
       <r>   -2.4172    1.0000 </r>
       <r>   -2.3045    1.0000 </r>
       <r>   -2.2554    1.0000 </r>
       <r>   -2.2461    1.0000 </r>
       <r>   -2.2174    1.0000 </r>
       <r>   -2.1101    1.0000 </r>
       <r>   -2.1059    1.0000 </r>
       <r>   -1.9617    1.0000 </r>
       <r>   -1.9611    1.0000 </r>
       <r>   -1.9378    1.0000 </r>
       <r>   -1.8953    1.0000 </r>
       <r>   -1.8850    1.0000 </r>
       <r>   -1.8436    1.0000 </r>
       <r>   -1.7918    1.0000 </r>
       <r>   -1.7056    1.0000 </r>
       <r>   -1.6817    1.0000 </r>
       <r>   -1.6674    1.0000 </r>
       <r>   -1.6589    1.0000 </r>
       <r>   -1.6555    1.0000 </r>
       <r>   -1.6076    1.0000 </r>
       <r>   -1.6008    1.0000 </r>
       <r>   -1.5815    1.0000 </r>
       <r>   -1.5731    1.0000 </r>
       <r>   -1.5643    1.0000 </r>
       <r>   -1.5338    1.0000 </r>
       <r>   -1.5066    1.0000 </r>
       <r>   -1.4969    1.0000 </r>
       <r>   -1.4803    1.0000 </r>
       <r>   -1.4663    1.0000 </r>
       <r>   -1.4258    1.0000 </r>
       <r>   -1.4202    1.0000 </r>
       <r>   -1.3900    1.0000 </r>
       <r>   -1.3834    1.0000 </r>
       <r>   -1.3687    1.0000 </r>
       <r>   -1.3554    1.0000 </r>
       <r>   -1.3466    1.0000 </r>
       <r>   -1.2978    1.0000 </r>
       <r>   -1.2954    1.0000 </r>
       <r>   -1.2921    1.0000 </r>
       <r>   -1.2539    1.0000 </r>
       <r>   -1.2291    1.0000 </r>
       <r>   -1.2220    1.0000 </r>
       <r>   -1.2031    1.0000 </r>
       <r>   -1.1913    1.0000 </r>
       <r>   -1.1495    1.0000 </r>
       <r>   -1.1247    1.0000 </r>
       <r>   -1.0852    1.0000 </r>
       <r>   -0.9937    1.0000 </r>
       <r>   -0.9219    1.0000 </r>
       <r>   -0.9024    1.0000 </r>
       <r>   -0.7475    1.0000 </r>
       <r>   -0.7330    1.0000 </r>
       <r>   -0.7107    1.0000 </r>
       <r>   -0.6435    1.0000 </r>
       <r>   -0.1915    1.0000 </r>
       <r>   -0.0695    1.0000 </r>
       <r>    2.6824    0.0000 </r>
       <r>    2.7020    0.0000 </r>
       <r>    2.7589    0.0000 </r>
       <r>    2.8355    0.0000 </r>
       <r>    3.1126    0.0000 </r>
       <r>    3.1271    0.0000 </r>
       <r>    3.1866    0.0000 </r>
       <r>    3.2392    0.0000 </r>
       <r>    3.8579    0.0000 </r>
       <r>    4.0397    0.0000 </r>
       <r>    4.2165    0.0000 </r>
       <r>    4.3471    0.0000 </r>
       <r>    4.4119    0.0000 </r>
       <r>    4.4168    0.0000 </r>
       <r>    4.6612    0.0000 </r>
       <r>    4.7667    0.0000 </r>
       <r>    5.2430    0.0000 </r>
       <r>    5.2924    0.0000 </r>
       <r>    5.3892    0.0000 </r>
       <r>    5.4511    0.0000 </r>
       <r>    5.4880    0.0000 </r>
       <r>    5.6633    0.0000 </r>
       <r>    5.6712    0.0000 </r>
       <r>    5.8797    0.0000 </r>
       <r>    5.9580    0.0000 </r>
       <r>    5.9982    0.0000 </r>
       <r>    6.0662    0.0000 </r>
       <r>    6.1083    0.0000 </r>
       <r>    6.1218    0.0000 </r>
       <r>    6.2048    0.0000 </r>
       <r>    6.3174    0.0000 </r>
       <r>    6.3804    0.0000 </r>
       <r>    6.4260    0.0000 </r>
       <r>    6.4550    0.0000 </r>
       <r>    6.5214    0.0000 </r>
       <r>    6.5508    0.0000 </r>
      </set>
      <set comment="kpoint 6">
       <r>  -21.1348    1.0000 </r>
       <r>  -21.0265    1.0000 </r>
       <r>  -20.9981    1.0000 </r>
       <r>  -20.9646    1.0000 </r>
       <r>  -20.9531    1.0000 </r>
       <r>  -20.9424    1.0000 </r>
       <r>  -20.8709    1.0000 </r>
       <r>  -16.8445    1.0000 </r>
       <r>  -16.8265    1.0000 </r>
       <r>  -16.8048    1.0000 </r>
       <r>  -16.7905    1.0000 </r>
       <r>  -16.7824    1.0000 </r>
       <r>  -16.7760    1.0000 </r>
       <r>  -16.7622    1.0000 </r>
       <r>  -16.7526    1.0000 </r>
       <r>  -16.7000    1.0000 </r>
       <r>  -16.6986    1.0000 </r>
       <r>  -16.6875    1.0000 </r>
       <r>  -16.6857    1.0000 </r>
       <r>  -16.6834    1.0000 </r>
       <r>  -16.6829    1.0000 </r>
       <r>  -16.6639    1.0000 </r>
       <r>  -16.6633    1.0000 </r>
       <r>  -16.6629    1.0000 </r>
       <r>  -16.6626    1.0000 </r>
       <r>  -16.6571    1.0000 </r>
       <r>  -16.6566    1.0000 </r>
       <r>  -16.5793    1.0000 </r>
       <r>  -16.5544    1.0000 </r>
       <r>  -16.5535    1.0000 </r>
       <r>  -16.5218    1.0000 </r>
       <r>  -16.5213    1.0000 </r>
       <r>  -16.5052    1.0000 </r>
       <r>  -16.5051    1.0000 </r>
       <r>  -16.4663    1.0000 </r>
       <r>  -16.4479    1.0000 </r>
       <r>  -16.4470    1.0000 </r>
       <r>  -16.4455    1.0000 </r>
       <r>  -16.4452    1.0000 </r>
       <r>  -16.4348    1.0000 </r>
       <r>  -16.4338    1.0000 </r>
       <r>  -16.3999    1.0000 </r>
       <r>  -16.3997    1.0000 </r>
       <r>  -16.3878    1.0000 </r>
       <r>  -16.3859    1.0000 </r>
       <r>  -16.3831    1.0000 </r>
       <r>  -16.3820    1.0000 </r>
       <r>  -14.7225    1.0000 </r>
       <r>  -14.6760    1.0000 </r>
       <r>  -14.5872    1.0000 </r>
       <r>  -14.4545    1.0000 </r>
       <r>  -14.4257    1.0000 </r>
       <r>  -14.3628    1.0000 </r>
       <r>  -14.3233    1.0000 </r>
       <r>  -14.2857    1.0000 </r>
       <r>  -14.2739    1.0000 </r>
       <r>  -14.2116    1.0000 </r>
       <r>  -14.1593    1.0000 </r>
       <r>  -14.1582    1.0000 </r>
       <r>  -14.0811    1.0000 </r>
       <r>  -14.0661    1.0000 </r>
       <r>  -14.0456    1.0000 </r>
       <r>  -14.0378    1.0000 </r>
       <r>  -14.0007    1.0000 </r>
       <r>  -13.9769    1.0000 </r>
       <r>  -13.9682    1.0000 </r>
       <r>  -13.9556    1.0000 </r>
       <r>  -13.9391    1.0000 </r>
       <r>  -13.9389    1.0000 </r>
       <r>  -13.8327    1.0000 </r>
       <r>  -13.6808    1.0000 </r>
       <r>   -8.1627    1.0000 </r>
       <r>   -8.0934    1.0000 </r>
       <r>   -7.8434    1.0000 </r>
       <r>   -7.8395    1.0000 </r>
       <r>   -7.7976    1.0000 </r>
       <r>   -7.7785    1.0000 </r>
       <r>   -7.6106    1.0000 </r>
       <r>   -7.5459    1.0000 </r>
       <r>   -7.4640    1.0000 </r>
       <r>   -7.4455    1.0000 </r>
       <r>   -7.4140    1.0000 </r>
       <r>   -7.4114    1.0000 </r>
       <r>   -7.4025    1.0000 </r>
       <r>   -7.3951    1.0000 </r>
       <r>   -7.3864    1.0000 </r>
       <r>   -7.3817    1.0000 </r>
       <r>   -7.3675    1.0000 </r>
       <r>   -7.3645    1.0000 </r>
       <r>   -7.3546    1.0000 </r>
       <r>   -7.3504    1.0000 </r>
       <r>   -7.3442    1.0000 </r>
       <r>   -7.3393    1.0000 </r>
       <r>   -7.3352    1.0000 </r>
       <r>   -7.3132    1.0000 </r>
       <r>   -7.2973    1.0000 </r>
       <r>   -7.2767    1.0000 </r>
       <r>   -7.2702    1.0000 </r>
       <r>   -7.2561    1.0000 </r>
       <r>   -7.1938    1.0000 </r>
       <r>   -3.6361    1.0000 </r>
       <r>   -3.5338    1.0000 </r>
       <r>   -3.2610    1.0000 </r>
       <r>   -3.1646    1.0000 </r>
       <r>   -3.0072    1.0000 </r>
       <r>   -2.9889    1.0000 </r>
       <r>   -2.9253    1.0000 </r>
       <r>   -2.8507    1.0000 </r>
       <r>   -2.7933    1.0000 </r>
[...]
        <r>  0.0015  0.0024  0.0012 </r>
        <r>  0.0004  0.0014  0.0006 </r>
        <r>  0.0006  0.0026  0.0043 </r>
        <r>  0.0002  0.0012  0.0002 </r>
        <r>  0.0000  0.0013  0.0003 </r>
        <r>  0.0003  0.0013  0.0007 </r>
        <r>  0.0002  0.0001  0.0003 </r>
        <r>  0.0009  0.0012  0.0008 </r>
        <r>  0.0000  0.0004  0.0168 </r>
       </set>
       <set comment="band 199">
        <r>  0.0055  0.0008  0.0143 </r>
        <r>  0.0037  0.0016  0.0108 </r>
        <r>  0.0000  0.0001  0.0017 </r>
        <r>  0.0042  0.0029  0.0109 </r>
        <r>  0.0098  0.0024  0.0051 </r>
        <r>  0.0000  0.0006  0.0066 </r>
        <r>  0.0000  0.0025  0.0000 </r>
        <r>  0.0002  0.0050  0.0001 </r>
        <r>  0.0000  0.0045  0.0000 </r>
        <r>  0.0000  0.0015  0.0001 </r>
        <r>  0.0000  0.0045  0.0000 </r>
        <r>  0.0000  0.0015  0.0001 </r>
        <r>  0.0000  0.0025  0.0000 </r>
        <r>  0.0002  0.0050  0.0001 </r>
        <r>  0.0000  0.0073  0.0001 </r>
        <r>  0.0000  0.0000  0.0000 </r>
        <r>  0.0001  0.0042  0.0002 </r>
        <r>  0.0003  0.0072  0.0014 </r>
        <r>  0.0000  0.0000  0.0000 </r>
        <r>  0.0000  0.0004  0.0001 </r>
        <r>  0.0110  0.0005  0.0067 </r>
        <r>  0.0000  0.0011  0.0030 </r>
        <r>  0.0007  0.0018  0.0006 </r>
        <r>  0.0001  0.0016  0.0006 </r>
        <r>  0.0007  0.0029  0.0021 </r>
        <r>  0.0001  0.0001  0.0003 </r>
        <r>  0.0023  0.0054  0.0018 </r>
        <r>  0.0000  0.0012  0.0006 </r>
        <r>  0.0005  0.0021  0.0003 </r>
        <r>  0.0000  0.0014  0.0003 </r>
        <r>  0.0007  0.0018  0.0006 </r>
        <r>  0.0001  0.0016  0.0006 </r>
        <r>  0.0007  0.0029  0.0021 </r>
        <r>  0.0001  0.0001  0.0003 </r>
        <r>  0.0005  0.0021  0.0003 </r>
        <r>  0.0000  0.0014  0.0003 </r>
        <r>  0.0023  0.0054  0.0018 </r>
        <r>  0.0000  0.0012  0.0006 </r>
        <r>  0.0000  0.0008  0.0090 </r>
       </set>
       <set comment="band 200">
        <r>  0.0000  0.0000  0.0004 </r>
        <r>  0.0000  0.0000  0.0071 </r>
        <r>  0.0043  0.0007  0.0271 </r>
        <r>  0.0000  0.0000  0.0021 </r>
        <r>  0.0000  0.0000  0.0012 </r>
        <r>  0.0004  0.0004  0.0048 </r>
        <r>  0.0000  0.0043  0.0000 </r>
        <r>  0.0000  0.0025  0.0007 </r>
        <r>  0.0000  0.0028  0.0007 </r>
        <r>  0.0002  0.0004  0.0001 </r>
        <r>  0.0000  0.0028  0.0007 </r>
        <r>  0.0002  0.0004  0.0001 </r>
        <r>  0.0000  0.0043  0.0000 </r>
        <r>  0.0000  0.0025  0.0007 </r>
        <r>  0.0003  0.0040  0.0077 </r>
        <r>  0.0004  0.0014  0.0004 </r>
        <r>  0.0000  0.0002  0.0001 </r>
        <r>  0.0000  0.0002  0.0002 </r>
        <r>  0.0001  0.0062  0.0008 </r>
        <r>  0.0003  0.0013  0.0056 </r>
        <r>  0.0000  0.0010  0.0004 </r>
        <r>  0.0000  0.0000  0.0004 </r>
        <r>  0.0001  0.0046  0.0006 </r>
        <r>  0.0002  0.0002  0.0001 </r>
        <r>  0.0001  0.0003  0.0008 </r>
        <r>  0.0008  0.0021  0.0010 </r>
        <r>  0.0009  0.0012  0.0012 </r>
        <r>  0.0000  0.0001  0.0002 </r>
        <r>  0.0001  0.0023  0.0009 </r>
        <r>  0.0001  0.0027  0.0009 </r>
        <r>  0.0001  0.0046  0.0006 </r>
        <r>  0.0002  0.0002  0.0001 </r>
        <r>  0.0001  0.0003  0.0008 </r>
        <r>  0.0008  0.0021  0.0010 </r>
        <r>  0.0001  0.0023  0.0009 </r>
        <r>  0.0001  0.0027  0.0009 </r>
        <r>  0.0009  0.0012  0.0012 </r>
        <r>  0.0000  0.0001  0.0002 </r>
        <r>  0.0007  0.0006  0.0692 </r>
       </set>
       <set comment="band 201">
        <r>  0.0125  0.0010  0.0132 </r>
        <r>  0.0023  0.0029  0.0028 </r>
        <r>  0.0000  0.0000  0.0066 </r>
        <r>  0.0101  0.0008  0.0138 </r>
        <r>  0.0004  0.0005  0.0052 </r>
        <r>  0.0000  0.0007  0.0098 </r>
        <r>  0.0000  0.0023  0.0000 </r>
        <r>  0.0000  0.0038  0.0002 </r>
        <r>  0.0001  0.0050  0.0000 </r>
        <r>  0.0000  0.0120  0.0001 </r>
        <r>  0.0001  0.0050  0.0000 </r>
        <r>  0.0000  0.0120  0.0001 </r>
        <r>  0.0000  0.0023  0.0000 </r>
        <r>  0.0000  0.0038  0.0002 </r>
        <r>  0.0000  0.0002  0.0002 </r>
        <r>  0.0000  0.0045  0.0000 </r>
        <r>  0.0000  0.0001  0.0020 </r>
        <r>  0.0073  0.0014  0.0053 </r>
        <r>  0.0000  0.0000  0.0002 </r>
        <r>  0.0000  0.0069  0.0002 </r>
        <r>  0.0001  0.0033  0.0006 </r>
        <r>  0.0013  0.0040  0.0024 </r>
        <r>  0.0001  0.0015  0.0017 </r>
        <r>  0.0005  0.0036  0.0006 </r>
        <r>  0.0003  0.0032  0.0006 </r>
        <r>  0.0001  0.0015  0.0005 </r>
        <r>  0.0023  0.0038  0.0025 </r>
        <r>  0.0002  0.0021  0.0006 </r>
        <r>  0.0000  0.0001  0.0001 </r>
        <r>  0.0010  0.0006  0.0010 </r>
        <r>  0.0001  0.0015  0.0017 </r>
        <r>  0.0005  0.0036  0.0006 </r>
        <r>  0.0003  0.0032  0.0006 </r>
        <r>  0.0001  0.0015  0.0005 </r>
        <r>  0.0000  0.0001  0.0001 </r>
        <r>  0.0010  0.0006  0.0010 </r>
        <r>  0.0023  0.0037  0.0025 </r>
        <r>  0.0002  0.0021  0.0006 </r>
        <r>  0.0000  0.0006  0.0006 </r>
       </set>
       <set comment="band 202">
        <r>  0.0000  0.0001  0.0065 </r>
        <r>  0.0000  0.0004  0.0072 </r>
        <r>  0.0064  0.0003  0.0107 </r>
        <r>  0.0000  0.0000  0.0105 </r>
        <r>  0.0000  0.0005  0.0054 </r>
        <r>  0.0064  0.0006  0.0069 </r>
        <r>  0.0000  0.0052  0.0001 </r>
        <r>  0.0000  0.0008  0.0001 </r>
        <r>  0.0000  0.0096  0.0001 </r>
        <r>  0.0000  0.0096  0.0002 </r>
        <r>  0.0000  0.0096  0.0001 </r>
        <r>  0.0000  0.0097  0.0002 </r>
        <r>  0.0000  0.0052  0.0001 </r>
        <r>  0.0000  0.0008  0.0001 </r>
        <r>  0.0003  0.0041  0.0011 </r>
        <r>  0.0001  0.0025  0.0005 </r>
        <r>  0.0000  0.0079  0.0001 </r>
        <r>  0.0000  0.0001  0.0001 </r>
        <r>  0.0021  0.0010  0.0016 </r>
        <r>  0.0000  0.0010  0.0024 </r>
        <r>  0.0000  0.0003  0.0001 </r>
        <r>  0.0000  0.0000  0.0002 </r>
        <r>  0.0014  0.0039  0.0011 </r>
        <r>  0.0000  0.0001  0.0009 </r>
        <r>  0.0000  0.0005  0.0008 </r>
        <r>  0.0016  0.0019  0.0020 </r>
        <r>  0.0000  0.0012  0.0018 </r>
        <r>  0.0004  0.0046  0.0003 </r>
        <r>  0.0018  0.0024  0.0022 </r>
        <r>  0.0002  0.0021  0.0011 </r>
        <r>  0.0014  0.0038  0.0011 </r>
        <r>  0.0000  0.0001  0.0009 </r>
        <r>  0.0000  0.0005  0.0008 </r>
        <r>  0.0016  0.0018  0.0020 </r>
        <r>  0.0018  0.0024  0.0022 </r>
        <r>  0.0002  0.0021  0.0011 </r>
        <r>  0.0000  0.0012  0.0018 </r>
        <r>  0.0004  0.0046  0.0003 </r>
        <r>  0.0000  0.0079  0.0023 </r>
       </set>
       <set comment="band 203">
        <r>  0.0000  0.0000  0.0102 </r>
        <r>  0.0000  0.0003  0.0065 </r>
        <r>  0.0078  0.0003  0.0015 </r>
        <r>  0.0000  0.0009  0.0122 </r>
        <r>  0.0000  0.0008  0.0032 </r>
        <r>  0.0000  0.0008  0.0096 </r>
        <r>  0.0000  0.0065  0.0000 </r>
        <r>  0.0000  0.0130  0.0008 </r>
        <r>  0.0000  0.0007  0.0005 </r>
        <r>  0.0001  0.0049  0.0003 </r>
        <r>  0.0000  0.0007  0.0005 </r>
        <r>  0.0001  0.0050  0.0003 </r>
        <r>  0.0000  0.0063  0.0000 </r>
        <r>  0.0000  0.0128  0.0008 </r>
        <r>  0.0004  0.0020  0.0003 </r>
        <r>  0.0011  0.0009  0.0015 </r>
        <r>  0.0000  0.0000  0.0001 </r>
        <r>  0.0000  0.0005  0.0006 </r>
        <r>  0.0000  0.0029  0.0001 </r>
        <r>  0.0003  0.0048  0.0026 </r>
        <r>  0.0000  0.0020  0.0008 </r>
        <r>  0.0000  0.0083  0.0003 </r>
        <r>  0.0006  0.0003  0.0017 </r>
        <r>  0.0001  0.0046  0.0013 </r>
        <r>  0.0002  0.0017  0.0008 </r>
        <r>  0.0011  0.0013  0.0013 </r>
        <r>  0.0000  0.0010  0.0004 </r>
        <r>  0.0003  0.0023  0.0003 </r>
        <r>  0.0013  0.0014  0.0012 </r>
        <r>  0.0017  0.0028  0.0034 </r>
        <r>  0.0006  0.0003  0.0017 </r>
        <r>  0.0001  0.0046  0.0014 </r>
        <r>  0.0002  0.0018  0.0008 </r>
        <r>  0.0011  0.0014  0.0013 </r>
        <r>  0.0012  0.0014  0.0011 </r>
        <r>  0.0016  0.0028  0.0034 </r>
        <r>  0.0000  0.0010  0.0004 </r>
        <r>  0.0003  0.0024  0.0003 </r>
        <r>  0.0000  0.0045  0.0203 </r>
       </set>
       <set comment="band 204">
        <r>  0.0002  0.0007  0.0201 </r>
        <r>  0.0158  0.0012  0.0033 </r>
        <r>  0.0000  0.0004  0.0029 </r>
        <r>  0.0040  0.0027  0.0095 </r>
        <r>  0.0001  0.0024  0.0155 </r>
        <r>  0.0000  0.0001  0.0035 </r>
        <r>  0.0000  0.0131  0.0002 </r>
        <r>  0.0000  0.0005  0.0001 </r>
        <r>  0.0000  0.0023  0.0001 </r>
        <r>  0.0000  0.0027  0.0001 </r>
        <r>  0.0000  0.0023  0.0001 </r>
        <r>  0.0000  0.0026  0.0001 </r>
        <r>  0.0000  0.0130  0.0002 </r>
        <r>  0.0000  0.0005  0.0001 </r>
        <r>  0.0000  0.0003  0.0001 </r>
        <r>  0.0000  0.0017  0.0001 </r>
        <r>  0.0061  0.0038  0.0078 </r>
        <r>  0.0005  0.0029  0.0007 </r>
        <r>  0.0000  0.0093  0.0002 </r>
        <r>  0.0000  0.0000  0.0000 </r>
        <r>  0.0010  0.0028  0.0041 </r>
        <r>  0.0019  0.0036  0.0016 </r>
        <r>  0.0008  0.0036  0.0010 </r>
        <r>  0.0010  0.0006  0.0008 </r>
        <r>  0.0003  0.0011  0.0006 </r>
        <r>  0.0017  0.0007  0.0011 </r>
        <r>  0.0002  0.0025  0.0009 </r>
        <r>  0.0001  0.0032  0.0002 </r>
        <r>  0.0001  0.0024  0.0007 </r>
        <r>  0.0000  0.0009  0.0001 </r>
        <r>  0.0008  0.0036  0.0010 </r>
        <r>  0.0010  0.0006  0.0008 </r>
        <r>  0.0003  0.0011  0.0006 </r>
        <r>  0.0017  0.0007  0.0012 </r>
        <r>  0.0001  0.0024  0.0007 </r>
        <r>  0.0000  0.0009  0.0001 </r>
        <r>  0.0002  0.0025  0.0009 </r>
        <r>  0.0001  0.0032  0.0002 </r>
        <r>  0.0000  0.0001  0.0034 </r>
       </set>
       <set comment="band 205">
        <r>  0.0000  0.0000  0.0024 </r>
        <r>  0.0000  0.0006  0.0008 </r>
        <r>  0.0028  0.0016  0.0032 </r>
        <r>  0.0000  0.0004  0.0141 </r>
        <r>  0.0000  0.0001  0.0096 </r>
        <r>  0.0190  0.0010  0.0111 </r>
        <r>  0.0000  0.0044  0.0001 </r>
        <r>  0.0000  0.0078  0.0002 </r>
        <r>  0.0000  0.0043  0.0001 </r>
        <r>  0.0000  0.0060  0.0001 </r>
        <r>  0.0000  0.0042  0.0001 </r>
        <r>  0.0000  0.0059  0.0001 </r>
        <r>  0.0000  0.0044  0.0001 </r>
        <r>  0.0000  0.0078  0.0002 </r>
        <r>  0.0025  0.0015  0.0022 </r>
        <r>  0.0011  0.0050  0.0026 </r>
        <r>  0.0000  0.0004  0.0000 </r>
        <r>  0.0000  0.0070  0.0002 </r>
        <r>  0.0004  0.0023  0.0008 </r>
        <r>  0.0029  0.0046  0.0039 </r>
        <r>  0.0000  0.0040  0.0005 </r>
        <r>  0.0000  0.0051  0.0001 </r>
        <r>  0.0001  0.0017  0.0002 </r>
        <r>  0.0012  0.0008  0.0008 </r>
        <r>  0.0000  0.0025  0.0006 </r>
        <r>  0.0008  0.0030  0.0018 </r>
        <r>  0.0016  0.0006  0.0022 </r>
        <r>  0.0001  0.0006  0.0003 </r>
        <r>  0.0006  0.0017  0.0015 </r>
        <r>  0.0002  0.0041  0.0007 </r>
        <r>  0.0002  0.0017  0.0002 </r>
        <r>  0.0012  0.0008  0.0008 </r>
        <r>  0.0000  0.0026  0.0006 </r>
        <r>  0.0008  0.0030  0.0018 </r>
        <r>  0.0006  0.0017  0.0015 </r>
        <r>  0.0002  0.0040  0.0006 </r>
        <r>  0.0016  0.0006  0.0022 </r>
        <r>  0.0001  0.0006  0.0003 </r>
        <r>  0.0001  0.0034  0.0009 </r>
       </set>
       <set comment="band 206">
        <r>  0.0019  0.0003  0.0198 </r>
        <r>  0.0004  0.0002  0.0290 </r>
        <r>  0.0000  0.0002  0.0253 </r>
        <r>  0.0015  0.0001  0.0088 </r>
        <r>  0.0006  0.0001  0.0118 </r>
        <r>  0.0000  0.0002  0.0243 </r>
        <r>  0.0001  0.0048  0.0009 </r>
        <r>  0.0000  0.0035  0.0001 </r>
        <r>  0.0000  0.0080  0.0012 </r>
        <r>  0.0000  0.0031  0.0002 </r>
        <r>  0.0000  0.0081  0.0012 </r>
        <r>  0.0000  0.0030  0.0002 </r>
        <r>  0.0001  0.0051  0.0009 </r>
        <r>  0.0000  0.0035  0.0001 </r>
        <r>  0.0000  0.0001  0.0010 </r>
        <r>  0.0000  0.0001  0.0001 </r>
        <r>  0.0002  0.0003  0.0009 </r>
        <r>  0.0006  0.0008  0.0028 </r>
        <r>  0.0000  0.0002  0.0004 </r>
        <r>  0.0000  0.0000  0.0005 </r>
        <r>  0.0001  0.0003  0.0006 </r>
        <r>  0.0002  0.0001  0.0007 </r>
        <r>  0.0004  0.0007  0.0025 </r>
        <r>  0.0003  0.0003  0.0017 </r>
        <r>  0.0002  0.0014  0.0010 </r>
        <r>  0.0009  0.0021  0.0030 </r>
        <r>  0.0008  0.0009  0.0034 </r>
        <r>  0.0000  0.0000  0.0010 </r>
        <r>  0.0002  0.0020  0.0015 </r>
        <r>  0.0006  0.0034  0.0009 </r>
        <r>  0.0004  0.0008  0.0025 </r>
        <r>  0.0003  0.0003  0.0018 </r>
        <r>  0.0002  0.0013  0.0009 </r>
        <r>  0.0008  0.0022  0.0029 </r>
        <r>  0.0002  0.0020  0.0015 </r>
        <r>  0.0006  0.0033  0.0009 </r>
        <r>  0.0009  0.0008  0.0035 </r>
        <r>  0.0000  0.0000  0.0010 </r>
        <r>  0.0000  0.0004  0.0044 </r>
       </set>
       <set comment="band 207">
        <r>  0.0000  0.0010  0.0069 </r>
        <r>  0.0014  0.0001  0.0059 </r>
        <r>  0.0000  0.0001  0.0071 </r>
        <r>  0.0029  0.0003  0.0614 </r>
        <r>  0.0012  0.0003  0.0312 </r>
        <r>  0.0000  0.0001  0.0041 </r>
        <r>  0.0000  0.0021  0.0004 </r>
        <r>  0.0000  0.0026  0.0003 </r>
        <r>  0.0001  0.0018  0.0009 </r>
        <r>  0.0001  0.0026  0.0006 </r>
        <r>  0.0001  0.0018  0.0009 </r>
        <r>  0.0000  0.0029  0.0006 </r>
        <r>  0.0000  0.0018  0.0004 </r>
        <r>  0.0000  0.0022  0.0003 </r>
        <r>  0.0000  0.0000  0.0013 </r>
        <r>  0.0000  0.0020  0.0005 </r>
        <r>  0.0001  0.0007  0.0002 </r>
        <r>  0.0008  0.0005  0.0023 </r>
        <r>  0.0000  0.0002  0.0004 </r>
        <r>  0.0000  0.0001  0.0002 </r>
        <r>  0.0032  0.0013  0.0060 </r>
        <r>  0.0029  0.0010  0.0043 </r>
        <r>  0.0002  0.0043  0.0036 </r>
        <r>  0.0001  0.0022  0.0015 </r>
        <r>  0.0001  0.0009  0.0014 </r>
        <r>  0.0000  0.0003  0.0008 </r>
        <r>  0.0002  0.0002  0.0014 </r>
        <r>  0.0001  0.0013  0.0009 </r>
        <r>  0.0000  0.0007  0.0004 </r>
        <r>  0.0000  0.0022  0.0010 </r>
        <r>  0.0003  0.0043  0.0037 </r>
        <r>  0.0001  0.0026  0.0014 </r>
        <r>  0.0001  0.0009  0.0013 </r>
        <r>  0.0000  0.0003  0.0007 </r>
        <r>  0.0000  0.0007  0.0004 </r>
        <r>  0.0000  0.0021  0.0011 </r>
        <r>  0.0001  0.0003  0.0014 </r>
        <r>  0.0001  0.0010  0.0008 </r>
        <r>  0.0000  0.0000  0.0110 </r>
       </set>
       <set comment="band 208">
        <r>  0.0002  0.0004  0.0286 </r>
        <r>  0.0004  0.0005  0.0087 </r>
        <r>  0.0001  0.0005  0.0161 </r>
        <r>  0.0002  0.0004  0.0128 </r>
        <r>  0.0035  0.0001  0.0066 </r>
        <r>  0.0004  0.0004  0.0175 </r>
        <r>  0.0000  0.0030  0.0002 </r>
        <r>  0.0001  0.0067  0.0008 </r>
        <r>  0.0000  0.0015  0.0004 </r>
        <r>  0.0000  0.0021  0.0004 </r>
        <r>  0.0000  0.0014  0.0004 </r>
        <r>  0.0000  0.0013  0.0004 </r>
        <r>  0.0000  0.0035  0.0001 </r>
        <r>  0.0001  0.0081  0.0008 </r>
        <r>  0.0004  0.0010  0.0007 </r>
        <r>  0.0002  0.0019  0.0003 </r>
        <r>  0.0005  0.0012  0.0007 </r>
        <r>  0.0001  0.0004  0.0006 </r>
        <r>  0.0003  0.0015  0.0008 </r>
        <r>  0.0000  0.0023  0.0008 </r>
        <r>  0.0002  0.0008  0.0009 </r>
        <r>  0.0005  0.0003  0.0009 </r>
        <r>  0.0002  0.0017  0.0020 </r>
        <r>  0.0010  0.0017  0.0022 </r>
        <r>  0.0005  0.0025  0.0039 </r>
        <r>  0.0002  0.0012  0.0021 </r>
        <r>  0.0000  0.0007  0.0006 </r>
        <r>  0.0002  0.0008  0.0011 </r>
        <r>  0.0006  0.0011  0.0013 </r>
        <r>  0.0001  0.0021  0.0015 </r>
        <r>  0.0003  0.0014  0.0020 </r>
        <r>  0.0009  0.0010  0.0021 </r>
        <r>  0.0006  0.0021  0.0041 </r>
        <r>  0.0003  0.0016  0.0011 </r>
        <r>  0.0005  0.0025  0.0012 </r>
        <r>  0.0001  0.0026  0.0014 </r>
        <r>  0.0001  0.0006  0.0010 </r>
        <r>  0.0003  0.0010  0.0008 </r>
        <r>  0.0001  0.0004  0.0352 </r>
       </set>
      </set>
     </set>
    </set>
   </array>
  </projected>
 </calculation>
 <structure name="finalpos" >
  <crystal>
   <varray name="basis" >
    <v>       8.42001800       0.00000000       8.07798100 </v>
    <v>       0.00000000      11.76380800       0.00000000 </v>
    <v>      -8.42001800       0.00000000       8.07798100 </v>
   </varray>
   <i name="volume">   1600.27186790 </i>
   <varray name="rec_basis" >
    <v>       0.05938230      -0.00000000       0.06189665 </v>
    <v>       0.00000000       0.08500649      -0.00000000 </v>
    <v>      -0.05938230       0.00000000       0.06189665 </v>
   </varray>
  </crystal>
  <varray name="positions" >
   <v>       0.26567700       0.24999600       0.20697100 </v>
   <v>       0.77288400       0.25000200       0.71336800 </v>
   <v>       0.19988400       0.75000100       0.76152200 </v>
   <v>       0.28915900       0.25000300       0.73374400 </v>
   <v>       0.77470100       0.25000300       0.22568200 </v>
   <v>       0.73579800       0.75000100       0.78845100 </v>
   <v>       0.99685000       0.99753400       0.00334700 </v>
   <v>       0.50233000       0.00028300       0.49854800 </v>
   <v>       0.50075200       0.99962000       0.99481600 </v>
   <v>       0.00169800       0.99979900       0.49827900 </v>
   <v>       0.50074900       0.50036900       0.99482200 </v>
   <v>       0.00170000       0.50019800       0.49828100 </v>
   <v>       0.99684400       0.50244800       0.00335200 </v>
   <v>       0.50233900       0.49972500       0.49854700 </v>
   <v>       0.46445800       0.74999200       0.94359500 </v>
   <v>       0.96994100       0.75000200       0.48660100 </v>
   <v>       0.95875600       0.25000400       0.97275400 </v>
   <v>       0.46191000       0.25000800       0.48213800 </v>
   <v>       0.04338500       0.74999800       0.02514400 </v>
   <v>       0.53839400       0.75001300       0.53478800 </v>
   <v>       0.53617700       0.24999300       0.00883900 </v>
   <v>       0.03296200       0.25000100       0.54610800 </v>
   <v>       0.24717500       0.46337700       0.95295800 </v>
   <v>       0.74953200       0.45186200       0.46035900 </v>
   <v>       0.45758800       0.49946100       0.24379700 </v>
   <v>       0.95053200       0.52896500       0.75033300 </v>
   <v>       0.55677300       0.02949300       0.74849100 </v>
   <v>       0.03813800       0.04917200       0.25252400 </v>
   <v>       0.74932200       0.95870700       0.04926000 </v>
   <v>       0.25402300       0.97655800       0.55834500 </v>
   <v>       0.24717500       0.03662100       0.95295600 </v>
   <v>       0.74953500       0.04814400       0.46036400 </v>
   <v>       0.45759000       0.00053500       0.24380000 </v>
   <v>       0.95053400       0.97104000       0.75033600 </v>
   <v>       0.74932400       0.54128800       0.04925500 </v>
   <v>       0.25402400       0.52345100       0.55834500 </v>
   <v>       0.55677400       0.47051000       0.74849000 </v>
   <v>       0.03814000       0.45082500       0.25252600 </v>
   <v>       0.47019600       0.74999900       0.26655400 </v>
  </varray>
 </structure>
</modeling>
