CsPbBr3 cubic bulk                      
           1
     8.420018    0.000000    8.077981
     0.000000   11.763808    0.000000
    -8.420018    0.000000    8.077981
   Cs   Pb   Br   Cs
   6   8  24   1
Direct configuration=     1
   0.26567700  0.24999600  0.20697100
   0.77288400  0.25000200  0.71336800
   0.19988400  0.75000100  0.76152200
   0.28915900  0.25000300  0.73374400
   0.77470100  0.25000300  0.22568200
   0.73579800  0.75000100  0.78845100
   0.99685000  0.99753400  0.00334700
   0.50233000  0.00028300  0.49854800
   0.50075200  0.99962000  0.99481600
   0.00169800  0.99979900  0.49827900
   0.50074900  0.50036900  0.99482200
   0.00170000  0.50019800  0.49828100
   0.99684400  0.50244800  0.00335200
   0.50233900  0.49972500  0.49854700
   0.46445800  0.74999200  0.94359500
   0.96994100  0.75000200  0.48660100
   0.95875600  0.25000400  0.97275400
   0.46191000  0.25000800  0.48213800
   0.04338500  0.74999800  0.02514400
   0.53839400  0.75001300  0.53478800
   0.53617700  0.24999300  0.00883900
   0.03296200  0.25000100  0.54610800
   0.24717500  0.46337700  0.95295800
   0.74953200  0.45186200  0.46035900
   0.45758800  0.49946100  0.24379700
   0.95053200  0.52896500  0.75033300
   0.55677300  0.02949300  0.74849100
   0.03813800  0.04917200  0.25252400
   0.74932200  0.95870700  0.04926000
   0.25402300  0.97655800  0.55834500
   0.24717500  0.03662100  0.95295600
   0.74953500  0.04814400  0.46036400
   0.45759000  0.00053500  0.24380000
   0.95053400  0.97104000  0.75033600
   0.74932400  0.54128800  0.04925500
   0.25402400  0.52345100  0.55834500
   0.55677400  0.47051000  0.74849000
   0.03814000  0.45082500  0.25252600
   0.47019600  0.74999900  0.26655400
