<?xml version="1.0" encoding="ISO-8859-1"?>
<modeling>
 <generator>
  <i name="program" type="string">vasp </i>
  <i name="version" type="string">5.4.4.18Apr17-6-g9f103f2a35  </i>
  <i name="subversion" type="string">(build Jun 22 2020 09:27:21) complex            parallel </i>
  <i name="platform" type="string">tx2_gcc-7.3_libsci-18.07_cray-fftw-3.3.8 </i>
  <i name="date" type="string">2021 10 12 </i>
  <i name="time" type="string">05:26:57 </i>
 </generator>
 <incar>
  <i type="string" name="SYSTEM"> CsPbBr3 cubic bulk</i>
  <i type="string" name="PREC">accurate</i>
  <i type="string" name="ALGO"> NORMAL   ! Electronic minimisation algo</i>
  <i type="logical" name="ADDGRID"> T  </i>
  <i type="int" name="ISPIN">     1</i>
  <i type="int" name="NELM">   200</i>
  <i type="int" name="IBRION">     2</i>
  <i name="EDIFF">      0.00000100</i>
  <i name="EDIFFG">     -0.01000000</i>
  <i type="int" name="NSW">     0</i>
  <i type="int" name="ISIF">     2</i>
  <i type="int" name="ISYM">     0</i>
  <i name="ENCUT">    300.00000000</i>
  <i name="POTIM">      0.50000000</i>
  <i name="NUPDOWN">      0.00000000</i>
  <i name="NELECT">    344.00000000</i>
  <i type="string" name="LREAL"> AUTO</i>
  <i type="int" name="ISMEAR">     0</i>
  <i name="SIGMA">      0.01000000</i>
  <i type="logical" name="LWAVE"> F  </i>
  <i type="logical" name="LCHARG"> F  </i>
  <i type="logical" name="LVHAR"> T  </i>
  <i type="int" name="LORBIT">    10</i>
  <i type="logical" name="LASPH"> T  </i>
  <v type="int" name="KPOINT_BSE">    -1     0     0     0</v>
  <i type="int" name="NELM">   200</i>
  <i type="string" name="METAGGA"> SCAN       ! PBE exchange-correlation</i>
  <i type="logical" name="LASPH"> T  </i>
 </incar>
 <structure name="primitive_cell" >
  <crystal>
   <varray name="basis" >
    <v>       8.42001800       0.00000000       8.07798100 </v>
    <v>       0.00000000      11.76380800       0.00000000 </v>
    <v>      -8.42001800       0.00000000       8.07798100 </v>
   </varray>
   <i name="volume">   1600.27186790 </i>
   <varray name="rec_basis" >
    <v>       0.05938230      -0.00000000       0.06189665 </v>
    <v>       0.00000000       0.08500649      -0.00000000 </v>
    <v>      -0.05938230       0.00000000       0.06189665 </v>
   </varray>
  </crystal>
  <varray name="positions" >
   <v>       0.27062000       0.24862200       0.19970000 </v>
   <v>       0.05838900       0.02973000       0.25417600 </v>
   <v>       0.44469300       0.25100000       0.46846900 </v>
   <v>       0.05662800       0.47076400       0.25405800 </v>
   <v>      -0.46558600       0.25006100       0.03098000 </v>
   <v>       0.44139000      -0.02941700       0.24583700 </v>
   <v>       0.25209100       0.03033100      -0.04715300 </v>
   <v>       0.24981400       0.46280300      -0.05152400 </v>
   <v>       0.44338000      -0.47081600       0.24592900 </v>
   <v>      -0.02090300       0.24968600      -0.02828300 </v>
   <v>      -0.49394000      -0.00210800       0.00084100 </v>
   <v>      -0.49990500      -0.49865100      -0.00562400 </v>
   <v>       0.00367200      -0.49903300       0.00170400 </v>
   <v>      -0.00152900      -0.00314400       0.00682400 </v>
   <v>       0.02996700       0.25165600      -0.44681900 </v>
   <v>      -0.49835600       0.00320900       0.49316100 </v>
   <v>       0.49636400       0.49929100       0.49827900 </v>
   <v>       0.24791600      -0.03012800      -0.45284300 </v>
   <v>       0.25027200      -0.46255100      -0.44832800 </v>
   <v>       0.28731200       0.24165200      -0.26645900 </v>
   <v>      -0.00616300       0.00222400       0.49915600 </v>
   <v>      -0.00023500       0.49896300      -0.49435700 </v>
   <v>       0.22936700      -0.24860300       0.30045000 </v>
   <v>      -0.25012800       0.49866200       0.24985000 </v>
   <v>      -0.25494100       0.05584500       0.46267200 </v>
   <v>      -0.46680200       0.45244700      -0.25073600 </v>
   <v>       0.05564500      -0.25076400       0.03161600 </v>
   <v>      -0.45510600       0.03363100      -0.24966800 </v>
   <v>      -0.25293900       0.46322400       0.49091400 </v>
   <v>      -0.24692800      -0.46414600       0.00886000 </v>
   <v>      -0.24511200      -0.05601300       0.03727600 </v>
   <v>       0.47015200      -0.25142700      -0.05317600 </v>
   <v>      -0.04520000      -0.03374700      -0.25026100 </v>
   <v>      -0.03315700      -0.45186400      -0.24923300 </v>
   <v>      -0.47876700      -0.24945600      -0.47171400 </v>
   <v>      -0.03493200      -0.24989100       0.46859200 </v>
   <v>       0.21282600      -0.24127800      -0.23348600 </v>
   <v>      -0.22955000       0.24725200      -0.27013500 </v>
   <v>      -0.27041700      -0.24744300      -0.22949800 </v>
  </varray>
 </structure>
 <varray name="primitive_index" >
  <v type="int" >        1 </v>
  <v type="int" >       28 </v>
  <v type="int" >       18 </v>
  <v type="int" >       38 </v>
  <v type="int" >       21 </v>
  <v type="int" >       33 </v>
  <v type="int" >       31 </v>
  <v type="int" >       23 </v>
  <v type="int" >       25 </v>
  <v type="int" >       17 </v>
  <v type="int" >        9 </v>
  <v type="int" >       11 </v>
  <v type="int" >       13 </v>
  <v type="int" >        7 </v>
  <v type="int" >       22 </v>
  <v type="int" >        8 </v>
  <v type="int" >       14 </v>
  <v type="int" >       30 </v>
  <v type="int" >       36 </v>
  <v type="int" >        4 </v>
  <v type="int" >       10 </v>
  <v type="int" >       12 </v>
  <v type="int" >        6 </v>
  <v type="int" >       39 </v>
  <v type="int" >       32 </v>
  <v type="int" >       37 </v>
  <v type="int" >       19 </v>
  <v type="int" >       27 </v>
  <v type="int" >       24 </v>
  <v type="int" >       35 </v>
  <v type="int" >       29 </v>
  <v type="int" >       15 </v>
  <v type="int" >       34 </v>
  <v type="int" >       26 </v>
  <v type="int" >       20 </v>
  <v type="int" >       16 </v>
  <v type="int" >        3 </v>
  <v type="int" >        2 </v>
  <v type="int" >        5 </v>
 </varray>
 <kpoints>
  <generation param="Gamma">
   <v type="int" name="divisions">       2        2        2 </v>
   <v name="usershift">      0.00000000       0.00000000       0.00000000 </v>
   <v name="genvec1">      0.50000000       0.00000000       0.00000000 </v>
   <v name="genvec2">      0.00000000       0.50000000       0.00000000 </v>
   <v name="genvec3">      0.00000000       0.00000000       0.50000000 </v>
   <v name="shift">      0.00000000       0.00000000       0.00000000 </v>
  </generation>
  <varray name="kpointlist" >
   <v>       0.00000000       0.00000000       0.00000000 </v>
   <v>       0.50000000       0.00000000       0.00000000 </v>
   <v>       0.00000000       0.50000000       0.00000000 </v>
   <v>       0.50000000       0.50000000       0.00000000 </v>
   <v>       0.00000000       0.00000000       0.50000000 </v>
   <v>       0.50000000       0.00000000       0.50000000 </v>
   <v>       0.00000000       0.50000000       0.50000000 </v>
   <v>       0.50000000       0.50000000       0.50000000 </v>
  </varray>
  <varray name="weights" >
   <v>       0.12500000 </v>
   <v>       0.12500000 </v>
   <v>       0.12500000 </v>
   <v>       0.12500000 </v>
   <v>       0.12500000 </v>
   <v>       0.12500000 </v>
   <v>       0.12500000 </v>
   <v>       0.12500000 </v>
  </varray>
 </kpoints>
 <parameters>
  <separator name="general" >
   <i type="string" name="SYSTEM">CsPbBr3 cubic bulk</i>
   <i type="logical" name="LCOMPAT"> F  </i>
  </separator>
  <separator name="electronic" >
   <i type="string" name="PREC">accura</i>
   <i name="ENMAX">    300.00000000</i>
   <i name="ENAUG">    503.85200000</i>
   <i name="EDIFF">      0.00000100</i>
   <i type="int" name="IALGO">    38</i>
   <i type="int" name="IWAVPR">    10</i>
   <i type="int" name="NBANDS">   208</i>
   <i name="NELECT">    344.00000000</i>
   <i type="int" name="TURBO">     0</i>
   <i type="int" name="IRESTART">     0</i>
   <i type="int" name="NREBOOT">     0</i>
   <i type="int" name="NMIN">     0</i>
   <i name="EREF">      0.00000000</i>
   <separator name="electronic smearing" >
    <i type="int" name="ISMEAR">     0</i>
    <i name="SIGMA">      0.01000000</i>
    <i name="KSPACING">      0.50000000</i>
    <i type="logical" name="KGAMMA"> T  </i>
   </separator>
   <separator name="electronic projectors" >
    <i type="logical" name="LREAL"> T  </i>
    <v name="ROPT">     -0.00025000     -0.00025000     -0.00025000     -0.00025000</v>
    <i type="int" name="LMAXPAW">  -100</i>
    <i type="int" name="LMAXMIX">     2</i>
    <i type="logical" name="NLSPLINE"> F  </i>
   </separator>
   <separator name="electronic startup" >
    <i type="int" name="ISTART">     0</i>
    <i type="int" name="ICHARG">     2</i>
    <i type="int" name="INIWAV">     1</i>
   </separator>
   <separator name="electronic spin" >
    <i type="int" name="ISPIN">     1</i>
    <i type="logical" name="LNONCOLLINEAR"> F  </i>
    <v name="MAGMOM">      0.00000000      0.00000000      0.00000000      0.00000000      0.00000000      0.00000000      0.00000000      0.00000000      0.00000000      0.00000000      0.00000000      0.00000000      0.00000000      0.00000000      0.00000000      0.00000000      0.00000000      0.00000000      0.00000000      0.00000000
      0.00000000      0.00000000      0.00000000      0.00000000      0.00000000      0.00000000      0.00000000      0.00000000      0.00000000      0.00000000      0.00000000      0.00000000      0.00000000      0.00000000      0.00000000      0.00000000      0.00000000      0.00000000      0.00000000</v>
    <i name="NUPDOWN">      0.00000000</i>
    <i type="logical" name="LSORBIT"> F  </i>
    <v name="SAXIS">      0.00000000      0.00000000      1.00000000</v>
    <i type="logical" name="LSPIRAL"> F  </i>
    <v name="QSPIRAL">      0.00000000      0.00000000      0.00000000</v>
    <i type="logical" name="LZEROZ"> F  </i>
   </separator>
   <separator name="electronic exchange-correlation" >
    <i type="logical" name="LASPH"> T  </i>
    <i type="logical" name="LMETAGGA"> F  </i>
   </separator>
   <separator name="electronic convergence" >
    <i type="int" name="NELM">   200</i>
    <i type="int" name="NELMDL">    -5</i>
    <i type="int" name="NELMIN">     2</i>
    <i name="ENINI">    300.00000000</i>
    <separator name="electronic convergence detail" >
     <i type="logical" name="LDIAG"> T  </i>
     <i type="logical" name="LSUBROT"> F  </i>
     <i name="WEIMIN">      0.00000000</i>
     <i name="EBREAK">      0.00000000</i>
     <i name="DEPER">      0.30000000</i>
     <i type="int" name="NRMM">     4</i>
     <i name="TIME">      0.40000000</i>
    </separator>
   </separator>
   <separator name="electronic mixer" >
    <i name="AMIX">      0.40000000</i>
    <i name="BMIX">      1.00000000</i>
    <i name="AMIN">      0.10000000</i>
    <i name="AMIX_MAG">      1.60000000</i>
    <i name="BMIX_MAG">      1.00000000</i>
    <separator name="electronic mixer details" >
     <i type="int" name="IMIX">     4</i>
     <i type="logical" name="MIXFIRST"> F  </i>
     <i type="int" name="MAXMIX">   -45</i>
     <i name="WC">    100.00000000</i>
     <i type="int" name="INIMIX">     1</i>
     <i type="int" name="MIXPRE">     1</i>
     <i type="int" name="MREMOVE">     5</i>
    </separator>
   </separator>
   <separator name="electronic dipolcorrection" >
    <i type="logical" name="LDIPOL"> F  </i>
    <i type="logical" name="LMONO"> F  </i>
    <i type="int" name="IDIPOL">     0</i>
    <i name="EPSILON">      1.00000000</i>
    <v name="DIPOL">   -100.00000000   -100.00000000   -100.00000000</v>
    <i name="EFIELD">      0.00000000</i>
   </separator>
  </separator>
  <separator name="grids" >
   <i type="int" name="NGX">    70</i>
   <i type="int" name="NGY">    70</i>
   <i type="int" name="NGZ">    70</i>
   <i type="int" name="NGXF">   140</i>
   <i type="int" name="NGYF">   140</i>
   <i type="int" name="NGZF">   140</i>
   <i type="logical" name="ADDGRID"> T  </i>
  </separator>
  <separator name="ionic" >
   <i type="int" name="NSW">     0</i>
   <i type="int" name="IBRION">    -1</i>
   <i type="int" name="MDALGO">     0</i>
   <i type="int" name="ISIF">     2</i>
   <i name="PSTRESS">      0.00000000</i>
   <i name="EDIFFG">     -0.01000000</i>
   <i type="int" name="NFREE">     1</i>
   <i name="POTIM">      0.50000000</i>
   <i name="SMASS">     -3.00000000</i>
   <i name="SCALEE">      1.00000000</i>
  </separator>
  <separator name="ionic md" >
   <i name="TEBEG">      0.00010000</i>
   <i name="TEEND">      0.00010000</i>
   <i type="int" name="NBLOCK">     1</i>
   <i type="int" name="KBLOCK">     1</i>
   <i type="int" name="NPACO">   256</i>
   <i name="APACO">     16.00000000</i>
  </separator>
  <separator name="symmetry" >
   <i type="int" name="ISYM">     0</i>
   <i name="SYMPREC">      0.00001000</i>
  </separator>
  <separator name="dos" >
   <i type="int" name="LORBIT">    10</i>
   <v name="RWIGS">     -1.00000000     -1.00000000     -1.00000000     -1.00000000</v>
   <i type="int" name="NEDOS">   301</i>
   <i name="EMIN">     10.00000000</i>
   <i name="EMAX">    -10.00000000</i>
   <i name="EFERMI">      0.00000000</i>
  </separator>
  <separator name="writing" >
   <i type="int" name="NWRITE">     2</i>
   <i type="logical" name="LWAVE"> F  </i>
   <i type="logical" name="LDOWNSAMPLE"> F  </i>
   <i type="logical" name="LCHARG"> F  </i>
   <i type="logical" name="LPARD"> F  </i>
   <i type="logical" name="LVTOT"> F  </i>
   <i type="logical" name="LVHAR"> T  </i>
   <i type="logical" name="LELF"> F  </i>
   <i type="logical" name="LOPTICS"> F  </i>
   <v name="STM">      0.00000000      0.00000000      0.00000000      0.00000000      0.00000000      0.00000000      0.00000000</v>
  </separator>
  <separator name="performance" >
   <i type="int" name="NPAR">     8</i>
   <i type="int" name="NSIM">     4</i>
   <i type="int" name="NBLK">    -1</i>
   <i type="logical" name="LPLANE"> T  </i>
   <i type="logical" name="LSCALAPACK"> T  </i>
   <i type="logical" name="LSCAAWARE"> F  </i>
   <i type="logical" name="LSCALU"> F  </i>
   <i type="logical" name="LASYNC"> F  </i>
   <i type="logical" name="LORBITALREAL"> F  </i>
  </separator>
  <separator name="miscellaneous" >
   <i type="int" name="IDIOT">     3</i>
   <i type="int" name="ISPECIAL">     0</i>
   <i type="logical" name="LMUSIC"> F  </i>
   <v name="POMASS">    132.90000000    207.20000000     79.90400000    132.90000000</v>
   <v name="DARWINR">      0.00000000      0.00000000      0.00000000      0.00000000</v>
   <v name="DARWINV">      1.00000000      1.00000000      1.00000000      1.00000000</v>
   <i type="logical" name="LCORR"> T  </i>
  </separator>
  <i type="logical" name="GGA_COMPAT"> T  </i>
  <i type="logical" name="LBERRY"> F  </i>
  <i type="int" name="ICORELEVEL">     0</i>
  <i type="logical" name="LDAU"> F  </i>
  <i type="int" name="I_CONSTRAINED_M">     0</i>
  <separator name="electronic exchange-correlation" >
   <i type="string" name="GGA">--</i>
   <i type="int" name="VOSKOWN">     0</i>
   <i type="logical" name="LHFCALC"> F  </i>
   <i type="string" name="PRECFOCK"></i>
   <i type="logical" name="LSYMGRAD"> F  </i>
   <i type="logical" name="LHFONE"> F  </i>
   <i type="logical" name="LRHFCALC"> F  </i>
   <i type="logical" name="LTHOMAS"> F  </i>
   <i type="logical" name="LMODELHF"> F  </i>
   <i name="ENCUT4O">     -1.00000000</i>
   <i type="int" name="EXXOEP">     0</i>
   <i type="int" name="FOURORBIT">     0</i>
   <i name="AEXX">      0.00000000</i>
   <i name="HFALPHA">      0.00000000</i>
   <i name="MCALPHA">      0.00000000</i>
   <i name="ALDAX">      1.00000000</i>
   <i name="AGGAX">      1.00000000</i>
   <i name="ALDAC">      1.00000000</i>
   <i name="AGGAC">      1.00000000</i>
   <i type="int" name="NKREDX">     1</i>
   <i type="int" name="NKREDY">     1</i>
   <i type="int" name="NKREDZ">     1</i>
   <i type="logical" name="SHIFTRED"> F  </i>
   <i type="logical" name="ODDONLY"> F  </i>
   <i type="logical" name="EVENONLY"> F  </i>
   <i type="int" name="LMAXFOCK">     0</i>
   <i type="int" name="NMAXFOCKAE">     0</i>
   <i type="logical" name="LFOCKAEDFT"> F  </i>
   <i name="HFSCREEN">      0.00000000</i>
   <i name="HFSCREENC">      0.00000000</i>
   <i type="int" name="NBANDSGWLOW">     0</i>
  </separator>
  <separator name="vdW DFT" >
   <i type="logical" name="LUSE_VDW"> F  </i>
   <i name="Zab_VDW">     -0.84910000</i>
   <i name="PARAM1">      0.12340000</i>
   <i name="PARAM2">      1.00000000</i>
   <i name="PARAM3">      0.00000000</i>
  </separator>
  <separator name="model GW" >
   <i type="int" name="MODEL_GW">     0</i>
   <i name="MODEL_EPS0">     24.61956720</i>
   <i name="MODEL_ALPHA">      1.00000000</i>
  </separator>
  <separator name="linear response parameters" >
   <i type="logical" name="LEPSILON"> F  </i>
   <i type="logical" name="LRPA"> F  </i>
   <i type="logical" name="LNABLA"> F  </i>
   <i type="logical" name="LVEL"> F  </i>
   <i type="int" name="KINTER">     0</i>
   <i name="CSHIFT">      0.10000000</i>
   <i name="OMEGAMAX">     -1.00000000</i>
   <i name="DEG_THRESHOLD">      0.00200000</i>
   <i name="RTIME">     -0.10000000</i>
   <i name="WPLASMAI">      0.00000000</i>
   <v name="DFIELD">      0.00000000      0.00000000      0.00000000</v>
   <v name="WPLASMA">      0.00000000      0.00000000      0.00000000      0.00000000      0.00000000      0.00000000      0.00000000      0.00000000      0.00000000</v>
  </separator>
  <separator name="orbital magnetization" >
   <i type="logical" name="NUCIND"> F  </i>
   <v name="MAGPOS">      0.00000000      0.00000000      0.00000000</v>
   <i type="logical" name="LNICSALL"> T  </i>
   <i type="logical" name="ORBITALMAG"> F  </i>
   <i type="logical" name="LMAGBLOCH"> F  </i>
   <i type="logical" name="LCHIMAG"> F  </i>
   <i type="logical" name="LGAUGE"> T  </i>
   <i type="int" name="MAGATOM">     0</i>
   <v name="MAGDIPOL">      0.00000000      0.00000000      0.00000000</v>
   <v name="AVECCONST">      0.00000000      0.00000000      0.00000000</v>
  </separator>
  <separator name="response functions" >
   <i type="logical" name="LADDER"> F  </i>
   <i type="logical" name="LRPAFORCE"> F  </i>
   <i type="logical" name="LFXC"> F  </i>
   <i type="logical" name="LHARTREE"> T  </i>
   <i type="int" name="IBSE">     0</i>
   <v type="int" name="KPOINT">    -1     0     0     0</v>
   <i type="logical" name="LTCTE"> F  </i>
   <i type="logical" name="LTETE"> F  </i>
   <i type="logical" name="LTRIPLET"> F  </i>
   <i type="logical" name="LFXCEPS"> F  </i>
   <i type="logical" name="LFXHEG"> F  </i>
   <i type="int" name="NATURALO">     2</i>
   <i type="logical" name="L2ORDER"> F  </i>
   <i type="logical" name="LMP2LT"> F  </i>
   <i type="logical" name="LUSEW"> F  </i>
   <i name="ENCUTGW">     -2.00000000</i>
   <i name="ENCUTGWSOFT">     -2.00000000</i>
   <i name="ENCUTLF">     -1.00000000</i>
   <i type="int" name="LMAXMP2">    -1</i>
   <i name="SCISSOR">      0.00000000</i>
   <i type="int" name="NOMEGA">     0</i>
   <i type="int" name="NOMEGAR">     0</i>
   <i type="int" name="NBANDSGW">    -1</i>
   <i type="int" name="NBANDSO">    -1</i>
   <i type="int" name="NBANDSV">    -1</i>
   <i type="int" name="NELM">   200</i>
   <i type="int" name="NELMHF">     1</i>
   <i type="int" name="DIM">     3</i>
   <i type="int" name="ANTIRES">     0</i>
   <i name="OMEGAMAX">    -30.00000000</i>
   <i name="OMEGAMIN">    -30.00000000</i>
   <i name="OMEGATL">   -200.00000000</i>
   <i type="int" name="OMEGAGRID">   140</i>
   <i name="CSHIFT">     -0.10000000</i>
   <i type="logical" name="SELFENERGY"> F  </i>
   <i type="logical" name="LSPECTRAL"> F  </i>
   <i type="logical" name="LSPECTRALGW"> F  </i>
   <i type="logical" name="LSINGLES"> F  </i>
   <i type="logical" name="LFERMIGW"> F  </i>
   <i type="logical" name="ODDONLYGW"> F  </i>
   <i type="logical" name="EVENONLYGW"> F  </i>
   <i type="int" name="NKREDLFX">     1</i>
   <i type="int" name="NKREDLFY">     1</i>
   <i type="int" name="NKREDLFZ">     1</i>
   <i type="int" name="MAXMEM">  2800</i>
   <i type="int" name="TELESCOPE">     0</i>
   <i type="int" name="TAUPAR">     1</i>
   <i type="int" name="OMEGAPAR">    -1</i>
   <i name="LAMBDA">      1.00000000</i>
  </separator>
  <separator name="External order field" >
   <i name="OFIELD_KAPPA">      0.00000000</i>
   <v name="OFIELD_K">      0.00000000      0.00000000      0.00000000</v>
   <i name="OFIELD_Q6_NEAR">      0.00000000</i>
   <i name="OFIELD_Q6_FAR">      0.00000000</i>
   <i name="OFIELD_A">      0.00000000</i>
  </separator>
 </parameters>
 <atominfo>
  <atoms>      39 </atoms>
  <types>       4 </types>
  <array name="atoms" >
   <dimension dim="1">ion</dimension>
   <field type="string">element</field>
   <field type="int">atomtype</field>
   <set>
    <rc><c>Cs</c><c>   1</c></rc>
    <rc><c>Cs</c><c>   1</c></rc>
    <rc><c>Cs</c><c>   1</c></rc>
    <rc><c>Cs</c><c>   1</c></rc>
    <rc><c>Cs</c><c>   1</c></rc>
    <rc><c>Cs</c><c>   1</c></rc>
    <rc><c>Pb</c><c>   2</c></rc>
    <rc><c>Pb</c><c>   2</c></rc>
    <rc><c>Pb</c><c>   2</c></rc>
    <rc><c>Pb</c><c>   2</c></rc>
    <rc><c>Pb</c><c>   2</c></rc>
    <rc><c>Pb</c><c>   2</c></rc>
    <rc><c>Pb</c><c>   2</c></rc>
    <rc><c>Pb</c><c>   2</c></rc>
    <rc><c>Br</c><c>   3</c></rc>
    <rc><c>Br</c><c>   3</c></rc>
    <rc><c>Br</c><c>   3</c></rc>
    <rc><c>Br</c><c>   3</c></rc>
    <rc><c>Br</c><c>   3</c></rc>
    <rc><c>Br</c><c>   3</c></rc>
    <rc><c>Br</c><c>   3</c></rc>
    <rc><c>Br</c><c>   3</c></rc>
    <rc><c>Br</c><c>   3</c></rc>
    <rc><c>Br</c><c>   3</c></rc>
    <rc><c>Br</c><c>   3</c></rc>
    <rc><c>Br</c><c>   3</c></rc>
    <rc><c>Br</c><c>   3</c></rc>
    <rc><c>Br</c><c>   3</c></rc>
    <rc><c>Br</c><c>   3</c></rc>
    <rc><c>Br</c><c>   3</c></rc>
    <rc><c>Br</c><c>   3</c></rc>
    <rc><c>Br</c><c>   3</c></rc>
    <rc><c>Br</c><c>   3</c></rc>
    <rc><c>Br</c><c>   3</c></rc>
    <rc><c>Br</c><c>   3</c></rc>
    <rc><c>Br</c><c>   3</c></rc>
    <rc><c>Br</c><c>   3</c></rc>
    <rc><c>Br</c><c>   3</c></rc>
    <rc><c>Cs</c><c>   4</c></rc>
   </set>
  </array>
  <array name="atomtypes" >
   <dimension dim="1">type</dimension>
   <field type="int">atomspertype</field>
   <field type="string">element</field>
   <field>mass</field>
   <field>valence</field>
   <field type="string">pseudopotential</field>
   <set>
    <rc><c>   6</c><c>Cs</c><c>    132.90000000</c><c>      9.00000000</c><c>  PAW_PBE Cs_sv 08Apr2002               </c></rc>
    <rc><c>   8</c><c>Pb</c><c>    207.20000000</c><c>     14.00000000</c><c>  PAW_PBE Pb_d 06Sep2000                </c></rc>
    <rc><c>  24</c><c>Br</c><c>     79.90400000</c><c>      7.00000000</c><c>  PAW_PBE Br 06Sep2000                  </c></rc>
    <rc><c>   1</c><c>Cs</c><c>    132.90000000</c><c>      9.00000000</c><c>  PAW_PBE Cs_sv 08Apr2002               </c></rc>
   </set>
  </array>
 </atominfo>
 <structure name="initialpos" >
  <crystal>
   <varray name="basis" >
    <v>       8.42001800       0.00000000       8.07798100 </v>
    <v>       0.00000000      11.76380800       0.00000000 </v>
    <v>      -8.42001800       0.00000000       8.07798100 </v>
   </varray>
   <i name="volume">   1600.27186790 </i>
   <varray name="rec_basis" >
    <v>       0.05938230      -0.00000000       0.06189665 </v>
    <v>       0.00000000       0.08500649      -0.00000000 </v>
    <v>      -0.05938230       0.00000000       0.06189665 </v>
   </varray>
  </crystal>
  <varray name="positions" >
   <v>       0.27062000       0.24862200       0.19970000 </v>
   <v>       0.77045000       0.24725200       0.72986500 </v>
   <v>       0.21282600       0.75872200       0.76651400 </v>
   <v>       0.28731200       0.24165200       0.73354100 </v>
   <v>       0.72958300       0.75255700       0.77050200 </v>
   <v>       0.22936700       0.75139700       0.30045000 </v>
   <v>       0.99847100       0.99685600       0.00682400 </v>
   <v>       0.50164400       0.00320900       0.49316100 </v>
   <v>       0.50606000       0.99789200       0.00084100 </v>
   <v>       0.99383700       0.00222400       0.49915600 </v>
   <v>       0.50009500       0.50134900       0.99437600 </v>
   <v>       0.99976500       0.49896300       0.50564300 </v>
   <v>       0.00367200       0.50096700       0.00170400 </v>
   <v>       0.49636400       0.49929100       0.49827900 </v>
   <v>       0.47015200       0.74857300       0.94682400 </v>
   <v>       0.96506800       0.75010900       0.46859200 </v>
   <v>       0.97909700       0.24968600       0.97171700 </v>
   <v>       0.44469300       0.25100000       0.46846900 </v>
   <v>       0.05564500       0.74923600       0.03161600 </v>
   <v>       0.52123300       0.75054400       0.52828600 </v>
   <v>       0.53441400       0.25006100       0.03098000 </v>
   <v>       0.02996700       0.25165600       0.55318100 </v>
   <v>       0.24981400       0.46280300       0.94847600 </v>
   <v>       0.74706100       0.46322400       0.49091400 </v>
   <v>       0.44338000       0.52918400       0.24592900 </v>
   <v>       0.96684300       0.54813600       0.75076700 </v>
   <v>       0.54489400       0.03363100       0.75033200 </v>
   <v>       0.05838900       0.02973000       0.25417600 </v>
   <v>       0.75488800       0.94398700       0.03727600 </v>
   <v>       0.24791600       0.96987200       0.54715700 </v>
   <v>       0.25209100       0.03033100       0.95284700 </v>
   <v>       0.74505900       0.05584500       0.46267200 </v>
   <v>       0.44139000       0.97058300       0.24583700 </v>
   <v>       0.95480000       0.96625300       0.74973900 </v>
   <v>       0.75307200       0.53585400       0.00886000 </v>
   <v>       0.25027200       0.53744900       0.55167200 </v>
   <v>       0.53319800       0.45244700       0.74926400 </v>
   <v>       0.05662800       0.47076400       0.25405800 </v>
   <v>       0.74987200       0.49866200       0.24985000 </v>
  </varray>
 </structure>
 <calculation>
  <scstep>
   <time name="dav">   16.51   16.52</time>
   <time name="total">   17.97   17.99</time>
   <energy>
    <i name="alphaZ">    835.99855037 </i>
    <i name="ewald"> -17361.47014515 </i>
    <i name="hartreedc">  -7760.74327529 </i>
    <i name="XCdc">    905.95030913 </i>
    <i name="pawpsdc">  21217.07306836 </i>
    <i name="pawaedc"> -22257.58625956 </i>
    <i name="eentropy">     -0.00024410 </i>
    <i name="bandstr">   -240.11126215 </i>
    <i name="atom">  26024.88362379 </i>
    <i name="e_fr_energy">   1363.99436540 </i>
    <i name="e_wo_entrp">   1363.99460949 </i>
    <i name="e_0_energy">   1363.99448745 </i>
   </energy>
  </scstep>
  <scstep>
   <time name="dav">   18.50   18.55</time>
   <time name="total">   18.50   18.56</time>
   <energy>
    <i name="e_fr_energy">  -1092.29026856 </i>
    <i name="e_wo_entrp">  -1092.29026856 </i>
    <i name="e_0_energy">  -1092.29026856 </i>
   </energy>
  </scstep>
  <scstep>
   <time name="dav">   19.27   19.29</time>
   <time name="total">   19.27   19.29</time>
   <energy>
    <i name="e_fr_energy">  -1451.70970473 </i>
    <i name="e_wo_entrp">  -1451.70970473 </i>
    <i name="e_0_energy">  -1451.70970473 </i>
   </energy>
  </scstep>
  <scstep>
   <time name="dav">   17.86   17.91</time>
   <time name="total">   17.86   17.91</time>
   <energy>
    <i name="e_fr_energy">  -1463.88016041 </i>
    <i name="e_wo_entrp">  -1463.88016041 </i>
    <i name="e_0_energy">  -1463.88016041 </i>
   </energy>
  </scstep>
  <scstep>
   <time name="dav">   19.32   19.35</time>
   <time name="total">   22.04   22.07</time>
   <energy>
    <i name="e_fr_energy">  -1464.41980404 </i>
    <i name="e_wo_entrp">  -1464.41980404 </i>
    <i name="e_0_energy">  -1464.41980404 </i>
   </energy>
  </scstep>
  <scstep>
   <time name="dav">   19.04   19.04</time>
   <time name="total">   23.20   23.25</time>
   <energy>
    <i name="e_fr_energy">  -1385.40076569 </i>
    <i name="e_wo_entrp">  -1385.40076569 </i>
    <i name="e_0_energy">  -1385.40076569 </i>
   </energy>
  </scstep>
  <scstep>
   <time name="dav">   18.66   18.66</time>
   <time name="total">   22.83   22.87</time>
   <energy>
    <i name="e_fr_energy">  -1384.99521407 </i>
    <i name="e_wo_entrp">  -1384.99521407 </i>
    <i name="e_0_energy">  -1384.99521407 </i>
   </energy>
  </scstep>
  <scstep>
   <time name="dav">   17.75   17.75</time>
   <time name="total">   21.91   21.95</time>
   <energy>
    <i name="e_fr_energy">  -1385.17758361 </i>
    <i name="e_wo_entrp">  -1385.17758361 </i>
    <i name="e_0_energy">  -1385.17758361 </i>
   </energy>
  </scstep>
  <scstep>
   <time name="dav">   17.12   17.12</time>
   <time name="total">   21.31   21.33</time>
   <energy>
    <i name="e_fr_energy">  -1385.26328437 </i>
    <i name="e_wo_entrp">  -1385.26328437 </i>
    <i name="e_0_energy">  -1385.26328437 </i>
   </energy>
  </scstep>
  <scstep>
   <time name="dav">   20.00   20.00</time>
   <time name="total">   24.19   24.22</time>
   <energy>
    <i name="e_fr_energy">  -1385.26591106 </i>
    <i name="e_wo_entrp">  -1385.26591106 </i>
    <i name="e_0_energy">  -1385.26591106 </i>
   </energy>
  </scstep>
  <scstep>
   <time name="dav">   17.23   17.23</time>
   <time name="total">   21.39   21.45</time>
   <energy>
    <i name="e_fr_energy">  -1385.26956249 </i>
    <i name="e_wo_entrp">  -1385.26956249 </i>
    <i name="e_0_energy">  -1385.26956249 </i>
   </energy>
  </scstep>
  <scstep>
   <time name="dav">   17.36   17.36</time>
   <time name="total">   21.52   21.56</time>
   <energy>
    <i name="e_fr_energy">  -1385.27168191 </i>
    <i name="e_wo_entrp">  -1385.27168191 </i>
    <i name="e_0_energy">  -1385.27168191 </i>
   </energy>
  </scstep>
  <scstep>
   <time name="dav">   19.54   19.55</time>
   <time name="total">   23.73   23.75</time>
   <energy>
    <i name="e_fr_energy">  -1385.27152492 </i>
    <i name="e_wo_entrp">  -1385.27152492 </i>
    <i name="e_0_energy">  -1385.27152492 </i>
   </energy>
  </scstep>
  <scstep>
   <time name="dav">   17.54   17.54</time>
   <time name="total">   21.75   21.76</time>
   <energy>
    <i name="e_fr_energy">  -1385.27153516 </i>
    <i name="e_wo_entrp">  -1385.27153516 </i>
    <i name="e_0_energy">  -1385.27153516 </i>
   </energy>
  </scstep>
  <scstep>
   <time name="dav">   17.04   17.05</time>
   <time name="total">   21.22   21.27</time>
   <energy>
    <i name="e_fr_energy">  -1385.27154917 </i>
    <i name="e_wo_entrp">  -1385.27154917 </i>
    <i name="e_0_energy">  -1385.27154917 </i>
   </energy>
  </scstep>
  <scstep>
   <time name="dav">   16.97   16.97</time>
   <time name="total">   21.15   21.18</time>
   <energy>
    <i name="e_fr_energy">  -1385.27160568 </i>
    <i name="e_wo_entrp">  -1385.27160568 </i>
    <i name="e_0_energy">  -1385.27160568 </i>
   </energy>
  </scstep>
  <scstep>
   <time name="dav">   17.06   17.06</time>
   <time name="total">   21.26   21.27</time>
   <energy>
    <i name="e_fr_energy">  -1385.27159904 </i>
    <i name="e_wo_entrp">  -1385.27159904 </i>
    <i name="e_0_energy">  -1385.27159904 </i>
   </energy>
  </scstep>
  <scstep>
   <time name="dav">   12.77   12.77</time>
   <time name="total">   14.26   14.28</time>
   <energy>
    <i name="alphaZ">    835.99855037 </i>
    <i name="ewald"> -17361.47014515 </i>
    <i name="hartreedc">  -7796.49780103 </i>
    <i name="XCdc">    947.87612308 </i>
    <i name="pawpsdc">  22843.00853043 </i>
    <i name="pawaedc"> -23882.50819429 </i>
    <i name="eentropy">     -0.00000000 </i>
    <i name="bandstr">  -2996.56228538 </i>
    <i name="atom">  26024.88362379 </i>
    <i name="e_fr_energy">  -1385.27159817 </i>
    <i name="e_wo_entrp">  -1385.27159817 </i>
    <i name="e_0_energy">  -1385.27159817 </i>
   </energy>
  </scstep>
  <structure>
   <crystal>
    <varray name="basis" >
     <v>       8.42001800       0.00000000       8.07798100 </v>
     <v>       0.00000000      11.76380800       0.00000000 </v>
     <v>      -8.42001800       0.00000000       8.07798100 </v>
    </varray>
    <i name="volume">   1600.27186790 </i>
    <varray name="rec_basis" >
     <v>       0.05938230      -0.00000000       0.06189665 </v>
     <v>       0.00000000       0.08500649      -0.00000000 </v>
     <v>      -0.05938230       0.00000000       0.06189665 </v>
    </varray>
   </crystal>
   <varray name="positions" >
    <v>       0.27062000       0.24862200       0.19970000 </v>
    <v>       0.77045000       0.24725200       0.72986500 </v>
    <v>       0.21282600       0.75872200       0.76651400 </v>
    <v>       0.28731200       0.24165200       0.73354100 </v>
    <v>       0.72958300       0.75255700       0.77050200 </v>
    <v>       0.22936700       0.75139700       0.30045000 </v>
    <v>       0.99847100       0.99685600       0.00682400 </v>
    <v>       0.50164400       0.00320900       0.49316100 </v>
    <v>       0.50606000       0.99789200       0.00084100 </v>
    <v>       0.99383700       0.00222400       0.49915600 </v>
    <v>       0.50009500       0.50134900       0.99437600 </v>
    <v>       0.99976500       0.49896300       0.50564300 </v>
    <v>       0.00367200       0.50096700       0.00170400 </v>
    <v>       0.49636400       0.49929100       0.49827900 </v>
    <v>       0.47015200       0.74857300       0.94682400 </v>
    <v>       0.96506800       0.75010900       0.46859200 </v>
    <v>       0.97909700       0.24968600       0.97171700 </v>
    <v>       0.44469300       0.25100000       0.46846900 </v>
    <v>       0.05564500       0.74923600       0.03161600 </v>
    <v>       0.52123300       0.75054400       0.52828600 </v>
    <v>       0.53441400       0.25006100       0.03098000 </v>
    <v>       0.02996700       0.25165600       0.55318100 </v>
    <v>       0.24981400       0.46280300       0.94847600 </v>
    <v>       0.74706100       0.46322400       0.49091400 </v>
    <v>       0.44338000       0.52918400       0.24592900 </v>
    <v>       0.96684300       0.54813600       0.75076700 </v>
    <v>       0.54489400       0.03363100       0.75033200 </v>
    <v>       0.05838900       0.02973000       0.25417600 </v>
    <v>       0.75488800       0.94398700       0.03727600 </v>
    <v>       0.24791600       0.96987200       0.54715700 </v>
    <v>       0.25209100       0.03033100       0.95284700 </v>
    <v>       0.74505900       0.05584500       0.46267200 </v>
    <v>       0.44139000       0.97058300       0.24583700 </v>
    <v>       0.95480000       0.96625300       0.74973900 </v>
    <v>       0.75307200       0.53585400       0.00886000 </v>
    <v>       0.25027200       0.53744900       0.55167200 </v>
    <v>       0.53319800       0.45244700       0.74926400 </v>
    <v>       0.05662800       0.47076400       0.25405800 </v>
    <v>       0.74987200       0.49866200       0.24985000 </v>
   </varray>
  </structure>
  <varray name="forces" >
   <v>       0.00784881      -0.05762112      -0.01266340 </v>
   <v>       0.01529140      -0.04407200       0.01621621 </v>
   <v>      -0.00143821       0.01122768      -0.00986350 </v>
   <v>       0.00146588      -0.01368679       0.00925123 </v>
   <v>      -0.01531825       0.04465602      -0.02006863 </v>
   <v>      -0.00818457       0.05845111       0.01218399 </v>
   <v>      -0.10689007       0.03909473       0.00599021 </v>
   <v>       0.10106546      -0.03861719      -0.01112053 </v>
   <v>       0.02664829      -0.01360156       0.12720113 </v>
   <v>      -0.02300676       0.01055941      -0.12136087 </v>
   <v>      -0.10542535      -0.04420980      -0.37887415 </v>
   <v>       0.10669575       0.04510142       0.38041579 </v>
   <v>       0.33993296      -0.06697124       0.09053518 </v>
   <v>      -0.33820219       0.06630341      -0.08650158 </v>
   <v>       0.01417151      -0.06218791      -0.00204282 </v>
   <v>       0.00502718      -0.09143932      -0.02857444 </v>
   <v>      -0.00556928       0.08446355       0.00897627 </v>
   <v>       0.00057716       0.07349260      -0.00242648 </v>
   <v>      -0.00151651      -0.07251587       0.00224695 </v>
   <v>       0.00431449      -0.08467760      -0.00911819 </v>
   <v>      -0.00424814       0.09356231       0.03141314 </v>
   <v>      -0.01661500       0.06047861       0.00110388 </v>
   <v>       0.02746699       0.02533268       0.02599266 </v>
   <v>      -2.00224536      -0.47988440       1.85092105 </v>
   <v>       0.00428509      -0.02298404      -0.00428496 </v>
   <v>      -0.00720123      -0.03630998      -0.01080226 </v>
   <v>       0.00309714       0.01778825      -0.00107002 </v>
   <v>       0.03583411      -0.02802294       0.01861489 </v>
   <v>       0.03020437      -0.03919907      -0.03248883 </v>
   <v>      -0.02266903       0.00543141       0.00522370 </v>
   <v>       0.02145790      -0.00663877      -0.00754021 </v>
   <v>      -0.02680400       0.04256999       0.03384376 </v>
   <v>      -0.03718491       0.02422664      -0.01745889 </v>
   <v>       0.00015784      -0.01548363       0.00210340 </v>
   <v>       1.98476439       0.50473913      -1.83420585 </v>
   <v>      -0.02528308      -0.02652575      -0.02632048 </v>
   <v>       0.00980418       0.03267874       0.01014867 </v>
   <v>      -0.00764185       0.02479357       0.00490448 </v>
   <v>       0.01533289      -0.02030224      -0.02050051 </v>
  </varray>
  <varray name="stress" >
   <v>      15.58658237       2.02875314      -7.34411108 </v>
   <v>       2.02864980       3.38247029      -2.16853867 </v>
   <v>      -7.34410701      -2.16862805      15.70476145 </v>
  </varray>
  <energy>
   <i name="e_fr_energy">  -1385.27159817 </i>
   <i name="e_wo_entrp">  -1385.27159817 </i>
   <i name="e_0_energy">     -0.00000000 </i>
  </energy>
  <time name="totalsc">  430.48  431.13</time>
  <eigenvalues>
   <array>
    <dimension dim="1">band</dimension>
    <dimension dim="2">kpoint</dimension>
    <dimension dim="3">spin</dimension>
    <field>eigene</field>
    <field>occ</field>
    <set>
     <set comment="spin 1">
      <set comment="kpoint 1">
       <r>  -21.1318    1.0000 </r>
       <r>  -20.9970    1.0000 </r>
       <r>  -20.9933    1.0000 </r>
       <r>  -20.9574    1.0000 </r>
       <r>  -20.9551    1.0000 </r>
       <r>  -20.9153    1.0000 </r>
       <r>  -20.9138    1.0000 </r>
       <r>  -16.8566    1.0000 </r>
       <r>  -16.8428    1.0000 </r>
       <r>  -16.8168    1.0000 </r>
       <r>  -16.7987    1.0000 </r>
       <r>  -16.7696    1.0000 </r>
       <r>  -16.7677    1.0000 </r>
       <r>  -16.7575    1.0000 </r>
       <r>  -16.7551    1.0000 </r>
       <r>  -16.7017    1.0000 </r>
       <r>  -16.7015    1.0000 </r>
       <r>  -16.6845    1.0000 </r>
       <r>  -16.6843    1.0000 </r>
       <r>  -16.6839    1.0000 </r>
       <r>  -16.6831    1.0000 </r>
       <r>  -16.6683    1.0000 </r>
       <r>  -16.6680    1.0000 </r>
       <r>  -16.6663    1.0000 </r>
       <r>  -16.6656    1.0000 </r>
       <r>  -16.6568    1.0000 </r>
       <r>  -16.6561    1.0000 </r>
       <r>  -16.5664    1.0000 </r>
       <r>  -16.5595    1.0000 </r>
       <r>  -16.5496    1.0000 </r>
       <r>  -16.5493    1.0000 </r>
       <r>  -16.5204    1.0000 </r>
       <r>  -16.5090    1.0000 </r>
       <r>  -16.5013    1.0000 </r>
       <r>  -16.4811    1.0000 </r>
       <r>  -16.4402    1.0000 </r>
       <r>  -16.4392    1.0000 </r>
       <r>  -16.4304    1.0000 </r>
       <r>  -16.4295    1.0000 </r>
       <r>  -16.4255    1.0000 </r>
       <r>  -16.4248    1.0000 </r>
       <r>  -16.4227    1.0000 </r>
       <r>  -16.4218    1.0000 </r>
       <r>  -16.4211    1.0000 </r>
       <r>  -16.4203    1.0000 </r>
       <r>  -16.4083    1.0000 </r>
       <r>  -16.4076    1.0000 </r>
       <r>  -14.8442    1.0000 </r>
       <r>  -14.7262    1.0000 </r>
       <r>  -14.5006    1.0000 </r>
       <r>  -14.4334    1.0000 </r>
       <r>  -14.3982    1.0000 </r>
       <r>  -14.3933    1.0000 </r>
       <r>  -14.3651    1.0000 </r>
       <r>  -14.2942    1.0000 </r>
       <r>  -14.1730    1.0000 </r>
       <r>  -14.1700    1.0000 </r>
       <r>  -14.1641    1.0000 </r>
       <r>  -14.1432    1.0000 </r>
       <r>  -14.1222    1.0000 </r>
       <r>  -14.1186    1.0000 </r>
       <r>  -14.0947    1.0000 </r>
       <r>  -14.0824    1.0000 </r>
       <r>  -14.0534    1.0000 </r>
       <r>  -14.0518    1.0000 </r>
       <r>  -13.9727    1.0000 </r>
       <r>  -13.9630    1.0000 </r>
       <r>  -13.8722    1.0000 </r>
       <r>  -13.8584    1.0000 </r>
       <r>  -13.7786    1.0000 </r>
       <r>  -13.7174    1.0000 </r>
       <r>   -8.4653    1.0000 </r>
       <r>   -8.0728    1.0000 </r>
       <r>   -7.9743    1.0000 </r>
       <r>   -7.8730    1.0000 </r>
       <r>   -7.8563    1.0000 </r>
       <r>   -7.5906    1.0000 </r>
       <r>   -7.5630    1.0000 </r>
       <r>   -7.4265    1.0000 </r>
       <r>   -7.4055    1.0000 </r>
       <r>   -7.4026    1.0000 </r>
       <r>   -7.3931    1.0000 </r>
       <r>   -7.3911    1.0000 </r>
       <r>   -7.3885    1.0000 </r>
       <r>   -7.3779    1.0000 </r>
       <r>   -7.3768    1.0000 </r>
       <r>   -7.3709    1.0000 </r>
       <r>   -7.3643    1.0000 </r>
       <r>   -7.3636    1.0000 </r>
       <r>   -7.3575    1.0000 </r>
       <r>   -7.3510    1.0000 </r>
       <r>   -7.3362    1.0000 </r>
       <r>   -7.3316    1.0000 </r>
       <r>   -7.3267    1.0000 </r>
       <r>   -7.3184    1.0000 </r>
       <r>   -7.3159    1.0000 </r>
       <r>   -7.2936    1.0000 </r>
       <r>   -7.2707    1.0000 </r>
       <r>   -7.2627    1.0000 </r>
       <r>   -6.7453    1.0000 </r>
       <r>   -3.7195    1.0000 </r>
       <r>   -3.6780    1.0000 </r>
       <r>   -3.5618    1.0000 </r>
       <r>   -3.4950    1.0000 </r>
       <r>   -3.4348    1.0000 </r>
       <r>   -3.3775    1.0000 </r>
       <r>   -3.3618    1.0000 </r>
       <r>   -3.2767    1.0000 </r>
       <r>   -3.2201    1.0000 </r>
       <r>   -3.1861    1.0000 </r>
       <r>   -3.1754    1.0000 </r>
       <r>   -3.0317    1.0000 </r>
       <r>   -2.6007    1.0000 </r>
       <r>   -2.3870    1.0000 </r>
       <r>   -2.3411    1.0000 </r>
       <r>   -2.2627    1.0000 </r>
       <r>   -2.2605    1.0000 </r>
       <r>   -2.2131    1.0000 </r>
       <r>   -2.1319    1.0000 </r>
       <r>   -2.0874    1.0000 </r>
       <r>   -2.0150    1.0000 </r>
       <r>   -1.9786    1.0000 </r>
       <r>   -1.9366    1.0000 </r>
       <r>   -1.9212    1.0000 </r>
       <r>   -1.8901    1.0000 </r>
       <r>   -1.8520    1.0000 </r>
       <r>   -1.8478    1.0000 </r>
       <r>   -1.7859    1.0000 </r>
       <r>   -1.7405    1.0000 </r>
       <r>   -1.7124    1.0000 </r>
       <r>   -1.6933    1.0000 </r>
       <r>   -1.6775    1.0000 </r>
       <r>   -1.6573    1.0000 </r>
       <r>   -1.6553    1.0000 </r>
       <r>   -1.6093    1.0000 </r>
       <r>   -1.6081    1.0000 </r>
       <r>   -1.5781    1.0000 </r>
       <r>   -1.5726    1.0000 </r>
       <r>   -1.5582    1.0000 </r>
       <r>   -1.5488    1.0000 </r>
       <r>   -1.5454    1.0000 </r>
       <r>   -1.5150    1.0000 </r>
       <r>   -1.5106    1.0000 </r>
       <r>   -1.4953    1.0000 </r>
       <r>   -1.4807    1.0000 </r>
       <r>   -1.4511    1.0000 </r>
       <r>   -1.4338    1.0000 </r>
       <r>   -1.4030    1.0000 </r>
       <r>   -1.3981    1.0000 </r>
       <r>   -1.3839    1.0000 </r>
       <r>   -1.3768    1.0000 </r>
       <r>   -1.3259    1.0000 </r>
       <r>   -1.3239    1.0000 </r>
       <r>   -1.3222    1.0000 </r>
       <r>   -1.2976    1.0000 </r>
       <r>   -1.2663    1.0000 </r>
       <r>   -1.2629    1.0000 </r>
       <r>   -1.2176    1.0000 </r>
       <r>   -1.1213    1.0000 </r>
       <r>   -1.0954    1.0000 </r>
       <r>   -1.0915    1.0000 </r>
       <r>   -1.0826    1.0000 </r>
       <r>   -1.0409    1.0000 </r>
       <r>   -0.9579    1.0000 </r>
       <r>   -0.9562    1.0000 </r>
       <r>   -0.8389    1.0000 </r>
       <r>   -0.7535    1.0000 </r>
       <r>   -0.7515    1.0000 </r>
       <r>   -0.4043    1.0000 </r>
       <r>   -0.3447    1.0000 </r>
       <r>   -0.2840    1.0000 </r>
       <r>    0.2554    1.0000 </r>
       <r>    2.4773    0.0000 </r>
       <r>    2.6151    0.0000 </r>
       <r>    2.6645    0.0000 </r>
       <r>    2.8171    0.0000 </r>
       <r>    2.8845    0.0000 </r>
       <r>    2.9039    0.0000 </r>
       <r>    2.9542    0.0000 </r>
       <r>    2.9737    0.0000 </r>
       <r>    3.1679    0.0000 </r>
       <r>    3.3200    0.0000 </r>
       <r>    3.3829    0.0000 </r>
       <r>    3.4255    0.0000 </r>
       <r>    4.7211    0.0000 </r>
       <r>    4.7862    0.0000 </r>
       <r>    5.4137    0.0000 </r>
       <r>    5.4200    0.0000 </r>
       <r>    5.5389    0.0000 </r>
       <r>    5.5895    0.0000 </r>
       <r>    5.6476    0.0000 </r>
       <r>    5.7672    0.0000 </r>
       <r>    5.8539    0.0000 </r>
       <r>    5.8815    0.0000 </r>
       <r>    5.9397    0.0000 </r>
       <r>    5.9458    0.0000 </r>
       <r>    6.0208    0.0000 </r>
       <r>    6.0811    0.0000 </r>
       <r>    6.0893    0.0000 </r>
       <r>    6.1045    0.0000 </r>
       <r>    6.2135    0.0000 </r>
       <r>    6.2164    0.0000 </r>
       <r>    6.2402    0.0000 </r>
       <r>    6.2675    0.0000 </r>
       <r>    6.3716    0.0000 </r>
       <r>    6.3951    0.0000 </r>
       <r>    6.4817    0.0000 </r>
       <r>    6.5519    0.0000 </r>
      </set>
      <set comment="kpoint 2">
       <r>  -21.1318    1.0000 </r>
       <r>  -20.9970    1.0000 </r>
       <r>  -20.9933    1.0000 </r>
       <r>  -20.9574    1.0000 </r>
       <r>  -20.9551    1.0000 </r>
       <r>  -20.9153    1.0000 </r>
       <r>  -20.9138    1.0000 </r>
       <r>  -16.8354    1.0000 </r>
       <r>  -16.8310    1.0000 </r>
       <r>  -16.8110    1.0000 </r>
       <r>  -16.7999    1.0000 </r>
       <r>  -16.7878    1.0000 </r>
       <r>  -16.7869    1.0000 </r>
       <r>  -16.7580    1.0000 </r>
       <r>  -16.7571    1.0000 </r>
       <r>  -16.7016    1.0000 </r>
       <r>  -16.7016    1.0000 </r>
       <r>  -16.6845    1.0000 </r>
       <r>  -16.6842    1.0000 </r>
       <r>  -16.6838    1.0000 </r>
       <r>  -16.6830    1.0000 </r>
       <r>  -16.6682    1.0000 </r>
       <r>  -16.6679    1.0000 </r>
       <r>  -16.6664    1.0000 </r>
       <r>  -16.6657    1.0000 </r>
       <r>  -16.6568    1.0000 </r>
       <r>  -16.6561    1.0000 </r>
       <r>  -16.5614    1.0000 </r>
       <r>  -16.5606    1.0000 </r>
       <r>  -16.5360    1.0000 </r>
       <r>  -16.5354    1.0000 </r>
       <r>  -16.5237    1.0000 </r>
       <r>  -16.5207    1.0000 </r>
       <r>  -16.5021    1.0000 </r>
       <r>  -16.4979    1.0000 </r>
       <r>  -16.4402    1.0000 </r>
       <r>  -16.4393    1.0000 </r>
       <r>  -16.4303    1.0000 </r>
       <r>  -16.4294    1.0000 </r>
       <r>  -16.4256    1.0000 </r>
       <r>  -16.4249    1.0000 </r>
       <r>  -16.4228    1.0000 </r>
       <r>  -16.4219    1.0000 </r>
       <r>  -16.4210    1.0000 </r>
       <r>  -16.4202    1.0000 </r>
       <r>  -16.4083    1.0000 </r>
       <r>  -16.4076    1.0000 </r>
       <r>  -14.8424    1.0000 </r>
       <r>  -14.7171    1.0000 </r>
       <r>  -14.5664    1.0000 </r>
       <r>  -14.4117    1.0000 </r>
       <r>  -14.4085    1.0000 </r>
       <r>  -14.3629    1.0000 </r>
       <r>  -14.3145    1.0000 </r>
       <r>  -14.2651    1.0000 </r>
       <r>  -14.2101    1.0000 </r>
       <r>  -14.1792    1.0000 </r>
       <r>  -14.1684    1.0000 </r>
       <r>  -14.1596    1.0000 </r>
       <r>  -14.1404    1.0000 </r>
       <r>  -14.1325    1.0000 </r>
       <r>  -14.0957    1.0000 </r>
       <r>  -14.0809    1.0000 </r>
       <r>  -14.0651    1.0000 </r>
       <r>  -14.0599    1.0000 </r>
       <r>  -13.9179    1.0000 </r>
       <r>  -13.9109    1.0000 </r>
       <r>  -13.8708    1.0000 </r>
       <r>  -13.8478    1.0000 </r>
       <r>  -13.8024    1.0000 </r>
       <r>  -13.7552    1.0000 </r>
       <r>   -8.2504    1.0000 </r>
       <r>   -8.2080    1.0000 </r>
       <r>   -7.9462    1.0000 </r>
       <r>   -7.8706    1.0000 </r>
       <r>   -7.6971    1.0000 </r>
       <r>   -7.6682    1.0000 </r>
       <r>   -7.6167    1.0000 </r>
       <r>   -7.5615    1.0000 </r>
       <r>   -7.4998    1.0000 </r>
       <r>   -7.4064    1.0000 </r>
       <r>   -7.3994    1.0000 </r>
       <r>   -7.3917    1.0000 </r>
       <r>   -7.3875    1.0000 </r>
       <r>   -7.3806    1.0000 </r>
       <r>   -7.3777    1.0000 </r>
       <r>   -7.3742    1.0000 </r>
       <r>   -7.3643    1.0000 </r>
       <r>   -7.3598    1.0000 </r>
       <r>   -7.3594    1.0000 </r>
       <r>   -7.3538    1.0000 </r>
       <r>   -7.3401    1.0000 </r>
       <r>   -7.3311    1.0000 </r>
       <r>   -7.3255    1.0000 </r>
       <r>   -7.3145    1.0000 </r>
       <r>   -7.3102    1.0000 </r>
       <r>   -7.3033    1.0000 </r>
       <r>   -7.2933    1.0000 </r>
       <r>   -7.0733    1.0000 </r>
       <r>   -7.0432    1.0000 </r>
       <r>   -3.6084    1.0000 </r>
       <r>   -3.5014    1.0000 </r>
       <r>   -3.4053    1.0000 </r>
       <r>   -3.3981    1.0000 </r>
       <r>   -3.3037    1.0000 </r>
       <r>   -3.3003    1.0000 </r>
       <r>   -3.2306    1.0000 </r>
       <r>   -3.2003    1.0000 </r>
       <r>   -2.9864    1.0000 </r>
       <r>   -2.9009    1.0000 </r>
       <r>   -2.8735    1.0000 </r>
       <r>   -2.6975    1.0000 </r>
       <r>   -2.5502    1.0000 </r>
       <r>   -2.4999    1.0000 </r>
       <r>   -2.4605    1.0000 </r>
       <r>   -2.4090    1.0000 </r>
       <r>   -2.3454    1.0000 </r>
       <r>   -2.3164    1.0000 </r>
       <r>   -2.2610    1.0000 </r>
       <r>   -2.2314    1.0000 </r>
       <r>   -2.2236    1.0000 </r>
       <r>   -2.1884    1.0000 </r>
       <r>   -2.1200    1.0000 </r>
       <r>   -2.0200    1.0000 </r>
       <r>   -1.9391    1.0000 </r>
       <r>   -1.9118    1.0000 </r>
       <r>   -1.8752    1.0000 </r>
       <r>   -1.8526    1.0000 </r>
       <r>   -1.8435    1.0000 </r>
       <r>   -1.8090    1.0000 </r>
       <r>   -1.7267    1.0000 </r>
       <r>   -1.6890    1.0000 </r>
       <r>   -1.6810    1.0000 </r>
       <r>   -1.6758    1.0000 </r>
       <r>   -1.6264    1.0000 </r>
       <r>   -1.6233    1.0000 </r>
       <r>   -1.5743    1.0000 </r>
       <r>   -1.5720    1.0000 </r>
       <r>   -1.5621    1.0000 </r>
       <r>   -1.5373    1.0000 </r>
       <r>   -1.5344    1.0000 </r>
       <r>   -1.5119    1.0000 </r>
       <r>   -1.4979    1.0000 </r>
       <r>   -1.4975    1.0000 </r>
       <r>   -1.4850    1.0000 </r>
       <r>   -1.4682    1.0000 </r>
       <r>   -1.4661    1.0000 </r>
       <r>   -1.4047    1.0000 </r>
       <r>   -1.4028    1.0000 </r>
       <r>   -1.3917    1.0000 </r>
       <r>   -1.3782    1.0000 </r>
       <r>   -1.3686    1.0000 </r>
       <r>   -1.3332    1.0000 </r>
       <r>   -1.3149    1.0000 </r>
       <r>   -1.2738    1.0000 </r>
       <r>   -1.2483    1.0000 </r>
       <r>   -1.1915    1.0000 </r>
       <r>   -1.1842    1.0000 </r>
       <r>   -1.1475    1.0000 </r>
       <r>   -1.1185    1.0000 </r>
       <r>   -1.0979    1.0000 </r>
       <r>   -1.0799    1.0000 </r>
       <r>   -1.0457    1.0000 </r>
       <r>   -0.9885    1.0000 </r>
       <r>   -0.9711    1.0000 </r>
       <r>   -0.9234    1.0000 </r>
       <r>   -0.7827    1.0000 </r>
       <r>   -0.7061    1.0000 </r>
       <r>   -0.6827    1.0000 </r>
       <r>   -0.6074    1.0000 </r>
       <r>   -0.2545    1.0000 </r>
       <r>   -0.1112    1.0000 </r>
       <r>    2.7322    0.0000 </r>
       <r>    2.7394    0.0000 </r>
       <r>    2.7634    0.0000 </r>
       <r>    2.7778    0.0000 </r>
       <r>    3.0724    0.0000 </r>
       <r>    3.0835    0.0000 </r>
       <r>    3.2028    0.0000 </r>
       <r>    3.2551    0.0000 </r>
       <r>    3.9214    0.0000 </r>
       <r>    4.0019    0.0000 </r>
       <r>    4.1558    0.0000 </r>
       <r>    4.3994    0.0000 </r>
       <r>    4.4189    0.0000 </r>
       <r>    4.4778    0.0000 </r>
       <r>    4.5914    0.0000 </r>
       <r>    4.8084    0.0000 </r>
       <r>    5.1584    0.0000 </r>
       <r>    5.2967    0.0000 </r>
       <r>    5.4361    0.0000 </r>
       <r>    5.4595    0.0000 </r>
       <r>    5.5588    0.0000 </r>
       <r>    5.6408    0.0000 </r>
       <r>    5.6927    0.0000 </r>
       <r>    5.7974    0.0000 </r>
       <r>    5.9054    0.0000 </r>
       <r>    6.0339    0.0000 </r>
       <r>    6.0369    0.0000 </r>
       <r>    6.1273    0.0000 </r>
       <r>    6.1908    0.0000 </r>
       <r>    6.2069    0.0000 </r>
       <r>    6.2535    0.0000 </r>
       <r>    6.3022    0.0000 </r>
       <r>    6.3832    0.0000 </r>
       <r>    6.4423    0.0000 </r>
       <r>    6.5267    0.0000 </r>
       <r>    6.5899    0.0000 </r>
      </set>
      <set comment="kpoint 3">
       <r>  -21.1318    1.0000 </r>
       <r>  -20.9968    1.0000 </r>
       <r>  -20.9934    1.0000 </r>
       <r>  -20.9571    1.0000 </r>
       <r>  -20.9554    1.0000 </r>
       <r>  -20.9148    1.0000 </r>
       <r>  -20.9143    1.0000 </r>
       <r>  -16.8565    1.0000 </r>
       <r>  -16.8423    1.0000 </r>
       <r>  -16.8162    1.0000 </r>
       <r>  -16.7962    1.0000 </r>
       <r>  -16.7675    1.0000 </r>
       <r>  -16.7657    1.0000 </r>
       <r>  -16.7552    1.0000 </r>
       <r>  -16.7540    1.0000 </r>
       <r>  -16.7017    1.0000 </r>
       <r>  -16.7015    1.0000 </r>
       <r>  -16.6844    1.0000 </r>
       <r>  -16.6842    1.0000 </r>
       <r>  -16.6838    1.0000 </r>
       <r>  -16.6831    1.0000 </r>
       <r>  -16.6683    1.0000 </r>
       <r>  -16.6680    1.0000 </r>
       <r>  -16.6663    1.0000 </r>
       <r>  -16.6656    1.0000 </r>
       <r>  -16.6567    1.0000 </r>
       <r>  -16.6560    1.0000 </r>
       <r>  -16.5667    1.0000 </r>
       <r>  -16.5616    1.0000 </r>
       <r>  -16.5518    1.0000 </r>
       <r>  -16.5515    1.0000 </r>
       <r>  -16.5241    1.0000 </r>
       <r>  -16.5104    1.0000 </r>
       <r>  -16.5025    1.0000 </r>
       <r>  -16.4811    1.0000 </r>
       <r>  -16.4401    1.0000 </r>
       <r>  -16.4392    1.0000 </r>
       <r>  -16.4304    1.0000 </r>
       <r>  -16.4295    1.0000 </r>
       <r>  -16.4255    1.0000 </r>
       <r>  -16.4248    1.0000 </r>
       <r>  -16.4227    1.0000 </r>
       <r>  -16.4218    1.0000 </r>
       <r>  -16.4210    1.0000 </r>
       <r>  -16.4202    1.0000 </r>
       <r>  -16.4083    1.0000 </r>
       <r>  -16.4076    1.0000 </r>
       <r>  -14.8446    1.0000 </r>
       <r>  -14.7252    1.0000 </r>
       <r>  -14.4974    1.0000 </r>
       <r>  -14.4308    1.0000 </r>
       <r>  -14.3978    1.0000 </r>
       <r>  -14.3915    1.0000 </r>
       <r>  -14.3676    1.0000 </r>
       <r>  -14.3375    1.0000 </r>
       <r>  -14.2333    1.0000 </r>
       <r>  -14.2073    1.0000 </r>
       <r>  -14.1268    1.0000 </r>
       <r>  -14.1236    1.0000 </r>
       <r>  -14.1059    1.0000 </r>
       <r>  -14.0808    1.0000 </r>
       <r>  -14.0619    1.0000 </r>
       <r>  -14.0517    1.0000 </r>
       <r>  -14.0263    1.0000 </r>
       <r>  -14.0111    1.0000 </r>
       <r>  -13.9803    1.0000 </r>
       <r>  -13.9738    1.0000 </r>
       <r>  -13.9171    1.0000 </r>
       <r>  -13.8860    1.0000 </r>
       <r>  -13.7899    1.0000 </r>
       <r>  -13.7185    1.0000 </r>
       <r>   -8.3590    1.0000 </r>
       <r>   -8.0203    1.0000 </r>
       <r>   -8.0029    1.0000 </r>
       <r>   -7.9222    1.0000 </r>
       <r>   -7.7752    1.0000 </r>
       <r>   -7.5589    1.0000 </r>
       <r>   -7.5453    1.0000 </r>
       <r>   -7.5335    1.0000 </r>
       <r>   -7.4924    1.0000 </r>
       <r>   -7.4029    1.0000 </r>
       <r>   -7.3946    1.0000 </r>
       <r>   -7.3915    1.0000 </r>
       <r>   -7.3885    1.0000 </r>
       <r>   -7.3869    1.0000 </r>
       <r>   -7.3782    1.0000 </r>
       <r>   -7.3725    1.0000 </r>
       <r>   -7.3660    1.0000 </r>
       <r>   -7.3539    1.0000 </r>
       <r>   -7.3529    1.0000 </r>
       <r>   -7.3474    1.0000 </r>
       <r>   -7.3386    1.0000 </r>
       <r>   -7.3258    1.0000 </r>
       <r>   -7.3248    1.0000 </r>
       <r>   -7.3162    1.0000 </r>
       <r>   -7.3141    1.0000 </r>
       <r>   -7.3128    1.0000 </r>
       <r>   -7.3026    1.0000 </r>
       <r>   -7.2389    1.0000 </r>
       <r>   -6.9799    1.0000 </r>
       <r>   -3.7188    1.0000 </r>
       <r>   -3.6795    1.0000 </r>
       <r>   -3.5537    1.0000 </r>
       <r>   -3.4778    1.0000 </r>
       <r>   -3.2814    1.0000 </r>
       <r>   -3.2131    1.0000 </r>
       <r>   -3.2127    1.0000 </r>
       <r>   -3.0689    1.0000 </r>
       <r>   -2.7391    1.0000 </r>
       <r>   -2.7332    1.0000 </r>
       <r>   -2.6946    1.0000 </r>
       <r>   -2.5717    1.0000 </r>
       <r>   -2.5675    1.0000 </r>
       <r>   -2.5631    1.0000 </r>
       <r>   -2.5566    1.0000 </r>
       <r>   -2.4799    1.0000 </r>
       <r>   -2.4714    1.0000 </r>
       <r>   -2.3552    1.0000 </r>
       <r>   -2.2370    1.0000 </r>
       <r>   -2.2063    1.0000 </r>
       <r>   -2.1919    1.0000 </r>
       <r>   -2.1477    1.0000 </r>
       <r>   -2.0499    1.0000 </r>
       <r>   -2.0398    1.0000 </r>
       <r>   -1.9911    1.0000 </r>
       <r>   -1.9736    1.0000 </r>
       <r>   -1.8826    1.0000 </r>
       <r>   -1.8777    1.0000 </r>
       <r>   -1.8429    1.0000 </r>
       <r>   -1.8356    1.0000 </r>
       <r>   -1.7762    1.0000 </r>
       <r>   -1.7504    1.0000 </r>
       <r>   -1.7365    1.0000 </r>
       <r>   -1.6732    1.0000 </r>
       <r>   -1.6274    1.0000 </r>
       <r>   -1.6192    1.0000 </r>
       <r>   -1.5804    1.0000 </r>
       <r>   -1.5590    1.0000 </r>
       <r>   -1.5317    1.0000 </r>
       <r>   -1.5173    1.0000 </r>
       <r>   -1.5157    1.0000 </r>
       <r>   -1.4769    1.0000 </r>
       <r>   -1.4689    1.0000 </r>
       <r>   -1.4669    1.0000 </r>
       <r>   -1.4382    1.0000 </r>
       <r>   -1.4308    1.0000 </r>
       <r>   -1.4166    1.0000 </r>
       <r>   -1.4099    1.0000 </r>
       <r>   -1.3917    1.0000 </r>
       <r>   -1.3849    1.0000 </r>
       <r>   -1.3668    1.0000 </r>
       <r>   -1.3246    1.0000 </r>
       <r>   -1.3238    1.0000 </r>
       <r>   -1.2977    1.0000 </r>
       <r>   -1.2702    1.0000 </r>
       <r>   -1.2543    1.0000 </r>
       <r>   -1.2264    1.0000 </r>
       <r>   -1.2102    1.0000 </r>
       <r>   -1.2020    1.0000 </r>
       <r>   -1.1437    1.0000 </r>
       <r>   -1.0958    1.0000 </r>
       <r>   -1.0934    1.0000 </r>
       <r>   -1.0888    1.0000 </r>
       <r>   -1.0801    1.0000 </r>
       <r>   -1.0226    1.0000 </r>
       <r>   -0.8309    1.0000 </r>
       <r>   -0.8161    1.0000 </r>
       <r>   -0.7110    1.0000 </r>
       <r>   -0.6458    1.0000 </r>
       <r>   -0.6051    1.0000 </r>
       <r>   -0.3853    1.0000 </r>
       <r>   -0.0741    1.0000 </r>
       <r>    2.5488    0.0000 </r>
       <r>    2.7596    0.0000 </r>
       <r>    2.8652    0.0000 </r>
       <r>    2.9063    0.0000 </r>
       <r>    3.0051    0.0000 </r>
       <r>    3.0654    0.0000 </r>
       <r>    3.2618    0.0000 </r>
       <r>    3.3238    0.0000 </r>
       <r>    4.0146    0.0000 </r>
       <r>    4.1320    0.0000 </r>
       <r>    4.1895    0.0000 </r>
       <r>    4.3168    0.0000 </r>
       <r>    4.4342    0.0000 </r>
       <r>    4.4378    0.0000 </r>
       <r>    4.6225    0.0000 </r>
       <r>    4.6705    0.0000 </r>
       <r>    4.8779    0.0000 </r>
       <r>    5.2855    0.0000 </r>
       <r>    5.5009    0.0000 </r>
       <r>    5.5528    0.0000 </r>
       <r>    5.6586    0.0000 </r>
       <r>    5.6648    0.0000 </r>
       <r>    5.7102    0.0000 </r>
       <r>    5.8277    0.0000 </r>
       <r>    5.9302    0.0000 </r>
       <r>    5.9524    0.0000 </r>
       <r>    6.0475    0.0000 </r>
       <r>    6.1282    0.0000 </r>
       <r>    6.1597    0.0000 </r>
       <r>    6.2445    0.0000 </r>
       <r>    6.2966    0.0000 </r>
       <r>    6.3505    0.0000 </r>
       <r>    6.4198    0.0000 </r>
       <r>    6.4344    0.0000 </r>
       <r>    6.5125    0.0000 </r>
       <r>    6.5579    0.0000 </r>
      </set>
      <set comment="kpoint 4">
       <r>  -21.1318    1.0000 </r>
       <r>  -20.9969    1.0000 </r>
       <r>  -20.9934    1.0000 </r>
       <r>  -20.9572    1.0000 </r>
       <r>  -20.9554    1.0000 </r>
       <r>  -20.9149    1.0000 </r>
       <r>  -20.9143    1.0000 </r>
       <r>  -16.8355    1.0000 </r>
       <r>  -16.8310    1.0000 </r>
       <r>  -16.8102    1.0000 </r>
       <r>  -16.7985    1.0000 </r>
       <r>  -16.7858    1.0000 </r>
       <r>  -16.7846    1.0000 </r>
       <r>  -16.7559    1.0000 </r>
       <r>  -16.7550    1.0000 </r>
       <r>  -16.7016    1.0000 </r>
       <r>  -16.7015    1.0000 </r>
       <r>  -16.6845    1.0000 </r>
       <r>  -16.6842    1.0000 </r>
       <r>  -16.6838    1.0000 </r>
       <r>  -16.6830    1.0000 </r>
       <r>  -16.6683    1.0000 </r>
       <r>  -16.6680    1.0000 </r>
       <r>  -16.6664    1.0000 </r>
       <r>  -16.6657    1.0000 </r>
       <r>  -16.6568    1.0000 </r>
       <r>  -16.6561    1.0000 </r>
       <r>  -16.5628    1.0000 </r>
       <r>  -16.5622    1.0000 </r>
       <r>  -16.5383    1.0000 </r>
       <r>  -16.5377    1.0000 </r>
       <r>  -16.5267    1.0000 </r>
       <r>  -16.5228    1.0000 </r>
       <r>  -16.5025    1.0000 </r>
       <r>  -16.4981    1.0000 </r>
       <r>  -16.4402    1.0000 </r>
       <r>  -16.4392    1.0000 </r>
       <r>  -16.4304    1.0000 </r>
       <r>  -16.4295    1.0000 </r>
       <r>  -16.4255    1.0000 </r>
       <r>  -16.4248    1.0000 </r>
       <r>  -16.4228    1.0000 </r>
       <r>  -16.4219    1.0000 </r>
       <r>  -16.4211    1.0000 </r>
       <r>  -16.4203    1.0000 </r>
       <r>  -16.4083    1.0000 </r>
       <r>  -16.4076    1.0000 </r>
       <r>  -14.8430    1.0000 </r>
       <r>  -14.7170    1.0000 </r>
       <r>  -14.5634    1.0000 </r>
       <r>  -14.4112    1.0000 </r>
       <r>  -14.4070    1.0000 </r>
       <r>  -14.3639    1.0000 </r>
       <r>  -14.3134    1.0000 </r>
       <r>  -14.2944    1.0000 </r>
       <r>  -14.2866    1.0000 </r>
       <r>  -14.1961    1.0000 </r>
       <r>  -14.1602    1.0000 </r>
       <r>  -14.1578    1.0000 </r>
       <r>  -14.0976    1.0000 </r>
       <r>  -14.0758    1.0000 </r>
       <r>  -14.0651    1.0000 </r>
       <r>  -14.0630    1.0000 </r>
       <r>  -14.0280    1.0000 </r>
       <r>  -14.0176    1.0000 </r>
       <r>  -13.9556    1.0000 </r>
       <r>  -13.9374    1.0000 </r>
       <r>  -13.9105    1.0000 </r>
       <r>  -13.8555    1.0000 </r>
       <r>  -13.8060    1.0000 </r>
       <r>  -13.7554    1.0000 </r>
       <r>   -8.1397    1.0000 </r>
       <r>   -8.1005    1.0000 </r>
       <r>   -7.9185    1.0000 </r>
       <r>   -7.8446    1.0000 </r>
       <r>   -7.8196    1.0000 </r>
       <r>   -7.7674    1.0000 </r>
       <r>   -7.5647    1.0000 </r>
       <r>   -7.5637    1.0000 </r>
       <r>   -7.4212    1.0000 </r>
       <r>   -7.4202    1.0000 </r>
       <r>   -7.4011    1.0000 </r>
       <r>   -7.3916    1.0000 </r>
       <r>   -7.3876    1.0000 </r>
       <r>   -7.3829    1.0000 </r>
       <r>   -7.3813    1.0000 </r>
       <r>   -7.3731    1.0000 </r>
       <r>   -7.3647    1.0000 </r>
       <r>   -7.3603    1.0000 </r>
       <r>   -7.3569    1.0000 </r>
       <r>   -7.3498    1.0000 </r>
       <r>   -7.3302    1.0000 </r>
       <r>   -7.3287    1.0000 </r>
       <r>   -7.3229    1.0000 </r>
       <r>   -7.3164    1.0000 </r>
       <r>   -7.3142    1.0000 </r>
       <r>   -7.3102    1.0000 </r>
       <r>   -7.2981    1.0000 </r>
       <r>   -7.2740    1.0000 </r>
       <r>   -7.2242    1.0000 </r>
       <r>   -3.6034    1.0000 </r>
       <r>   -3.4898    1.0000 </r>
       <r>   -3.2472    1.0000 </r>
       <r>   -3.2165    1.0000 </r>
       <r>   -3.0412    1.0000 </r>
       <r>   -3.0222    1.0000 </r>
       <r>   -2.9114    1.0000 </r>
       <r>   -2.8263    1.0000 </r>
       <r>   -2.7725    1.0000 </r>
       <r>   -2.7029    1.0000 </r>
       <r>   -2.6824    1.0000 </r>
       <r>   -2.6743    1.0000 </r>
       <r>   -2.5693    1.0000 </r>
       <r>   -2.5354    1.0000 </r>
       <r>   -2.5057    1.0000 </r>
       <r>   -2.4706    1.0000 </r>
       <r>   -2.4663    1.0000 </r>
       <r>   -2.4271    1.0000 </r>
       <r>   -2.3860    1.0000 </r>
       <r>   -2.3354    1.0000 </r>
       <r>   -2.3102    1.0000 </r>
       <r>   -2.2667    1.0000 </r>
       <r>   -2.1850    1.0000 </r>
       <r>   -2.1250    1.0000 </r>
       <r>   -2.0139    1.0000 </r>
       <r>   -2.0087    1.0000 </r>
       <r>   -1.9394    1.0000 </r>
       <r>   -1.9354    1.0000 </r>
       <r>   -1.9056    1.0000 </r>
       <r>   -1.8387    1.0000 </r>
       <r>   -1.8361    1.0000 </r>
       <r>   -1.7955    1.0000 </r>
       <r>   -1.7794    1.0000 </r>
       <r>   -1.7374    1.0000 </r>
       <r>   -1.7147    1.0000 </r>
       <r>   -1.7038    1.0000 </r>
       <r>   -1.6317    1.0000 </r>
       <r>   -1.6290    1.0000 </r>
       <r>   -1.5943    1.0000 </r>
       <r>   -1.5927    1.0000 </r>
       <r>   -1.5715    1.0000 </r>
       <r>   -1.5342    1.0000 </r>
       <r>   -1.5245    1.0000 </r>
       <r>   -1.4662    1.0000 </r>
       <r>   -1.4528    1.0000 </r>
       <r>   -1.4342    1.0000 </r>
       <r>   -1.4273    1.0000 </r>
       <r>   -1.4140    1.0000 </r>
       <r>   -1.3534    1.0000 </r>
       <r>   -1.3452    1.0000 </r>
       <r>   -1.3280    1.0000 </r>
       <r>   -1.3046    1.0000 </r>
       <r>   -1.2959    1.0000 </r>
       <r>   -1.2912    1.0000 </r>
       <r>   -1.2593    1.0000 </r>
       <r>   -1.2271    1.0000 </r>
       <r>   -1.2084    1.0000 </r>
       <r>   -1.1855    1.0000 </r>
       <r>   -1.1725    1.0000 </r>
       <r>   -1.1308    1.0000 </r>
       <r>   -1.1271    1.0000 </r>
       <r>   -1.1162    1.0000 </r>
       <r>   -1.0763    1.0000 </r>
       <r>   -1.0571    1.0000 </r>
       <r>   -1.0050    1.0000 </r>
       <r>   -0.9770    1.0000 </r>
       <r>   -0.9089    1.0000 </r>
       <r>   -0.8343    1.0000 </r>
       <r>   -0.7372    1.0000 </r>
       <r>   -0.7018    1.0000 </r>
       <r>   -0.5379    1.0000 </r>
       <r>   -0.4798    1.0000 </r>
       <r>    2.8194    0.0000 </r>
       <r>    2.8512    0.0000 </r>
       <r>    3.1040    0.0000 </r>
       <r>    3.1494    0.0000 </r>
       <r>    3.9003    0.0000 </r>
       <r>    3.9247    0.0000 </r>
       <r>    4.0872    0.0000 </r>
       <r>    4.1063    0.0000 </r>
       <r>    4.1310    0.0000 </r>
       <r>    4.2112    0.0000 </r>
       <r>    4.2324    0.0000 </r>
       <r>    4.2620    0.0000 </r>
       <r>    4.3829    0.0000 </r>
       <r>    4.4395    0.0000 </r>
       <r>    4.4960    0.0000 </r>
       <r>    4.5144    0.0000 </r>
       <r>    4.5799    0.0000 </r>
       <r>    4.6233    0.0000 </r>
       <r>    4.7659    0.0000 </r>
       <r>    4.7818    0.0000 </r>
       <r>    5.2318    0.0000 </r>
       <r>    5.5208    0.0000 </r>
       <r>    5.5678    0.0000 </r>
       <r>    5.7560    0.0000 </r>
       <r>    5.8219    0.0000 </r>
       <r>    5.9476    0.0000 </r>
       <r>    5.9626    0.0000 </r>
       <r>    5.9957    0.0000 </r>
       <r>    6.0653    0.0000 </r>
       <r>    6.1597    0.0000 </r>
       <r>    6.2911    0.0000 </r>
       <r>    6.3140    0.0000 </r>
       <r>    6.3694    0.0000 </r>
       <r>    6.3873    0.0000 </r>
       <r>    6.4200    0.0000 </r>
       <r>    6.4813    0.0000 </r>
      </set>
      <set comment="kpoint 5">
       <r>  -21.1318    1.0000 </r>
       <r>  -20.9970    1.0000 </r>
       <r>  -20.9933    1.0000 </r>
       <r>  -20.9574    1.0000 </r>
       <r>  -20.9551    1.0000 </r>
       <r>  -20.9154    1.0000 </r>
       <r>  -20.9138    1.0000 </r>
       <r>  -16.8497    1.0000 </r>
       <r>  -16.8437    1.0000 </r>
       <r>  -16.7926    1.0000 </r>
       <r>  -16.7901    1.0000 </r>
       <r>  -16.7784    1.0000 </r>
       <r>  -16.7775    1.0000 </r>
       <r>  -16.7674    1.0000 </r>
       <r>  -16.7666    1.0000 </r>
       <r>  -16.7017    1.0000 </r>
       <r>  -16.7016    1.0000 </r>
       <r>  -16.6845    1.0000 </r>
       <r>  -16.6843    1.0000 </r>
       <r>  -16.6838    1.0000 </r>
       <r>  -16.6832    1.0000 </r>
       <r>  -16.6682    1.0000 </r>
       <r>  -16.6680    1.0000 </r>
       <r>  -16.6664    1.0000 </r>
       <r>  -16.6657    1.0000 </r>
       <r>  -16.6568    1.0000 </r>
       <r>  -16.6560    1.0000 </r>
       <r>  -16.5513    1.0000 </r>
       <r>  -16.5509    1.0000 </r>
       <r>  -16.5426    1.0000 </r>
       <r>  -16.5419    1.0000 </r>
       <r>  -16.5305    1.0000 </r>
       <r>  -16.5297    1.0000 </r>
       <r>  -16.4962    1.0000 </r>
       <r>  -16.4948    1.0000 </r>
       <r>  -16.4402    1.0000 </r>
       <r>  -16.4392    1.0000 </r>
       <r>  -16.4305    1.0000 </r>
       <r>  -16.4295    1.0000 </r>
       <r>  -16.4255    1.0000 </r>
       <r>  -16.4248    1.0000 </r>
       <r>  -16.4227    1.0000 </r>
       <r>  -16.4217    1.0000 </r>
       <r>  -16.4211    1.0000 </r>
       <r>  -16.4203    1.0000 </r>
       <r>  -16.4084    1.0000 </r>
       <r>  -16.4076    1.0000 </r>
       <r>  -14.8810    1.0000 </r>
       <r>  -14.6653    1.0000 </r>
       <r>  -14.4921    1.0000 </r>
       <r>  -14.4883    1.0000 </r>
       <r>  -14.4279    1.0000 </r>
       <r>  -14.3978    1.0000 </r>
       <r>  -14.2669    1.0000 </r>
       <r>  -14.2646    1.0000 </r>
       <r>  -14.2067    1.0000 </r>
       <r>  -14.1861    1.0000 </r>
       <r>  -14.1732    1.0000 </r>
       <r>  -14.1676    1.0000 </r>
       <r>  -14.1431    1.0000 </r>
       <r>  -14.1402    1.0000 </r>
       <r>  -14.1209    1.0000 </r>
       <r>  -14.0932    1.0000 </r>
       <r>  -13.9966    1.0000 </r>
       <r>  -13.9684    1.0000 </r>
       <r>  -13.9488    1.0000 </r>
       <r>  -13.9360    1.0000 </r>
       <r>  -13.9072    1.0000 </r>
       <r>  -13.9055    1.0000 </r>
       <r>  -13.7562    1.0000 </r>
       <r>  -13.7535    1.0000 </r>
       <r>   -8.3109    1.0000 </r>
       <r>   -8.2248    1.0000 </r>
       <r>   -7.8925    1.0000 </r>
       <r>   -7.7273    1.0000 </r>
       <r>   -7.7090    1.0000 </r>
       <r>   -7.6899    1.0000 </r>
       <r>   -7.6476    1.0000 </r>
       <r>   -7.5566    1.0000 </r>
       <r>   -7.5141    1.0000 </r>
       <r>   -7.4000    1.0000 </r>
       <r>   -7.3991    1.0000 </r>
       <r>   -7.3966    1.0000 </r>
       <r>   -7.3859    1.0000 </r>
       <r>   -7.3849    1.0000 </r>
       <r>   -7.3764    1.0000 </r>
       <r>   -7.3751    1.0000 </r>
       <r>   -7.3727    1.0000 </r>
       <r>   -7.3674    1.0000 </r>
       <r>   -7.3597    1.0000 </r>
       <r>   -7.3469    1.0000 </r>
       <r>   -7.3372    1.0000 </r>
       <r>   -7.3251    1.0000 </r>
       <r>   -7.3166    1.0000 </r>
       <r>   -7.3160    1.0000 </r>
       <r>   -7.3150    1.0000 </r>
       <r>   -7.3037    1.0000 </r>
       <r>   -7.3020    1.0000 </r>
       <r>   -7.0779    1.0000 </r>
       <r>   -7.0633    1.0000 </r>
       <r>   -3.7678    1.0000 </r>
       <r>   -3.6066    1.0000 </r>
       <r>   -3.4106    1.0000 </r>
       <r>   -3.4052    1.0000 </r>
       <r>   -3.3174    1.0000 </r>
       <r>   -3.2997    1.0000 </r>
       <r>   -3.1479    1.0000 </r>
       <r>   -3.1184    1.0000 </r>
       <r>   -2.9841    1.0000 </r>
       <r>   -2.8050    1.0000 </r>
       <r>   -2.7612    1.0000 </r>
       <r>   -2.7312    1.0000 </r>
       <r>   -2.5540    1.0000 </r>
       <r>   -2.5218    1.0000 </r>
       <r>   -2.4413    1.0000 </r>
       <r>   -2.4300    1.0000 </r>
       <r>   -2.3685    1.0000 </r>
       <r>   -2.3428    1.0000 </r>
       <r>   -2.2414    1.0000 </r>
       <r>   -2.2391    1.0000 </r>
       <r>   -2.1967    1.0000 </r>
       <r>   -2.1440    1.0000 </r>
       <r>   -2.1376    1.0000 </r>
       <r>   -2.0049    1.0000 </r>
       <r>   -1.9972    1.0000 </r>
       <r>   -1.9380    1.0000 </r>
       <r>   -1.8975    1.0000 </r>
       <r>   -1.8971    1.0000 </r>
       <r>   -1.8287    1.0000 </r>
       <r>   -1.7928    1.0000 </r>
       <r>   -1.7542    1.0000 </r>
       <r>   -1.7012    1.0000 </r>
       <r>   -1.6806    1.0000 </r>
       <r>   -1.6296    1.0000 </r>
       <r>   -1.6209    1.0000 </r>
       <r>   -1.6014    1.0000 </r>
       <r>   -1.5787    1.0000 </r>
       <r>   -1.5664    1.0000 </r>
       <r>   -1.5498    1.0000 </r>
       <r>   -1.5473    1.0000 </r>
       <r>   -1.5364    1.0000 </r>
       <r>   -1.5137    1.0000 </r>
       <r>   -1.4955    1.0000 </r>
       <r>   -1.4908    1.0000 </r>
       <r>   -1.4850    1.0000 </r>
       <r>   -1.4831    1.0000 </r>
       <r>   -1.4446    1.0000 </r>
       <r>   -1.4102    1.0000 </r>
       <r>   -1.3925    1.0000 </r>
       <r>   -1.3915    1.0000 </r>
       <r>   -1.3777    1.0000 </r>
       <r>   -1.3645    1.0000 </r>
       <r>   -1.3133    1.0000 </r>
       <r>   -1.2912    1.0000 </r>
       <r>   -1.2703    1.0000 </r>
       <r>   -1.2626    1.0000 </r>
       <r>   -1.2276    1.0000 </r>
       <r>   -1.1791    1.0000 </r>
       <r>   -1.1683    1.0000 </r>
       <r>   -1.1561    1.0000 </r>
       <r>   -1.1507    1.0000 </r>
       <r>   -1.0760    1.0000 </r>
       <r>   -1.0666    1.0000 </r>
       <r>   -0.9560    1.0000 </r>
       <r>   -0.9514    1.0000 </r>
       <r>   -0.7999    1.0000 </r>
       <r>   -0.7541    1.0000 </r>
       <r>   -0.7253    1.0000 </r>
       <r>   -0.6752    1.0000 </r>
       <r>   -0.6617    1.0000 </r>
       <r>   -0.1710    1.0000 </r>
       <r>   -0.1091    1.0000 </r>
       <r>    2.6228    0.0000 </r>
       <r>    2.6899    0.0000 </r>
       <r>    2.7537    0.0000 </r>
       <r>    2.7599    0.0000 </r>
       <r>    3.0848    0.0000 </r>
       <r>    3.0927    0.0000 </r>
       <r>    3.1981    0.0000 </r>
       <r>    3.2385    0.0000 </r>
       <r>    3.7312    0.0000 </r>
       <r>    4.1213    0.0000 </r>
       <r>    4.2802    0.0000 </r>
       <r>    4.2852    0.0000 </r>
       <r>    4.3410    0.0000 </r>
       <r>    4.4934    0.0000 </r>
       <r>    4.6823    0.0000 </r>
       <r>    4.7115    0.0000 </r>
       <r>    5.2497    0.0000 </r>
       <r>    5.3350    0.0000 </r>
       <r>    5.4359    0.0000 </r>
       <r>    5.5040    0.0000 </r>
       <r>    5.5735    0.0000 </r>
       <r>    5.5887    0.0000 </r>
       <r>    5.7943    0.0000 </r>
       <r>    5.8881    0.0000 </r>
       <r>    5.8920    0.0000 </r>
       <r>    6.0199    0.0000 </r>
       <r>    6.0817    0.0000 </r>
       <r>    6.1229    0.0000 </r>
       <r>    6.1246    0.0000 </r>
       <r>    6.2769    0.0000 </r>
       <r>    6.3361    0.0000 </r>
       <r>    6.3611    0.0000 </r>
       <r>    6.4405    0.0000 </r>
       <r>    6.4590    0.0000 </r>
       <r>    6.5380    0.0000 </r>
       <r>    6.5472    0.0000 </r>
      </set>
      <set comment="kpoint 6">
       <r>  -21.1318    1.0000 </r>
       <r>  -20.9969    1.0000 </r>
       <r>  -20.9933    1.0000 </r>
       <r>  -20.9574    1.0000 </r>
       <r>  -20.9550    1.0000 </r>
       <r>  -20.9153    1.0000 </r>
       <r>  -20.9137    1.0000 </r>
       <r>  -16.8249    1.0000 </r>
       <r>  -16.8205    1.0000 </r>
       <r>  -16.8021    1.0000 </r>
       <r>  -16.8011    1.0000 </r>
       <r>  -16.7883    1.0000 </r>
       <r>  -16.7872    1.0000 </r>
       <r>  -16.7728    1.0000 </r>
       <r>  -16.7715    1.0000 </r>
       <r>  -16.7016    1.0000 </r>
       <r>  -16.7015    1.0000 </r>
       <r>  -16.6843    1.0000 </r>
       <r>  -16.6842    1.0000 </r>
       <r>  -16.6837    1.0000 </r>
       <r>  -16.6830    1.0000 </r>
       <r>  -16.6682    1.0000 </r>
       <r>  -16.6679    1.0000 </r>
       <r>  -16.6664    1.0000 </r>
       <r>  -16.6656    1.0000 </r>
       <r>  -16.6567    1.0000 </r>
       <r>  -16.6560    1.0000 </r>
       <r>  -16.5432    1.0000 </r>
       <r>  -16.5430    1.0000 </r>
       <r>  -16.5325    1.0000 </r>
       <r>  -16.5312    1.0000 </r>
       <r>  -16.5304    1.0000 </r>
       <r>  -16.5285    1.0000 </r>
       <r>  -16.5155    1.0000 </r>
       <r>  -16.5147    1.0000 </r>
       <r>  -16.4401    1.0000 </r>
       <r>  -16.4392    1.0000 </r>
       <r>  -16.4303    1.0000 </r>
       <r>  -16.4294    1.0000 </r>
       <r>  -16.4255    1.0000 </r>
       <r>  -16.4248    1.0000 </r>
       <r>  -16.4226    1.0000 </r>
       <r>  -16.4217    1.0000 </r>
       <r>  -16.4210    1.0000 </r>
       <r>  -16.4202    1.0000 </r>
       <r>  -16.4083    1.0000 </r>
       <r>  -16.4076    1.0000 </r>
       <r>  -14.8808    1.0000 </r>
       <r>  -14.6623    1.0000 </r>
       <r>  -14.5239    1.0000 </r>
       <r>  -14.5173    1.0000 </r>
       <r>  -14.3843    1.0000 </r>
       <r>  -14.3442    1.0000 </r>
       <r>  -14.2591    1.0000 </r>
       <r>  -14.2390    1.0000 </r>
       <r>  -14.2198    1.0000 </r>
       <r>  -14.2088    1.0000 </r>
       <r>  -14.2041    1.0000 </r>
       <r>  -14.1906    1.0000 </r>
       <r>  -14.1407    1.0000 </r>
       <r>  -14.1399    1.0000 </r>
       <r>  -14.1319    1.0000 </r>
       <r>  -14.1172    1.0000 </r>
       <r>  -13.9572    1.0000 </r>
       <r>  -13.9532    1.0000 </r>
       <r>  -13.9214    1.0000 </r>
       <r>  -13.9184    1.0000 </r>
       <r>  -13.9020    1.0000 </r>
       <r>  -13.8972    1.0000 </r>
       <r>  -13.7874    1.0000 </r>
       <r>  -13.7809    1.0000 </r>
       <r>   -8.1343    1.0000 </r>
       <r>   -8.0128    1.0000 </r>
       <r>   -7.9778    1.0000 </r>
       <r>   -7.9686    1.0000 </r>
       <r>   -7.8802    1.0000 </r>
       <r>   -7.6103    1.0000 </r>
       <r>   -7.5642    1.0000 </r>
       <r>   -7.4505    1.0000 </r>
       <r>   -7.4387    1.0000 </r>
       <r>   -7.4248    1.0000 </r>
       <r>   -7.4167    1.0000 </r>
       <r>   -7.3963    1.0000 </r>
       <r>   -7.3923    1.0000 </r>
       <r>   -7.3845    1.0000 </r>
       <r>   -7.3756    1.0000 </r>
       <r>   -7.3745    1.0000 </r>
       <r>   -7.3705    1.0000 </r>
       <r>   -7.3618    1.0000 </r>
       <r>   -7.3602    1.0000 </r>
       <r>   -7.3590    1.0000 </r>
       <r>   -7.3334    1.0000 </r>
       <r>   -7.3295    1.0000 </r>
       <r>   -7.3279    1.0000 </r>
       <r>   -7.3142    1.0000 </r>
       <r>   -7.3129    1.0000 </r>
       <r>   -7.3094    1.0000 </r>
       <r>   -7.2974    1.0000 </r>
       <r>   -7.2768    1.0000 </r>
       <r>   -7.2693    1.0000 </r>
       <r>   -3.3728    1.0000 </r>
       <r>   -3.3661    1.0000 </r>
       <r>   -3.3523    1.0000 </r>
       <r>   -3.3427    1.0000 </r>
       <r>   -3.2460    1.0000 </r>
       <r>   -2.9734    1.0000 </r>
       <r>   -2.9337    1.0000 </r>
       <r>   -2.8830    1.0000 </r>
       <r>   -2.7674    1.0000 </r>
[...]
        <r>  0.0014  0.0006  0.0006 </r>
        <r>  0.0001  0.0001  0.0002 </r>
        <r>  0.0000  0.0020  0.0001 </r>
        <r>  0.0001  0.0005  0.0001 </r>
        <r>  0.0003  0.0009  0.0011 </r>
        <r>  0.0000  0.0023  0.0013 </r>
        <r>  0.0004  0.0001  0.0006 </r>
        <r>  0.0007  0.0027  0.0051 </r>
        <r>  0.0007  0.0000  0.0611 </r>
       </set>
       <set comment="band 199">
        <r>  0.0012  0.0001  0.0080 </r>
        <r>  0.0070  0.0011  0.0084 </r>
        <r>  0.0019  0.0001  0.0136 </r>
        <r>  0.0020  0.0001  0.0137 </r>
        <r>  0.0067  0.0011  0.0085 </r>
        <r>  0.0014  0.0002  0.0088 </r>
        <r>  0.0000  0.0001  0.0001 </r>
        <r>  0.0000  0.0001  0.0001 </r>
        <r>  0.0000  0.0066  0.0001 </r>
        <r>  0.0000  0.0063  0.0002 </r>
        <r>  0.0000  0.0007  0.0001 </r>
        <r>  0.0000  0.0007  0.0001 </r>
        <r>  0.0000  0.0071  0.0000 </r>
        <r>  0.0000  0.0073  0.0000 </r>
        <r>  0.0005  0.0022  0.0015 </r>
        <r>  0.0003  0.0019  0.0010 </r>
        <r>  0.0000  0.0012  0.0007 </r>
        <r>  0.0001  0.0013  0.0007 </r>
        <r>  0.0001  0.0015  0.0008 </r>
        <r>  0.0000  0.0013  0.0007 </r>
        <r>  0.0003  0.0018  0.0010 </r>
        <r>  0.0005  0.0022  0.0015 </r>
        <r>  0.0003  0.0013  0.0004 </r>
        <r>  0.0014  0.0030  0.0015 </r>
        <r>  0.0004  0.0042  0.0007 </r>
        <r>  0.0024  0.0030  0.0030 </r>
        <r>  0.0011  0.0010  0.0014 </r>
        <r>  0.0004  0.0005  0.0004 </r>
        <r>  0.0003  0.0022  0.0008 </r>
        <r>  0.0006  0.0035  0.0014 </r>
        <r>  0.0005  0.0036  0.0014 </r>
        <r>  0.0003  0.0022  0.0008 </r>
        <r>  0.0004  0.0005  0.0004 </r>
        <r>  0.0010  0.0009  0.0013 </r>
        <r>  0.0014  0.0029  0.0016 </r>
        <r>  0.0003  0.0013  0.0004 </r>
        <r>  0.0024  0.0030  0.0030 </r>
        <r>  0.0004  0.0040  0.0007 </r>
        <r>  0.0000  0.0034  0.0001 </r>
       </set>
       <set comment="band 200">
        <r>  0.0004  0.0002  0.0046 </r>
        <r>  0.0041  0.0008  0.0067 </r>
        <r>  0.0056  0.0007  0.0130 </r>
        <r>  0.0054  0.0007  0.0127 </r>
        <r>  0.0039  0.0008  0.0067 </r>
        <r>  0.0005  0.0002  0.0046 </r>
        <r>  0.0000  0.0063  0.0001 </r>
        <r>  0.0000  0.0066  0.0001 </r>
        <r>  0.0001  0.0033  0.0000 </r>
        <r>  0.0000  0.0034  0.0000 </r>
        <r>  0.0001  0.0023  0.0003 </r>
        <r>  0.0001  0.0022  0.0003 </r>
        <r>  0.0000  0.0035  0.0002 </r>
        <r>  0.0000  0.0036  0.0002 </r>
        <r>  0.0000  0.0065  0.0009 </r>
        <r>  0.0005  0.0003  0.0007 </r>
        <r>  0.0001  0.0011  0.0011 </r>
        <r>  0.0001  0.0025  0.0003 </r>
        <r>  0.0002  0.0023  0.0003 </r>
        <r>  0.0002  0.0011  0.0012 </r>
        <r>  0.0006  0.0003  0.0008 </r>
        <r>  0.0000  0.0061  0.0009 </r>
        <r>  0.0022  0.0039  0.0023 </r>
        <r>  0.0000  0.0015  0.0025 </r>
        <r>  0.0000  0.0019  0.0005 </r>
        <r>  0.0032  0.0007  0.0017 </r>
        <r>  0.0011  0.0017  0.0028 </r>
        <r>  0.0002  0.0028  0.0002 </r>
        <r>  0.0002  0.0013  0.0003 </r>
        <r>  0.0001  0.0004  0.0006 </r>
        <r>  0.0001  0.0005  0.0006 </r>
        <r>  0.0002  0.0015  0.0002 </r>
        <r>  0.0002  0.0029  0.0003 </r>
        <r>  0.0011  0.0015  0.0028 </r>
        <r>  0.0000  0.0014  0.0024 </r>
        <r>  0.0026  0.0038  0.0024 </r>
        <r>  0.0034  0.0007  0.0017 </r>
        <r>  0.0000  0.0019  0.0004 </r>
        <r>  0.0000  0.0000  0.0256 </r>
       </set>
       <set comment="band 201">
        <r>  0.0034  0.0009  0.0109 </r>
        <r>  0.0041  0.0013  0.0020 </r>
        <r>  0.0000  0.0010  0.0165 </r>
        <r>  0.0001  0.0010  0.0167 </r>
        <r>  0.0043  0.0013  0.0019 </r>
        <r>  0.0034  0.0009  0.0115 </r>
        <r>  0.0000  0.0051  0.0002 </r>
        <r>  0.0000  0.0046  0.0003 </r>
        <r>  0.0000  0.0002  0.0001 </r>
        <r>  0.0000  0.0002  0.0001 </r>
        <r>  0.0000  0.0106  0.0001 </r>
        <r>  0.0000  0.0104  0.0001 </r>
        <r>  0.0000  0.0005  0.0003 </r>
        <r>  0.0000  0.0003  0.0003 </r>
        <r>  0.0001  0.0025  0.0002 </r>
        <r>  0.0001  0.0036  0.0005 </r>
        <r>  0.0015  0.0016  0.0015 </r>
        <r>  0.0001  0.0058  0.0016 </r>
        <r>  0.0001  0.0062  0.0016 </r>
        <r>  0.0014  0.0015  0.0013 </r>
        <r>  0.0001  0.0035  0.0004 </r>
        <r>  0.0001  0.0027  0.0002 </r>
        <r>  0.0026  0.0022  0.0021 </r>
        <r>  0.0004  0.0031  0.0007 </r>
        <r>  0.0007  0.0025  0.0013 </r>
        <r>  0.0022  0.0017  0.0021 </r>
        <r>  0.0000  0.0009  0.0008 </r>
        <r>  0.0005  0.0013  0.0004 </r>
        <r>  0.0000  0.0018  0.0002 </r>
        <r>  0.0001  0.0019  0.0018 </r>
        <r>  0.0001  0.0019  0.0017 </r>
        <r>  0.0001  0.0017  0.0002 </r>
        <r>  0.0005  0.0012  0.0004 </r>
        <r>  0.0000  0.0010  0.0007 </r>
        <r>  0.0004  0.0033  0.0007 </r>
        <r>  0.0023  0.0023  0.0020 </r>
        <r>  0.0019  0.0018  0.0020 </r>
        <r>  0.0007  0.0027  0.0013 </r>
        <r>  0.0000  0.0035  0.0000 </r>
       </set>
       <set comment="band 202">
        <r>  0.0037  0.0002  0.0046 </r>
        <r>  0.0003  0.0003  0.0108 </r>
        <r>  0.0000  0.0009  0.0034 </r>
        <r>  0.0000  0.0009  0.0034 </r>
        <r>  0.0003  0.0003  0.0106 </r>
        <r>  0.0038  0.0002  0.0046 </r>
        <r>  0.0000  0.0085  0.0001 </r>
        <r>  0.0000  0.0085  0.0001 </r>
        <r>  0.0000  0.0123  0.0000 </r>
        <r>  0.0000  0.0123  0.0000 </r>
        <r>  0.0000  0.0027  0.0002 </r>
        <r>  0.0000  0.0027  0.0002 </r>
        <r>  0.0000  0.0067  0.0001 </r>
        <r>  0.0000  0.0064  0.0001 </r>
        <r>  0.0001  0.0045  0.0013 </r>
        <r>  0.0028  0.0012  0.0029 </r>
        <r>  0.0000  0.0039  0.0006 </r>
        <r>  0.0010  0.0025  0.0011 </r>
        <r>  0.0009  0.0026  0.0011 </r>
        <r>  0.0000  0.0039  0.0006 </r>
        <r>  0.0027  0.0011  0.0028 </r>
        <r>  0.0001  0.0047  0.0013 </r>
        <r>  0.0005  0.0003  0.0005 </r>
        <r>  0.0000  0.0014  0.0011 </r>
        <r>  0.0004  0.0006  0.0009 </r>
        <r>  0.0000  0.0011  0.0006 </r>
        <r>  0.0002  0.0032  0.0002 </r>
        <r>  0.0002  0.0008  0.0005 </r>
        <r>  0.0011  0.0009  0.0021 </r>
        <r>  0.0000  0.0051  0.0005 </r>
        <r>  0.0000  0.0051  0.0005 </r>
        <r>  0.0011  0.0010  0.0021 </r>
        <r>  0.0001  0.0008  0.0005 </r>
        <r>  0.0002  0.0032  0.0002 </r>
        <r>  0.0000  0.0014  0.0011 </r>
        <r>  0.0006  0.0003  0.0006 </r>
        <r>  0.0000  0.0011  0.0006 </r>
        <r>  0.0004  0.0007  0.0009 </r>
        <r>  0.0000  0.0101  0.0000 </r>
       </set>
       <set comment="band 203">
        <r>  0.0046  0.0004  0.0106 </r>
        <r>  0.0043  0.0002  0.0047 </r>
        <r>  0.0001  0.0014  0.0071 </r>
        <r>  0.0000  0.0014  0.0073 </r>
        <r>  0.0043  0.0002  0.0043 </r>
        <r>  0.0041  0.0004  0.0104 </r>
        <r>  0.0000  0.0004  0.0001 </r>
        <r>  0.0000  0.0006  0.0001 </r>
        <r>  0.0000  0.0102  0.0002 </r>
        <r>  0.0000  0.0104  0.0002 </r>
        <r>  0.0000  0.0054  0.0003 </r>
        <r>  0.0000  0.0058  0.0003 </r>
        <r>  0.0000  0.0088  0.0002 </r>
        <r>  0.0000  0.0091  0.0003 </r>
        <r>  0.0000  0.0022  0.0006 </r>
        <r>  0.0004  0.0016  0.0013 </r>
        <r>  0.0010  0.0026  0.0012 </r>
        <r>  0.0009  0.0036  0.0020 </r>
        <r>  0.0007  0.0037  0.0018 </r>
        <r>  0.0010  0.0029  0.0011 </r>
        <r>  0.0004  0.0016  0.0013 </r>
        <r>  0.0001  0.0022  0.0007 </r>
        <r>  0.0002  0.0014  0.0015 </r>
        <r>  0.0001  0.0004  0.0027 </r>
        <r>  0.0002  0.0025  0.0005 </r>
        <r>  0.0001  0.0005  0.0005 </r>
        <r>  0.0011  0.0035  0.0013 </r>
        <r>  0.0007  0.0020  0.0010 </r>
        <r>  0.0003  0.0025  0.0006 </r>
        <r>  0.0014  0.0023  0.0015 </r>
        <r>  0.0012  0.0023  0.0013 </r>
        <r>  0.0003  0.0029  0.0006 </r>
        <r>  0.0006  0.0019  0.0010 </r>
        <r>  0.0010  0.0035  0.0012 </r>
        <r>  0.0001  0.0004  0.0027 </r>
        <r>  0.0002  0.0014  0.0015 </r>
        <r>  0.0001  0.0005  0.0005 </r>
        <r>  0.0002  0.0027  0.0006 </r>
        <r>  0.0003  0.0000  0.0310 </r>
       </set>
       <set comment="band 204">
        <r>  0.0005  0.0008  0.0072 </r>
        <r>  0.0046  0.0008  0.0110 </r>
        <r>  0.0057  0.0007  0.0022 </r>
        <r>  0.0065  0.0007  0.0028 </r>
        <r>  0.0047  0.0007  0.0115 </r>
        <r>  0.0004  0.0008  0.0070 </r>
        <r>  0.0001  0.0071  0.0001 </r>
        <r>  0.0001  0.0071  0.0001 </r>
        <r>  0.0000  0.0007  0.0000 </r>
        <r>  0.0000  0.0008  0.0000 </r>
        <r>  0.0001  0.0081  0.0002 </r>
        <r>  0.0001  0.0087  0.0002 </r>
        <r>  0.0000  0.0026  0.0003 </r>
        <r>  0.0000  0.0027  0.0003 </r>
        <r>  0.0019  0.0012  0.0020 </r>
        <r>  0.0001  0.0043  0.0013 </r>
        <r>  0.0004  0.0052  0.0005 </r>
        <r>  0.0006  0.0013  0.0016 </r>
        <r>  0.0005  0.0012  0.0015 </r>
        <r>  0.0004  0.0051  0.0005 </r>
        <r>  0.0001  0.0040  0.0013 </r>
        <r>  0.0021  0.0013  0.0021 </r>
        <r>  0.0016  0.0009  0.0009 </r>
        <r>  0.0000  0.0040  0.0026 </r>
        <r>  0.0001  0.0032  0.0004 </r>
        <r>  0.0019  0.0010  0.0014 </r>
        <r>  0.0005  0.0031  0.0013 </r>
        <r>  0.0001  0.0014  0.0005 </r>
        <r>  0.0005  0.0011  0.0002 </r>
        <r>  0.0000  0.0020  0.0004 </r>
        <r>  0.0000  0.0020  0.0005 </r>
        <r>  0.0006  0.0011  0.0003 </r>
        <r>  0.0001  0.0012  0.0005 </r>
        <r>  0.0006  0.0030  0.0013 </r>
        <r>  0.0000  0.0039  0.0027 </r>
        <r>  0.0016  0.0009  0.0009 </r>
        <r>  0.0020  0.0009  0.0017 </r>
        <r>  0.0001  0.0033  0.0005 </r>
        <r>  0.0003  0.0000  0.0221 </r>
       </set>
       <set comment="band 205">
        <r>  0.0000  0.0003  0.0094 </r>
        <r>  0.0026  0.0004  0.0093 </r>
        <r>  0.0085  0.0010  0.0096 </r>
        <r>  0.0079  0.0010  0.0092 </r>
        <r>  0.0025  0.0004  0.0087 </r>
        <r>  0.0001  0.0003  0.0097 </r>
        <r>  0.0000  0.0085  0.0000 </r>
        <r>  0.0000  0.0089  0.0000 </r>
        <r>  0.0000  0.0050  0.0000 </r>
        <r>  0.0000  0.0049  0.0000 </r>
        <r>  0.0000  0.0015  0.0001 </r>
        <r>  0.0000  0.0012  0.0001 </r>
        <r>  0.0000  0.0027  0.0001 </r>
        <r>  0.0000  0.0024  0.0001 </r>
        <r>  0.0024  0.0020  0.0020 </r>
        <r>  0.0001  0.0033  0.0009 </r>
        <r>  0.0012  0.0026  0.0013 </r>
        <r>  0.0000  0.0027  0.0002 </r>
        <r>  0.0000  0.0027  0.0002 </r>
        <r>  0.0011  0.0028  0.0013 </r>
        <r>  0.0001  0.0037  0.0008 </r>
        <r>  0.0022  0.0020  0.0019 </r>
        <r>  0.0000  0.0025  0.0011 </r>
        <r>  0.0007  0.0002  0.0013 </r>
        <r>  0.0000  0.0014  0.0002 </r>
        <r>  0.0001  0.0014  0.0017 </r>
        <r>  0.0023  0.0012  0.0012 </r>
        <r>  0.0003  0.0034  0.0003 </r>
        <r>  0.0003  0.0047  0.0006 </r>
        <r>  0.0018  0.0027  0.0023 </r>
        <r>  0.0019  0.0027  0.0023 </r>
        <r>  0.0003  0.0045  0.0006 </r>
        <r>  0.0004  0.0032  0.0004 </r>
        <r>  0.0023  0.0012  0.0014 </r>
        <r>  0.0007  0.0002  0.0012 </r>
        <r>  0.0000  0.0026  0.0012 </r>
        <r>  0.0001  0.0013  0.0016 </r>
        <r>  0.0000  0.0012  0.0002 </r>
        <r>  0.0000  0.0007  0.0000 </r>
       </set>
       <set comment="band 206">
        <r>  0.0020  0.0006  0.0177 </r>
        <r>  0.0003  0.0008  0.0385 </r>
        <r>  0.0001  0.0006  0.0278 </r>
        <r>  0.0001  0.0003  0.0198 </r>
        <r>  0.0002  0.0003  0.0145 </r>
        <r>  0.0003  0.0001  0.0059 </r>
        <r>  0.0000  0.0027  0.0004 </r>
        <r>  0.0001  0.0012  0.0003 </r>
        <r>  0.0000  0.0013  0.0007 </r>
        <r>  0.0000  0.0004  0.0003 </r>
        <r>  0.0001  0.0059  0.0005 </r>
        <r>  0.0000  0.0036  0.0003 </r>
        <r>  0.0000  0.0081  0.0004 </r>
        <r>  0.0000  0.0026  0.0001 </r>
        <r>  0.0001  0.0005  0.0014 </r>
        <r>  0.0004  0.0001  0.0004 </r>
        <r>  0.0007  0.0001  0.0020 </r>
        <r>  0.0008  0.0005  0.0026 </r>
        <r>  0.0001  0.0002  0.0007 </r>
        <r>  0.0001  0.0004  0.0003 </r>
        <r>  0.0006  0.0002  0.0006 </r>
        <r>  0.0002  0.0012  0.0011 </r>
        <r>  0.0011  0.0006  0.0039 </r>
        <r>  0.0000  0.0014  0.0009 </r>
        <r>  0.0002  0.0004  0.0005 </r>
        <r>  0.0014  0.0012  0.0029 </r>
        <r>  0.0001  0.0021  0.0039 </r>
        <r>  0.0000  0.0007  0.0005 </r>
        <r>  0.0000  0.0006  0.0003 </r>
        <r>  0.0000  0.0012  0.0014 </r>
        <r>  0.0004  0.0011  0.0026 </r>
        <r>  0.0001  0.0012  0.0008 </r>
        <r>  0.0001  0.0007  0.0005 </r>
        <r>  0.0006  0.0012  0.0035 </r>
        <r>  0.0000  0.0021  0.0002 </r>
        <r>  0.0006  0.0011  0.0018 </r>
        <r>  0.0001  0.0039  0.0026 </r>
        <r>  0.0002  0.0002  0.0009 </r>
        <r>  0.0000  0.0001  0.0051 </r>
       </set>
       <set comment="band 207">
        <r>  0.0008  0.0001  0.0063 </r>
        <r>  0.0001  0.0004  0.0154 </r>
        <r>  0.0001  0.0002  0.0220 </r>
        <r>  0.0003  0.0002  0.0223 </r>
        <r>  0.0004  0.0011  0.0384 </r>
        <r>  0.0030  0.0003  0.0166 </r>
        <r>  0.0001  0.0057  0.0001 </r>
        <r>  0.0000  0.0072  0.0003 </r>
        <r>  0.0000  0.0016  0.0001 </r>
        <r>  0.0000  0.0029  0.0004 </r>
        <r>  0.0001  0.0004  0.0006 </r>
        <r>  0.0001  0.0030  0.0007 </r>
        <r>  0.0000  0.0029  0.0004 </r>
        <r>  0.0000  0.0059  0.0006 </r>
        <r>  0.0001  0.0016  0.0009 </r>
        <r>  0.0002  0.0008  0.0004 </r>
        <r>  0.0001  0.0016  0.0009 </r>
        <r>  0.0004  0.0003  0.0011 </r>
        <r>  0.0016  0.0006  0.0035 </r>
        <r>  0.0007  0.0007  0.0024 </r>
        <r>  0.0000  0.0005  0.0004 </r>
        <r>  0.0000  0.0009  0.0013 </r>
        <r>  0.0001  0.0015  0.0018 </r>
        <r>  0.0001  0.0019  0.0010 </r>
        <r>  0.0001  0.0003  0.0010 </r>
        <r>  0.0004  0.0048  0.0038 </r>
        <r>  0.0009  0.0005  0.0016 </r>
        <r>  0.0002  0.0006  0.0001 </r>
        <r>  0.0001  0.0019  0.0006 </r>
        <r>  0.0006  0.0002  0.0022 </r>
        <r>  0.0004  0.0005  0.0013 </r>
        <r>  0.0000  0.0013  0.0002 </r>
        <r>  0.0001  0.0006  0.0004 </r>
        <r>  0.0006  0.0023  0.0030 </r>
        <r>  0.0001  0.0017  0.0015 </r>
        <r>  0.0003  0.0011  0.0026 </r>
        <r>  0.0010  0.0018  0.0028 </r>
        <r>  0.0004  0.0006  0.0009 </r>
        <r>  0.0000  0.0004  0.0015 </r>
       </set>
       <set comment="band 208">
        <r>  0.0001  0.0000  0.0153 </r>
        <r>  0.0018  0.0002  0.0135 </r>
        <r>  0.0002  0.0011  0.0120 </r>
        <r>  0.0001  0.0012  0.0057 </r>
        <r>  0.0030  0.0005  0.0202 </r>
        <r>  0.0003  0.0001  0.0195 </r>
        <r>  0.0001  0.0031  0.0006 </r>
        <r>  0.0000  0.0083  0.0006 </r>
        <r>  0.0000  0.0044  0.0004 </r>
        <r>  0.0000  0.0017  0.0001 </r>
        <r>  0.0000  0.0050  0.0008 </r>
        <r>  0.0000  0.0041  0.0004 </r>
        <r>  0.0002  0.0044  0.0004 </r>
        <r>  0.0001  0.0076  0.0007 </r>
        <r>  0.0004  0.0018  0.0027 </r>
        <r>  0.0000  0.0004  0.0013 </r>
        <r>  0.0009  0.0015  0.0019 </r>
        <r>  0.0004  0.0009  0.0015 </r>
        <r>  0.0010  0.0012  0.0011 </r>
        <r>  0.0032  0.0018  0.0045 </r>
        <r>  0.0001  0.0002  0.0006 </r>
        <r>  0.0006  0.0015  0.0016 </r>
        <r>  0.0001  0.0003  0.0011 </r>
        <r>  0.0000  0.0022  0.0029 </r>
        <r>  0.0001  0.0009  0.0014 </r>
        <r>  0.0001  0.0020  0.0008 </r>
        <r>  0.0014  0.0006  0.0027 </r>
        <r>  0.0000  0.0050  0.0007 </r>
        <r>  0.0000  0.0014  0.0005 </r>
        <r>  0.0001  0.0045  0.0007 </r>
        <r>  0.0001  0.0025  0.0006 </r>
        <r>  0.0001  0.0007  0.0005 </r>
        <r>  0.0000  0.0039  0.0011 </r>
        <r>  0.0007  0.0005  0.0015 </r>
        <r>  0.0000  0.0034  0.0023 </r>
        <r>  0.0002  0.0005  0.0010 </r>
        <r>  0.0002  0.0011  0.0004 </r>
        <r>  0.0000  0.0004  0.0009 </r>
        <r>  0.0000  0.0001  0.0250 </r>
       </set>
      </set>
     </set>
    </set>
   </array>
  </projected>
 </calculation>
 <structure name="finalpos" >
  <crystal>
   <varray name="basis" >
    <v>       8.42001800       0.00000000       8.07798100 </v>
    <v>       0.00000000      11.76380800       0.00000000 </v>
    <v>      -8.42001800       0.00000000       8.07798100 </v>
   </varray>
   <i name="volume">   1600.27186790 </i>
   <varray name="rec_basis" >
    <v>       0.05938230      -0.00000000       0.06189665 </v>
    <v>       0.00000000       0.08500649      -0.00000000 </v>
    <v>      -0.05938230       0.00000000       0.06189665 </v>
   </varray>
  </crystal>
  <varray name="positions" >
   <v>       0.27062000       0.24862200       0.19970000 </v>
   <v>       0.77045000       0.24725200       0.72986500 </v>
   <v>       0.21282600       0.75872200       0.76651400 </v>
   <v>       0.28731200       0.24165200       0.73354100 </v>
   <v>       0.72958300       0.75255700       0.77050200 </v>
   <v>       0.22936700       0.75139700       0.30045000 </v>
   <v>       0.99847100       0.99685600       0.00682400 </v>
   <v>       0.50164400       0.00320900       0.49316100 </v>
   <v>       0.50606000       0.99789200       0.00084100 </v>
   <v>       0.99383700       0.00222400       0.49915600 </v>
   <v>       0.50009500       0.50134900       0.99437600 </v>
   <v>       0.99976500       0.49896300       0.50564300 </v>
   <v>       0.00367200       0.50096700       0.00170400 </v>
   <v>       0.49636400       0.49929100       0.49827900 </v>
   <v>       0.47015200       0.74857300       0.94682400 </v>
   <v>       0.96506800       0.75010900       0.46859200 </v>
   <v>       0.97909700       0.24968600       0.97171700 </v>
   <v>       0.44469300       0.25100000       0.46846900 </v>
   <v>       0.05564500       0.74923600       0.03161600 </v>
   <v>       0.52123300       0.75054400       0.52828600 </v>
   <v>       0.53441400       0.25006100       0.03098000 </v>
   <v>       0.02996700       0.25165600       0.55318100 </v>
   <v>       0.24981400       0.46280300       0.94847600 </v>
   <v>       0.74706100       0.46322400       0.49091400 </v>
   <v>       0.44338000       0.52918400       0.24592900 </v>
   <v>       0.96684300       0.54813600       0.75076700 </v>
   <v>       0.54489400       0.03363100       0.75033200 </v>
   <v>       0.05838900       0.02973000       0.25417600 </v>
   <v>       0.75488800       0.94398700       0.03727600 </v>
   <v>       0.24791600       0.96987200       0.54715700 </v>
   <v>       0.25209100       0.03033100       0.95284700 </v>
   <v>       0.74505900       0.05584500       0.46267200 </v>
   <v>       0.44139000       0.97058300       0.24583700 </v>
   <v>       0.95480000       0.96625300       0.74973900 </v>
   <v>       0.75307200       0.53585400       0.00886000 </v>
   <v>       0.25027200       0.53744900       0.55167200 </v>
   <v>       0.53319800       0.45244700       0.74926400 </v>
   <v>       0.05662800       0.47076400       0.25405800 </v>
   <v>       0.74987200       0.49866200       0.24985000 </v>
  </varray>
 </structure>
</modeling>
