 running on   64 total cores
 distrk:  each k-point on   64 cores,    1 groups
 distr:  one band on    8 cores,    8 groups
 using from now: INCAR     
 vasp.5.4.4.18Apr17-6-g9f103f2a35 (build Jun 22 2020 09:27:21) complex           
 POSCAR found type information on POSCAR  Cs Pb Br Cs
 POSCAR found :  4 types and      39 ions
 scaLAPACK will be used
 LDA part: xc-table for Pade appr. of Perdew
 POSCAR found type information on POSCAR  Cs Pb Br Cs
 POSCAR found :  4 types and      39 ions
 POSCAR, INCAR and KPOINTS ok, starting setup
 FFT: planning ...
 WAVECAR not read
 entering main loop
       N       E                     dE             d eps       ncg     rms          rms(c)
DAV:   1     0.136399436540E+04    0.13640E+04   -0.11063E+05  3472   0.971E+02
DAV:   2    -0.109229026856E+04   -0.24563E+04   -0.23772E+04  4152   0.300E+02
DAV:   3    -0.145170970473E+04   -0.35942E+03   -0.35746E+03  4416   0.136E+02
DAV:   4    -0.146388016041E+04   -0.12170E+02   -0.12135E+02  3936   0.332E+01
DAV:   5    -0.146441980404E+04   -0.53964E+00   -0.53936E+00  4432   0.548E+00BRMIX: very serious problems
 the old and the new charge density differ
 old charge density:   343.00000 new  344.00000
    0.108E+01
DAV:   6    -0.138540076569E+04    0.79019E+02   -0.23235E+01  4352   0.325E+01    0.744E+00
DAV:   7    -0.138499521407E+04    0.40555E+00   -0.94124E+00  4224   0.585E+00    0.380E+00
DAV:   8    -0.138517758361E+04   -0.18237E+00   -0.41653E-01  3904   0.201E+00    0.222E+00
DAV:   9    -0.138526328437E+04   -0.85701E-01   -0.15634E-01  3680   0.129E+00    0.424E-01
DAV:  10    -0.138526591106E+04   -0.26267E-02   -0.13382E-02  4688   0.375E-01    0.277E-01
DAV:  11    -0.138526956249E+04   -0.36514E-02   -0.30046E-03  3712   0.165E-01    0.104E-01
DAV:  12    -0.138527168191E+04   -0.21194E-02   -0.21697E-03  3760   0.112E-01    0.652E-02
DAV:  13    -0.138527152492E+04    0.15699E-03   -0.80661E-04  4520   0.851E-02    0.255E-02
DAV:  14    -0.138527153516E+04   -0.10242E-04   -0.15371E-04  3824   0.255E-02    0.164E-02
DAV:  15    -0.138527154917E+04   -0.14011E-04   -0.19566E-05  3648   0.107E-02    0.989E-03
DAV:  16    -0.138527160568E+04   -0.56509E-04   -0.25153E-05  3616   0.126E-02    0.471E-03
DAV:  17    -0.138527159904E+04    0.66443E-05   -0.53130E-06  3632   0.515E-03    0.254E-03
DAV:  18    -0.138527159817E+04    0.86262E-06   -0.45891E-07  2120   0.167E-03
   1 F= -.13852716E+04 E0= -.13852716E+04  d E =-.355348E-12
Application 1923274 resources: utime ~28268s, stime ~118s, Rss ~78580, inblocks ~1758, outblocks ~111088
