CsPbBr3 cubic bulk                      
           1
     8.420018    0.000000    8.077981
     0.000000   11.763808    0.000000
    -8.420018    0.000000    8.077981
   Cs   Pb   Br   Cs
   6   8  24   1
Direct configuration=     1
   0.27062000  0.24862200  0.19970000
   0.77045000  0.24725200  0.72986500
   0.21282600  0.75872200  0.76651400
   0.28731200  0.24165200  0.73354100
   0.72958300  0.75255700  0.77050200
   0.22936700  0.75139700  0.30045000
   0.99847100  0.99685600  0.00682400
   0.50164400  0.00320900  0.49316100
   0.50606000  0.99789200  0.00084100
   0.99383700  0.00222400  0.49915600
   0.50009500  0.50134900  0.99437600
   0.99976500  0.49896300  0.50564300
   0.00367200  0.50096700  0.00170400
   0.49636400  0.49929100  0.49827900
   0.47015200  0.74857300  0.94682400
   0.96506800  0.75010900  0.46859200
   0.97909700  0.24968600  0.97171700
   0.44469300  0.25100000  0.46846900
   0.05564500  0.74923600  0.03161600
   0.52123300  0.75054400  0.52828600
   0.53441400  0.25006100  0.03098000
   0.02996700  0.25165600  0.55318100
   0.24981400  0.46280300  0.94847600
   0.74706100  0.46322400  0.49091400
   0.44338000  0.52918400  0.24592900
   0.96684300  0.54813600  0.75076700
   0.54489400  0.03363100  0.75033200
   0.05838900  0.02973000  0.25417600
   0.75488800  0.94398700  0.03727600
   0.24791600  0.96987200  0.54715700
   0.25209100  0.03033100  0.95284700
   0.74505900  0.05584500  0.46267200
   0.44139000  0.97058300  0.24583700
   0.95480000  0.96625300  0.74973900
   0.75307200  0.53585400  0.00886000
   0.25027200  0.53744900  0.55167200
   0.53319800  0.45244700  0.74926400
   0.05662800  0.47076400  0.25405800
   0.74987200  0.49866200  0.24985000
