  20  20   1   0
  0.3838666E+02  0.8413204E-09  0.1170439E-08  0.7796510E-09  0.5000000E-15
   1.0000000000000000E-004
  CAR 
 CsPbBr3 cubic bulk                      
      8.96305391    -21.81773486  301      0.88309686      1.00000000
    -21.818  0.0000E+00  0.0000E+00
    -21.715  0.0000E+00  0.0000E+00
    -21.613  0.0000E+00  0.0000E+00
    -21.510  0.0000E+00  0.0000E+00
    -21.407  0.0000E+00  0.0000E+00
    -21.305  0.0000E+00  0.0000E+00
    -21.202  0.0000E+00  0.0000E+00
    -21.100  0.0000E+00  0.0000E+00
    -20.997  0.0000E+00  0.0000E+00
    -20.894  0.0000E+00  0.0000E+00
    -20.792  0.0000E+00  0.0000E+00
    -20.689  0.0000E+00  0.0000E+00
    -20.587  0.0000E+00  0.0000E+00
    -20.484  0.0000E+00  0.0000E+00
    -20.381  0.7797E+02  0.8000E+01
    -20.279  0.0000E+00  0.8000E+01
    -20.176  0.0000E+00  0.8000E+01
    -20.073  0.0000E+00  0.8000E+01
    -19.971  0.0000E+00  0.8000E+01
    -19.868  0.0000E+00  0.8000E+01
    -19.766  0.0000E+00  0.8000E+01
    -19.663  0.0000E+00  0.8000E+01
    -19.560  0.0000E+00  0.8000E+01
    -19.458  0.0000E+00  0.8000E+01
    -19.355  0.0000E+00  0.8000E+01
    -19.253  0.0000E+00  0.8000E+01
    -19.150  0.0000E+00  0.8000E+01
    -19.047  0.0000E+00  0.8000E+01
    -18.945  0.0000E+00  0.8000E+01
    -18.842  0.0000E+00  0.8000E+01
    -18.740  0.0000E+00  0.8000E+01
    -18.637  0.0000E+00  0.8000E+01
    -18.534  0.0000E+00  0.8000E+01
    -18.432  0.0000E+00  0.8000E+01
    -18.329  0.0000E+00  0.8000E+01
    -18.227  0.0000E+00  0.8000E+01
    -18.124  0.0000E+00  0.8000E+01
    -18.021  0.0000E+00  0.8000E+01
    -17.919  0.0000E+00  0.8000E+01
    -17.816  0.0000E+00  0.8000E+01
    -17.714  0.0000E+00  0.8000E+01
    -17.611  0.0000E+00  0.8000E+01
    -17.508  0.0000E+00  0.8000E+01
    -17.406  0.0000E+00  0.8000E+01
    -17.303  0.0000E+00  0.8000E+01
    -17.201  0.0000E+00  0.8000E+01
    -17.098  0.0000E+00  0.8000E+01
    -16.995  0.0000E+00  0.8000E+01
    -16.893  0.0000E+00  0.8000E+01
    -16.790  0.0000E+00  0.8000E+01
    -16.688  0.0000E+00  0.8000E+01
    -16.585  0.0000E+00  0.8000E+01
    -16.482  0.0000E+00  0.8000E+01
    -16.380  0.0000E+00  0.8000E+01
    -16.277  0.0000E+00  0.8000E+01
    -16.175  0.1106E+01  0.8113E+01
    -16.072  0.1237E+03  0.2258E+02
    -15.969  0.2107E+03  0.4561E+02
    -15.867  0.0000E+00  0.4800E+02
    -15.764  0.0000E+00  0.4800E+02
    -15.662  0.0000E+00  0.4800E+02
    -15.559  0.0000E+00  0.4800E+02
    -15.456  0.0000E+00  0.4800E+02
    -15.354  0.0000E+00  0.4800E+02
    -15.251  0.0000E+00  0.4800E+02
    -15.149  0.0000E+00  0.4800E+02
    -15.046  0.0000E+00  0.4800E+02
    -14.943  0.0000E+00  0.4800E+02
    -14.841  0.0000E+00  0.4800E+02
    -14.738  0.0000E+00  0.4800E+02
    -14.636  0.0000E+00  0.4800E+02
    -14.533  0.0000E+00  0.4800E+02
    -14.430  0.0000E+00  0.4800E+02
    -14.328  0.0000E+00  0.4800E+02
    -14.225  0.0000E+00  0.4800E+02
    -14.123  0.1103E+01  0.4811E+02
    -14.020  0.1734E+02  0.5011E+02
    -13.917  0.1868E+02  0.5292E+02
    -13.815  0.2435E+02  0.5672E+02
    -13.712  0.2788E+02  0.6175E+02
    -13.610  0.3279E+02  0.6659E+02
    -13.507  0.3583E+02  0.7112E+02
    -13.404  0.0000E+00  0.7200E+02
    -13.302  0.0000E+00  0.7200E+02
    -13.199  0.0000E+00  0.7200E+02
    -13.097  0.0000E+00  0.7200E+02
    -12.994  0.0000E+00  0.7200E+02
    -12.891  0.0000E+00  0.7200E+02
    -12.789  0.0000E+00  0.7200E+02
    -12.686  0.0000E+00  0.7200E+02
    -12.583  0.0000E+00  0.7200E+02
    -12.481  0.0000E+00  0.7200E+02
    -12.378  0.0000E+00  0.7200E+02
    -12.276  0.0000E+00  0.7200E+02
    -12.173  0.0000E+00  0.7200E+02
    -12.070  0.0000E+00  0.7200E+02
    -11.968  0.0000E+00  0.7200E+02
    -11.865  0.0000E+00  0.7200E+02
    -11.763  0.0000E+00  0.7200E+02
    -11.660  0.0000E+00  0.7200E+02
    -11.557  0.0000E+00  0.7200E+02
    -11.455  0.0000E+00  0.7200E+02
    -11.352  0.0000E+00  0.7200E+02
    -11.250  0.0000E+00  0.7200E+02
    -11.147  0.0000E+00  0.7200E+02
    -11.044  0.0000E+00  0.7200E+02
    -10.942  0.0000E+00  0.7200E+02
    -10.839  0.0000E+00  0.7200E+02
    -10.737  0.0000E+00  0.7200E+02
    -10.634  0.0000E+00  0.7200E+02
    -10.531  0.0000E+00  0.7200E+02
    -10.429  0.0000E+00  0.7200E+02
    -10.326  0.0000E+00  0.7200E+02
    -10.224  0.0000E+00  0.7200E+02
    -10.121  0.0000E+00  0.7200E+02
    -10.018  0.0000E+00  0.7200E+02
     -9.916  0.0000E+00  0.7200E+02
     -9.813  0.0000E+00  0.7200E+02
     -9.711  0.0000E+00  0.7200E+02
     -9.608  0.0000E+00  0.7200E+02
     -9.505  0.0000E+00  0.7200E+02
     -9.403  0.0000E+00  0.7200E+02
     -9.300  0.0000E+00  0.7200E+02
     -9.198  0.0000E+00  0.7200E+02
     -9.095  0.0000E+00  0.7200E+02
     -8.992  0.0000E+00  0.7200E+02
     -8.890  0.0000E+00  0.7200E+02
     -8.787  0.0000E+00  0.7200E+02
     -8.685  0.0000E+00  0.7200E+02
     -8.582  0.0000E+00  0.7200E+02
     -8.479  0.0000E+00  0.7200E+02
     -8.377  0.0000E+00  0.7200E+02
     -8.274  0.0000E+00  0.7200E+02
     -8.172  0.0000E+00  0.7200E+02
     -8.069  0.0000E+00  0.7200E+02
     -7.966  0.5313E-01  0.7201E+02
     -7.864  0.0000E+00  0.7211E+02
     -7.761  0.9058E-03  0.7211E+02
     -7.659  0.6497E+01  0.7278E+02
     -7.556  0.4332E+01  0.7322E+02
     -7.453  0.8663E+01  0.7411E+02
     -7.351  0.7039E+01  0.7483E+02
     -7.248  0.2802E+00  0.7558E+02
     -7.146  0.6497E+01  0.7644E+02
     -7.043  0.1277E+02  0.7775E+02
     -6.940  0.8664E+01  0.7867E+02
     -6.838  0.9509E+02  0.8842E+02
     -6.735  0.7039E+02  0.1028E+03
     -6.633  0.4332E+01  0.1032E+03
     -6.530  0.6498E+01  0.1039E+03
     -6.427  0.0000E+00  0.1039E+03
     -6.325  0.0000E+00  0.1039E+03
     -6.222  0.1719E+00  0.1039E+03
     -6.120  0.0000E+00  0.1040E+03
     -6.017  0.0000E+00  0.1040E+03
     -5.914  0.0000E+00  0.1040E+03
     -5.812  0.0000E+00  0.1040E+03
     -5.709  0.0000E+00  0.1040E+03
     -5.607  0.0000E+00  0.1040E+03
     -5.504  0.0000E+00  0.1040E+03
     -5.401  0.0000E+00  0.1040E+03
     -5.299  0.0000E+00  0.1040E+03
     -5.196  0.0000E+00  0.1040E+03
     -5.094  0.0000E+00  0.1040E+03
     -4.991  0.0000E+00  0.1040E+03
     -4.888  0.0000E+00  0.1040E+03
     -4.786  0.0000E+00  0.1040E+03
     -4.683  0.0000E+00  0.1040E+03
     -4.580  0.0000E+00  0.1040E+03
     -4.478  0.0000E+00  0.1040E+03
     -4.375  0.0000E+00  0.1040E+03
     -4.273  0.0000E+00  0.1040E+03
     -4.170  0.0000E+00  0.1040E+03
     -4.067  0.0000E+00  0.1040E+03
     -3.965  0.0000E+00  0.1040E+03
     -3.862  0.0000E+00  0.1040E+03
     -3.760  0.0000E+00  0.1040E+03
     -3.657  0.0000E+00  0.1040E+03
     -3.554  0.0000E+00  0.1040E+03
     -3.452  0.0000E+00  0.1040E+03
     -3.349  0.0000E+00  0.1040E+03
     -3.247  0.0000E+00  0.1040E+03
     -3.144  0.1079E+01  0.1041E+03
     -3.041  0.1337E+02  0.1055E+03
     -2.939  0.1407E+02  0.1073E+03
     -2.836  0.3302E+01  0.1084E+03
     -2.734  0.6497E+01  0.1096E+03
     -2.631  0.9334E+01  0.1105E+03
     -2.528  0.2109E+02  0.1131E+03
     -2.426  0.4408E+01  0.1138E+03
     -2.323  0.2440E-02  0.1140E+03
     -2.221  0.1777E+02  0.1158E+03
     -2.118  0.1827E+02  0.1179E+03
     -2.015  0.6569E+01  0.1189E+03
     -1.913  0.1603E+02  0.1210E+03
     -1.810  0.2494E+02  0.1240E+03
     -1.708  0.9705E+01  0.1267E+03
     -1.605  0.4999E+01  0.1272E+03
     -1.502  0.3057E+02  0.1304E+03
     -1.400  0.3183E+02  0.1339E+03
     -1.297  0.1193E+02  0.1358E+03
     -1.195  0.2884E+02  0.1405E+03
     -1.092  0.6293E+02  0.1489E+03
     -0.989  0.3320E+02  0.1536E+03
     -0.887  0.5281E+02  0.1595E+03
     -0.784  0.5108E+02  0.1668E+03
     -0.682  0.6498E+01  0.1680E+03
     -0.579  0.5692E+01  0.1686E+03
     -0.476  0.1874E+02  0.1706E+03
     -0.374  0.1295E+01  0.1711E+03
     -0.271  0.7531E+01  0.1724E+03
     -0.169  0.1516E+02  0.1740E+03
     -0.066  0.2167E+01  0.1742E+03
      0.037  0.4331E+01  0.1747E+03
      0.139  0.1478E-11  0.1747E+03
      0.242  0.3411E+01  0.1750E+03
      0.344  0.4326E+01  0.1759E+03
      0.447  0.0000E+00  0.1759E+03
      0.550  0.0000E+00  0.1759E+03
      0.652  0.0000E+00  0.1759E+03
      0.755  0.7274E-14  0.1759E+03
      0.857  0.1083E+01  0.1760E+03
      0.960  0.0000E+00  0.1760E+03
      1.063  0.0000E+00  0.1760E+03
      1.165  0.0000E+00  0.1760E+03
      1.268  0.0000E+00  0.1760E+03
      1.370  0.0000E+00  0.1760E+03
      1.473  0.0000E+00  0.1760E+03
      1.576  0.0000E+00  0.1760E+03
      1.678  0.0000E+00  0.1760E+03
      1.781  0.0000E+00  0.1760E+03
      1.883  0.0000E+00  0.1760E+03
      1.986  0.0000E+00  0.1760E+03
      2.089  0.0000E+00  0.1760E+03
      2.191  0.0000E+00  0.1760E+03
      2.294  0.0000E+00  0.1760E+03
      2.396  0.0000E+00  0.1760E+03
      2.499  0.0000E+00  0.1760E+03
      2.602  0.0000E+00  0.1760E+03
      2.704  0.0000E+00  0.1760E+03
      2.807  0.0000E+00  0.1760E+03
      2.909  0.0000E+00  0.1760E+03
      3.012  0.3806E-04  0.1760E+03
      3.115  0.2166E+01  0.1762E+03
      3.217  0.2117E-05  0.1762E+03
      3.320  0.8271E+01  0.1771E+03
      3.423  0.8692E+00  0.1775E+03
      3.525  0.6105E+01  0.1785E+03
      3.628  0.1018E+02  0.1797E+03
      3.730  0.1376E-05  0.1800E+03
      3.833  0.5195E+01  0.1805E+03
      3.936  0.7897E+00  0.1810E+03
      4.038  0.6471E+01  0.1818E+03
      4.141  0.4330E+01  0.1822E+03
      4.243  0.1042E+02  0.1833E+03
      4.346  0.4309E+01  0.1840E+03
      4.449  0.1083E+02  0.1853E+03
      4.551  0.1443E-01  0.1853E+03
      4.654  0.4333E+01  0.1860E+03
      4.756  0.2164E+01  0.1862E+03
      4.859  0.1675E+02  0.1879E+03
      4.962  0.2671E+00  0.1880E+03
      5.064  0.4652E+01  0.1894E+03
      5.167  0.4119E+01  0.1902E+03
      5.269  0.2166E+01  0.1904E+03
      5.372  0.5398E+01  0.1910E+03
      5.475  0.1515E+02  0.1926E+03
      5.577  0.6498E+01  0.1932E+03
      5.680  0.1497E+02  0.1948E+03
      5.782  0.4332E+01  0.1952E+03
      5.885  0.6498E+01  0.1959E+03
      5.988  0.2166E+01  0.1961E+03
      6.090  0.1359E+01  0.1963E+03
      6.193  0.1246E+02  0.1977E+03
      6.295  0.3410E+01  0.1986E+03
      6.398  0.7694E+01  0.1998E+03
      6.501  0.1472E+02  0.2015E+03
      6.603  0.1413E+02  0.2033E+03
      6.706  0.1756E+02  0.2055E+03
      6.808  0.2049E+02  0.2080E+03
      6.911  0.1345E+02  0.2096E+03
      7.014  0.3692E+02  0.2136E+03
      7.116  0.6624E+01  0.2143E+03
      7.219  0.3254E+02  0.2178E+03
      7.321  0.1056E+02  0.2199E+03
      7.424  0.1622E+02  0.2219E+03
      7.527  0.7402E+01  0.2229E+03
      7.629  0.6497E+01  0.2240E+03
      7.732  0.0000E+00  0.2240E+03
      7.834  0.0000E+00  0.2240E+03
      7.937  0.0000E+00  0.2240E+03
      8.040  0.0000E+00  0.2240E+03
      8.142  0.0000E+00  0.2240E+03
      8.245  0.0000E+00  0.2240E+03
      8.347  0.0000E+00  0.2240E+03
      8.450  0.0000E+00  0.2240E+03
      8.553  0.0000E+00  0.2240E+03
      8.655  0.0000E+00  0.2240E+03
      8.758  0.0000E+00  0.2240E+03
      8.860  0.0000E+00  0.2240E+03
      8.963  0.0000E+00  0.2240E+03
      8.96305391    -21.81773486  301      0.88309686      1.00000000
    -21.818  0.0000E+00  0.0000E+00  0.0000E+00
    -21.715  0.0000E+00  0.0000E+00  0.0000E+00
    -21.613  0.0000E+00  0.0000E+00  0.0000E+00
    -21.510  0.0000E+00  0.0000E+00  0.0000E+00
    -21.407  0.0000E+00  0.0000E+00  0.0000E+00
    -21.305  0.0000E+00  0.0000E+00  0.0000E+00
    -21.202  0.0000E+00  0.0000E+00  0.0000E+00
    -21.100  0.0000E+00  0.0000E+00  0.0000E+00
    -20.997  0.0000E+00  0.0000E+00  0.0000E+00
    -20.894  0.0000E+00  0.0000E+00  0.0000E+00
    -20.792  0.0000E+00  0.0000E+00  0.0000E+00
    -20.689  0.0000E+00  0.0000E+00  0.0000E+00
    -20.587  0.0000E+00  0.0000E+00  0.0000E+00
    -20.484  0.0000E+00  0.0000E+00  0.0000E+00
    -20.381  0.1730E+02  0.1192E-04  0.2420E-05
    -20.279  0.0000E+00  0.0000E+00  0.0000E+00
    -20.176  0.0000E+00  0.0000E+00  0.0000E+00
    -20.073  0.0000E+00  0.0000E+00  0.0000E+00
    -19.971  0.0000E+00  0.0000E+00  0.0000E+00
    -19.868  0.0000E+00  0.0000E+00  0.0000E+00
    -19.766  0.0000E+00  0.0000E+00  0.0000E+00
    -19.663  0.0000E+00  0.0000E+00  0.0000E+00
    -19.560  0.0000E+00  0.0000E+00  0.0000E+00
    -19.458  0.0000E+00  0.0000E+00  0.0000E+00
    -19.355  0.0000E+00  0.0000E+00  0.0000E+00
    -19.253  0.0000E+00  0.0000E+00  0.0000E+00
    -19.150  0.0000E+00  0.0000E+00  0.0000E+00
    -19.047  0.0000E+00  0.0000E+00  0.0000E+00
    -18.945  0.0000E+00  0.0000E+00  0.0000E+00
    -18.842  0.0000E+00  0.0000E+00  0.0000E+00
    -18.740  0.0000E+00  0.0000E+00  0.0000E+00
    -18.637  0.0000E+00  0.0000E+00  0.0000E+00
    -18.534  0.0000E+00  0.0000E+00  0.0000E+00
    -18.432  0.0000E+00  0.0000E+00  0.0000E+00
    -18.329  0.0000E+00  0.0000E+00  0.0000E+00
    -18.227  0.0000E+00  0.0000E+00  0.0000E+00
    -18.124  0.0000E+00  0.0000E+00  0.0000E+00
    -18.021  0.0000E+00  0.0000E+00  0.0000E+00
    -17.919  0.0000E+00  0.0000E+00  0.0000E+00
    -17.816  0.0000E+00  0.0000E+00  0.0000E+00
    -17.714  0.0000E+00  0.0000E+00  0.0000E+00
    -17.611  0.0000E+00  0.0000E+00  0.0000E+00
    -17.508  0.0000E+00  0.0000E+00  0.0000E+00
    -17.406  0.0000E+00  0.0000E+00  0.0000E+00
    -17.303  0.0000E+00  0.0000E+00  0.0000E+00
    -17.201  0.0000E+00  0.0000E+00  0.0000E+00
    -17.098  0.0000E+00  0.0000E+00  0.0000E+00
    -16.995  0.0000E+00  0.0000E+00  0.0000E+00
    -16.893  0.0000E+00  0.0000E+00  0.0000E+00
    -16.790  0.0000E+00  0.0000E+00  0.0000E+00
    -16.688  0.0000E+00  0.0000E+00  0.0000E+00
    -16.585  0.0000E+00  0.0000E+00  0.0000E+00
    -16.482  0.0000E+00  0.0000E+00  0.0000E+00
    -16.380  0.0000E+00  0.0000E+00  0.0000E+00
    -16.277  0.0000E+00  0.0000E+00  0.0000E+00
    -16.175  0.5629E-05  0.1899E-05  0.4669E-06
    -16.072  0.1445E-03  0.1752E-03  0.3140E-04
    -15.969  0.1270E-03  0.6679E-04  0.7878E-05
    -15.867  0.0000E+00  0.0000E+00  0.0000E+00
    -15.764  0.0000E+00  0.0000E+00  0.0000E+00
    -15.662  0.0000E+00  0.0000E+00  0.0000E+00
    -15.559  0.0000E+00  0.0000E+00  0.0000E+00
    -15.456  0.0000E+00  0.0000E+00  0.0000E+00
    -15.354  0.0000E+00  0.0000E+00  0.0000E+00
    -15.251  0.0000E+00  0.0000E+00  0.0000E+00
    -15.149  0.0000E+00  0.0000E+00  0.0000E+00
    -15.046  0.0000E+00  0.0000E+00  0.0000E+00
    -14.943  0.0000E+00  0.0000E+00  0.0000E+00
    -14.841  0.0000E+00  0.0000E+00  0.0000E+00
    -14.738  0.0000E+00  0.0000E+00  0.0000E+00
    -14.636  0.0000E+00  0.0000E+00  0.0000E+00
    -14.533  0.0000E+00  0.0000E+00  0.0000E+00
    -14.430  0.0000E+00  0.0000E+00  0.0000E+00
    -14.328  0.0000E+00  0.0000E+00  0.0000E+00
    -14.225  0.0000E+00  0.0000E+00  0.0000E+00
    -14.123  0.6944E-03  0.4853E-05  0.9461E-06
    -14.020  0.5284E-02  0.3140E-02  0.5291E-04
    -13.917  0.1175E-02  0.4413E-02  0.1509E-03
    -13.815  0.1258E-02  0.4045E-02  0.3366E-03
    -13.712  0.2090E-02  0.3241E-02  0.3764E-03
    -13.610  0.7393E-03  0.3675E-02  0.5069E-03
    -13.507  0.1364E-02  0.3396E-02  0.5472E-03
    -13.404  0.0000E+00  0.0000E+00  0.0000E+00
    -13.302  0.0000E+00  0.0000E+00  0.0000E+00
    -13.199  0.0000E+00  0.0000E+00  0.0000E+00
    -13.097  0.0000E+00  0.0000E+00  0.0000E+00
    -12.994  0.0000E+00  0.0000E+00  0.0000E+00
    -12.891  0.0000E+00  0.0000E+00  0.0000E+00
    -12.789  0.0000E+00  0.0000E+00  0.0000E+00
    -12.686  0.0000E+00  0.0000E+00  0.0000E+00
    -12.583  0.0000E+00  0.0000E+00  0.0000E+00
    -12.481  0.0000E+00  0.0000E+00  0.0000E+00
    -12.378  0.0000E+00  0.0000E+00  0.0000E+00
    -12.276  0.0000E+00  0.0000E+00  0.0000E+00
    -12.173  0.0000E+00  0.0000E+00  0.0000E+00
    -12.070  0.0000E+00  0.0000E+00  0.0000E+00
    -11.968  0.0000E+00  0.0000E+00  0.0000E+00
    -11.865  0.0000E+00  0.0000E+00  0.0000E+00
    -11.763  0.0000E+00  0.0000E+00  0.0000E+00
    -11.660  0.0000E+00  0.0000E+00  0.0000E+00
    -11.557  0.0000E+00  0.0000E+00  0.0000E+00
    -11.455  0.0000E+00  0.0000E+00  0.0000E+00
    -11.352  0.0000E+00  0.0000E+00  0.0000E+00
    -11.250  0.0000E+00  0.0000E+00  0.0000E+00
    -11.147  0.0000E+00  0.0000E+00  0.0000E+00
    -11.044  0.0000E+00  0.0000E+00  0.0000E+00
    -10.942  0.0000E+00  0.0000E+00  0.0000E+00
    -10.839  0.0000E+00  0.0000E+00  0.0000E+00
    -10.737  0.0000E+00  0.0000E+00  0.0000E+00
    -10.634  0.0000E+00  0.0000E+00  0.0000E+00
    -10.531  0.0000E+00  0.0000E+00  0.0000E+00
    -10.429  0.0000E+00  0.0000E+00  0.0000E+00
    -10.326  0.0000E+00  0.0000E+00  0.0000E+00
    -10.224  0.0000E+00  0.0000E+00  0.0000E+00
    -10.121  0.0000E+00  0.0000E+00  0.0000E+00
    -10.018  0.0000E+00  0.0000E+00  0.0000E+00
     -9.916  0.0000E+00  0.0000E+00  0.0000E+00
     -9.813  0.0000E+00  0.0000E+00  0.0000E+00
     -9.711  0.0000E+00  0.0000E+00  0.0000E+00
     -9.608  0.0000E+00  0.0000E+00  0.0000E+00
     -9.505  0.0000E+00  0.0000E+00  0.0000E+00
     -9.403  0.0000E+00  0.0000E+00  0.0000E+00
     -9.300  0.0000E+00  0.0000E+00  0.0000E+00
     -9.198  0.0000E+00  0.0000E+00  0.0000E+00
     -9.095  0.0000E+00  0.0000E+00  0.0000E+00
     -8.992  0.0000E+00  0.0000E+00  0.0000E+00
     -8.890  0.0000E+00  0.0000E+00  0.0000E+00
     -8.787  0.0000E+00  0.0000E+00  0.0000E+00
     -8.685  0.0000E+00  0.0000E+00  0.0000E+00
     -8.582  0.0000E+00  0.0000E+00  0.0000E+00
     -8.479  0.0000E+00  0.0000E+00  0.0000E+00
     -8.377  0.0000E+00  0.0000E+00  0.0000E+00
     -8.274  0.0000E+00  0.0000E+00  0.0000E+00
     -8.172  0.0000E+00  0.0000E+00  0.0000E+00
     -8.069  0.0000E+00  0.0000E+00  0.0000E+00
     -7.966  0.1106E-19  0.1770E-05  0.6072E-06
     -7.864  0.0000E+00  0.0000E+00  0.0000E+00
     -7.761  0.1674E-19  0.1079E-05  0.5233E-08
     -7.659  0.5260E-07  0.6384E-02  0.6110E-04
     -7.556  0.3993E-17  0.7898E-02  0.4393E-04
     -7.453  0.1801E-04  0.2579E-01  0.7355E-04
     -7.351  0.1720E-04  0.3675E-01  0.4801E-04
     -7.248  0.5739E-14  0.2885E-02  0.9692E-06
     -7.146  0.1842E-04  0.7968E-01  0.6044E-04
     -7.043  0.8634E-04  0.2572E+00  0.6853E-04
     -6.940  0.7546E-04  0.3023E+00  0.6796E-04
     -6.838  0.6591E-04  0.1706E+02  0.1072E-03
     -6.735  0.4684E-04  0.1276E+02  0.3502E-04
     -6.633  0.2878E-04  0.2534E+00  0.4145E-04
     -6.530  0.8439E-04  0.1198E+00  0.3675E-04
     -6.427  0.0000E+00  0.0000E+00  0.0000E+00
     -6.325  0.0000E+00  0.0000E+00  0.0000E+00
     -6.222  0.2717E-05  0.9815E-03  0.1239E-06
     -6.120  0.0000E+00  0.0000E+00  0.0000E+00
     -6.017  0.0000E+00  0.0000E+00  0.0000E+00
     -5.914  0.0000E+00  0.0000E+00  0.0000E+00
     -5.812  0.0000E+00  0.0000E+00  0.0000E+00
     -5.709  0.0000E+00  0.0000E+00  0.0000E+00
     -5.607  0.0000E+00  0.0000E+00  0.0000E+00
     -5.504  0.0000E+00  0.0000E+00  0.0000E+00
     -5.401  0.0000E+00  0.0000E+00  0.0000E+00
     -5.299  0.0000E+00  0.0000E+00  0.0000E+00
     -5.196  0.0000E+00  0.0000E+00  0.0000E+00
     -5.094  0.0000E+00  0.0000E+00  0.0000E+00
     -4.991  0.0000E+00  0.0000E+00  0.0000E+00
     -4.888  0.0000E+00  0.0000E+00  0.0000E+00
     -4.786  0.0000E+00  0.0000E+00  0.0000E+00
     -4.683  0.0000E+00  0.0000E+00  0.0000E+00
     -4.580  0.0000E+00  0.0000E+00  0.0000E+00
     -4.478  0.0000E+00  0.0000E+00  0.0000E+00
     -4.375  0.0000E+00  0.0000E+00  0.0000E+00
     -4.273  0.0000E+00  0.0000E+00  0.0000E+00
     -4.170  0.0000E+00  0.0000E+00  0.0000E+00
     -4.067  0.0000E+00  0.0000E+00  0.0000E+00
     -3.965  0.0000E+00  0.0000E+00  0.0000E+00
     -3.862  0.0000E+00  0.0000E+00  0.0000E+00
     -3.760  0.0000E+00  0.0000E+00  0.0000E+00
     -3.657  0.0000E+00  0.0000E+00  0.0000E+00
     -3.554  0.0000E+00  0.0000E+00  0.0000E+00
     -3.452  0.0000E+00  0.0000E+00  0.0000E+00
     -3.349  0.0000E+00  0.0000E+00  0.0000E+00
     -3.247  0.0000E+00  0.0000E+00  0.0000E+00
     -3.144  0.4361E-10  0.1383E-02  0.2873E-04
     -3.041  0.1778E-03  0.2172E-01  0.1356E-02
     -2.939  0.4594E-03  0.2210E-01  0.2044E-02
     -2.836  0.1539E-04  0.2551E-02  0.6165E-03
     -2.734  0.5016E-03  0.1369E-01  0.6361E-03
     -2.631  0.1841E-03  0.2064E-01  0.1099E-02
     -2.528  0.7388E-03  0.2920E-01  0.2040E-02
     -2.426  0.8632E-18  0.4997E-03  0.1287E-03
     -2.323  0.4446E-07  0.5873E-05  0.3792E-06
     -2.221  0.1545E-02  0.3955E-01  0.2253E-02
     -2.118  0.3781E-02  0.1912E-01  0.3353E-02
     -2.015  0.3759E-02  0.8356E-02  0.1069E-02
     -1.913  0.1082E-01  0.1979E-01  0.2876E-02
     -1.810  0.2235E-01  0.3896E-01  0.5538E-02
     -1.708  0.7711E-02  0.2846E-01  0.2103E-02
     -1.605  0.1095E-03  0.4303E-01  0.8412E-03
     -1.502  0.5466E-02  0.1486E+00  0.1215E-01
     -1.400  0.1991E-02  0.1413E+00  0.1588E-01
     -1.297  0.1692E-02  0.4366E-01  0.6663E-02
     -1.195  0.3495E-02  0.6092E-01  0.1550E-01
     -1.092  0.7309E-02  0.1144E+00  0.2802E-01
     -0.989  0.3510E-02  0.4410E-01  0.1132E-01
     -0.887  0.2595E-02  0.1150E+00  0.1648E-01
     -0.784  0.2667E-02  0.1009E+00  0.1398E-01
     -0.682  0.3475E-03  0.1400E-01  0.1744E-02
     -0.579  0.9918E-04  0.8070E-02  0.2221E-02
     -0.476  0.1400E-02  0.2920E-01  0.5815E-02
     -0.374  0.6397E-04  0.1423E-02  0.1765E-03
     -0.271  0.6026E-03  0.3265E-02  0.1493E-02
     -0.169  0.9480E-03  0.7301E-02  0.2346E-02
     -0.066  0.4574E-15  0.1008E-02  0.2928E-03
      0.037  0.2904E-15  0.3467E-02  0.7159E-04
      0.139  0.9878E-17  0.8523E-15  0.2502E-15
      0.242  0.7239E-05  0.7364E-03  0.6627E-03
      0.344  0.3917E-05  0.1739E-02  0.5540E-03
      0.447  0.0000E+00  0.0000E+00  0.0000E+00
      0.550  0.0000E+00  0.0000E+00  0.0000E+00
      0.652  0.0000E+00  0.0000E+00  0.0000E+00
      0.755  0.1134E-30  0.5145E-18  0.1204E-17
      0.857  0.1688E-16  0.7659E-04  0.1793E-03
      0.960  0.0000E+00  0.0000E+00  0.0000E+00
      1.063  0.0000E+00  0.0000E+00  0.0000E+00
      1.165  0.0000E+00  0.0000E+00  0.0000E+00
      1.268  0.0000E+00  0.0000E+00  0.0000E+00
      1.370  0.0000E+00  0.0000E+00  0.0000E+00
      1.473  0.0000E+00  0.0000E+00  0.0000E+00
      1.576  0.0000E+00  0.0000E+00  0.0000E+00
      1.678  0.0000E+00  0.0000E+00  0.0000E+00
      1.781  0.0000E+00  0.0000E+00  0.0000E+00
      1.883  0.0000E+00  0.0000E+00  0.0000E+00
      1.986  0.0000E+00  0.0000E+00  0.0000E+00
      2.089  0.0000E+00  0.0000E+00  0.0000E+00
      2.191  0.0000E+00  0.0000E+00  0.0000E+00
      2.294  0.0000E+00  0.0000E+00  0.0000E+00
      2.396  0.0000E+00  0.0000E+00  0.0000E+00
      2.499  0.0000E+00  0.0000E+00  0.0000E+00
      2.602  0.0000E+00  0.0000E+00  0.0000E+00
      2.704  0.0000E+00  0.0000E+00  0.0000E+00
      2.807  0.0000E+00  0.0000E+00  0.0000E+00
      2.909  0.0000E+00  0.0000E+00  0.0000E+00
      3.012  0.1336E-21  0.2716E-08  0.4358E-07
      3.115  0.3816E-04  0.3470E-03  0.1762E-02
      3.217  0.1353E-09  0.4627E-09  0.1001E-08
      3.320  0.6638E-03  0.1552E-02  0.5125E-02
      3.423  0.4895E-14  0.9074E-03  0.3921E-03
      3.525  0.7998E-03  0.1139E-02  0.1788E-02
      3.628  0.9720E-03  0.5978E-02  0.3945E-02
      3.730  0.1088E-09  0.2766E-09  0.4404E-09
      3.833  0.3582E-03  0.1711E-02  0.3469E-02
      3.936  0.1697E-14  0.1611E-03  0.1273E-02
      4.038  0.7411E-03  0.1758E-02  0.6178E-02
      4.141  0.6401E-03  0.1512E-02  0.4015E-02
      4.243  0.9482E-03  0.2128E-02  0.9817E-02
      4.346  0.3512E-03  0.1862E-02  0.3911E-02
      4.449  0.4692E-03  0.2343E-02  0.5612E-02
      4.551  0.1307E-05  0.6303E-05  0.5531E-05
      4.654  0.1371E-03  0.1443E-02  0.1465E-02
      4.756  0.4565E-04  0.5286E-03  0.3017E-02
      4.859  0.9057E-03  0.7462E-02  0.2004E-01
      4.962  0.3980E-04  0.5870E-04  0.1332E-03
      5.064  0.1467E-02  0.1916E-02  0.3907E-02
      5.167  0.2541E-13  0.5013E-03  0.5926E-02
      5.269  0.1306E-02  0.8264E-03  0.2261E-02
      5.372  0.1195E-01  0.2293E-02  0.6816E-02
      5.475  0.2201E-02  0.3536E-02  0.2392E-01
      5.577  0.2283E-02  0.4578E-02  0.8460E-02
      5.680  0.2126E-01  0.9657E-02  0.1797E-01
      5.782  0.4599E-02  0.3912E-02  0.4706E-02
      5.885  0.7751E-03  0.5953E-03  0.1612E-01
      5.988  0.1747E-01  0.2738E-02  0.9063E-02
      6.090  0.1692E-02  0.3579E-03  0.6112E-02
      6.193  0.3643E-02  0.2257E-02  0.3020E-01
      6.295  0.2859E-03  0.1510E-02  0.1668E-01
      6.398  0.1814E-01  0.1099E-01  0.5142E-01
      6.501  0.6263E-01  0.1753E-01  0.2171E+00
      6.603  0.4428E-02  0.3388E-02  0.1783E+00
      6.706  0.1774E-01  0.3189E-01  0.3915E+00
      6.808  0.6655E-01  0.3156E-01  0.5293E+00
      6.911  0.2108E-01  0.8430E-02  0.3612E+00
      7.014  0.3784E-01  0.4857E-01  0.1056E+01
      7.116  0.3235E-01  0.1145E-01  0.1250E+00
      7.219  0.2305E-01  0.7186E-01  0.9786E+00
      7.321  0.8712E-02  0.1360E-01  0.4650E+00
      7.424  0.3016E-01  0.2691E-01  0.5638E+00
      7.527  0.8574E-02  0.2295E-01  0.2089E+00
      7.629  0.2748E-02  0.3052E-01  0.1672E+00
      7.732  0.0000E+00  0.0000E+00  0.0000E+00
      7.834  0.0000E+00  0.0000E+00  0.0000E+00
      7.937  0.0000E+00  0.0000E+00  0.0000E+00
      8.040  0.0000E+00  0.0000E+00  0.0000E+00
      8.142  0.0000E+00  0.0000E+00  0.0000E+00
      8.245  0.0000E+00  0.0000E+00  0.0000E+00
      8.347  0.0000E+00  0.0000E+00  0.0000E+00
      8.450  0.0000E+00  0.0000E+00  0.0000E+00
      8.553  0.0000E+00  0.0000E+00  0.0000E+00
      8.655  0.0000E+00  0.0000E+00  0.0000E+00
      8.758  0.0000E+00  0.0000E+00  0.0000E+00
      8.860  0.0000E+00  0.0000E+00  0.0000E+00
      8.963  0.0000E+00  0.0000E+00  0.0000E+00
      8.96305391    -21.81773486  301      0.88309686      1.00000000
    -21.818  0.0000E+00  0.0000E+00  0.0000E+00
    -21.715  0.0000E+00  0.0000E+00  0.0000E+00
    -21.613  0.0000E+00  0.0000E+00  0.0000E+00
    -21.510  0.0000E+00  0.0000E+00  0.0000E+00
    -21.407  0.0000E+00  0.0000E+00  0.0000E+00
    -21.305  0.0000E+00  0.0000E+00  0.0000E+00
    -21.202  0.0000E+00  0.0000E+00  0.0000E+00
    -21.100  0.0000E+00  0.0000E+00  0.0000E+00
    -20.997  0.0000E+00  0.0000E+00  0.0000E+00
    -20.894  0.0000E+00  0.0000E+00  0.0000E+00
    -20.792  0.0000E+00  0.0000E+00  0.0000E+00
    -20.689  0.0000E+00  0.0000E+00  0.0000E+00
    -20.587  0.0000E+00  0.0000E+00  0.0000E+00
    -20.484  0.0000E+00  0.0000E+00  0.0000E+00
    -20.381  0.1730E+02  0.1191E-04  0.2436E-05
    -20.279  0.0000E+00  0.0000E+00  0.0000E+00
    -20.176  0.0000E+00  0.0000E+00  0.0000E+00
    -20.073  0.0000E+00  0.0000E+00  0.0000E+00
    -19.971  0.0000E+00  0.0000E+00  0.0000E+00
    -19.868  0.0000E+00  0.0000E+00  0.0000E+00
    -19.766  0.0000E+00  0.0000E+00  0.0000E+00
    -19.663  0.0000E+00  0.0000E+00  0.0000E+00
    -19.560  0.0000E+00  0.0000E+00  0.0000E+00
    -19.458  0.0000E+00  0.0000E+00  0.0000E+00
    -19.355  0.0000E+00  0.0000E+00  0.0000E+00
    -19.253  0.0000E+00  0.0000E+00  0.0000E+00
    -19.150  0.0000E+00  0.0000E+00  0.0000E+00
    -19.047  0.0000E+00  0.0000E+00  0.0000E+00
    -18.945  0.0000E+00  0.0000E+00  0.0000E+00
    -18.842  0.0000E+00  0.0000E+00  0.0000E+00
    -18.740  0.0000E+00  0.0000E+00  0.0000E+00
    -18.637  0.0000E+00  0.0000E+00  0.0000E+00
    -18.534  0.0000E+00  0.0000E+00  0.0000E+00
    -18.432  0.0000E+00  0.0000E+00  0.0000E+00
    -18.329  0.0000E+00  0.0000E+00  0.0000E+00
    -18.227  0.0000E+00  0.0000E+00  0.0000E+00
    -18.124  0.0000E+00  0.0000E+00  0.0000E+00
    -18.021  0.0000E+00  0.0000E+00  0.0000E+00
    -17.919  0.0000E+00  0.0000E+00  0.0000E+00
    -17.816  0.0000E+00  0.0000E+00  0.0000E+00
    -17.714  0.0000E+00  0.0000E+00  0.0000E+00
    -17.611  0.0000E+00  0.0000E+00  0.0000E+00
    -17.508  0.0000E+00  0.0000E+00  0.0000E+00
    -17.406  0.0000E+00  0.0000E+00  0.0000E+00
    -17.303  0.0000E+00  0.0000E+00  0.0000E+00
    -17.201  0.0000E+00  0.0000E+00  0.0000E+00
    -17.098  0.0000E+00  0.0000E+00  0.0000E+00
    -16.995  0.0000E+00  0.0000E+00  0.0000E+00
    -16.893  0.0000E+00  0.0000E+00  0.0000E+00
    -16.790  0.0000E+00  0.0000E+00  0.0000E+00
    -16.688  0.0000E+00  0.0000E+00  0.0000E+00
    -16.585  0.0000E+00  0.0000E+00  0.0000E+00
    -16.482  0.0000E+00  0.0000E+00  0.0000E+00
    -16.380  0.0000E+00  0.0000E+00  0.0000E+00
    -16.277  0.0000E+00  0.0000E+00  0.0000E+00
    -16.175  0.1357E-05  0.1911E-05  0.5022E-06
    -16.072  0.1373E-03  0.1772E-03  0.3216E-04
    -15.969  0.1265E-03  0.6648E-04  0.7851E-05
    -15.867  0.0000E+00  0.0000E+00  0.0000E+00
    -15.764  0.0000E+00  0.0000E+00  0.0000E+00
    -15.662  0.0000E+00  0.0000E+00  0.0000E+00
    -15.559  0.0000E+00  0.0000E+00  0.0000E+00
    -15.456  0.0000E+00  0.0000E+00  0.0000E+00
    -15.354  0.0000E+00  0.0000E+00  0.0000E+00
    -15.251  0.0000E+00  0.0000E+00  0.0000E+00
    -15.149  0.0000E+00  0.0000E+00  0.0000E+00
    -15.046  0.0000E+00  0.0000E+00  0.0000E+00
    -14.943  0.0000E+00  0.0000E+00  0.0000E+00
    -14.841  0.0000E+00  0.0000E+00  0.0000E+00
    -14.738  0.0000E+00  0.0000E+00  0.0000E+00
    -14.636  0.0000E+00  0.0000E+00  0.0000E+00
    -14.533  0.0000E+00  0.0000E+00  0.0000E+00
    -14.430  0.0000E+00  0.0000E+00  0.0000E+00
    -14.328  0.0000E+00  0.0000E+00  0.0000E+00
    -14.225  0.0000E+00  0.0000E+00  0.0000E+00
    -14.123  0.6944E-03  0.4853E-05  0.9461E-06
    -14.020  0.5747E-02  0.2524E-02  0.6605E-04
    -13.917  0.1032E-02  0.5475E-02  0.1481E-03
    -13.815  0.1239E-02  0.4701E-02  0.2887E-03
    -13.712  0.8019E-03  0.3278E-02  0.5362E-03
    -13.610  0.1955E-02  0.4073E-02  0.4950E-03
    -13.507  0.1423E-02  0.3193E-02  0.4478E-03
    -13.404  0.0000E+00  0.0000E+00  0.0000E+00
    -13.302  0.0000E+00  0.0000E+00  0.0000E+00
    -13.199  0.0000E+00  0.0000E+00  0.0000E+00
    -13.097  0.0000E+00  0.0000E+00  0.0000E+00
    -12.994  0.0000E+00  0.0000E+00  0.0000E+00
    -12.891  0.0000E+00  0.0000E+00  0.0000E+00
    -12.789  0.0000E+00  0.0000E+00  0.0000E+00
    -12.686  0.0000E+00  0.0000E+00  0.0000E+00