       N       E                     dE             d eps       ncg     rms          rms(c)
DAV:   1     0.681714694955E+03    0.68171E+03   -0.56688E+04  1816   0.932E+02
DAV:   2    -0.575580456423E+03   -0.12573E+04   -0.12049E+04  2192   0.289E+02
DAV:   3    -0.748701466729E+03   -0.17312E+03   -0.17201E+03  2416   0.128E+02
DAV:   4    -0.754364587885E+03   -0.56631E+01   -0.56432E+01  2144   0.302E+01
DAV:   5    -0.754638673010E+03   -0.27409E+00   -0.27394E+00  2424   0.530E+00    0.733E+00
DAV:   6    -0.714937840122E+03    0.39701E+02   -0.11744E+01  2392   0.282E+01    0.521E+00
DAV:   7    -0.714711057817E+03    0.22678E+00   -0.37257E+00  2272   0.488E+00    0.259E+00
DAV:   8    -0.714798559937E+03   -0.87502E-01   -0.18149E-01  2144   0.172E+00    0.148E+00
DAV:   9    -0.714833386774E+03   -0.34827E-01   -0.69810E-02  1984   0.112E+00    0.319E-01
DAV:  10    -0.714834013412E+03   -0.62664E-03   -0.42771E-03  2568   0.315E-01    0.177E-01
DAV:  11    -0.714835100706E+03   -0.10873E-02   -0.13292E-03  2000   0.145E-01    0.604E-02
DAV:  12    -0.714835253900E+03   -0.15319E-03   -0.39524E-04  2160   0.806E-02    0.224E-02
DAV:  13    -0.714835249657E+03    0.42424E-05   -0.41842E-05  2408   0.259E-02    0.805E-03
DAV:  14    -0.714835260791E+03   -0.11133E-04   -0.35331E-06  1864   0.598E-03    0.203E-03
DAV:  15    -0.714835269133E+03   -0.83425E-05   -0.54866E-07  1264   0.323E-03    0.138E-03
DAV:  16    -0.714835265360E+03    0.37735E-05   -0.15853E-07  1208   0.197E-03    0.536E-04
DAV:  17    -0.714835263878E+03    0.14810E-05   -0.49357E-08  1096   0.114E-03    0.402E-04
DAV:  18    -0.714835263668E+03    0.21036E-06   -0.20143E-08  1088   0.751E-04
   1 F= -.71483526E+03 E0= -.71483526E+03  d E =-.703549E-27
