 vasp.5.4.4.18Apr17-6-g9f103f2a35 (build Jun 22 2020 09:27:21) complex           
 executed on tx2_gcc-7.3_libsci-1 date 2021.09.20  15:14:56
 running on   64 total cores
 distrk:  each k-point on   64 cores,    1 groups
 distr:  one band on NCORES_PER_BAND=   8 cores,    8 groups


--------------------------------------------------------------------------------------------------------


 INCAR:
 POTCAR:    PAW_PBE Cs_sv 08Apr2002               
 POTCAR:    PAW_PBE Pb_d 06Sep2000                
 POTCAR:    PAW_PBE Br 06Sep2000                  
 POTCAR:    PAW_PBE Cs_sv 08Apr2002               
   SHA256 =  c1463496f0f6037ed62c6012a8013a89ee9ad6ffb38599dcd6c079e7ed31779b Cs
   COPYR  = (c) Copyright 08Apr2002 Georg Kresse                                
   COPYR  = This file is part of the software VASP. Any use, copying, and all ot
   COPYR  = If you do not have a valid VASP license, you may not use, copy or di
   VRHFIN =Cs: 5s5p6s                                                           
   LEXCH  = PE                                                                  
   EATOM  =   555.6835 eV,   40.8416 Ry                                         
                                                                                
   TITEL  = PAW_PBE Cs_sv 08Apr2002                                             
   LULTRA =        F    use ultrasoft PP ?                                      
   IUNSCR =        1    unscreen: 0-lin 1-nonlin 2-no                           
   RPACOR =    2.200    partial core radius                                     
   POMASS =  132.900; ZVAL   =    9.000    mass and valenz                      
   RCORE  =    2.500    outmost cutoff radius                                   
   RWIGS  =    2.500; RWIGS  =    1.323    wigner-seitz radius (au A)           
   ENMAX  =  220.318; ENMIN  =  165.238 eV                                      
   RCLOC  =    2.207    cutoff for local pot                                    
   LCOR   =        T    correct aug charges                                     
   LPAW   =        T    paw PP                                                  
   EAUG   =  407.933                                                            
   DEXC   =    0.000                                                            
   RMAX   =    2.554    core radius for proj-oper                               
   RAUG   =    1.300    factor for augmentation sphere                          
   RDEP   =    2.590    radius for radial grids                                 
   RDEPT  =    2.117    core radius for aug-charge                              
                                                                                
   Atomic configuration                                                         
   13 entries                                                                   
     n  l   j            E        occ.                                          
     1  0  0.50    -35790.1377   2.0000                                         
     2  0  0.50     -5613.6201   2.0000                                         
     2  1  1.50     -5035.0101   6.0000                                         
     3  0  0.50     -1167.0767   2.0000                                         
     3  1  1.50      -980.9754   6.0000                                         
     3  2  2.50      -708.0703  10.0000                                         
     4  0  0.50      -220.2386   2.0000                                         
     4  1  1.50      -160.7596   6.0000                                         
     4  2  2.50       -74.2354  10.0000                                         
     5  0  0.50       -26.7287   2.0000                                         
     6  0  0.50        -2.0862   1.0000                                         
     5  1  1.50       -13.5159   6.0000                                         
     5  2  2.50        -0.4136   0.0000                                         
   Description                                                                  
     l       E           TYP  RCUT    TYP  RCUT                                 
     0    -26.7287425     23  1.900                                             
     0     -2.0862306     23  1.900                                             
     1    -13.5158719     23  2.500                                             
     1     -2.7211652     23  2.500                                             
     2     -0.4136171     23  2.500                                             
  local pseudopotential read in
  partial core-charges read in
  partial kinetic energy density read in
  atomic valenz-charges read in
  non local Contribution for L=           0  read in
    real space projection operators read in
  non local Contribution for L=           0  read in
    real space projection operators read in
  non local Contribution for L=           1  read in
    real space projection operators read in
  non local Contribution for L=           1  read in
    real space projection operators read in
  non local Contribution for L=           2  read in
    real space projection operators read in
    PAW grid and wavefunctions read in

   number of l-projection  operators is LMAX  =           5
   number of lm-projection operators is LMMAX =          13

 POTCAR:    PAW_PBE Pb_d 06Sep2000                
   SHA256 =  fb885b08f0fba73a15f6a6b0e39bd200c13ec96ef97cf3ecd8e63bade5137abd Pb
   COPYR  = (c) Copyright 06Sep2000 Georg Kresse                                
   COPYR  = This file is part of the software VASP. Any use, copying, and all ot
   COPYR  = If you do not have a valid VASP license, you may not use, copy or di
   VRHFIN =Pb:                                                                  
   LEXCH  = PE                                                                  
   EATOM  =  1661.6185 eV,  122.1255 Ry                                         
                                                                                
   TITEL  = PAW_PBE Pb_d 06Sep2000                                              
   LULTRA =        F    use ultrasoft PP ?                                      
   IUNSCR =        1    unscreen: 0-lin 1-nonlin 2-no                           
   RPACOR =    2.200    partial core radius                                     
   POMASS =  207.200; ZVAL   =   14.000    mass and valenz                      
   RCORE  =    2.500    outmost cutoff radius                                   
   RWIGS  =    3.260; RWIGS  =    1.725    wigner-seitz radius (au A)           
   ENMAX  =  237.835; ENMIN  =  178.376 eV                                      
   ICORE  =        3    local potential                                         
   LCOR   =        T    correct aug charges                                     
   LPAW   =        T    paw PP                                                  
   EAUG   =  391.914                                                            
   DEXC   =    0.000                                                            
   RMAX   =    2.565    core radius for proj-oper                               
   RAUG   =    1.300    factor for augmentation sphere                          
   RDEP   =    2.643    radius for radial grids                                 
   RDEPT  =    2.092    core radius for aug-charge                              
                                                                                
   Atomic configuration                                                         
   16 entries                                                                   
     n  l   j            E        occ.                                          
     1  0  0.50    -88091.8466   2.0000                                         
     2  0  0.50    -15753.4197   2.0000                                         
     2  1  1.50    -13508.1797   6.0000                                         
     3  0  0.50     -3781.7194   2.0000                                         
     3  1  1.50     -3138.2529   6.0000                                         
     3  2  2.50     -2483.2977  10.0000                                         
     4  0  0.50      -856.2895   2.0000                                         
     4  1  1.50      -645.4942   6.0000                                         
     4  2  2.50      -401.8768  10.0000                                         
     4  3  3.50      -132.9059  14.0000                                         
     5  0  0.50      -144.0950   2.0000                                         
     5  1  1.50       -85.7879   6.0000                                         
     5  2  2.50       -21.1769  10.0000                                         
     6  0  0.50       -12.0372   2.0000                                         
     6  1  1.50        -3.4971   2.0000                                         
     5  3  2.50        -2.7212   0.0000                                         
   Description                                                                  
     l       E           TYP  RCUT    TYP  RCUT                                 
     2    -21.1768523     23  2.500                                             
     2      1.3605826     23  2.500                                             
     0    -12.0371562     23  2.500                                             
     0     13.6058260     23  2.500                                             
     1     -3.4971339     23  2.500                                             
     1     13.6058260     23  2.500                                             
     3     -1.3605826      7  2.500                                             
  local pseudopotential read in
  partial core-charges read in
  partial kinetic energy density read in
  atomic valenz-charges read in
  non local Contribution for L=           2  read in
    real space projection operators read in
  non local Contribution for L=           2  read in
    real space projection operators read in
  non local Contribution for L=           0  read in
    real space projection operators read in
  non local Contribution for L=           0  read in
    real space projection operators read in
  non local Contribution for L=           1  read in
    real space projection operators read in
  non local Contribution for L=           1  read in
    real space projection operators read in
    PAW grid and wavefunctions read in

   number of l-projection  operators is LMAX  =           6
   number of lm-projection operators is LMMAX =          18

 POTCAR:    PAW_PBE Br 06Sep2000                  
   SHA256 =  96a73d2954943bbee26f4990d676cc6c3bf44b8dd2c75cd4b3b825d8403f0103 Br
   COPYR  = (c) Copyright 06Sep2000 Georg Kresse                                
   COPYR  = This file is part of the software VASP. Any use, copying, and all ot
   COPYR  = If you do not have a valid VASP license, you may not use, copy or di
   VRHFIN =Br: s2p5                                                             
   LEXCH  = PE                                                                  
   EATOM  =   368.4488 eV,   27.0802 Ry                                         
                                                                                
   TITEL  = PAW_PBE Br 06Sep2000                                                
   LULTRA =        F    use ultrasoft PP ?                                      
   IUNSCR =        1    unscreen: 0-lin 1-nonlin 2-no                           
   RPACOR =    1.900    partial core radius                                     
   POMASS =   79.904; ZVAL   =    7.000    mass and valenz                      
   RCORE  =    2.100    outmost cutoff radius                                   
   RWIGS  =    2.200; RWIGS  =    1.164    wigner-seitz radius (au A)           
   ENMAX  =  216.285; ENMIN  =  162.214 eV                                      
   ICORE  =        3    local potential                                         
   LCOR   =        T    correct aug charges                                     
   LPAW   =        T    paw PP                                                  
   EAUG   =  503.852                                                            
   DEXC   =    0.000                                                            
   RMAX   =    2.139    core radius for proj-oper                               
   RAUG   =    1.300    factor for augmentation sphere                          
   RDEP   =    2.186    radius for radial grids                                 
   RDEPT  =    1.890    core radius for aug-charge                              
                                                                                
   Atomic configuration                                                         
   10 entries                                                                   
     n  l   j            E        occ.                                          
     1  0  0.50    -13316.2796   2.0000                                         
     2  0  0.50     -1732.8239   2.0000                                         
     2  1  1.50     -1528.2193   6.0000                                         
     3  0  0.50      -238.0460   2.0000                                         
     3  1  1.50      -173.4609   6.0000                                         
     3  2  2.50       -66.7132  10.0000                                         
     4  0  0.50       -20.1334   2.0000                                         
     4  1  0.50        -7.8591   5.0000                                         
     4  2  2.50        -8.1635   0.0000                                         
     4  3  2.50        -8.1635   0.0000                                         
   Description                                                                  
     l       E           TYP  RCUT    TYP  RCUT                                 
     0    -20.1333652     23  2.100                                             
     0    -21.4939478     23  2.100                                             
     1     -7.8591052     23  2.100                                             
     1     -3.1608434     23  2.100                                             
     2     -8.1634956     23  2.100                                             
     3     -1.3605826      7  2.100                                             
  local pseudopotential read in
  partial core-charges read in
  partial kinetic energy density read in
  atomic valenz-charges read in
  non local Contribution for L=           0  read in
    real space projection operators read in
  non local Contribution for L=           0  read in
    real space projection operators read in
  non local Contribution for L=           1  read in
    real space projection operators read in
  non local Contribution for L=           1  read in
    real space projection operators read in
  non local Contribution for L=           2  read in
    real space projection operators read in
    PAW grid and wavefunctions read in

   number of l-projection  operators is LMAX  =           5
   number of lm-projection operators is LMMAX =          13

 Optimization of the real space projectors (new method)

 maximal supplied QI-value         = 15.12
 optimisation between [QCUT,QGAM] = [  8.77, 17.69] = [ 21.53, 87.61] Ry 
 Optimized for a Real-space Cutoff    1.85 Angstroem

   l    n(q)    QCUT    max X(q) W(low)/X(q) W(high)/X(q)  e(spline) 
   0     10     8.768    25.322    0.81E-04    0.51E-04    0.48E-06
   0     10     8.768    99.187    0.78E-04    0.50E-04    0.47E-06
   1      9     8.768    11.761    0.21E-03    0.20E-03    0.37E-06
   1      9     8.768     8.275    0.24E-03    0.22E-03    0.41E-06
   2      9     8.768     3.829    0.23E-04    0.15E-03    0.18E-06
 Optimization of the real space projectors (new method)

 maximal supplied QI-value         = 15.12
 optimisation between [QCUT,QGAM] = [  8.77, 17.69] = [ 21.53, 87.61] Ry 
 Optimized for a Real-space Cutoff    1.59 Angstroem

   l    n(q)    QCUT    max X(q) W(low)/X(q) W(high)/X(q)  e(spline) 
   2      7     8.768     3.846    0.48E-04    0.11E-03    0.11E-06
   2      7     8.768     8.593    0.20E-03    0.22E-04    0.24E-06
   0      8     8.768    20.082    0.68E-04    0.88E-04    0.41E-07
   0      8     8.768     8.597    0.89E-04    0.13E-03    0.59E-07
   1      8     8.768    33.223    0.15E-03    0.53E-04    0.87E-07
   1      8     8.768    15.899    0.14E-03    0.44E-04    0.78E-07
 Optimization of the real space projectors (new method)

 maximal supplied QI-value         = 17.95
 optimisation between [QCUT,QGAM] = [  8.80, 17.59] = [ 21.67, 86.68] Ry 
 Optimized for a Real-space Cutoff    1.59 Angstroem

   l    n(q)    QCUT    max X(q) W(low)/X(q) W(high)/X(q)  e(spline) 
   0      8     8.797   175.082    0.82E-04    0.14E-03    0.89E-07
   0      8     8.797   174.004    0.79E-04    0.14E-03    0.86E-07
   1      8     8.797    54.315    0.16E-03    0.14E-04    0.30E-06
   1      8     8.797    42.441    0.16E-03    0.14E-04    0.30E-06
   2      7     8.797     3.596    0.92E-04    0.15E-03    0.85E-07
  PAW_PBE Cs_sv 08Apr2002               :
 energy of atom  1       EATOM= -555.6835
 kinetic energy error for atom=    0.0069 (will be added to EATOM!!)
  PAW_PBE Pb_d 06Sep2000                :
 energy of atom  2       EATOM=-1661.6185
 kinetic energy error for atom=    0.0498 (will be added to EATOM!!)
  PAW_PBE Br 06Sep2000                  :
 energy of atom  3       EATOM= -368.4488
 kinetic energy error for atom=    0.0072 (will be added to EATOM!!)


 POSCAR: Cs4 Pb4 Br12                            
  positions in direct lattice
  velocities in cartesian coordinates

 METAGGA = SCAN     LMAXTAU =  6    LMIXTAU =  F

 exchange correlation table for  LEXCH =        8
   RHO(1)=    0.500       N(1)  =     2000
   RHO(2)=  100.500       N(2)  =     4000

 VTST: version 3.2, (02/03/18)

 CHAIN: initializing optimizer
 
 OPT: Using VASP Conjugate-Gradient optimizer
 CHAIN: Read ICHAIN            0

 POSCAR: Cs4 Pb4 Br12                            
  positions in direct lattice
  velocities in cartesian coordinates



--------------------------------------------------------------------------------------------------------


 ion  position               nearest neighbor table
   1  0.076  0.250  0.472-
   2  0.424  0.750  0.972-
   3  0.576  0.250  0.028-
   4  0.924  0.750  0.528-
   5  0.000  0.000  0.000-  10 2.97  11 2.97  15 2.98  18 2.98  17 2.98  16 2.98
   6  0.500  0.000  0.500-  12 2.97   9 2.97  16 2.98  17 2.98  15 2.98  18 2.98
   7  0.500  0.500  0.500-  12 2.97   9 2.97  13 2.98  19 2.98  14 2.98  20 2.98
   8  0.000  0.500  0.000-  10 2.97  11 2.97  14 2.98  20 2.98  19 2.98  13 2.98
   9  0.501  0.750  0.434-   6 2.97   7 2.97
  10  0.999  0.250  0.934-   5 2.97   8 2.97
  11  0.001  0.750  0.066-   5 2.97   8 2.97
  12  0.499  0.250  0.566-   6 2.97   7 2.97
  13  0.307  0.465  0.184-   7 2.98   8 2.98
  14  0.193  0.535  0.684-   8 2.98   7 2.98
  15  0.807  0.035  0.316-   5 2.98   6 2.98
  16  0.693  0.965  0.816-   6 2.98   5 2.98
  17  0.307  0.035  0.184-   6 2.98   5 2.98
  18  0.193  0.965  0.684-   5 2.98   6 2.98
  19  0.693  0.535  0.816-   7 2.98   8 2.98
  20  0.807  0.465  0.316-   8 2.98   7 2.98

  LATTYP: Found a simple orthorhombic cell.
 ALAT       =     7.7965103058
 B/A-ratio  =     1.0790986681
 C/A-ratio  =     1.5012339991
  
  Lattice vectors:
  
 A1 = (  -0.0000000000,   0.0000000000,   7.7965103058)
 A2 = (  -8.4132038872,   0.0000000000,  -0.0000000000)
 A3 = (   0.0000000000, -11.7043863456,   0.0000000000)


Analysis of symmetry for initial positions (statically):
=====================================================================
 Subroutine PRICEL returns:
 Original cell was already a primitive cell.
 

 Routine SETGRP: Setting up the symmetry group for a 
 simple orthorhombic supercell.


 Subroutine GETGRP returns: Found  8 space group operations
 (whereof  2 operations were pure point group operations)
 out of a pool of  8 trial point group operations.


The static configuration has the point symmetry S_2 .
 The point group associated with its full space group is D_2h.


Analysis of symmetry for dynamics (positions and initial velocities):
=====================================================================
 Subroutine PRICEL returns:
 Original cell was already a primitive cell.
 

 Routine SETGRP: Setting up the symmetry group for a 
 simple orthorhombic supercell.


 Subroutine GETGRP returns: Found  8 space group operations
 (whereof  2 operations were pure point group operations)
 out of a pool of  8 trial point group operations.


The dynamic configuration has the point symmetry S_2 .
 The point group associated with its full space group is D_2h.


 Subroutine INISYM returns: Found  8 space group operations
 (whereof  2 operations are pure point group operations),
 and found     1 'primitive' translations



 KPOINTS: 1x1x1                                   

Automatic generation of k-mesh.
Space group operators:
 irot       det(A)        alpha          n_x          n_y          n_z        tau_x        tau_y        tau_z
    1     1.000000     0.000000     1.000000     0.000000     0.000000     0.000000     0.000000     0.000000
    2    -1.000000     0.000000     1.000000     0.000000     0.000000     0.000000     0.000000     0.000000
    3     1.000000   179.999999     0.000000     1.000000     0.000000     0.000000    -0.500000     0.000000
    4    -1.000000   179.999999     0.000000     1.000000     0.000000     0.000000    -0.500000     0.000000
    5     1.000000   180.000000     1.000000     0.000000     0.000000    -0.500000    -0.500000     0.500000
    6    -1.000000   180.000000     1.000000     0.000000     0.000000    -0.500000    -0.500000     0.500000
    7     1.000000   179.999999    -0.000000     0.000000     1.000000    -0.500000     0.000000     0.500000
    8    -1.000000   179.999999    -0.000000     0.000000     1.000000    -0.500000     0.000000     0.500000
 
 Subroutine IBZKPT returns following result:
 ===========================================
 
 Found      8 irreducible k-points:
 
 Following reciprocal coordinates:
            Coordinates               Weight
  0.000000  0.000000  0.000000      1.000000
  0.333333  0.000000  0.000000      2.000000
  0.000000  0.500000  0.000000      1.000000
  0.333333  0.500000  0.000000      2.000000
  0.000000  0.000000  0.333333      2.000000
  0.333333  0.000000  0.333333      4.000000
  0.000000  0.500000  0.333333      2.000000
  0.333333  0.500000  0.333333      4.000000
 
 Following cartesian coordinates:
            Coordinates               Weight
  0.000000  0.000000  0.000000      1.000000
  0.039620  0.000000  0.000000      2.000000
  0.000000  0.042719  0.000000      1.000000
  0.039620  0.042719  0.000000      2.000000
  0.000000  0.000000  0.042754      2.000000
  0.039620  0.000000  0.042754      4.000000
  0.000000  0.042719  0.042754      2.000000
  0.039620  0.042719  0.042754      4.000000
 


--------------------------------------------------------------------------------------------------------




 Dimension of arrays:
   k-points           NKPTS =      8   k-points in BZ     NKDIM =      8   number of bands    NBANDS=    112
   number of dos      NEDOS =    301   number of ions     NIONS =     20
   non local maximal  LDIM  =      6   non local SUM 2l+1 LMDIM =     18
   total plane-waves  NPLWV = 161280
   max r-space proj   IRMAX =   5603   max aug-charges    IRDMAX=  89415
   dimension x,y,z NGX =    48 NGY =   70 NGZ =   48
   dimension x,y,z NGXF=    96 NGYF=  140 NGZF=   96
   support grid    NGXF=   192 NGYF=  280 NGZF=  192
   ions per type =               4   4  12
   NGX,Y,Z   is equivalent  to a cutoff of   9.48,  9.94, 10.24 a.u.
   NGXF,Y,Z  is equivalent  to a cutoff of  18.97, 19.89, 20.47 a.u.

 SYSTEM =  CsPbBr3 cubic bulk                      
 POSCAR =  Cs4 Pb4 Br12                            

 Startparameter for this run:
   NWRITE =      2    write-flag & timer
   PREC   = accura    normal or accurate (medium, high low for compatibility)
   ISTART =      0    job   : 0-new  1-cont  2-samecut
   ICHARG =      2    charge: 1-file 2-atom 10-const
   ISPIN  =      1    spin polarized calculation?
   LNONCOLLINEAR =      F non collinear calculations
   LSORBIT =      F    spin-orbit coupling
   INIWAV =      1    electr: 0-lowe 1-rand  2-diag
   LASPH  =      T    aspherical Exc in radial PAW
   METAGGA=      F    non-selfconsistent MetaGGA calc.

 Electronic Relaxation 1
   ENCUT  =  300.0 eV  22.05 Ry    4.70 a.u.  11.88 16.53 11.01*2*pi/ulx,y,z
   ENINI  =  300.0     initial cutoff
   ENAUG  =  503.9 eV  augmentation charge cutoff
   NELM   =    200;   NELMIN=  2; NELMDL=  0     # of ELM steps 
   EDIFF  = 0.1E-05   stopping-criterion for ELM
   LREAL  =      T    real-space projection
   NLSPLINE    = F    spline interpolate recip. space projectors
   LCOMPAT=      F    compatible to vasp.4.4
   GGA_COMPAT  = T    GGA compatible to vasp.4.4-vasp.4.6
   LMAXPAW     = -100 max onsite density
   LMAXMIX     =    2 max onsite mixed and CHGCAR
   VOSKOWN=      0    Vosko Wilk Nusair interpolation
   ROPT   =   -0.00025  -0.00025  -0.00025
 Ionic relaxation
   EDIFFG = -.1E-01   stopping-criterion for IOM
   NSW    =      0    number of steps for IOM
   NBLOCK =      1;   KBLOCK =      1    inner block; outer block 
   IBRION =     -1    ionic relax: 0-MD 1-quasi-New 2-CG
   NFREE  =      1    steps in history (QN), initial steepest desc. (CG)
   ISIF   =      3    stress and relaxation
   IWAVPR =     10    prediction:  0-non 1-charg 2-wave 3-comb
   ISYM   =      2    0-nonsym 1-usesym 2-fastsym
   LCORR  =      T    Harris-Foulkes like correction to forces

   POTIM  = 0.5000    time-step for ionic-motion
   TEIN   =    0.0    initial temperature
   TEBEG  =    0.0;   TEEND  =   0.0 temperature during run
   SMASS  =  -3.00    Nose mass-parameter (am)
   estimated Nose-frequenzy (Omega)   =  0.10E-29 period in steps =****** mass=  -0.162E-26a.u.
   SCALEE = 1.0000    scale energy and forces
   NPACO  =    256;   APACO  = 16.0  distance and # of slots for P.C.
   PSTRESS=    0.0 pullay stress

  Mass of Ions in am
   POMASS = 132.90207.20 79.90
  Ionic Valenz
   ZVAL   =   9.00 14.00  7.00
  Atomic Wigner-Seitz radii
   RWIGS  =  -1.00 -1.00 -1.00
  virtual crystal weights 
   VCA    =   1.00  1.00  1.00
   NELECT =     176.0000    total number of electrons
   NUPDOWN=      -1.0000    fix difference up-down

 DOS related values:
   EMIN   =  10.00;   EMAX   =-10.00  energy-range for DOS
   EFERMI =   0.00
   ISMEAR =     0;   SIGMA  =   0.01  broadening in eV -4-tet -1-fermi 0-gaus

 Electronic relaxation 2 (details)
   IALGO  =     38    algorithm
   LDIAG  =      T    sub-space diagonalisation (order eigenvalues)
   LSUBROT=      F    optimize rotation matrix (better conditioning)
   TURBO    =      0    0=normal 1=particle mesh
   IRESTART =      0    0=no restart 2=restart with 2 vectors
   NREBOOT  =      0    no. of reboots
   NMIN     =      0    reboot dimension
   EREF     =   0.00    reference energy to select bands
   IMIX   =      4    mixing-type and parameters
     AMIX     =   0.40;   BMIX     =  1.00
     AMIX_MAG =   1.60;   BMIX_MAG =  1.00
     AMIN     =   0.10
     WC   =   100.;   INIMIX=   1;  MIXPRE=   1;  MAXMIX= -45

 Intra band minimization:
   WEIMIN = 0.0000     energy-eigenvalue tresh-hold
   EBREAK =  0.22E-08  absolut break condition
   DEPER  =   0.30     relativ break condition  

   TIME   =   0.40     timestep for ELM

  volume/ion in A,a.u.               =      38.39       259.05
  Fermi-wavevector in a.u.,A,eV,Ry     =   1.001941  1.893395 13.658703  1.003886
  Thomas-Fermi vector in A             =   2.134396

 Write flags
   LWAVE        =      F    write WAVECAR
   LDOWNSAMPLE  =      F    k-point downsampling of WAVECAR
   LCHARG       =      T    write CHGCAR
   LVTOT        =      F    write LOCPOT, total local potential
   LVHAR        =      T    write LOCPOT, Hartree potential only
   LELF         =      F    write electronic localiz. function (ELF)
   LORBIT       =     10    0 simple, 1 ext, 2 COOP (PROOUT), +10 PAW based schemes


 Dipole corrections
   LMONO  =      F    monopole corrections only (constant potential shift)
   LDIPOL =      F    correct potential (dipole corrections)
   IDIPOL =      0    1-x, 2-y, 3-z, 4-all directions 
   EPSILON=  1.0000000 bulk dielectric constant

 Exchange correlation treatment:
   GGA     =    --    GGA type
   LEXCH   =     8    internal setting for exchange type
   VOSKOWN=      0    Vosko Wilk Nusair interpolation
   LHFCALC =     F    Hartree Fock is set to
   LHFONE  =     F    Hartree Fock one center treatment
   AEXX    =    0.0000 exact exchange contribution

 Linear response parameters
   LEPSILON=     F    determine dielectric tensor
   LRPA    =     F    only Hartree local field effects (RPA)
   LNABLA  =     F    use nabla operator in PAW spheres
   LVEL    =     F    velocity operator in full k-point grid
   LINTERFAST=   F  fast interpolation
   KINTER  =     0    interpolate to denser k-point grid
   CSHIFT  =0.1000    complex shift for real part using Kramers Kronig
   OMEGAMAX=  -1.0    maximum frequency
   DEG_THRESHOLD= 0.2000000E-02 threshold for treating states as degnerate
   RTIME   =   -0.100 relaxation time in fs
  (WPLASMAI=    0.000 imaginary part of plasma frequency in eV, 0.658/RTIME)
   DFIELD  = 0.0000000 0.0000000 0.0000000 field for delta impulse in time

 Orbital magnetization related:
   ORBITALMAG=     F  switch on orbital magnetization
   LCHIMAG   =     F  perturbation theory with respect to B field
   DQ        =  0.001000  dq finite difference perturbation B field
   LLRAUG    =     F  two centre corrections for induced B field



--------------------------------------------------------------------------------------------------------


 Static calculation
 charge density and potential will be updated during run
 non-spin polarized calculation
 Variant of blocked Davidson
 Davidson routine will perform the subspace rotation
 perform sub-space diagonalisation
    after iterative eigenvector-optimisation
 modified Broyden-mixing scheme, WC =      100.0
 initial mixing is a Kerker type mixing with AMIX =  0.4000 and BMIX =      1.0000
 Hartree-type preconditioning will be used
 using additional bands           24
 real space projection scheme for non local part
 use partial core corrections
 calculate Harris-corrections to forces   (improved forces if not selfconsistent)
 use gradient corrections 
 use of overlap-Matrix (Vanderbilt PP)
 Gauss-broadening in eV      SIGMA  =   0.01


--------------------------------------------------------------------------------------------------------


  energy-cutoff  :      300.00
  volume of cell :      767.73
      direct lattice vectors                 reciprocal lattice vectors
     8.413203887  0.000000000  0.000000000     0.118860783 -0.000000000  0.000000000
     0.000000000 11.704386346  0.000000000     0.000000000  0.085438055 -0.000000000
    -0.000000000  0.000000000  7.796510306    -0.000000000  0.000000000  0.128262512

  length of vectors
     8.413203887 11.704386346  7.796510306     0.118860783  0.085438055  0.128262512



 k-points in units of 2pi/SCALE and weight: 1x1x1                                   
   0.00000000  0.00000000  0.00000000       0.056
   0.03962026  0.00000000  0.00000000       0.111
   0.00000000  0.04271903  0.00000000       0.056
   0.03962026  0.04271903  0.00000000       0.111
   0.00000000  0.00000000  0.04275417       0.111
   0.03962026  0.00000000  0.04275417       0.222
   0.00000000  0.04271903  0.04275417       0.111
   0.03962026  0.04271903  0.04275417       0.222

 k-points in reciprocal lattice and weights: 1x1x1                                   
   0.00000000  0.00000000  0.00000000       0.056
   0.33333333  0.00000000  0.00000000       0.111
   0.00000000  0.50000000  0.00000000       0.056
   0.33333333  0.50000000  0.00000000       0.111
   0.00000000  0.00000000  0.33333333       0.111
   0.33333333  0.00000000  0.33333333       0.222
   0.00000000  0.50000000  0.33333333       0.111
   0.33333333  0.50000000  0.33333333       0.222

 position of ions in fractional coordinates (direct lattice) 
   0.07607096  0.25000000  0.47172528
   0.42392904  0.75000000  0.97172528
   0.57607096  0.25000000  0.02827472
   0.92392904  0.75000000  0.52827472
   0.00000000  0.00000000  0.00000000
   0.50000000  0.00000000  0.50000000
   0.50000000  0.50000000  0.50000000
   0.00000000  0.50000000  0.00000000
   0.50100940  0.75000000  0.43375268
   0.99899060  0.25000000  0.93375268
   0.00100940  0.75000000  0.06624732
   0.49899060  0.25000000  0.56624732
   0.30694969  0.46542476  0.18442285
   0.19305031  0.53457524  0.68442285
   0.80694969  0.03457524  0.31557715
   0.69305031  0.96542476  0.81557715
   0.30694969  0.03457524  0.18442285
   0.19305031  0.96542476  0.68442285
   0.69305031  0.53457524  0.81557715
   0.80694969  0.46542476  0.31557715

 position of ions in cartesian coordinates  (Angst):
   0.64000051  2.92609659  3.67781101
   3.56660144  8.77828976  7.57606616
   4.84660245  2.92609659  0.22044414
   7.77320338  8.77828976  4.11869930
   0.00000000  0.00000000  0.00000000
   4.20660194  0.00000000  3.89825515
   4.20660194  5.85219317  3.89825515
   0.00000000  5.85219317  0.00000000
   4.21509423  8.77828976  3.38175724
   8.40471160  2.92609659  7.28001240
   0.00849229  8.77828976  0.51649791
   4.19810966  2.92609659  4.41475306
   2.58243032  5.44751121  1.43785467
   1.62417162  6.25687514  5.33610982
   6.78903226  0.40468197  2.46040049
   5.83077357 11.29970438  6.35865564
   2.58243032  0.40468197  1.43785467
   1.62417162 11.29970438  5.33610982
   5.83077357  6.25687514  6.35865564
   6.78903226  5.44751121  2.46040049



--------------------------------------------------------------------------------------------------------


 k-point  1 :   0.0000 0.0000 0.0000  plane waves:    8997
 k-point  2 :   0.3333 0.0000 0.0000  plane waves:    9054
 k-point  3 :   0.0000 0.5000 0.0000  plane waves:    9034
 k-point  4 :   0.3333 0.5000 0.0000  plane waves:    9044
 k-point  5 :   0.0000 0.0000 0.3333  plane waves:    9068
 k-point  6 :   0.3333 0.0000 0.3333  plane waves:    9065
 k-point  7 :   0.0000 0.5000 0.3333  plane waves:    9060
 k-point  8 :   0.3333 0.5000 0.3333  plane waves:    9062

 maximum and minimum number of plane-waves per node :      1161     1098

 maximum number of plane-waves:      9068
 maximum index in each direction: 
   IXMAX=   11   IYMAX=   16   IZMAX=   11
   IXMIN=  -12   IYMIN=  -17   IZMIN=  -11


 real space projection operators:
  total allocation   :       8336.19 KBytes
  max/ min on nodes  :       1104.69        994.12


 parallel 3D FFT for wavefunctions:
    minimum data exchange during FFTs selected (reduces bandwidth)
 parallel 3D FFT for charge:
    minimum data exchange during FFTs selected (reduces bandwidth)


 total amount of memory used by VASP MPI-rank0    42418. kBytes
=======================================================================

   base      :      30000. kBytes
   nonlr-proj:       3117. kBytes
   fftplans  :       3667. kBytes
   grid      :       3424. kBytes
   one-center:         46. kBytes
   wavefun   :       2164. kBytes

     INWAV:  cpu time    0.0000: real time    0.0000
 Broyden mixing: mesh for mixing (old mesh)
   NGX = 23   NGY = 33   NGZ = 23
  (NGX  = 96   NGY  =140   NGZ  = 96)
  gives a total of  17457 points

 initial charge density was supplied:
 charge density of overlapping atoms calculated
 number of electron     176.0000000 magnetization 
 keeping initial charge density in first step


--------------------------------------------------------------------------------------------------------


 Maximum index for non-local projection operator          658
 Maximum index for augmentation-charges         2471 (set IRDMAX)


--------------------------------------------------------------------------------------------------------


 First call to EWALD:  gamma=   0.194
 Maximum number of real-space cells 3x 2x 3
 Maximum number of reciprocal cells 3x 3x 2

    FEWALD:  cpu time    0.0024: real time    0.0024


--------------------------------------- Iteration      1(   1)  ---------------------------------------


    POTLOK:  cpu time    0.1280: real time    0.1437
    SETDIJ:  cpu time    1.1447: real time    1.1447
     EDDAV:  cpu time    3.8884: real time    3.8932
       DOS:  cpu time    0.0006: real time    0.0006
    --------------------------------------------
      LOOP:  cpu time    5.1617: real time    5.1822

 eigenvalue-minimisations  :  1816
 total energy-change (2. order) : 0.6817147E+03  (-0.5668842E+04)
 number of electron     176.0000000 magnetization 
 augmentation part      176.0000000 magnetization 

 Free energy of the ion-electron system (eV)
  ---------------------------------------------------
  alpha Z        PSCENC =       469.96656553
  Ewald energy   TEWEN  =     -9391.32987447
  -Hartree energ DENC   =     -3558.94269542
  -exchange      EXHF   =         0.00000000
  -V(xc)+E(xc)   XCENC  =       463.09353538
  PAW double counting   =     10816.98087266   -11353.96092700
  entropy T*S    EENTRO =        -0.00001794
  eigenvalues    EBANDS =       -54.37286308
  atomic energy  EATOM  =     13290.28009929
  Solvation  Ediel_sol  =         0.00000000
  ---------------------------------------------------
  free energy    TOTEN  =       681.71469496 eV

  energy without entropy =      681.71471289  energy(sigma->0) =      681.71470392


--------------------------------------------------------------------------------------------------------




--------------------------------------- Iteration      1(   2)  ---------------------------------------


     EDDAV:  cpu time    4.3987: real time    4.4264
       DOS:  cpu time    0.0003: real time    0.0003
    --------------------------------------------
      LOOP:  cpu time    4.3990: real time    4.4267

 eigenvalue-minimisations  :  2192
 total energy-change (2. order) :-0.1257295E+04  (-0.1204901E+04)
 number of electron     176.0000000 magnetization 
 augmentation part      176.0000000 magnetization 

 Free energy of the ion-electron system (eV)
  ---------------------------------------------------
  alpha Z        PSCENC =       469.96656553
  Ewald energy   TEWEN  =     -9391.32987447
  -Hartree energ DENC   =     -3558.94269542
  -exchange      EXHF   =         0.00000000
  -V(xc)+E(xc)   XCENC  =       463.09353538
  PAW double counting   =     10816.98087266   -11353.96092700
  entropy T*S    EENTRO =        -0.00000000
  eigenvalues    EBANDS =     -1311.66803240
  atomic energy  EATOM  =     13290.28009929
  Solvation  Ediel_sol  =         0.00000000
  ---------------------------------------------------
  free energy    TOTEN  =      -575.58045642 eV

  energy without entropy =     -575.58045642  energy(sigma->0) =     -575.58045642


--------------------------------------------------------------------------------------------------------




--------------------------------------- Iteration      1(   3)  ---------------------------------------


     EDDAV:  cpu time    4.6807: real time    4.7192
       DOS:  cpu time    0.0003: real time    0.0003
    --------------------------------------------
      LOOP:  cpu time    4.6810: real time    4.7195

 eigenvalue-minimisations  :  2416
 total energy-change (2. order) :-0.1731210E+03  (-0.1720078E+03)
 number of electron     176.0000000 magnetization 
 augmentation part      176.0000000 magnetization 

 Free energy of the ion-electron system (eV)
  ---------------------------------------------------
  alpha Z        PSCENC =       469.96656553
  Ewald energy   TEWEN  =     -9391.32987447
  -Hartree energ DENC   =     -3558.94269542
  -exchange      EXHF   =         0.00000000
  -V(xc)+E(xc)   XCENC  =       463.09353538
  PAW double counting   =     10816.98087266   -11353.96092700
  entropy T*S    EENTRO =        -0.00000000
  eigenvalues    EBANDS =     -1484.78904270
  atomic energy  EATOM  =     13290.28009929
  Solvation  Ediel_sol  =         0.00000000
  ---------------------------------------------------
  free energy    TOTEN  =      -748.70146673 eV

  energy without entropy =     -748.70146673  energy(sigma->0) =     -748.70146673


--------------------------------------------------------------------------------------------------------




--------------------------------------- Iteration      1(   4)  ---------------------------------------


     EDDAV:  cpu time    4.3682: real time    4.3741
       DOS:  cpu time    0.0003: real time    0.0003
    --------------------------------------------
      LOOP:  cpu time    4.3685: real time    4.3744

 eigenvalue-minimisations  :  2144
 total energy-change (2. order) :-0.5663121E+01  (-0.5643211E+01)
 number of electron     176.0000000 magnetization 
 augmentation part      176.0000000 magnetization 

 Free energy of the ion-electron system (eV)
  ---------------------------------------------------
  alpha Z        PSCENC =       469.96656553
  Ewald energy   TEWEN  =     -9391.32987447
  -Hartree energ DENC   =     -3558.94269542
  -exchange      EXHF   =         0.00000000
  -V(xc)+E(xc)   XCENC  =       463.09353538
  PAW double counting   =     10816.98087266   -11353.96092700
  entropy T*S    EENTRO =        -0.00000000
  eigenvalues    EBANDS =     -1490.45216386
  atomic energy  EATOM  =     13290.28009929
  Solvation  Ediel_sol  =         0.00000000
  ---------------------------------------------------
  free energy    TOTEN  =      -754.36458789 eV

  energy without entropy =     -754.36458789  energy(sigma->0) =     -754.36458789


--------------------------------------------------------------------------------------------------------




--------------------------------------- Iteration      1(   5)  ---------------------------------------


     EDDAV:  cpu time    4.6914: real time    4.7188
       DOS:  cpu time    0.0004: real time    0.0004
    CHARGE:  cpu time    0.8599: real time    0.8600
    MIXING:  cpu time    0.0006: real time    0.0006
    --------------------------------------------
      LOOP:  cpu time    5.5524: real time    5.5799

 eigenvalue-minimisations  :  2424
 total energy-change (2. order) :-0.2740851E+00  (-0.2739377E+00)
 number of electron     175.9999999 magnetization 
 augmentation part       -3.2712453 magnetization 

 Broyden mixing:
  rms(total) = 0.73322E+00    rms(broyden)= 0.73300E+00
  rms(prec ) = 0.98589E+00
  weight for this iteration     100.00

 Free energy of the ion-electron system (eV)
  ---------------------------------------------------
  alpha Z        PSCENC =       469.96656553
  Ewald energy   TEWEN  =     -9391.32987447
  -Hartree energ DENC   =     -3558.94269542
  -exchange      EXHF   =         0.00000000
  -V(xc)+E(xc)   XCENC  =       463.09353538
  PAW double counting   =     10816.98087266   -11353.96092700
  entropy T*S    EENTRO =        -0.00000000
  eigenvalues    EBANDS =     -1490.72624899
  atomic energy  EATOM  =     13290.28009929
  Solvation  Ediel_sol  =         0.00000000
  ---------------------------------------------------
  free energy    TOTEN  =      -754.63867301 eV

  energy without entropy =     -754.63867301  energy(sigma->0) =     -754.63867301


--------------------------------------------------------------------------------------------------------




--------------------------------------- Iteration      1(   6)  ---------------------------------------


    POTLOK:  cpu time    0.1773: real time    0.1802
    SETDIJ:  cpu time    1.1473: real time    1.1474
     EDDAV:  cpu time    4.6248: real time    4.6250
       DOS:  cpu time    0.0004: real time    0.0004
    CHARGE:  cpu time    0.8441: real time    0.8442
    MIXING:  cpu time    0.0007: real time    0.0007
    --------------------------------------------
      LOOP:  cpu time    6.7947: real time    6.7979

 eigenvalue-minimisations  :  2392
 total energy-change (2. order) : 0.3970083E+02  (-0.1174364E+01)
 number of electron     175.9999999 magnetization 
 augmentation part       -2.5597875 magnetization 

 Broyden mixing:
  rms(total) = 0.52113E+00    rms(broyden)= 0.52107E+00
  rms(prec ) = 0.63446E+00
  weight for this iteration     100.00

 eigenvalues of (default mixing * dielectric matrix)
  average eigenvalue GAMMA=   1.2348
  1.2348

 Free energy of the ion-electron system (eV)
  ---------------------------------------------------
  alpha Z        PSCENC =       469.96656553
  Ewald energy   TEWEN  =     -9391.32987447
  -Hartree energ DENC   =     -3548.50773444
  -exchange      EXHF   =         0.00000000
  -V(xc)+E(xc)   XCENC  =       478.36513556
  PAW double counting   =     10995.95785044   -11532.37568181
  entropy T*S    EENTRO =        -0.00000000
  eigenvalues    EBANDS =     -1477.29420022
  atomic energy  EATOM  =     13290.28009929
  Solvation  Ediel_sol  =         0.00000000
  ---------------------------------------------------
  free energy    TOTEN  =      -714.93784012 eV

  energy without entropy =     -714.93784012  energy(sigma->0) =     -714.93784012


--------------------------------------------------------------------------------------------------------




--------------------------------------- Iteration      1(   7)  ---------------------------------------


    POTLOK:  cpu time    0.1484: real time    0.1650
    SETDIJ:  cpu time    1.1472: real time    1.1472
     EDDAV:  cpu time    4.4627: real time    4.4628
       DOS:  cpu time    0.0005: real time    0.0005
    CHARGE:  cpu time    0.8468: real time    0.8469
    MIXING:  cpu time    0.0007: real time    0.0007
    --------------------------------------------
      LOOP:  cpu time    6.6064: real time    6.6232

 eigenvalue-minimisations  :  2272
 total energy-change (2. order) : 0.2267823E+00  (-0.3725734E+00)
 number of electron     175.9999999 magnetization 
 augmentation part       -2.3029002 magnetization 

 Broyden mixing:
  rms(total) = 0.25936E+00    rms(broyden)= 0.25935E+00
  rms(prec ) = 0.28212E+00
  weight for this iteration     100.00

 eigenvalues of (default mixing * dielectric matrix)
  average eigenvalue GAMMA=   1.3316
  1.3316  1.3316

 Free energy of the ion-electron system (eV)
  ---------------------------------------------------
  alpha Z        PSCENC =       469.96656553
  Ewald energy   TEWEN  =     -9391.32987447
  -Hartree energ DENC   =     -3568.26679532
  -exchange      EXHF   =         0.00000000
  -V(xc)+E(xc)   XCENC  =       481.03781799
  PAW double counting   =     11335.62789823   -11871.42417780
  entropy T*S    EENTRO =        -0.00000000
  eigenvalues    EBANDS =     -1460.60259127
  atomic energy  EATOM  =     13290.28009929
  Solvation  Ediel_sol  =         0.00000000
  ---------------------------------------------------
  free energy    TOTEN  =      -714.71105782 eV

  energy without entropy =     -714.71105782  energy(sigma->0) =     -714.71105782


--------------------------------------------------------------------------------------------------------




--------------------------------------- Iteration      1(   8)  ---------------------------------------


    POTLOK:  cpu time    0.1502: real time    0.1782
    SETDIJ:  cpu time    1.1462: real time    1.1462
     EDDAV:  cpu time    4.2994: real time    4.2995
       DOS:  cpu time    0.0005: real time    0.0005
    CHARGE:  cpu time    0.8339: real time    0.8339
    MIXING:  cpu time    0.0007: real time    0.0007
    --------------------------------------------
      LOOP:  cpu time    6.4308: real time    6.4590

 eigenvalue-minimisations  :  2144
 total energy-change (2. order) :-0.8750212E-01  (-0.1814878E-01)
 number of electron     175.9999999 magnetization 
 augmentation part       -2.3418232 magnetization 

 Broyden mixing:
  rms(total) = 0.14838E+00    rms(broyden)= 0.14838E+00
  rms(prec ) = 0.16253E+00
  weight for this iteration     100.00

 eigenvalues of (default mixing * dielectric matrix)
  average eigenvalue GAMMA=   1.7285
  1.1086  1.3086  2.7682

 Free energy of the ion-electron system (eV)
  ---------------------------------------------------
  alpha Z        PSCENC =       469.96656553
  Ewald energy   TEWEN  =     -9391.32987447
  -Hartree energ DENC   =     -3570.74646599
  -exchange      EXHF   =         0.00000000
  -V(xc)+E(xc)   XCENC  =       481.45494808
  PAW double counting   =     11471.75237141   -12007.80605719
  entropy T*S    EENTRO =        -0.00000000
  eigenvalues    EBANDS =     -1458.37014660
  atomic energy  EATOM  =     13290.28009929
  Solvation  Ediel_sol  =         0.00000000
  ---------------------------------------------------
  free energy    TOTEN  =      -714.79855994 eV

  energy without entropy =     -714.79855994  energy(sigma->0) =     -714.79855994


--------------------------------------------------------------------------------------------------------




--------------------------------------- Iteration      1(   9)  ---------------------------------------


    POTLOK:  cpu time    0.1708: real time    0.1732
    SETDIJ:  cpu time    1.1464: real time    1.1464
     EDDAV:  cpu time    4.0803: real time    4.0804
       DOS:  cpu time    0.0006: real time    0.0006
    CHARGE:  cpu time    0.8332: real time    0.8333
    MIXING:  cpu time    0.0007: real time    0.0007
    --------------------------------------------
      LOOP:  cpu time    6.2320: real time    6.2347

 eigenvalue-minimisations  :  1984
 total energy-change (2. order) :-0.3482684E-01  (-0.6980974E-02)
 number of electron     175.9999999 magnetization 
 augmentation part       -2.3629298 magnetization 

 Broyden mixing:
  rms(total) = 0.31851E-01    rms(broyden)= 0.31848E-01
  rms(prec ) = 0.34222E-01
  weight for this iteration     100.00

 eigenvalues of (default mixing * dielectric matrix)
  average eigenvalue GAMMA=   1.4744
  2.5709  1.2479  1.2479  0.8309

 Free energy of the ion-electron system (eV)
  ---------------------------------------------------
  alpha Z        PSCENC =       469.96656553
  Ewald energy   TEWEN  =     -9391.32987447
  -Hartree energ DENC   =     -3573.28001596
  -exchange      EXHF   =         0.00000000
  -V(xc)+E(xc)   XCENC  =       482.44175607
  PAW double counting   =     11659.42679982   -12195.98013648
  entropy T*S    EENTRO =        -0.00000000
  eigenvalues    EBANDS =     -1456.35858058
  atomic energy  EATOM  =     13290.28009929
  Solvation  Ediel_sol  =         0.00000000
  ---------------------------------------------------
  free energy    TOTEN  =      -714.83338677 eV

  energy without entropy =     -714.83338677  energy(sigma->0) =     -714.83338677


--------------------------------------------------------------------------------------------------------




--------------------------------------- Iteration      1(  10)  ---------------------------------------


    POTLOK:  cpu time    0.1379: real time    0.1741
    SETDIJ:  cpu time    1.1456: real time    1.1457
     EDDAV:  cpu time    4.8592: real time    4.8594
       DOS:  cpu time    0.0005: real time    0.0005
    CHARGE:  cpu time    0.8340: real time    0.8341
    MIXING:  cpu time    0.0009: real time    0.0009
    --------------------------------------------
      LOOP:  cpu time    6.9782: real time    7.0147

 eigenvalue-minimisations  :  2568
 total energy-change (2. order) :-0.6266382E-03  (-0.4277124E-03)
 number of electron     175.9999999 magnetization 
 augmentation part       -2.3565190 magnetization 

 Broyden mixing:
  rms(total) = 0.17747E-01    rms(broyden)= 0.17747E-01
  rms(prec ) = 0.19731E-01
  weight for this iteration     100.00

 eigenvalues of (default mixing * dielectric matrix)
  average eigenvalue GAMMA=   1.5619
  2.3395  2.3395  1.1271  1.1271  0.8762

 Free energy of the ion-electron system (eV)
  ---------------------------------------------------
  alpha Z        PSCENC =       469.96656553
  Ewald energy   TEWEN  =     -9391.32987447
  -Hartree energ DENC   =     -3572.30569070
  -exchange      EXHF   =         0.00000000
  -V(xc)+E(xc)   XCENC  =       482.33078457
  PAW double counting   =     11638.66280730   -12175.23379034
  entropy T*S    EENTRO =        -0.00000000
  eigenvalues    EBANDS =     -1457.20491460
  atomic energy  EATOM  =     13290.28009929
  Solvation  Ediel_sol  =         0.00000000
  ---------------------------------------------------
  free energy    TOTEN  =      -714.83401341 eV

  energy without entropy =     -714.83401341  energy(sigma->0) =     -714.83401341


--------------------------------------------------------------------------------------------------------




--------------------------------------- Iteration      1(  11)  ---------------------------------------


    POTLOK:  cpu time    0.1633: real time    0.1653
    SETDIJ:  cpu time    1.1478: real time    1.1479
     EDDAV:  cpu time    4.1026: real time    4.1028
       DOS:  cpu time    0.0006: real time    0.0006
    CHARGE:  cpu time    0.8345: real time    0.8345
    MIXING:  cpu time    0.0009: real time    0.0008
    --------------------------------------------
      LOOP:  cpu time    6.2497: real time    6.2520

 eigenvalue-minimisations  :  2000
 total energy-change (2. order) :-0.1087294E-02  (-0.1329230E-03)
 number of electron     175.9999999 magnetization 
 augmentation part       -2.3560982 magnetization 

 Broyden mixing:
  rms(total) = 0.60426E-02    rms(broyden)= 0.60423E-02
  rms(prec ) = 0.74509E-02
  weight for this iteration     100.00

 eigenvalues of (default mixing * dielectric matrix)
  average eigenvalue GAMMA=   1.5835
  2.5954  2.5954  1.2305  1.2305  0.9247  0.9247

 Free energy of the ion-electron system (eV)
  ---------------------------------------------------
  alpha Z        PSCENC =       469.96656553
  Ewald energy   TEWEN  =     -9391.32987447
  -Hartree energ DENC   =     -3571.11479775
  -exchange      EXHF   =         0.00000000
  -V(xc)+E(xc)   XCENC  =       482.28537295
  PAW double counting   =     11624.23053031   -12160.92083937
  entropy T*S    EENTRO =        -0.00000000
  eigenvalues    EBANDS =     -1458.23215721
  atomic energy  EATOM  =     13290.28009929
  Solvation  Ediel_sol  =         0.00000000
  ---------------------------------------------------
  free energy    TOTEN  =      -714.83510071 eV

  energy without entropy =     -714.83510071  energy(sigma->0) =     -714.83510071


--------------------------------------------------------------------------------------------------------




--------------------------------------- Iteration      1(  12)  ---------------------------------------


    POTLOK:  cpu time    0.1520: real time    0.1665
    SETDIJ:  cpu time    1.1482: real time    1.1482
     EDDAV:  cpu time    4.3120: real time    4.3122
       DOS:  cpu time    0.0004: real time    0.0004
    CHARGE:  cpu time    0.8329: real time    0.8329
    MIXING:  cpu time    0.0008: real time    0.0008
    --------------------------------------------
      LOOP:  cpu time    6.4463: real time    6.4611

 eigenvalue-minimisations  :  2160
 total energy-change (2. order) :-0.1531935E-03  (-0.3952423E-04)
 number of electron     175.9999999 magnetization 
 augmentation part       -2.3575661 magnetization 

 Broyden mixing:
  rms(total) = 0.22445E-02    rms(broyden)= 0.22439E-02
  rms(prec ) = 0.25748E-02
  weight for this iteration     100.00

 eigenvalues of (default mixing * dielectric matrix)
  average eigenvalue GAMMA=   1.6286
  3.0536  2.3072  1.8663  1.2039  1.0368  0.9662  0.9662

 Free energy of the ion-electron system (eV)
  ---------------------------------------------------
  alpha Z        PSCENC =       469.96656553
  Ewald energy   TEWEN  =     -9391.32987447
  -Hartree energ DENC   =     -3571.15228908
  -exchange      EXHF   =         0.00000000
  -V(xc)+E(xc)   XCENC  =       482.34022144
  PAW double counting   =     11628.43961396   -12165.19130790
  entropy T*S    EENTRO =        -0.00000000
  eigenvalues    EBANDS =     -1458.18828267
  atomic energy  EATOM  =     13290.28009929
  Solvation  Ediel_sol  =         0.00000000
  ---------------------------------------------------
  free energy    TOTEN  =      -714.83525390 eV

  energy without entropy =     -714.83525390  energy(sigma->0) =     -714.83525390


--------------------------------------------------------------------------------------------------------




--------------------------------------- Iteration      1(  13)  ---------------------------------------


    POTLOK:  cpu time    0.1271: real time    0.1775
    SETDIJ:  cpu time    1.1479: real time    1.1479
     EDDAV:  cpu time    4.6418: real time    4.6420
       DOS:  cpu time    0.0003: real time    0.0003
    CHARGE:  cpu time    0.8323: real time    0.8323
    MIXING:  cpu time    0.0010: real time    0.0010
    --------------------------------------------
      LOOP:  cpu time    6.7503: real time    6.8010

 eigenvalue-minimisations  :  2408
 total energy-change (2. order) : 0.4242410E-05  (-0.4184172E-05)
 number of electron     175.9999999 magnetization 
 augmentation part       -2.3575458 magnetization 

 Broyden mixing:
  rms(total) = 0.80481E-03    rms(broyden)= 0.80396E-03
  rms(prec ) = 0.87284E-03
  weight for this iteration     100.00

 eigenvalues of (default mixing * dielectric matrix)
  average eigenvalue GAMMA=   1.6366
  2.9438  2.2722  2.2722  1.3183  1.3183  0.9528  1.0075  1.0075

 Free energy of the ion-electron system (eV)
  ---------------------------------------------------
  alpha Z        PSCENC =       469.96656553
  Ewald energy   TEWEN  =     -9391.32987447
  -Hartree energ DENC   =     -3571.30778696
  -exchange      EXHF   =         0.00000000
  -V(xc)+E(xc)   XCENC  =       482.35415028
  PAW double counting   =     11627.64441301   -12164.40125660
  entropy T*S    EENTRO =        -0.00000000
  eigenvalues    EBANDS =     -1458.04155975
  atomic energy  EATOM  =     13290.28009929
  Solvation  Ediel_sol  =         0.00000000
  ---------------------------------------------------
  free energy    TOTEN  =      -714.83524966 eV

  energy without entropy =     -714.83524966  energy(sigma->0) =     -714.83524966


--------------------------------------------------------------------------------------------------------




--------------------------------------- Iteration      1(  14)  ---------------------------------------


    POTLOK:  cpu time    0.1445: real time    0.1821
    SETDIJ:  cpu time    1.1481: real time    1.1481
     EDDAV:  cpu time    3.9731: real time    3.9734
       DOS:  cpu time    0.0004: real time    0.0004
    CHARGE:  cpu time    0.8359: real time    0.8359
    MIXING:  cpu time    0.0009: real time    0.0009
    --------------------------------------------
      LOOP:  cpu time    6.1028: real time    6.1407

 eigenvalue-minimisations  :  1864
 total energy-change (2. order) :-0.1113309E-04  (-0.3533067E-06)
 number of electron     175.9999999 magnetization 
 augmentation part       -2.3573045 magnetization 

 Broyden mixing:
  rms(total) = 0.20299E-03    rms(broyden)= 0.19982E-03
  rms(prec ) = 0.25951E-03
  weight for this iteration     100.00

 eigenvalues of (default mixing * dielectric matrix)
  average eigenvalue GAMMA=   1.6566
  2.8499  2.8499  1.9929  1.9929  1.1358  1.1358  0.9473  1.0026  1.0026

 Free energy of the ion-electron system (eV)
  ---------------------------------------------------
  alpha Z        PSCENC =       469.96656553
  Ewald energy   TEWEN  =     -9391.32987447
  -Hartree energ DENC   =     -3571.32707777
  -exchange      EXHF   =         0.00000000
  -V(xc)+E(xc)   XCENC  =       482.35434099
  PAW double counting   =     11627.42885044   -12164.18306123
  entropy T*S    EENTRO =        -0.00000000
  eigenvalues    EBANDS =     -1458.02510357
  atomic energy  EATOM  =     13290.28009929
  Solvation  Ediel_sol  =         0.00000000
  ---------------------------------------------------
  free energy    TOTEN  =      -714.83526079 eV

  energy without entropy =     -714.83526079  energy(sigma->0) =     -714.83526079


--------------------------------------------------------------------------------------------------------




--------------------------------------- Iteration      1(  15)  ---------------------------------------


    POTLOK:  cpu time    0.1350: real time    0.1827
    SETDIJ:  cpu time    1.1467: real time    1.1468
     EDDAV:  cpu time    3.2065: real time    3.2066
       DOS:  cpu time    0.0004: real time    0.0004
    CHARGE:  cpu time    0.8325: real time    0.8326
    MIXING:  cpu time    0.0012: real time    0.0012
    --------------------------------------------
      LOOP:  cpu time    5.3223: real time    5.3703

 eigenvalue-minimisations  :  1264
 total energy-change (2. order) :-0.8342478E-05  (-0.5486616E-07)
 number of electron     175.9999999 magnetization 
 augmentation part       -2.3573270 magnetization 

 Broyden mixing:
  rms(total) = 0.13792E-03    rms(broyden)= 0.13327E-03
  rms(prec ) = 0.14264E-03
  weight for this iteration     100.00

 eigenvalues of (default mixing * dielectric matrix)
  average eigenvalue GAMMA=   1.6323
  3.0240  2.6273  2.3088  2.0007  1.1862  1.1862  0.9351  0.9351  1.0598  1.0598

 Free energy of the ion-electron system (eV)
  ---------------------------------------------------
  alpha Z        PSCENC =       469.96656553
  Ewald energy   TEWEN  =     -9391.32987447
  -Hartree energ DENC   =     -3571.31324609
  -exchange      EXHF   =         0.00000000
  -V(xc)+E(xc)   XCENC  =       482.35331247
  PAW double counting   =     11627.22005119   -12163.97529333
  entropy T*S    EENTRO =        -0.00000000
  eigenvalues    EBANDS =     -1458.03688373
  atomic energy  EATOM  =     13290.28009929
  Solvation  Ediel_sol  =         0.00000000
  ---------------------------------------------------
  free energy    TOTEN  =      -714.83526913 eV

  energy without entropy =     -714.83526913  energy(sigma->0) =     -714.83526913


--------------------------------------------------------------------------------------------------------




--------------------------------------- Iteration      1(  16)  ---------------------------------------


    POTLOK:  cpu time    0.1647: real time    0.1763
    SETDIJ:  cpu time    1.1482: real time    1.1482
     EDDAV:  cpu time    3.1405: real time    3.1407
       DOS:  cpu time    0.0004: real time    0.0004
    CHARGE:  cpu time    0.8383: real time    0.8384
    MIXING:  cpu time    0.0010: real time    0.0010
    --------------------------------------------
      LOOP:  cpu time    5.2931: real time    5.3050

 eigenvalue-minimisations  :  1208
 total energy-change (2. order) : 0.3773517E-05  (-0.1585292E-07)
 number of electron     175.9999999 magnetization 
 augmentation part       -2.3573840 magnetization 

 Broyden mixing:
  rms(total) = 0.53595E-04    rms(broyden)= 0.40147E-04
  rms(prec ) = 0.45909E-04
  weight for this iteration     100.00
  WARNING: grid for Broyden might be to small

 eigenvalues of (default mixing * dielectric matrix)
  average eigenvalue GAMMA=   1.7236
  3.0633  3.0633  2.4934  1.9967  1.9967  1.2118  1.2118  1.0037  1.0037  0.9576
  0.9576

 Free energy of the ion-electron system (eV)
  ---------------------------------------------------
  alpha Z        PSCENC =       469.96656553
  Ewald energy   TEWEN  =     -9391.32987447
  -Hartree energ DENC   =     -3571.31588310
  -exchange      EXHF   =         0.00000000
  -V(xc)+E(xc)   XCENC  =       482.35365020
  PAW double counting   =     11627.27901292   -12164.03414828
  entropy T*S    EENTRO =        -0.00000000
  eigenvalues    EBANDS =     -1458.03468745
  atomic energy  EATOM  =     13290.28009929
  Solvation  Ediel_sol  =         0.00000000
  ---------------------------------------------------
  free energy    TOTEN  =      -714.83526536 eV

  energy without entropy =     -714.83526536  energy(sigma->0) =     -714.83526536


--------------------------------------------------------------------------------------------------------




--------------------------------------- Iteration      1(  17)  ---------------------------------------


    POTLOK:  cpu time    0.1363: real time    0.1804
    SETDIJ:  cpu time    1.1485: real time    1.1486
     EDDAV:  cpu time    2.9934: real time    2.9935
       DOS:  cpu time    0.0004: real time    0.0004
    CHARGE:  cpu time    0.8300: real time    0.8301
    MIXING:  cpu time    0.0011: real time    0.0011
    --------------------------------------------
      LOOP:  cpu time    5.1097: real time    5.1540

 eigenvalue-minimisations  :  1096
 total energy-change (2. order) : 0.1481046E-05  (-0.4935677E-08)
 number of electron     175.9999999 magnetization 
 augmentation part       -2.3573571 magnetization 

 Broyden mixing:
  rms(total) = 0.40175E-04    rms(broyden)= 0.18803E-04
  rms(prec ) = 0.21893E-04
  weight for this iteration     100.00
  WARNING: grid for Broyden might be to small

 eigenvalues of (default mixing * dielectric matrix)
  average eigenvalue GAMMA=   1.6910
  3.3825  3.0142  2.3687  2.1427  2.1427  1.1703  1.1703  1.1242  0.9864  0.9864
  0.9574  0.8457

 Free energy of the ion-electron system (eV)
  ---------------------------------------------------
  alpha Z        PSCENC =       469.96656553
  Ewald energy   TEWEN  =     -9391.32987447
  -Hartree energ DENC   =     -3571.32014362
  -exchange      EXHF   =         0.00000000
  -V(xc)+E(xc)   XCENC  =       482.35398872
  PAW double counting   =     11627.25540266   -12164.01032148
  entropy T*S    EENTRO =        -0.00000000
  eigenvalues    EBANDS =     -1458.03098052
  atomic energy  EATOM  =     13290.28009929
  Solvation  Ediel_sol  =         0.00000000
  ---------------------------------------------------
  free energy    TOTEN  =      -714.83526388 eV

  energy without entropy =     -714.83526388  energy(sigma->0) =     -714.83526388


--------------------------------------------------------------------------------------------------------




--------------------------------------- Iteration      1(  18)  ---------------------------------------


    POTLOK:  cpu time    0.1561: real time    0.1718
    SETDIJ:  cpu time    1.1472: real time    1.1473
     EDDAV:  cpu time    2.9841: real time    2.9843
       DOS:  cpu time    0.0003: real time    0.0003
    --------------------------------------------
      LOOP:  cpu time    4.2877: real time    4.3037

 eigenvalue-minimisations  :  1088
 total energy-change (2. order) : 0.2103584E-06  (-0.2014347E-08)
 number of electron     175.9999999 magnetization 
 augmentation part       -2.3573571 magnetization 

 Free energy of the ion-electron system (eV)
  ---------------------------------------------------
  alpha Z        PSCENC =       469.96656553
  Ewald energy   TEWEN  =     -9391.32987447
  -Hartree energ DENC   =     -3571.31994755
  -exchange      EXHF   =         0.00000000
  -V(xc)+E(xc)   XCENC  =       482.35395111
  PAW double counting   =     11627.25664306   -12164.01163191
  entropy T*S    EENTRO =        -0.00000000
  eigenvalues    EBANDS =     -1458.03106873
  atomic energy  EATOM  =     13290.28009929
  Solvation  Ediel_sol  =         0.00000000
  ---------------------------------------------------
  free energy    TOTEN  =      -714.83526367 eV

  energy without entropy =     -714.83526367  energy(sigma->0) =     -714.83526367


--------------------------------------------------------------------------------------------------------




 average (electrostatic) potential at core
  the test charge radii are     1.1312  1.1541  1.0178
  (the norm of the test charge is              1.0000)
       1 -54.8708       2 -54.8708       3 -54.8708       4 -54.8708       5-101.3156
       6-101.3156       7-101.3156       8-101.3156       9 -68.7573      10 -68.7573
      11 -68.7573      12 -68.7573      13 -68.7418      14 -68.7418      15 -68.7418
      16 -68.7418      17 -68.7418      18 -68.7418      19 -68.7418      20 -68.7418



 E-fermi :   0.8831     XC(G=0):  -8.2831     alpha+bet : -7.3730


 k-point     1 :       0.0000    0.0000    0.0000
  band No.  band energies     occupation 
      1     -20.4186      2.00000
      2     -20.4162      2.00000
      3     -20.4127      2.00000
      4     -20.4113      2.00000
      5     -16.1699      2.00000
      6     -16.1582      2.00000
      7     -16.1579      2.00000
      8     -16.1396      2.00000
      9     -16.1033      2.00000
     10     -16.0649      2.00000
     11     -16.0552      2.00000
     12     -16.0551      2.00000
     13     -15.9920      2.00000
     14     -15.9913      2.00000
     15     -15.9905      2.00000
     16     -15.9902      2.00000
     17     -15.9861      2.00000
     18     -15.9855      2.00000
     19     -15.9848      2.00000
     20     -15.9842      2.00000
     21     -15.9743      2.00000
     22     -15.9737      2.00000
     23     -15.9729      2.00000
     24     -15.9724      2.00000
     25     -14.1564      2.00000
     26     -13.9650      2.00000
     27     -13.8237      2.00000
     28     -13.8203      2.00000
     29     -13.8044      2.00000
     30     -13.8011      2.00000
     31     -13.7628      2.00000
     32     -13.7556      2.00000
     33     -13.7428      2.00000
     34     -13.5071      2.00000
     35     -13.5002      2.00000
     36     -13.4978      2.00000
     37      -7.9547      2.00000
     38      -7.4245      2.00000
     39      -6.9085      2.00000
     40      -6.9029      2.00000
     41      -6.8806      2.00000
     42      -6.8755      2.00000
     43      -6.8650      2.00000
     44      -6.8604      2.00000
     45      -6.8530      2.00000
     46      -6.8398      2.00000
     47      -6.8362      2.00000
     48      -6.8314      2.00000
     49      -6.8083      2.00000
     50      -6.8015      2.00000
     51      -6.7614      2.00000
     52      -6.2151      2.00000
     53      -3.1629      2.00000
     54      -3.1096      2.00000
     55      -3.0390      2.00000
     56      -2.9529      2.00000
     57      -2.9429      2.00000
     58      -2.8854      2.00000
     59      -1.9734      2.00000
     60      -1.7202      2.00000
     61      -1.6703      2.00000
     62      -1.6298      2.00000
     63      -1.6151      2.00000
     64      -1.5435      2.00000
     65      -1.4133      2.00000
     66      -1.3142      2.00000
     67      -1.3131      2.00000
     68      -1.2881      2.00000
     69      -1.1894      2.00000
     70      -1.1797      2.00000
     71      -1.1788      2.00000
     72      -1.1734      2.00000
     73      -1.1526      2.00000
     74      -1.1353      2.00000
     75      -1.1132      2.00000
     76      -1.1069      2.00000
     77      -1.0693      2.00000
     78      -0.8697      2.00000
     79      -0.8694      2.00000
     80      -0.8652      2.00000
     81      -0.8579      2.00000
     82      -0.8036      2.00000
     83      -0.7555      2.00000
     84      -0.7472      2.00000
     85      -0.5320      2.00000
     86      -0.2832      2.00000
     87       0.1887      2.00000
     88       0.8093      2.00000
     89       3.0402      0.00000
     90       3.0812      0.00000
     91       3.2982      0.00000
     92       3.4694      0.00000
     93       3.7636      0.00000
     94       3.8279      0.00000
     95       5.3165      0.00000
     96       6.0180      0.00000
     97       6.1563      0.00000
     98       6.1766      0.00000
     99       6.3166      0.00000
    100       6.3423      0.00000
    101       6.4843      0.00000
    102       6.5519      0.00000
    103       6.5960      0.00000
    104       6.7719      0.00000
    105       6.8404      0.00000
    106       6.9313      0.00000
    107       7.0088      0.00000
    108       7.0862      0.00000
    109       7.2360      0.00000
    110       7.3810      0.00000
    111       7.3935      0.00000
    112       7.5212      0.00000

 k-point     2 :       0.3333    0.0000    0.0000
  band No.  band energies     occupation 
      1     -20.4173      2.00000
      2     -20.4151      2.00000
      3     -20.4142      2.00000
      4     -20.4126      2.00000
      5     -16.1621      2.00000
      6     -16.1469      2.00000
      7     -16.1339      2.00000
      8     -16.1337      2.00000
      9     -16.0936      2.00000
     10     -16.0826      2.00000
     11     -16.0825      2.00000
     12     -16.0743      2.00000
     13     -15.9919      2.00000
     14     -15.9914      2.00000
     15     -15.9906      2.00000
     16     -15.9903      2.00000
     17     -15.9859      2.00000
     18     -15.9852      2.00000
     19     -15.9852      2.00000
     20     -15.9846      2.00000
     21     -15.9740      2.00000
     22     -15.9734      2.00000
     23     -15.9734      2.00000
     24     -15.9729      2.00000
     25     -14.1056      2.00000
     26     -13.9663      2.00000
     27     -13.9274      2.00000
     28     -13.8455      2.00000
     29     -13.8196      2.00000
     30     -13.8167      2.00000
     31     -13.6968      2.00000
     32     -13.6899      2.00000
     33     -13.6180      2.00000
     34     -13.5654      2.00000
     35     -13.5612      2.00000
     36     -13.5320      2.00000
     37      -7.7374      2.00000
     38      -7.2402      2.00000
     39      -7.2051      2.00000
     40      -6.9153      2.00000
     41      -6.8726      2.00000
     42      -6.8648      2.00000
     43      -6.8599      2.00000
     44      -6.8458      2.00000
     45      -6.8401      2.00000
     46      -6.8338      2.00000
     47      -6.8280      2.00000
     48      -6.8083      2.00000
     49      -6.8075      2.00000
     50      -6.7967      2.00000
     51      -6.7808      2.00000
     52      -6.5805      2.00000
     53      -3.0788      2.00000
     54      -2.9785      2.00000
     55      -2.7597      2.00000
     56      -2.6257      2.00000
     57      -2.5499      2.00000
     58      -2.5326      2.00000
     59      -2.0434      2.00000
     60      -1.9215      2.00000
     61      -1.8831      2.00000
     62      -1.7827      2.00000
     63      -1.7806      2.00000
     64      -1.7357      2.00000
     65      -1.5696      2.00000
     66      -1.4536      2.00000
     67      -1.4261      2.00000
     68      -1.3924      2.00000
     69      -1.2365      2.00000
     70      -1.2128      2.00000
     71      -1.1683      2.00000
     72      -1.1581      2.00000
     73      -1.1361      2.00000
     74      -1.1112      2.00000
     75      -1.0805      2.00000
     76      -1.0724      2.00000
     77      -1.0114      2.00000
     78      -0.9502      2.00000
     79      -0.9477      2.00000
     80      -0.8788      2.00000
     81      -0.8642      2.00000
     82      -0.8463      2.00000
     83      -0.7889      2.00000
     84      -0.7367      2.00000
     85      -0.4822      2.00000
     86      -0.3169      2.00000
     87      -0.1357      2.00000
     88       0.2971      2.00000
     89       3.2516      0.00000
     90       3.6036      0.00000
     91       3.8061      0.00000
     92       4.1739      0.00000
     93       4.1871      0.00000
     94       4.5686      0.00000
     95       5.3112      0.00000
     96       5.5396      0.00000
     97       5.6372      0.00000
     98       5.6480      0.00000
     99       6.1945      0.00000
    100       6.1959      0.00000
    101       6.5119      0.00000
    102       6.5722      0.00000
    103       6.7589      0.00000
    104       6.7719      0.00000
    105       6.7962      0.00000
    106       6.8285      0.00000
    107       6.9035      0.00000
    108       7.1152      0.00000
    109       7.2882      0.00000
    110       7.3300      0.00000
    111       7.4181      0.00000
    112       7.5511      0.00000

 k-point     3 :       0.0000    0.5000    0.0000
  band No.  band energies     occupation 
      1     -20.4175      2.00000
      2     -20.4175      2.00000
      3     -20.4120      2.00000
      4     -20.4120      2.00000
      5     -16.1580      2.00000
      6     -16.1580      2.00000
      7     -16.1370      2.00000
      8     -16.1370      2.00000
      9     -16.1030      2.00000
     10     -16.1030      2.00000
     11     -16.0553      2.00000
     12     -16.0553      2.00000
     13     -15.9914      2.00000
     14     -15.9914      2.00000
     15     -15.9908      2.00000
     16     -15.9908      2.00000
     17     -15.9859      2.00000
     18     -15.9859      2.00000
     19     -15.9846      2.00000
     20     -15.9846      2.00000
     21     -15.9740      2.00000
     22     -15.9740      2.00000
     23     -15.9727      2.00000
     24     -15.9727      2.00000
     25     -14.0975      2.00000
     26     -14.0975      2.00000
     27     -13.8087      2.00000
     28     -13.8087      2.00000
     29     -13.7765      2.00000
     30     -13.7765      2.00000
     31     -13.7596      2.00000
     32     -13.7596      2.00000
     33     -13.6259      2.00000
     34     -13.6259      2.00000
     35     -13.4989      2.00000
     36     -13.4989      2.00000
     37      -7.7103      2.00000
     38      -7.7103      2.00000
     39      -6.8924      2.00000
     40      -6.8924      2.00000
     41      -6.8777      2.00000
     42      -6.8777      2.00000
     43      -6.8426      2.00000
     44      -6.8426      2.00000
     45      -6.8281      2.00000
     46      -6.8281      2.00000
     47      -6.8261      2.00000
     48      -6.8261      2.00000
     49      -6.8103      2.00000
     50      -6.8103      2.00000
     51      -6.6026      2.00000
     52      -6.6026      2.00000
     53      -3.0672      2.00000
     54      -3.0672      2.00000
     55      -2.9832      2.00000
     56      -2.9832      2.00000
     57      -2.2488      2.00000
     58      -2.2488      2.00000
     59      -2.1048      2.00000
     60      -2.1048      2.00000
     61      -1.8276      2.00000
     62      -1.8276      2.00000
     63      -1.5821      2.00000
     64      -1.5821      2.00000
     65      -1.5394      2.00000
     66      -1.5394      2.00000
     67      -1.2714      2.00000
     68      -1.2714      2.00000
     69      -1.2419      2.00000
     70      -1.2419      2.00000
     71      -1.1738      2.00000
     72      -1.1738      2.00000
     73      -1.1068      2.00000
     74      -1.1068      2.00000
     75      -1.0948      2.00000
     76      -1.0948      2.00000
     77      -0.9457      2.00000
     78      -0.9457      2.00000
     79      -0.9342      2.00000
     80      -0.9342      2.00000
     81      -0.8771      2.00000
     82      -0.8771      2.00000
     83      -0.7912      2.00000
     84      -0.7912      2.00000
     85      -0.5405      2.00000
     86      -0.5405      2.00000
     87       0.3247      2.00000
     88       0.3247      2.00000
     89       3.2658      0.00000
     90       3.2658      0.00000
     91       3.5284      0.00000
     92       3.5284      0.00000
     93       4.6764      0.00000
     94       4.6764      0.00000
     95       5.2230      0.00000
     96       5.2230      0.00000
     97       5.9556      0.00000
     98       5.9556      0.00000
     99       6.2892      0.00000
    100       6.2892      0.00000
    101       6.4978      0.00000
    102       6.4978      0.00000
    103       6.5622      0.00000
    104       6.5622      0.00000
    105       6.7871      0.00000
[...]
     60      -2.1626      2.00000
     61      -2.0004      2.00000
     62      -2.0004      2.00000
     63      -1.8028      2.00000
     64      -1.8028      2.00000
     65      -1.4710      2.00000
     66      -1.4710      2.00000
     67      -1.4237      2.00000
     68      -1.4237      2.00000
     69      -1.2880      2.00000
     70      -1.2880      2.00000
     71      -1.2224      2.00000
     72      -1.2224      2.00000
     73      -1.1254      2.00000
     74      -1.1254      2.00000
     75      -1.1017      2.00000
     76      -1.1017      2.00000
     77      -0.9509      2.00000
     78      -0.9509      2.00000
     79      -0.9020      2.00000
     80      -0.9020      2.00000
     81      -0.8696      2.00000
     82      -0.8696      2.00000
     83      -0.8334      2.00000
     84      -0.8334      2.00000
     85      -0.5853      2.00000
     86      -0.5853      2.00000
     87      -0.2950      2.00000
     88      -0.2950      2.00000
     89       4.1164      0.00000
     90       4.1164      0.00000
     91       4.1990      0.00000
     92       4.1990      0.00000
     93       4.7986      0.00000
     94       4.7986      0.00000
     95       5.0729      0.00000
     96       5.0729      0.00000
     97       5.5068      0.00000
     98       5.5068      0.00000
     99       5.6676      0.00000
    100       5.6676      0.00000
    101       6.4476      0.00000
    102       6.4476      0.00000
    103       6.6069      0.00000
    104       6.6069      0.00000
    105       6.8373      0.00000
    106       6.8373      0.00000
    107       6.9662      0.00000
    108       6.9662      0.00000
    109       7.2242      0.00000
    110       7.2242      0.00000
    111       7.4596      0.00000
    112       7.4597      0.00000

 k-point     8 :       0.3333    0.5000    0.3333
  band No.  band energies     occupation 
      1     -20.4155      2.00000
      2     -20.4155      2.00000
      3     -20.4138      2.00000
      4     -20.4138      2.00000
      5     -16.1443      2.00000
      6     -16.1443      2.00000
      7     -16.1294      2.00000
      8     -16.1294      2.00000
      9     -16.1010      2.00000
     10     -16.1010      2.00000
     11     -16.0818      2.00000
     12     -16.0818      2.00000
     13     -15.9912      2.00000
     14     -15.9912      2.00000
     15     -15.9910      2.00000
     16     -15.9910      2.00000
     17     -15.9854      2.00000
     18     -15.9854      2.00000
     19     -15.9851      2.00000
     20     -15.9851      2.00000
     21     -15.9736      2.00000
     22     -15.9736      2.00000
     23     -15.9733      2.00000
     24     -15.9733      2.00000
     25     -13.9985      2.00000
     26     -13.9985      2.00000
     27     -13.9034      2.00000
     28     -13.9034      2.00000
     29     -13.8005      2.00000
     30     -13.8005      2.00000
     31     -13.7097      2.00000
     32     -13.7097      2.00000
     33     -13.6038      2.00000
     34     -13.6038      2.00000
     35     -13.5681      2.00000
     36     -13.5681      2.00000
     37      -7.3510      2.00000
     38      -7.3510      2.00000
     39      -7.0948      2.00000
     40      -7.0948      2.00000
     41      -6.8661      2.00000
     42      -6.8661      2.00000
     43      -6.8437      2.00000
     44      -6.8437      2.00000
     45      -6.8286      2.00000
     46      -6.8286      2.00000
     47      -6.8232      2.00000
     48      -6.8232      2.00000
     49      -6.8067      2.00000
     50      -6.8067      2.00000
     51      -6.7815      2.00000
     52      -6.7815      2.00000
     53      -2.9319      2.00000
     54      -2.9319      2.00000
     55      -2.5700      2.00000
     56      -2.5700      2.00000
     57      -2.2988      2.00000
     58      -2.2988      2.00000
     59      -2.1809      2.00000
     60      -2.1809      2.00000
     61      -1.9614      2.00000
     62      -1.9614      2.00000
     63      -1.8012      2.00000
     64      -1.8012      2.00000
     65      -1.5242      2.00000
     66      -1.5242      2.00000
     67      -1.4414      2.00000
     68      -1.4414      2.00000
     69      -1.2815      2.00000
     70      -1.2815      2.00000
     71      -1.1779      2.00000
     72      -1.1779      2.00000
     73      -1.1382      2.00000
     74      -1.1382      2.00000
     75      -1.0101      2.00000
     76      -1.0101      2.00000
     77      -0.9558      2.00000
     78      -0.9558      2.00000
     79      -0.8986      2.00000
     80      -0.8986      2.00000
     81      -0.8621      2.00000
     82      -0.8621      2.00000
     83      -0.8061      2.00000
     84      -0.8061      2.00000
     85      -0.5017      2.00000
     86      -0.5017      2.00000
     87      -0.2363      2.00000
     88      -0.2363      2.00000
     89       3.6245      0.00000
     90       3.6245      0.00000
     91       4.4029      0.00000
     92       4.4029      0.00000
     93       4.8483      0.00000
     94       4.8483      0.00000
     95       4.9748      0.00000
     96       4.9748      0.00000
     97       5.4429      0.00000
     98       5.4429      0.00000
     99       6.1148      0.00000
    100       6.1148      0.00000
    101       6.7002      0.00000
    102       6.7002      0.00000
    103       6.7674      0.00000
    104       6.7674      0.00000
    105       6.9695      0.00000
    106       6.9695      0.00000
    107       7.1402      0.00000
    108       7.1402      0.00000
    109       7.1506      0.00000
    110       7.1506      0.00000
    111       7.3761      0.00000
    112       7.3761      0.00000


--------------------------------------------------------------------------------------------------------


 soft charge-density along one line, spin component           1
         0         1         2         3         4         5         6         7         8         9
 total charge-density along one line

 pseudopotential strength for first ion, spin component:           1
 17.794  -4.658   0.000  -0.001  -0.001  -0.000   0.002   0.001
 -4.658   1.228  -0.000   0.000   0.000   0.000  -0.000  -0.000
  0.000  -0.000   2.192  -0.000   0.000  -2.606   0.000  -0.000
 -0.001   0.000  -0.000   2.193  -0.001   0.000  -2.607   0.001
 -0.001   0.000   0.000  -0.001   2.192  -0.000   0.001  -2.607
 -0.000   0.000  -2.606   0.000  -0.000   3.061  -0.000   0.000
  0.002  -0.000   0.000  -2.607   0.001  -0.000   3.063  -0.001
  0.001  -0.000  -0.000   0.001  -2.607   0.000  -0.001   3.062
  0.000  -0.000   0.001  -0.000  -0.000  -0.001   0.000   0.000
 -0.000   0.000   0.000  -0.000  -0.000  -0.000   0.000   0.000
  0.001  -0.000  -0.000  -0.002   0.001   0.000   0.003  -0.001
 -0.001   0.000  -0.000   0.000   0.000   0.000  -0.000  -0.000
  0.000  -0.000  -0.000  -0.000  -0.002   0.000   0.000   0.002
 total augmentation occupancy for first ion, spin component:           1
  1.914  -0.136  -0.000  -0.000  -0.000  -0.000  -0.001  -0.000   0.000  -0.000   0.001  -0.001   0.000
 -0.136   0.134  -0.000  -0.005  -0.001   0.000   0.001   0.001   0.000  -0.000  -0.003   0.005   0.000
 -0.000  -0.000   2.017  -0.000  -0.000   0.004   0.000  -0.000   0.002   0.000   0.000  -0.000   0.000
 -0.000  -0.005  -0.000   2.020  -0.003   0.000   0.006  -0.002   0.000   0.000  -0.005  -0.000   0.000
 -0.000  -0.001  -0.000  -0.003   2.019   0.000  -0.002   0.005   0.000   0.000   0.000   0.000  -0.003
 -0.000   0.000   0.004   0.000   0.000   0.010  -0.000   0.000  -0.002  -0.002  -0.000   0.000  -0.000
 -0.001   0.001   0.000   0.006  -0.002  -0.000   0.009   0.002   0.000   0.000   0.003  -0.000   0.000
 -0.000   0.001  -0.000  -0.002   0.005   0.000   0.002   0.010   0.000   0.000  -0.001  -0.001   0.003
  0.000   0.000   0.002   0.000   0.000  -0.002   0.000   0.000   0.008   0.002   0.000  -0.000   0.000
 -0.000  -0.000   0.000   0.000   0.000  -0.002   0.000   0.000   0.002   0.006  -0.000   0.000   0.000
  0.001  -0.003   0.000  -0.005   0.000  -0.000   0.003  -0.001   0.000  -0.000   0.006  -0.002  -0.001
 -0.001   0.005  -0.000  -0.000   0.000   0.000  -0.000  -0.001  -0.000   0.000  -0.002   0.004   0.001
  0.000   0.000   0.000   0.000  -0.003  -0.000   0.000   0.003   0.000   0.000  -0.001   0.001   0.005


------------------------ aborting loop because EDIFF is reached ----------------------------------------





 total charge     

# of ion       s       p       d       tot
------------------------------------------
    1        1.787   4.719   0.022   6.529
    2        1.787   4.719   0.022   6.529
    3        1.787   4.719   0.022   6.529
    4        1.787   4.719   0.022   6.529
    5        1.555   0.433   9.836  11.823
    6        1.555   0.432   9.836  11.823
    7        1.555   0.432   9.836  11.823
    8        1.555   0.433   9.836  11.823
    9        1.615   3.291   0.007   4.912
   10        1.615   3.291   0.007   4.912
   11        1.615   3.291   0.007   4.912
   12        1.615   3.291   0.007   4.912
   13        1.616   3.278   0.007   4.901
   14        1.614   3.299   0.007   4.920
   15        1.614   3.299   0.007   4.920
   16        1.616   3.278   0.007   4.901
   17        1.616   3.278   0.007   4.901
   18        1.614   3.299   0.007   4.920
   19        1.616   3.278   0.007   4.901
   20        1.614   3.299   0.007   4.920
--------------------------------------------------
tot         32.749  60.078  39.514 132.341

    CHARGE:  cpu time    0.1313: real time    0.1313
    FORLOC:  cpu time    0.0034: real time    0.0034
    FORNL :  cpu time    0.5524: real time    0.5524
    STRESS:  cpu time   12.1063: real time   12.1068
    FORCOR:  cpu time    0.1063: real time    0.1063
    FORHAR:  cpu time    0.0109: real time    0.0109
    MIXING:  cpu time    0.0011: real time    0.0011
    OFIELD:  cpu time    0.0000: real time    0.0000

  FORCE on cell =-STRESS in cart. coord.  units (eV):
  Direction    XX          YY          ZZ          XY          YZ          ZX
  --------------------------------------------------------------------------------------
  Alpha Z   469.96657   469.96657   469.96657
  Ewald   -3091.26320 -3058.01209 -3242.08096     0.00000     0.00000     0.00000
  Hartree  1223.98855  1218.24569  1129.08499    -0.00000    -0.00000    -0.00000
  E(xc)    -739.71485  -739.70452  -739.78364    -0.00000    -0.00000    -0.02757
  Local   -1422.33096 -1448.89588 -1178.63207     0.00000    -0.00000    -0.00000
  n-local   902.69565   902.64099   901.73884     0.00000    -0.00000    -0.01414
  augment   406.44556   405.82416   405.72287    -0.00000    -0.00004    -0.00000
  Kinetic  2253.35845  2253.35299  2257.22266    -0.00001    -0.00000    -1.48084
  Fock        0.00000     0.00000     0.00000     0.00000     0.00000     0.00000
  -------------------------------------------------------------------------------------
  Total       3.14577     3.41790     3.23926     0.00000     0.00000     0.00000
  in kB       6.56489     7.13280     6.76000     0.00000     0.00000     0.00000
  external pressure =        6.82 kB  Pullay stress =        0.00 kB


 VOLUME and BASIS-vectors are now :
 -----------------------------------------------------------------------------
  energy-cutoff  :      300.00
  volume of cell :      767.73
      direct lattice vectors                 reciprocal lattice vectors
     8.413203887  0.000000000  0.000000000     0.118860783 -0.000000000  0.000000000
     0.000000000 11.704386346  0.000000000     0.000000000  0.085438055 -0.000000000
    -0.000000000  0.000000000  7.796510306    -0.000000000  0.000000000  0.128262512

  length of vectors
     8.413203887 11.704386346  7.796510306     0.118860783  0.085438055  0.128262512


 FORCES acting on ions
    electron-ion (+dipol)            ewald-force                    non-local-force                 convergence-correction
 -----------------------------------------------------------------------------------------------
   0.280E+02 0.240E-12 -.159E+02   -.280E+02 -.711E-14 0.160E+02   -.384E-01 0.000E+00 -.119E+00   0.722E-05 0.105E-12 -.364E-04
   -.280E+02 0.855E-12 -.159E+02   0.280E+02 0.000E+00 0.160E+02   0.384E-01 0.000E+00 -.119E+00   -.722E-05 -.109E-12 -.364E-04
   0.280E+02 0.373E-11 0.159E+02   -.280E+02 0.000E+00 -.160E+02   -.384E-01 0.000E+00 0.119E+00   0.722E-05 0.120E-12 0.364E-04
   -.280E+02 0.105E-11 0.159E+02   0.280E+02 0.711E-14 -.160E+02   0.384E-01 0.000E+00 0.119E+00   -.722E-05 -.750E-13 0.364E-04
   -.335E-13 -.220E-12 -.479E-12   0.444E-13 0.249E-13 -.135E-12   0.000E+00 0.000E+00 0.307E-22   -.131E-12 -.831E-14 0.857E-13
   0.282E-11 -.100E-11 -.769E-11   0.719E-13 0.941E-13 0.764E-13   0.000E+00 0.000E+00 0.684E-23   -.571E-13 -.235E-13 -.209E-13
   0.354E-11 -.154E-11 -.565E-11   0.853E-13 -.107E-12 0.639E-13   0.000E+00 0.000E+00 -.187E-22   -.397E-13 -.948E-13 -.308E-13
   0.119E-12 0.139E-11 -.565E-12   0.426E-13 -.320E-13 -.128E-12   0.000E+00 0.000E+00 0.202E-22   -.124E-12 -.868E-13 0.702E-13
   0.124E+02 0.104E-11 0.383E+02   -.126E+02 -.142E-13 -.385E+02   0.144E+00 0.000E+00 0.244E+00   0.110E-04 -.979E-13 0.372E-04
   -.124E+02 0.277E-11 0.383E+02   0.126E+02 -.711E-14 -.385E+02   -.144E+00 0.000E+00 0.244E+00   -.110E-04 0.833E-13 0.372E-04
   0.124E+02 -.203E-12 -.383E+02   -.126E+02 0.000E+00 0.385E+02   0.144E+00 0.000E+00 -.244E+00   0.110E-04 -.117E-12 -.372E-04
   -.124E+02 -.544E-12 -.383E+02   0.126E+02 0.107E-13 0.385E+02   -.144E+00 0.000E+00 -.244E+00   -.110E-04 0.743E-13 -.372E-04
   -.232E+02 0.175E+02 0.306E+02   0.235E+02 -.176E+02 -.309E+02   -.216E+00 0.159E+00 0.275E+00   0.173E-04 -.266E-04 -.785E-05
   0.232E+02 -.175E+02 0.306E+02   -.235E+02 0.176E+02 -.309E+02   0.216E+00 -.159E+00 0.275E+00   -.173E-04 0.266E-04 -.785E-05
   -.232E+02 -.175E+02 -.306E+02   0.235E+02 0.176E+02 0.309E+02   -.216E+00 -.159E+00 -.275E+00   0.173E-04 0.266E-04 0.785E-05
   0.232E+02 0.175E+02 -.306E+02   -.235E+02 -.176E+02 0.309E+02   0.216E+00 0.159E+00 -.275E+00   -.173E-04 -.266E-04 0.785E-05
   -.232E+02 -.175E+02 0.306E+02   0.235E+02 0.176E+02 -.309E+02   -.216E+00 -.159E+00 0.275E+00   0.173E-04 0.266E-04 -.785E-05
   0.232E+02 0.175E+02 0.306E+02   -.235E+02 -.176E+02 -.309E+02   0.216E+00 0.159E+00 0.275E+00   -.173E-04 -.266E-04 -.785E-05
   0.232E+02 -.175E+02 -.306E+02   -.235E+02 0.176E+02 0.309E+02   0.216E+00 -.159E+00 -.275E+00   -.173E-04 0.266E-04 0.785E-05
   -.232E+02 0.175E+02 -.306E+02   0.235E+02 -.176E+02 0.309E+02   -.216E+00 0.159E+00 -.275E+00   0.173E-04 -.266E-04 0.785E-05
 -----------------------------------------------------------------------------------------------
   -.272E-11 0.101E-10 -.136E-10   0.284E-13 -.675E-13 0.178E-13   -.278E-16 -.278E-16 -.555E-16   -.368E-12 -.259E-12 0.146E-12


 POSITION                                       TOTAL-FORCE (eV/Angst)
 -----------------------------------------------------------------------------------
      0.64000      2.92610      3.67781         0.006254      0.000000      0.003666
      3.56660      8.77829      7.57607        -0.006254      0.000000      0.003666
      4.84660      2.92610      0.22044         0.006254      0.000000     -0.003666
      7.77320      8.77829      4.11870        -0.006254      0.000000     -0.003666
      0.00000      0.00000      0.00000         0.000000      0.000000     -0.000000
      4.20660      0.00000      3.89826         0.000000      0.000000     -0.000000
      4.20660      5.85219      3.89826         0.000000      0.000000     -0.000000
      0.00000      5.85219      0.00000         0.000000      0.000000     -0.000000
      4.21509      8.77829      3.38176         0.001398      0.000000     -0.027410
      8.40471      2.92610      7.28001        -0.001398      0.000000     -0.027410
      0.00849      8.77829      0.51650         0.001398      0.000000      0.027410
      4.19811      2.92610      4.41475        -0.001398      0.000000      0.027410
      2.58243      5.44751      1.43785         0.002703     -0.003020     -0.012430
      1.62417      6.25688      5.33611        -0.002703      0.003020     -0.012430
      6.78903      0.40468      2.46040         0.002703      0.003020      0.012430
      5.83077     11.29970      6.35866        -0.002703     -0.003020      0.012430
      2.58243      0.40468      1.43785         0.002703      0.003020     -0.012430
      1.62417     11.29970      5.33611        -0.002703     -0.003020     -0.012430
      5.83077      6.25688      6.35866        -0.002703      0.003020      0.012430
      6.78903      5.44751      2.46040         0.002703     -0.003020      0.012430
 -----------------------------------------------------------------------------------
    total drift:                               -0.000000      0.000000     -0.000000


--------------------------------------------------------------------------------------------------------



  FREE ENERGIE OF THE ION-ELECTRON SYSTEM (eV)
  ---------------------------------------------------
  free  energy   TOTEN  =      -714.83526367 eV

  energy  without entropy=     -714.83526367  energy(sigma->0) =     -714.83526367



--------------------------------------------------------------------------------------------------------


    POTLOK:  cpu time    1.2560: real time    1.2560


--------------------------------------------------------------------------------------------------------


 stress matrix after NEB project (eV)
      3.14577      0.00000      0.00000
      0.00000      3.41790      0.00000
      0.00000      0.00000      3.23926
  FORCES: max atom, RMS     0.027446    0.015150
  FORCE total and by dimension    0.067755    0.027410
  Stress total and by dimension    5.663105    3.417902
     LOOP+:  cpu time  120.3428: real time  121.0532
    4ORBIT:  cpu time    0.0000: real time    0.0000



 total charge     

# of ion       s       p       d       tot
------------------------------------------
    1        1.787   4.719   0.022   6.529
    2        1.787   4.719   0.022   6.529
    3        1.787   4.719   0.022   6.529
    4        1.787   4.719   0.022   6.529
    5        1.555   0.433   9.836  11.823
    6        1.555   0.432   9.836  11.823
    7        1.555   0.432   9.836  11.823
    8        1.555   0.433   9.836  11.823
    9        1.615   3.291   0.007   4.912
   10        1.615   3.291   0.007   4.912
   11        1.615   3.291   0.007   4.912
   12        1.615   3.291   0.007   4.912
   13        1.616   3.278   0.007   4.901
   14        1.614   3.299   0.007   4.920
   15        1.614   3.299   0.007   4.920
   16        1.616   3.278   0.007   4.901
   17        1.616   3.278   0.007   4.901
   18        1.614   3.299   0.007   4.920
   19        1.616   3.278   0.007   4.901
   20        1.614   3.299   0.007   4.920
--------------------------------------------------
tot         32.749  60.078  39.514 132.341


 total amount of memory used by VASP MPI-rank0    42418. kBytes
=======================================================================

   base      :      30000. kBytes
   nonlr-proj:       3117. kBytes
   fftplans  :       3667. kBytes
   grid      :       3424. kBytes
   one-center:         46. kBytes
   wavefun   :       2164. kBytes

  
  
 General timing and accounting informations for this job:
 ========================================================
  
                  Total CPU time used (sec):      130.079
                            User time (sec):      129.111
                          System time (sec):        0.968
                         Elapsed time (sec):      131.072
  
                   Maximum memory used (kb):       78292.
                   Average memory used (kb):           0.
  
                          Minor page faults:        19044
                          Major page faults:            0
                 Voluntary context switches:         1381
