<?xml version="1.0" encoding="ISO-8859-1"?>
<modeling>
 <generator>
  <i name="program" type="string">vasp </i>
  <i name="version" type="string">5.4.4.18Apr17-6-g9f103f2a35  </i>
  <i name="subversion" type="string">(build Jun 22 2020 09:27:21) complex            parallel </i>
  <i name="platform" type="string">tx2_gcc-7.3_libsci-18.07_cray-fftw-3.3.8 </i>
  <i name="date" type="string">2021 09 20 </i>
  <i name="time" type="string">15:14:56 </i>
 </generator>
 <incar>
  <i type="string" name="SYSTEM"> CsPbBr3 cubic bulk</i>
  <i type="string" name="PREC">accurate</i>
  <i type="string" name="ALGO"> Normal   ! Electronic minimisation algo</i>
  <i type="logical" name="ADDGRID"> T  </i>
  <i type="int" name="NELM">   200</i>
  <i type="int" name="IBRION">     2</i>
  <i name="EDIFF">      0.00000100</i>
  <i name="EDIFFG">     -0.01000000</i>
  <i type="int" name="NSW">     0</i>
  <i type="int" name="ISIF">     3</i>
  <i type="int" name="ISYM">     2</i>
  <i name="ENCUT">    300.00000000</i>
  <i name="POTIM">      0.50000000</i>
  <i type="string" name="LREAL"> AUTO</i>
  <i type="int" name="ISMEAR">     0</i>
  <i name="SIGMA">      0.01000000</i>
  <i name="PSTRESS">      0.00000000</i>
  <i type="logical" name="LWAVE"> F  </i>
  <i type="logical" name="LCHARG"> T  </i>
  <i type="logical" name="LVHAR"> T  </i>
  <i type="int" name="LORBIT">    10</i>
  <i type="logical" name="LASPH"> T  </i>
  <v type="int" name="KPOINT_BSE">    -1     0     0     0</v>
  <i type="int" name="NELM">   200</i>
  <i type="string" name="METAGGA"> SCAN       ! PBE exchange-correlation</i>
  <i type="logical" name="LASPH"> T  </i>
 </incar>
 <structure name="primitive_cell" >
  <crystal>
   <varray name="basis" >
    <v>       8.41320389       0.00000000       0.00000000 </v>
    <v>       0.00000000      11.70438635       0.00000000 </v>
    <v>      -0.00000000       0.00000000       7.79651031 </v>
   </varray>
   <i name="volume">    767.73319683 </i>
   <varray name="rec_basis" >
    <v>       0.11886078      -0.00000000       0.00000000 </v>
    <v>       0.00000000       0.08543805      -0.00000000 </v>
    <v>      -0.00000000       0.00000000       0.12826251 </v>
   </varray>
  </crystal>
  <varray name="positions" >
   <v>       0.07607096       0.25000000       0.47172528 </v>
   <v>      -0.19305031       0.03457524       0.31557715 </v>
   <v>      -0.19305031       0.46542476       0.31557715 </v>
   <v>       0.49899060       0.25000000      -0.43375268 </v>
   <v>      -0.00100940       0.25000000      -0.06624732 </v>
   <v>       0.19305031      -0.46542476      -0.31557715 </v>
   <v>       0.19305031      -0.03457524      -0.31557715 </v>
   <v>       0.30694969       0.46542476       0.18442285 </v>
   <v>       0.30694969       0.03457524       0.18442285 </v>
   <v>      -0.50000000       0.00000000      -0.50000000 </v>
   <v>      -0.50000000      -0.50000000      -0.50000000 </v>
   <v>       0.00000000       0.00000000       0.00000000 </v>
   <v>       0.00000000      -0.50000000       0.00000000 </v>
   <v>      -0.30694969      -0.03457524      -0.18442285 </v>
   <v>      -0.30694969      -0.46542476      -0.18442285 </v>
   <v>      -0.42392904       0.25000000       0.02827472 </v>
   <v>      -0.07607096      -0.25000000      -0.47172528 </v>
   <v>       0.00100940      -0.25000000       0.06624732 </v>
   <v>      -0.49899060      -0.25000000       0.43375268 </v>
   <v>       0.42392904      -0.25000000      -0.02827472 </v>
  </varray>
 </structure>
 <varray name="primitive_index" >
  <v type="int" >        1 </v>
  <v type="int" >       15 </v>
  <v type="int" >       20 </v>
  <v type="int" >       12 </v>
  <v type="int" >       10 </v>
  <v type="int" >       14 </v>
  <v type="int" >       18 </v>
  <v type="int" >       13 </v>
  <v type="int" >       17 </v>
  <v type="int" >        6 </v>
  <v type="int" >        7 </v>
  <v type="int" >        5 </v>
  <v type="int" >        8 </v>
  <v type="int" >       16 </v>
  <v type="int" >       19 </v>
  <v type="int" >        3 </v>
  <v type="int" >        4 </v>
  <v type="int" >       11 </v>
  <v type="int" >        9 </v>
  <v type="int" >        2 </v>
 </varray>
 <kpoints>
  <generation param="Gamma">
   <v type="int" name="divisions">       3        2        3 </v>
   <v name="usershift">      0.00000000       0.00000000       0.00000000 </v>
   <v name="genvec1">      0.33333333       0.00000000      -0.00000000 </v>
   <v name="genvec2">      0.00000000       0.50000000       0.00000000 </v>
   <v name="genvec3">      0.00000000       0.00000000       0.33333333 </v>
   <v name="shift">      0.00000000       0.00000000       0.00000000 </v>
  </generation>
  <varray name="kpointlist" >
   <v>       0.00000000       0.00000000       0.00000000 </v>
   <v>       0.33333333       0.00000000       0.00000000 </v>
   <v>       0.00000000       0.50000000       0.00000000 </v>
   <v>       0.33333333       0.50000000       0.00000000 </v>
   <v>       0.00000000       0.00000000       0.33333333 </v>
   <v>       0.33333333       0.00000000       0.33333333 </v>
   <v>       0.00000000       0.50000000       0.33333333 </v>
   <v>       0.33333333       0.50000000       0.33333333 </v>
  </varray>
  <varray name="weights" >
   <v>       0.05555556 </v>
   <v>       0.11111111 </v>
   <v>       0.05555556 </v>
   <v>       0.11111111 </v>
   <v>       0.11111111 </v>
   <v>       0.22222222 </v>
   <v>       0.11111111 </v>
   <v>       0.22222222 </v>
  </varray>
 </kpoints>
 <parameters>
  <separator name="general" >
   <i type="string" name="SYSTEM">CsPbBr3 cubic bulk</i>
   <i type="logical" name="LCOMPAT"> F  </i>
  </separator>
  <separator name="electronic" >
   <i type="string" name="PREC">accura</i>
   <i name="ENMAX">    300.00000000</i>
   <i name="ENAUG">    503.85200000</i>
   <i name="EDIFF">      0.00000100</i>
   <i type="int" name="IALGO">    38</i>
   <i type="int" name="IWAVPR">    10</i>
   <i type="int" name="NBANDS">   112</i>
   <i name="NELECT">    176.00000000</i>
   <i type="int" name="TURBO">     0</i>
   <i type="int" name="IRESTART">     0</i>
   <i type="int" name="NREBOOT">     0</i>
   <i type="int" name="NMIN">     0</i>
   <i name="EREF">      0.00000000</i>
   <separator name="electronic smearing" >
    <i type="int" name="ISMEAR">     0</i>
    <i name="SIGMA">      0.01000000</i>
    <i name="KSPACING">      0.50000000</i>
    <i type="logical" name="KGAMMA"> T  </i>
   </separator>
   <separator name="electronic projectors" >
    <i type="logical" name="LREAL"> T  </i>
    <v name="ROPT">     -0.00025000     -0.00025000     -0.00025000</v>
    <i type="int" name="LMAXPAW">  -100</i>
    <i type="int" name="LMAXMIX">     2</i>
    <i type="logical" name="NLSPLINE"> F  </i>
   </separator>
   <separator name="electronic startup" >
    <i type="int" name="ISTART">     0</i>
    <i type="int" name="ICHARG">     2</i>
    <i type="int" name="INIWAV">     1</i>
   </separator>
   <separator name="electronic spin" >
    <i type="int" name="ISPIN">     1</i>
    <i type="logical" name="LNONCOLLINEAR"> F  </i>
    <v name="MAGMOM">      1.00000000      1.00000000      1.00000000      1.00000000      1.00000000      1.00000000      1.00000000      1.00000000      1.00000000      1.00000000      1.00000000      1.00000000      1.00000000      1.00000000      1.00000000      1.00000000      1.00000000      1.00000000      1.00000000      1.00000000
</v>
    <i name="NUPDOWN">     -1.00000000</i>
    <i type="logical" name="LSORBIT"> F  </i>
    <v name="SAXIS">      0.00000000      0.00000000      1.00000000</v>
    <i type="logical" name="LSPIRAL"> F  </i>
    <v name="QSPIRAL">      0.00000000      0.00000000      0.00000000</v>
    <i type="logical" name="LZEROZ"> F  </i>
   </separator>
   <separator name="electronic exchange-correlation" >
    <i type="logical" name="LASPH"> T  </i>
    <i type="logical" name="LMETAGGA"> F  </i>
   </separator>
   <separator name="electronic convergence" >
    <i type="int" name="NELM">   200</i>
    <i type="int" name="NELMDL">     0</i>
    <i type="int" name="NELMIN">     2</i>
    <i name="ENINI">    300.00000000</i>
    <separator name="electronic convergence detail" >
     <i type="logical" name="LDIAG"> T  </i>
     <i type="logical" name="LSUBROT"> F  </i>
     <i name="WEIMIN">      0.00000000</i>
     <i name="EBREAK">      0.00000000</i>
     <i name="DEPER">      0.30000000</i>
     <i type="int" name="NRMM">     4</i>
     <i name="TIME">      0.40000000</i>
    </separator>
   </separator>
   <separator name="electronic mixer" >
    <i name="AMIX">      0.40000000</i>
    <i name="BMIX">      1.00000000</i>
    <i name="AMIN">      0.10000000</i>
    <i name="AMIX_MAG">      1.60000000</i>
    <i name="BMIX_MAG">      1.00000000</i>
    <separator name="electronic mixer details" >
     <i type="int" name="IMIX">     4</i>
     <i type="logical" name="MIXFIRST"> F  </i>
     <i type="int" name="MAXMIX">   -45</i>
     <i name="WC">    100.00000000</i>
     <i type="int" name="INIMIX">     1</i>
     <i type="int" name="MIXPRE">     1</i>
     <i type="int" name="MREMOVE">     5</i>
    </separator>
   </separator>
   <separator name="electronic dipolcorrection" >
    <i type="logical" name="LDIPOL"> F  </i>
    <i type="logical" name="LMONO"> F  </i>
    <i type="int" name="IDIPOL">     0</i>
    <i name="EPSILON">      1.00000000</i>
    <v name="DIPOL">   -100.00000000   -100.00000000   -100.00000000</v>
    <i name="EFIELD">      0.00000000</i>
   </separator>
  </separator>
  <separator name="grids" >
   <i type="int" name="NGX">    48</i>
   <i type="int" name="NGY">    70</i>
   <i type="int" name="NGZ">    48</i>
   <i type="int" name="NGXF">    96</i>
   <i type="int" name="NGYF">   140</i>
   <i type="int" name="NGZF">    96</i>
   <i type="logical" name="ADDGRID"> T  </i>
  </separator>
  <separator name="ionic" >
   <i type="int" name="NSW">     0</i>
   <i type="int" name="IBRION">    -1</i>
   <i type="int" name="MDALGO">     0</i>
   <i type="int" name="ISIF">     3</i>
   <i name="PSTRESS">      0.00000000</i>
   <i name="EDIFFG">     -0.01000000</i>
   <i type="int" name="NFREE">     1</i>
   <i name="POTIM">      0.50000000</i>
   <i name="SMASS">     -3.00000000</i>
   <i name="SCALEE">      1.00000000</i>
  </separator>
  <separator name="ionic md" >
   <i name="TEBEG">      0.00010000</i>
   <i name="TEEND">      0.00010000</i>
   <i type="int" name="NBLOCK">     1</i>
   <i type="int" name="KBLOCK">     1</i>
   <i type="int" name="NPACO">   256</i>
   <i name="APACO">     16.00000000</i>
  </separator>
  <separator name="symmetry" >
   <i type="int" name="ISYM">     2</i>
   <i name="SYMPREC">      0.00001000</i>
  </separator>
  <separator name="dos" >
   <i type="int" name="LORBIT">    10</i>
   <v name="RWIGS">     -1.00000000     -1.00000000     -1.00000000</v>
   <i type="int" name="NEDOS">   301</i>
   <i name="EMIN">     10.00000000</i>
   <i name="EMAX">    -10.00000000</i>
   <i name="EFERMI">      0.00000000</i>
  </separator>
  <separator name="writing" >
   <i type="int" name="NWRITE">     2</i>
   <i type="logical" name="LWAVE"> F  </i>
   <i type="logical" name="LDOWNSAMPLE"> F  </i>
   <i type="logical" name="LCHARG"> T  </i>
   <i type="logical" name="LPARD"> F  </i>
   <i type="logical" name="LVTOT"> F  </i>
   <i type="logical" name="LVHAR"> T  </i>
   <i type="logical" name="LELF"> F  </i>
   <i type="logical" name="LOPTICS"> F  </i>
   <v name="STM">      0.00000000      0.00000000      0.00000000      0.00000000      0.00000000      0.00000000      0.00000000</v>
  </separator>
  <separator name="performance" >
   <i type="int" name="NPAR">     8</i>
   <i type="int" name="NSIM">     4</i>
   <i type="int" name="NBLK">    -1</i>
   <i type="logical" name="LPLANE"> T  </i>
   <i type="logical" name="LSCALAPACK"> T  </i>
   <i type="logical" name="LSCAAWARE"> F  </i>
   <i type="logical" name="LSCALU"> F  </i>
   <i type="logical" name="LASYNC"> F  </i>
   <i type="logical" name="LORBITALREAL"> F  </i>
  </separator>
  <separator name="miscellaneous" >
   <i type="int" name="IDIOT">     3</i>
   <i type="int" name="ISPECIAL">     0</i>
   <i type="logical" name="LMUSIC"> F  </i>
   <v name="POMASS">    132.90000000    207.20000000     79.90400000</v>
   <v name="DARWINR">      0.00000000      0.00000000      0.00000000</v>
   <v name="DARWINV">      1.00000000      1.00000000      1.00000000</v>
   <i type="logical" name="LCORR"> T  </i>
  </separator>
  <i type="logical" name="GGA_COMPAT"> T  </i>
  <i type="logical" name="LBERRY"> F  </i>
  <i type="int" name="ICORELEVEL">     0</i>
  <i type="logical" name="LDAU"> F  </i>
  <i type="int" name="I_CONSTRAINED_M">     0</i>
  <separator name="electronic exchange-correlation" >
   <i type="string" name="GGA">--</i>
   <i type="int" name="VOSKOWN">     0</i>
   <i type="logical" name="LHFCALC"> F  </i>
   <i type="string" name="PRECFOCK"></i>
   <i type="logical" name="LSYMGRAD"> F  </i>
   <i type="logical" name="LHFONE"> F  </i>
   <i type="logical" name="LRHFCALC"> F  </i>
   <i type="logical" name="LTHOMAS"> F  </i>
   <i type="logical" name="LMODELHF"> F  </i>
   <i name="ENCUT4O">     -1.00000000</i>
   <i type="int" name="EXXOEP">     0</i>
   <i type="int" name="FOURORBIT">     0</i>
   <i name="AEXX">      0.00000000</i>
   <i name="HFALPHA">      0.00000000</i>
   <i name="MCALPHA">      0.00000000</i>
   <i name="ALDAX">      1.00000000</i>
   <i name="AGGAX">      1.00000000</i>
   <i name="ALDAC">      1.00000000</i>
   <i name="AGGAC">      1.00000000</i>
   <i type="int" name="NKREDX">     1</i>
   <i type="int" name="NKREDY">     1</i>
   <i type="int" name="NKREDZ">     1</i>
   <i type="logical" name="SHIFTRED"> F  </i>
   <i type="logical" name="ODDONLY"> F  </i>
   <i type="logical" name="EVENONLY"> F  </i>
   <i type="int" name="LMAXFOCK">     0</i>
   <i type="int" name="NMAXFOCKAE">     0</i>
   <i type="logical" name="LFOCKAEDFT"> F  </i>
   <i name="HFSCREEN">      0.00000000</i>
   <i name="HFSCREENC">      0.00000000</i>
   <i type="int" name="NBANDSGWLOW">     0</i>
  </separator>
  <separator name="vdW DFT" >
   <i type="logical" name="LUSE_VDW"> F  </i>
   <i name="Zab_VDW">     -0.84910000</i>
   <i name="PARAM1">      0.12340000</i>
   <i name="PARAM2">      1.00000000</i>
   <i name="PARAM3">      0.00000000</i>
  </separator>
  <separator name="model GW" >
   <i type="int" name="MODEL_GW">     0</i>
   <i name="MODEL_EPS0">     23.03199590</i>
   <i name="MODEL_ALPHA">      1.00000000</i>
  </separator>
  <separator name="linear response parameters" >
   <i type="logical" name="LEPSILON"> F  </i>
   <i type="logical" name="LRPA"> F  </i>
   <i type="logical" name="LNABLA"> F  </i>
   <i type="logical" name="LVEL"> F  </i>
   <i type="int" name="KINTER">     0</i>
   <i name="CSHIFT">      0.10000000</i>
   <i name="OMEGAMAX">     -1.00000000</i>
   <i name="DEG_THRESHOLD">      0.00200000</i>
   <i name="RTIME">     -0.10000000</i>
   <i name="WPLASMAI">      0.00000000</i>
   <v name="DFIELD">      0.00000000      0.00000000      0.00000000</v>
   <v name="WPLASMA">      0.00000000      0.00000000      0.00000000      0.00000000      0.00000000      0.00000000      0.00000000      0.00000000      0.00000000</v>
  </separator>
  <separator name="orbital magnetization" >
   <i type="logical" name="NUCIND"> F  </i>
   <v name="MAGPOS">      0.00000000      0.00000000      0.00000000</v>
   <i type="logical" name="LNICSALL"> T  </i>
   <i type="logical" name="ORBITALMAG"> F  </i>
   <i type="logical" name="LMAGBLOCH"> F  </i>
   <i type="logical" name="LCHIMAG"> F  </i>
   <i type="logical" name="LGAUGE"> T  </i>
   <i type="int" name="MAGATOM">     0</i>
   <v name="MAGDIPOL">      0.00000000      0.00000000      0.00000000</v>
   <v name="AVECCONST">      0.00000000      0.00000000      0.00000000</v>
  </separator>
  <separator name="response functions" >
   <i type="logical" name="LADDER"> F  </i>
   <i type="logical" name="LRPAFORCE"> F  </i>
   <i type="logical" name="LFXC"> F  </i>
   <i type="logical" name="LHARTREE"> T  </i>
   <i type="int" name="IBSE">     0</i>
   <v type="int" name="KPOINT">    -1     0     0     0</v>
   <i type="logical" name="LTCTE"> F  </i>
   <i type="logical" name="LTETE"> F  </i>
   <i type="logical" name="LTRIPLET"> F  </i>
   <i type="logical" name="LFXCEPS"> F  </i>
   <i type="logical" name="LFXHEG"> F  </i>
   <i type="int" name="NATURALO">     2</i>
   <i type="logical" name="L2ORDER"> F  </i>
   <i type="logical" name="LMP2LT"> F  </i>
   <i type="logical" name="LUSEW"> F  </i>
   <i name="ENCUTGW">     -2.00000000</i>
   <i name="ENCUTGWSOFT">     -2.00000000</i>
   <i name="ENCUTLF">     -1.00000000</i>
   <i type="int" name="LMAXMP2">    -1</i>
   <i name="SCISSOR">      0.00000000</i>
   <i type="int" name="NOMEGA">     0</i>
   <i type="int" name="NOMEGAR">     0</i>
   <i type="int" name="NBANDSGW">    -1</i>
   <i type="int" name="NBANDSO">    -1</i>
   <i type="int" name="NBANDSV">    -1</i>
   <i type="int" name="NELM">   200</i>
   <i type="int" name="NELMHF">     1</i>
   <i type="int" name="DIM">     3</i>
   <i type="int" name="ANTIRES">     0</i>
   <i name="OMEGAMAX">    -30.00000000</i>
   <i name="OMEGAMIN">    -30.00000000</i>
   <i name="OMEGATL">   -200.00000000</i>
   <i type="int" name="OMEGAGRID">   140</i>
   <i name="CSHIFT">     -0.10000000</i>
   <i type="logical" name="SELFENERGY"> F  </i>
   <i type="logical" name="LSPECTRAL"> F  </i>
   <i type="logical" name="LSPECTRALGW"> F  </i>
   <i type="logical" name="LSINGLES"> F  </i>
   <i type="logical" name="LFERMIGW"> F  </i>
   <i type="logical" name="ODDONLYGW"> F  </i>
   <i type="logical" name="EVENONLYGW"> F  </i>
   <i type="int" name="NKREDLFX">     1</i>
   <i type="int" name="NKREDLFY">     1</i>
   <i type="int" name="NKREDLFZ">     1</i>
   <i type="int" name="MAXMEM">  2800</i>
   <i type="int" name="TELESCOPE">     0</i>
   <i type="int" name="TAUPAR">     1</i>
   <i type="int" name="OMEGAPAR">    -1</i>
   <i name="LAMBDA">      1.00000000</i>
  </separator>
  <separator name="External order field" >
   <i name="OFIELD_KAPPA">      0.00000000</i>
   <v name="OFIELD_K">      0.00000000      0.00000000      0.00000000</v>
   <i name="OFIELD_Q6_NEAR">      0.00000000</i>
   <i name="OFIELD_Q6_FAR">      0.00000000</i>
   <i name="OFIELD_A">      0.00000000</i>
  </separator>
 </parameters>
 <atominfo>
  <atoms>      20 </atoms>
  <types>       3 </types>
  <array name="atoms" >
   <dimension dim="1">ion</dimension>
   <field type="string">element</field>
   <field type="int">atomtype</field>
   <set>
    <rc><c>Cs</c><c>   1</c></rc>
    <rc><c>Cs</c><c>   1</c></rc>
    <rc><c>Cs</c><c>   1</c></rc>
    <rc><c>Cs</c><c>   1</c></rc>
    <rc><c>Pb</c><c>   2</c></rc>
    <rc><c>Pb</c><c>   2</c></rc>
    <rc><c>Pb</c><c>   2</c></rc>
    <rc><c>Pb</c><c>   2</c></rc>
    <rc><c>Br</c><c>   3</c></rc>
    <rc><c>Br</c><c>   3</c></rc>
    <rc><c>Br</c><c>   3</c></rc>
    <rc><c>Br</c><c>   3</c></rc>
    <rc><c>Br</c><c>   3</c></rc>
    <rc><c>Br</c><c>   3</c></rc>
    <rc><c>Br</c><c>   3</c></rc>
    <rc><c>Br</c><c>   3</c></rc>
    <rc><c>Br</c><c>   3</c></rc>
    <rc><c>Br</c><c>   3</c></rc>
    <rc><c>Br</c><c>   3</c></rc>
    <rc><c>Br</c><c>   3</c></rc>
   </set>
  </array>
  <array name="atomtypes" >
   <dimension dim="1">type</dimension>
   <field type="int">atomspertype</field>
   <field type="string">element</field>
   <field>mass</field>
   <field>valence</field>
   <field type="string">pseudopotential</field>
   <set>
    <rc><c>   4</c><c>Cs</c><c>    132.90000000</c><c>      9.00000000</c><c>  PAW_PBE Cs_sv 08Apr2002               </c></rc>
    <rc><c>   4</c><c>Pb</c><c>    207.20000000</c><c>     14.00000000</c><c>  PAW_PBE Pb_d 06Sep2000                </c></rc>
    <rc><c>  12</c><c>Br</c><c>     79.90400000</c><c>      7.00000000</c><c>  PAW_PBE Br 06Sep2000                  </c></rc>
   </set>
  </array>
 </atominfo>
 <structure name="initialpos" >
  <crystal>
   <varray name="basis" >
    <v>       8.41320389       0.00000000       0.00000000 </v>
    <v>       0.00000000      11.70438635       0.00000000 </v>
    <v>      -0.00000000       0.00000000       7.79651031 </v>
   </varray>
   <i name="volume">    767.73319683 </i>
   <varray name="rec_basis" >
    <v>       0.11886078      -0.00000000       0.00000000 </v>
    <v>       0.00000000       0.08543805      -0.00000000 </v>
    <v>      -0.00000000       0.00000000       0.12826251 </v>
   </varray>
  </crystal>
  <varray name="positions" >
   <v>       0.07607096       0.25000000       0.47172528 </v>
   <v>       0.42392904       0.75000000       0.97172528 </v>
   <v>       0.57607096       0.25000000       0.02827472 </v>
   <v>       0.92392904       0.75000000       0.52827472 </v>
   <v>       0.00000000       0.00000000       0.00000000 </v>
   <v>       0.50000000       0.00000000       0.50000000 </v>
   <v>       0.50000000       0.50000000       0.50000000 </v>
   <v>       0.00000000       0.50000000       0.00000000 </v>
   <v>       0.50100940       0.75000000       0.43375268 </v>
   <v>       0.99899060       0.25000000       0.93375268 </v>
   <v>       0.00100940       0.75000000       0.06624732 </v>
   <v>       0.49899060       0.25000000       0.56624732 </v>
   <v>       0.30694969       0.46542476       0.18442285 </v>
   <v>       0.19305031       0.53457524       0.68442285 </v>
   <v>       0.80694969       0.03457524       0.31557715 </v>
   <v>       0.69305031       0.96542476       0.81557715 </v>
   <v>       0.30694969       0.03457524       0.18442285 </v>
   <v>       0.19305031       0.96542476       0.68442285 </v>
   <v>       0.69305031       0.53457524       0.81557715 </v>
   <v>       0.80694969       0.46542476       0.31557715 </v>
  </varray>
 </structure>
 <calculation>
  <scstep>
   <time name="dav">    3.89    3.89</time>
   <time name="total">    5.16    5.18</time>
   <energy>
    <i name="alphaZ">    469.96656553 </i>
    <i name="ewald">  -9391.32987447 </i>
    <i name="hartreedc">  -3558.94269542 </i>
    <i name="XCdc">    463.09353538 </i>
    <i name="pawpsdc">  10816.98087266 </i>
    <i name="pawaedc"> -11353.96092700 </i>
    <i name="eentropy">     -0.00001794 </i>
    <i name="bandstr">    -54.37286308 </i>
    <i name="atom">  13290.28009929 </i>
    <i name="e_fr_energy">    681.71469496 </i>
    <i name="e_wo_entrp">    681.71471289 </i>
    <i name="e_0_energy">    681.71470392 </i>
   </energy>
  </scstep>
  <scstep>
   <time name="dav">    4.40    4.43</time>
   <time name="total">    4.40    4.43</time>
   <energy>
    <i name="e_fr_energy">   -575.58045642 </i>
    <i name="e_wo_entrp">   -575.58045642 </i>
    <i name="e_0_energy">   -575.58045642 </i>
   </energy>
  </scstep>
  <scstep>
   <time name="dav">    4.68    4.72</time>
   <time name="total">    4.68    4.72</time>
   <energy>
    <i name="e_fr_energy">   -748.70146673 </i>
    <i name="e_wo_entrp">   -748.70146673 </i>
    <i name="e_0_energy">   -748.70146673 </i>
   </energy>
  </scstep>
  <scstep>
   <time name="dav">    4.37    4.37</time>
   <time name="total">    4.37    4.37</time>
   <energy>
    <i name="e_fr_energy">   -754.36458789 </i>
    <i name="e_wo_entrp">   -754.36458789 </i>
    <i name="e_0_energy">   -754.36458789 </i>
   </energy>
  </scstep>
  <scstep>
   <time name="dav">    4.69    4.72</time>
   <time name="total">    5.55    5.58</time>
   <energy>
    <i name="e_fr_energy">   -754.63867301 </i>
    <i name="e_wo_entrp">   -754.63867301 </i>
    <i name="e_0_energy">   -754.63867301 </i>
   </energy>
  </scstep>
  <scstep>
   <time name="dav">    4.62    4.62</time>
   <time name="total">    6.79    6.80</time>
   <energy>
    <i name="e_fr_energy">   -714.93784012 </i>
    <i name="e_wo_entrp">   -714.93784012 </i>
    <i name="e_0_energy">   -714.93784012 </i>
   </energy>
  </scstep>
  <scstep>
   <time name="dav">    4.46    4.46</time>
   <time name="total">    6.61    6.62</time>
   <energy>
    <i name="e_fr_energy">   -714.71105782 </i>
    <i name="e_wo_entrp">   -714.71105782 </i>
    <i name="e_0_energy">   -714.71105782 </i>
   </energy>
  </scstep>
  <scstep>
   <time name="dav">    4.30    4.30</time>
   <time name="total">    6.43    6.46</time>
   <energy>
    <i name="e_fr_energy">   -714.79855994 </i>
    <i name="e_wo_entrp">   -714.79855994 </i>
    <i name="e_0_energy">   -714.79855994 </i>
   </energy>
  </scstep>
  <scstep>
   <time name="dav">    4.08    4.08</time>
   <time name="total">    6.23    6.23</time>
   <energy>
    <i name="e_fr_energy">   -714.83338677 </i>
    <i name="e_wo_entrp">   -714.83338677 </i>
    <i name="e_0_energy">   -714.83338677 </i>
   </energy>
  </scstep>
  <scstep>
   <time name="dav">    4.86    4.86</time>
   <time name="total">    6.98    7.01</time>
   <energy>
    <i name="e_fr_energy">   -714.83401341 </i>
    <i name="e_wo_entrp">   -714.83401341 </i>
    <i name="e_0_energy">   -714.83401341 </i>
   </energy>
  </scstep>
  <scstep>
   <time name="dav">    4.10    4.10</time>
   <time name="total">    6.25    6.25</time>
   <energy>
    <i name="e_fr_energy">   -714.83510071 </i>
    <i name="e_wo_entrp">   -714.83510071 </i>
    <i name="e_0_energy">   -714.83510071 </i>
   </energy>
  </scstep>
  <scstep>
   <time name="dav">    4.31    4.31</time>
   <time name="total">    6.45    6.46</time>
   <energy>
    <i name="e_fr_energy">   -714.83525390 </i>
    <i name="e_wo_entrp">   -714.83525390 </i>
    <i name="e_0_energy">   -714.83525390 </i>
   </energy>
  </scstep>
  <scstep>
   <time name="dav">    4.64    4.64</time>
   <time name="total">    6.75    6.80</time>
   <energy>
    <i name="e_fr_energy">   -714.83524966 </i>
    <i name="e_wo_entrp">   -714.83524966 </i>
    <i name="e_0_energy">   -714.83524966 </i>
   </energy>
  </scstep>
  <scstep>
   <time name="dav">    3.97    3.97</time>
   <time name="total">    6.10    6.14</time>
   <energy>
    <i name="e_fr_energy">   -714.83526079 </i>
    <i name="e_wo_entrp">   -714.83526079 </i>
    <i name="e_0_energy">   -714.83526079 </i>
   </energy>
  </scstep>
  <scstep>
   <time name="dav">    3.21    3.21</time>
   <time name="total">    5.32    5.37</time>
   <energy>
    <i name="e_fr_energy">   -714.83526913 </i>
    <i name="e_wo_entrp">   -714.83526913 </i>
    <i name="e_0_energy">   -714.83526913 </i>
   </energy>
  </scstep>
  <scstep>
   <time name="dav">    3.14    3.14</time>
   <time name="total">    5.29    5.30</time>
   <energy>
    <i name="e_fr_energy">   -714.83526536 </i>
    <i name="e_wo_entrp">   -714.83526536 </i>
    <i name="e_0_energy">   -714.83526536 </i>
   </energy>
  </scstep>
  <scstep>
   <time name="dav">    2.99    2.99</time>
   <time name="total">    5.11    5.15</time>
   <energy>
    <i name="e_fr_energy">   -714.83526388 </i>
    <i name="e_wo_entrp">   -714.83526388 </i>
    <i name="e_0_energy">   -714.83526388 </i>
   </energy>
  </scstep>
  <scstep>
   <time name="dav">    2.98    2.98</time>
   <time name="total">    4.29    4.30</time>
   <energy>
    <i name="alphaZ">    469.96656553 </i>
    <i name="ewald">  -9391.32987447 </i>
    <i name="hartreedc">  -3571.31994755 </i>
    <i name="XCdc">    482.35395111 </i>
    <i name="pawpsdc">  11627.25664306 </i>
    <i name="pawaedc"> -12164.01163191 </i>
    <i name="eentropy">     -0.00000000 </i>
    <i name="bandstr">  -1458.03106873 </i>
    <i name="atom">  13290.28009929 </i>
    <i name="e_fr_energy">   -714.83526367 </i>
    <i name="e_wo_entrp">   -714.83526367 </i>
    <i name="e_0_energy">   -714.83526367 </i>
   </energy>
  </scstep>
  <structure>
   <crystal>
    <varray name="basis" >
     <v>       8.41320389       0.00000000       0.00000000 </v>
     <v>       0.00000000      11.70438635       0.00000000 </v>
     <v>      -0.00000000       0.00000000       7.79651031 </v>
    </varray>
    <i name="volume">    767.73319683 </i>
    <varray name="rec_basis" >
     <v>       0.11886078      -0.00000000       0.00000000 </v>
     <v>       0.00000000       0.08543805      -0.00000000 </v>
     <v>      -0.00000000       0.00000000       0.12826251 </v>
    </varray>
   </crystal>
   <varray name="positions" >
    <v>       0.07607096       0.25000000       0.47172528 </v>
    <v>       0.42392904       0.75000000       0.97172528 </v>
    <v>       0.57607096       0.25000000       0.02827472 </v>
    <v>       0.92392904       0.75000000       0.52827472 </v>
    <v>       0.00000000       0.00000000       0.00000000 </v>
    <v>       0.50000000       0.00000000       0.50000000 </v>
    <v>       0.50000000       0.50000000       0.50000000 </v>
    <v>       0.00000000       0.50000000       0.00000000 </v>
    <v>       0.50100940       0.75000000       0.43375268 </v>
    <v>       0.99899060       0.25000000       0.93375268 </v>
    <v>       0.00100940       0.75000000       0.06624732 </v>
    <v>       0.49899060       0.25000000       0.56624732 </v>
    <v>       0.30694969       0.46542476       0.18442285 </v>
    <v>       0.19305031       0.53457524       0.68442285 </v>
    <v>       0.80694969       0.03457524       0.31557715 </v>
    <v>       0.69305031       0.96542476       0.81557715 </v>
    <v>       0.30694969       0.03457524       0.18442285 </v>
    <v>       0.19305031       0.96542476       0.68442285 </v>
    <v>       0.69305031       0.53457524       0.81557715 </v>
    <v>       0.80694969       0.46542476       0.31557715 </v>
   </varray>
  </structure>
  <varray name="forces" >
   <v>       0.00625370       0.00000000       0.00366576 </v>
   <v>      -0.00625370       0.00000000       0.00366576 </v>
   <v>       0.00625370       0.00000000      -0.00366576 </v>
   <v>      -0.00625370       0.00000000      -0.00366576 </v>
   <v>       0.00000000       0.00000000      -0.00000000 </v>
   <v>       0.00000000       0.00000000      -0.00000000 </v>
   <v>       0.00000000       0.00000000      -0.00000000 </v>
   <v>       0.00000000       0.00000000      -0.00000000 </v>
   <v>       0.00139763       0.00000000      -0.02740994 </v>
   <v>      -0.00139763       0.00000000      -0.02740994 </v>
   <v>       0.00139763       0.00000000       0.02740994 </v>
   <v>      -0.00139763       0.00000000       0.02740994 </v>
   <v>       0.00270340      -0.00301987      -0.01243024 </v>
   <v>      -0.00270340       0.00301987      -0.01243024 </v>
   <v>       0.00270340       0.00301987       0.01243024 </v>
   <v>      -0.00270340      -0.00301987       0.01243024 </v>
   <v>       0.00270340       0.00301987      -0.01243024 </v>
   <v>      -0.00270340      -0.00301987      -0.01243024 </v>
   <v>      -0.00270340       0.00301987       0.01243024 </v>
   <v>       0.00270340      -0.00301987       0.01243024 </v>
  </varray>
  <varray name="stress" >
   <v>       6.56489101       0.00000000       0.00000000 </v>
   <v>       0.00000000       7.13279690       0.00000000 </v>
   <v>       0.00000000       0.00000000       6.75999615 </v>
  </varray>
  <energy>
   <i name="e_fr_energy">   -714.83526367 </i>
   <i name="e_wo_entrp">   -714.83526367 </i>
   <i name="e_0_energy">     -0.00000000 </i>
  </energy>
  <time name="totalsc">  120.34  121.05</time>
  <eigenvalues>
   <array>
    <dimension dim="1">band</dimension>
    <dimension dim="2">kpoint</dimension>
    <dimension dim="3">spin</dimension>
    <field>eigene</field>
    <field>occ</field>
    <set>
     <set comment="spin 1">
      <set comment="kpoint 1">
       <r>  -20.4186    1.0000 </r>
       <r>  -20.4162    1.0000 </r>
       <r>  -20.4127    1.0000 </r>
       <r>  -20.4113    1.0000 </r>
       <r>  -16.1699    1.0000 </r>
       <r>  -16.1582    1.0000 </r>
       <r>  -16.1579    1.0000 </r>
       <r>  -16.1396    1.0000 </r>
       <r>  -16.1033    1.0000 </r>
       <r>  -16.0649    1.0000 </r>
       <r>  -16.0552    1.0000 </r>
       <r>  -16.0551    1.0000 </r>
       <r>  -15.9920    1.0000 </r>
       <r>  -15.9913    1.0000 </r>
       <r>  -15.9905    1.0000 </r>
       <r>  -15.9902    1.0000 </r>
       <r>  -15.9861    1.0000 </r>
       <r>  -15.9855    1.0000 </r>
       <r>  -15.9848    1.0000 </r>
       <r>  -15.9842    1.0000 </r>
       <r>  -15.9743    1.0000 </r>
       <r>  -15.9737    1.0000 </r>
       <r>  -15.9729    1.0000 </r>
       <r>  -15.9724    1.0000 </r>
       <r>  -14.1564    1.0000 </r>
       <r>  -13.9650    1.0000 </r>
       <r>  -13.8237    1.0000 </r>
       <r>  -13.8203    1.0000 </r>
       <r>  -13.8044    1.0000 </r>
       <r>  -13.8011    1.0000 </r>
       <r>  -13.7628    1.0000 </r>
       <r>  -13.7556    1.0000 </r>
       <r>  -13.7428    1.0000 </r>
       <r>  -13.5071    1.0000 </r>
       <r>  -13.5002    1.0000 </r>
       <r>  -13.4978    1.0000 </r>
       <r>   -7.9547    1.0000 </r>
       <r>   -7.4245    1.0000 </r>
       <r>   -6.9085    1.0000 </r>
       <r>   -6.9029    1.0000 </r>
       <r>   -6.8806    1.0000 </r>
       <r>   -6.8755    1.0000 </r>
       <r>   -6.8650    1.0000 </r>
       <r>   -6.8604    1.0000 </r>
       <r>   -6.8530    1.0000 </r>
       <r>   -6.8398    1.0000 </r>
       <r>   -6.8362    1.0000 </r>
       <r>   -6.8314    1.0000 </r>
       <r>   -6.8083    1.0000 </r>
       <r>   -6.8015    1.0000 </r>
       <r>   -6.7614    1.0000 </r>
       <r>   -6.2151    1.0000 </r>
       <r>   -3.1629    1.0000 </r>
       <r>   -3.1096    1.0000 </r>
       <r>   -3.0390    1.0000 </r>
       <r>   -2.9529    1.0000 </r>
       <r>   -2.9429    1.0000 </r>
       <r>   -2.8854    1.0000 </r>
       <r>   -1.9734    1.0000 </r>
       <r>   -1.7202    1.0000 </r>
       <r>   -1.6703    1.0000 </r>
       <r>   -1.6298    1.0000 </r>
       <r>   -1.6151    1.0000 </r>
       <r>   -1.5435    1.0000 </r>
       <r>   -1.4133    1.0000 </r>
       <r>   -1.3142    1.0000 </r>
       <r>   -1.3131    1.0000 </r>
       <r>   -1.2881    1.0000 </r>
       <r>   -1.1894    1.0000 </r>
       <r>   -1.1797    1.0000 </r>
       <r>   -1.1788    1.0000 </r>
       <r>   -1.1734    1.0000 </r>
       <r>   -1.1526    1.0000 </r>
       <r>   -1.1353    1.0000 </r>
       <r>   -1.1132    1.0000 </r>
       <r>   -1.1069    1.0000 </r>
       <r>   -1.0693    1.0000 </r>
       <r>   -0.8697    1.0000 </r>
       <r>   -0.8694    1.0000 </r>
       <r>   -0.8652    1.0000 </r>
       <r>   -0.8579    1.0000 </r>
       <r>   -0.8036    1.0000 </r>
       <r>   -0.7555    1.0000 </r>
       <r>   -0.7472    1.0000 </r>
       <r>   -0.5320    1.0000 </r>
       <r>   -0.2832    1.0000 </r>
       <r>    0.1887    1.0000 </r>
       <r>    0.8093    1.0000 </r>
       <r>    3.0402    0.0000 </r>
       <r>    3.0812    0.0000 </r>
       <r>    3.2982    0.0000 </r>
       <r>    3.4694    0.0000 </r>
       <r>    3.7636    0.0000 </r>
       <r>    3.8279    0.0000 </r>
       <r>    5.3165    0.0000 </r>
       <r>    6.0180    0.0000 </r>
       <r>    6.1563    0.0000 </r>
       <r>    6.1766    0.0000 </r>
       <r>    6.3166    0.0000 </r>
       <r>    6.3423    0.0000 </r>
       <r>    6.4843    0.0000 </r>
       <r>    6.5519    0.0000 </r>
       <r>    6.5960    0.0000 </r>
       <r>    6.7719    0.0000 </r>
       <r>    6.8404    0.0000 </r>
       <r>    6.9313    0.0000 </r>
       <r>    7.0088    0.0000 </r>
       <r>    7.0862    0.0000 </r>
       <r>    7.2360    0.0000 </r>
       <r>    7.3810    0.0000 </r>
       <r>    7.3935    0.0000 </r>
       <r>    7.5212    0.0000 </r>
      </set>
      <set comment="kpoint 2">
       <r>  -20.4173    1.0000 </r>
       <r>  -20.4151    1.0000 </r>
       <r>  -20.4142    1.0000 </r>
       <r>  -20.4126    1.0000 </r>
       <r>  -16.1621    1.0000 </r>
       <r>  -16.1469    1.0000 </r>
       <r>  -16.1339    1.0000 </r>
       <r>  -16.1337    1.0000 </r>
       <r>  -16.0936    1.0000 </r>
       <r>  -16.0826    1.0000 </r>
       <r>  -16.0825    1.0000 </r>
       <r>  -16.0743    1.0000 </r>
       <r>  -15.9919    1.0000 </r>
       <r>  -15.9914    1.0000 </r>
       <r>  -15.9906    1.0000 </r>
       <r>  -15.9903    1.0000 </r>
       <r>  -15.9859    1.0000 </r>
       <r>  -15.9852    1.0000 </r>
       <r>  -15.9852    1.0000 </r>
       <r>  -15.9846    1.0000 </r>
       <r>  -15.9740    1.0000 </r>
       <r>  -15.9734    1.0000 </r>
       <r>  -15.9734    1.0000 </r>
       <r>  -15.9729    1.0000 </r>
       <r>  -14.1056    1.0000 </r>
       <r>  -13.9663    1.0000 </r>
       <r>  -13.9274    1.0000 </r>
       <r>  -13.8455    1.0000 </r>
       <r>  -13.8196    1.0000 </r>
       <r>  -13.8167    1.0000 </r>
       <r>  -13.6968    1.0000 </r>
       <r>  -13.6899    1.0000 </r>
       <r>  -13.6180    1.0000 </r>
       <r>  -13.5654    1.0000 </r>
       <r>  -13.5612    1.0000 </r>
       <r>  -13.5320    1.0000 </r>
       <r>   -7.7374    1.0000 </r>
       <r>   -7.2402    1.0000 </r>
       <r>   -7.2051    1.0000 </r>
       <r>   -6.9153    1.0000 </r>
       <r>   -6.8726    1.0000 </r>
       <r>   -6.8648    1.0000 </r>
       <r>   -6.8599    1.0000 </r>
       <r>   -6.8458    1.0000 </r>
       <r>   -6.8401    1.0000 </r>
       <r>   -6.8338    1.0000 </r>
       <r>   -6.8280    1.0000 </r>
       <r>   -6.8083    1.0000 </r>
       <r>   -6.8075    1.0000 </r>
       <r>   -6.7967    1.0000 </r>
       <r>   -6.7808    1.0000 </r>
       <r>   -6.5805    1.0000 </r>
       <r>   -3.0788    1.0000 </r>
       <r>   -2.9785    1.0000 </r>
       <r>   -2.7597    1.0000 </r>
       <r>   -2.6257    1.0000 </r>
       <r>   -2.5499    1.0000 </r>
       <r>   -2.5326    1.0000 </r>
       <r>   -2.0434    1.0000 </r>
       <r>   -1.9215    1.0000 </r>
       <r>   -1.8831    1.0000 </r>
       <r>   -1.7827    1.0000 </r>
       <r>   -1.7806    1.0000 </r>
       <r>   -1.7357    1.0000 </r>
       <r>   -1.5696    1.0000 </r>
       <r>   -1.4536    1.0000 </r>
       <r>   -1.4261    1.0000 </r>
       <r>   -1.3924    1.0000 </r>
       <r>   -1.2365    1.0000 </r>
       <r>   -1.2128    1.0000 </r>
       <r>   -1.1683    1.0000 </r>
       <r>   -1.1581    1.0000 </r>
       <r>   -1.1361    1.0000 </r>
       <r>   -1.1112    1.0000 </r>
       <r>   -1.0805    1.0000 </r>
       <r>   -1.0724    1.0000 </r>
       <r>   -1.0114    1.0000 </r>
       <r>   -0.9502    1.0000 </r>
       <r>   -0.9477    1.0000 </r>
       <r>   -0.8788    1.0000 </r>
       <r>   -0.8642    1.0000 </r>
       <r>   -0.8463    1.0000 </r>
       <r>   -0.7889    1.0000 </r>
       <r>   -0.7367    1.0000 </r>
       <r>   -0.4822    1.0000 </r>
       <r>   -0.3169    1.0000 </r>
       <r>   -0.1357    1.0000 </r>
       <r>    0.2971    1.0000 </r>
       <r>    3.2516    0.0000 </r>
       <r>    3.6036    0.0000 </r>
       <r>    3.8061    0.0000 </r>
       <r>    4.1739    0.0000 </r>
       <r>    4.1871    0.0000 </r>
       <r>    4.5686    0.0000 </r>
       <r>    5.3112    0.0000 </r>
       <r>    5.5396    0.0000 </r>
       <r>    5.6372    0.0000 </r>
       <r>    5.6480    0.0000 </r>
       <r>    6.1945    0.0000 </r>
       <r>    6.1959    0.0000 </r>
       <r>    6.5119    0.0000 </r>
       <r>    6.5722    0.0000 </r>
       <r>    6.7589    0.0000 </r>
       <r>    6.7719    0.0000 </r>
       <r>    6.7962    0.0000 </r>
       <r>    6.8285    0.0000 </r>
       <r>    6.9035    0.0000 </r>
       <r>    7.1152    0.0000 </r>
       <r>    7.2882    0.0000 </r>
       <r>    7.3300    0.0000 </r>
       <r>    7.4181    0.0000 </r>
       <r>    7.5511    0.0000 </r>
      </set>
      <set comment="kpoint 3">
       <r>  -20.4175    1.0000 </r>
       <r>  -20.4175    1.0000 </r>
       <r>  -20.4120    1.0000 </r>
       <r>  -20.4120    1.0000 </r>
       <r>  -16.1580    1.0000 </r>
       <r>  -16.1580    1.0000 </r>
       <r>  -16.1370    1.0000 </r>
       <r>  -16.1370    1.0000 </r>
       <r>  -16.1030    1.0000 </r>
       <r>  -16.1030    1.0000 </r>
       <r>  -16.0553    1.0000 </r>
       <r>  -16.0553    1.0000 </r>
       <r>  -15.9914    1.0000 </r>
       <r>  -15.9914    1.0000 </r>
       <r>  -15.9908    1.0000 </r>
       <r>  -15.9908    1.0000 </r>
       <r>  -15.9859    1.0000 </r>
       <r>  -15.9859    1.0000 </r>
       <r>  -15.9846    1.0000 </r>
       <r>  -15.9846    1.0000 </r>
       <r>  -15.9740    1.0000 </r>
       <r>  -15.9740    1.0000 </r>
       <r>  -15.9727    1.0000 </r>
       <r>  -15.9727    1.0000 </r>
       <r>  -14.0975    1.0000 </r>
       <r>  -14.0975    1.0000 </r>
       <r>  -13.8087    1.0000 </r>
       <r>  -13.8087    1.0000 </r>
       <r>  -13.7765    1.0000 </r>
       <r>  -13.7765    1.0000 </r>
       <r>  -13.7596    1.0000 </r>
       <r>  -13.7596    1.0000 </r>
       <r>  -13.6259    1.0000 </r>
       <r>  -13.6259    1.0000 </r>
       <r>  -13.4989    1.0000 </r>
       <r>  -13.4989    1.0000 </r>
       <r>   -7.7103    1.0000 </r>
       <r>   -7.7103    1.0000 </r>
       <r>   -6.8924    1.0000 </r>
       <r>   -6.8924    1.0000 </r>
       <r>   -6.8777    1.0000 </r>
       <r>   -6.8777    1.0000 </r>
       <r>   -6.8426    1.0000 </r>
       <r>   -6.8426    1.0000 </r>
       <r>   -6.8281    1.0000 </r>
       <r>   -6.8281    1.0000 </r>
       <r>   -6.8261    1.0000 </r>
       <r>   -6.8261    1.0000 </r>
       <r>   -6.8103    1.0000 </r>
       <r>   -6.8103    1.0000 </r>
       <r>   -6.6026    1.0000 </r>
       <r>   -6.6026    1.0000 </r>
       <r>   -3.0672    1.0000 </r>
       <r>   -3.0672    1.0000 </r>
       <r>   -2.9832    1.0000 </r>
       <r>   -2.9832    1.0000 </r>
       <r>   -2.2488    1.0000 </r>
       <r>   -2.2488    1.0000 </r>
       <r>   -2.1048    1.0000 </r>
       <r>   -2.1048    1.0000 </r>
       <r>   -1.8276    1.0000 </r>
       <r>   -1.8276    1.0000 </r>
       <r>   -1.5821    1.0000 </r>
       <r>   -1.5821    1.0000 </r>
       <r>   -1.5394    1.0000 </r>
       <r>   -1.5394    1.0000 </r>
       <r>   -1.2714    1.0000 </r>
       <r>   -1.2714    1.0000 </r>
       <r>   -1.2419    1.0000 </r>
       <r>   -1.2419    1.0000 </r>
       <r>   -1.1738    1.0000 </r>
       <r>   -1.1738    1.0000 </r>
       <r>   -1.1068    1.0000 </r>
       <r>   -1.1068    1.0000 </r>
       <r>   -1.0948    1.0000 </r>
       <r>   -1.0948    1.0000 </r>
       <r>   -0.9457    1.0000 </r>
       <r>   -0.9457    1.0000 </r>
       <r>   -0.9342    1.0000 </r>
       <r>   -0.9342    1.0000 </r>
       <r>   -0.8771    1.0000 </r>
       <r>   -0.8771    1.0000 </r>
       <r>   -0.7912    1.0000 </r>
       <r>   -0.7912    1.0000 </r>
       <r>   -0.5405    1.0000 </r>
       <r>   -0.5405    1.0000 </r>
       <r>    0.3247    1.0000 </r>
       <r>    0.3247    1.0000 </r>
       <r>    3.2658    0.0000 </r>
       <r>    3.2658    0.0000 </r>
       <r>    3.5284    0.0000 </r>
       <r>    3.5284    0.0000 </r>
       <r>    4.6764    0.0000 </r>
       <r>    4.6764    0.0000 </r>
       <r>    5.2230    0.0000 </r>
       <r>    5.2230    0.0000 </r>
       <r>    5.9556    0.0000 </r>
       <r>    5.9556    0.0000 </r>
       <r>    6.2892    0.0000 </r>
       <r>    6.2892    0.0000 </r>
       <r>    6.4978    0.0000 </r>
       <r>    6.4978    0.0000 </r>
       <r>    6.5622    0.0000 </r>
       <r>    6.5622    0.0000 </r>
       <r>    6.7871    0.0000 </r>
       <r>    6.7871    0.0000 </r>
       <r>    7.0075    0.0000 </r>
       <r>    7.0075    0.0000 </r>
       <r>    7.2203    0.0000 </r>
       <r>    7.2203    0.0000 </r>
       <r>    7.3434    0.0000 </r>
       <r>    7.3484    0.0000 </r>
      </set>
      <set comment="kpoint 4">
       <r>  -20.4161    1.0000 </r>
       <r>  -20.4161    1.0000 </r>
       <r>  -20.4134    1.0000 </r>
       <r>  -20.4134    1.0000 </r>
       <r>  -16.1338    1.0000 </r>
       <r>  -16.1338    1.0000 </r>
       <r>  -16.1282    1.0000 </r>
       <r>  -16.1282    1.0000 </r>
       <r>  -16.1113    1.0000 </r>
       <r>  -16.1113    1.0000 </r>
       <r>  -16.0825    1.0000 </r>
       <r>  -16.0825    1.0000 </r>
       <r>  -15.9912    1.0000 </r>
       <r>  -15.9912    1.0000 </r>
       <r>  -15.9909    1.0000 </r>
       <r>  -15.9909    1.0000 </r>
       <r>  -15.9856    1.0000 </r>
       <r>  -15.9856    1.0000 </r>
       <r>  -15.9849    1.0000 </r>
       <r>  -15.9849    1.0000 </r>
       <r>  -15.9738    1.0000 </r>
       <r>  -15.9738    1.0000 </r>
       <r>  -15.9731    1.0000 </r>
       <r>  -15.9731    1.0000 </r>
       <r>  -14.0524    1.0000 </r>
       <r>  -14.0524    1.0000 </r>
       <r>  -13.9343    1.0000 </r>
       <r>  -13.9343    1.0000 </r>
       <r>  -13.6949    1.0000 </r>
       <r>  -13.6949    1.0000 </r>
       <r>  -13.6880    1.0000 </r>
       <r>  -13.6880    1.0000 </r>
       <r>  -13.6376    1.0000 </r>
       <r>  -13.6376    1.0000 </r>
       <r>  -13.5633    1.0000 </r>
       <r>  -13.5633    1.0000 </r>
       <r>   -7.4925    1.0000 </r>
       <r>   -7.4925    1.0000 </r>
       <r>   -7.0002    1.0000 </r>
       <r>   -7.0002    1.0000 </r>
       <r>   -6.8760    1.0000 </r>
       <r>   -6.8760    1.0000 </r>
       <r>   -6.8737    1.0000 </r>
       <r>   -6.8737    1.0000 </r>
       <r>   -6.8342    1.0000 </r>
       <r>   -6.8342    1.0000 </r>
       <r>   -6.8224    1.0000 </r>
       <r>   -6.8224    1.0000 </r>
       <r>   -6.8125    1.0000 </r>
       <r>   -6.8125    1.0000 </r>
       <r>   -6.7670    1.0000 </r>
       <r>   -6.7670    1.0000 </r>
       <r>   -2.6962    1.0000 </r>
       <r>   -2.6962    1.0000 </r>
       <r>   -2.6318    1.0000 </r>
       <r>   -2.6318    1.0000 </r>
       <r>   -2.2226    1.0000 </r>
       <r>   -2.2226    1.0000 </r>
       <r>   -2.1641    1.0000 </r>
       <r>   -2.1641    1.0000 </r>
       <r>   -1.9600    1.0000 </r>
       <r>   -1.9600    1.0000 </r>
       <r>   -1.8497    1.0000 </r>
       <r>   -1.8497    1.0000 </r>
       <r>   -1.5142    1.0000 </r>
       <r>   -1.5142    1.0000 </r>
       <r>   -1.4376    1.0000 </r>
       <r>   -1.4376    1.0000 </r>
       <r>   -1.3175    1.0000 </r>
       <r>   -1.3175    1.0000 </r>
       <r>   -1.2887    1.0000 </r>
       <r>   -1.2887    1.0000 </r>
       <r>   -1.1399    1.0000 </r>
       <r>   -1.1399    1.0000 </r>
       <r>   -1.1178    1.0000 </r>
       <r>   -1.1178    1.0000 </r>
       <r>   -0.8853    1.0000 </r>
       <r>   -0.8853    1.0000 </r>
       <r>   -0.8824    1.0000 </r>
       <r>   -0.8824    1.0000 </r>
       <r>   -0.8401    1.0000 </r>
       <r>   -0.8401    1.0000 </r>
       <r>   -0.8215    1.0000 </r>
       <r>   -0.8215    1.0000 </r>
       <r>   -0.4699    1.0000 </r>
       <r>   -0.4699    1.0000 </r>
       <r>   -0.1898    1.0000 </r>
       <r>   -0.1898    1.0000 </r>
       <r>    3.9845    0.0000 </r>
       <r>    3.9845    0.0000 </r>
       <r>    4.3309    0.0000 </r>
       <r>    4.3309    0.0000 </r>
       <r>    4.8293    0.0000 </r>
       <r>    4.8293    0.0000 </r>
       <r>    5.0513    0.0000 </r>
       <r>    5.0513    0.0000 </r>
       <r>    5.4541    0.0000 </r>
       <r>    5.4541    0.0000 </r>
       <r>    5.7209    0.0000 </r>
       <r>    5.7209    0.0000 </r>
       <r>    6.4538    0.0000 </r>
       <r>    6.4538    0.0000 </r>
       <r>    6.6408    0.0000 </r>
       <r>    6.6408    0.0000 </r>
       <r>    6.9604    0.0000 </r>
       <r>    6.9604    0.0000 </r>
       <r>    6.9766    0.0000 </r>
       <r>    6.9766    0.0000 </r>
       <r>    7.1554    0.0000 </r>
       <r>    7.1554    0.0000 </r>
       <r>    7.2176    0.0000 </r>
       <r>    7.2176    0.0000 </r>
      </set>
      <set comment="kpoint 5">
       <r>  -20.4173    1.0000 </r>
       <r>  -20.4157    1.0000 </r>
       <r>  -20.4134    1.0000 </r>
       <r>  -20.4123    1.0000 </r>
       <r>  -16.1619    1.0000 </r>
       <r>  -16.1469    1.0000 </r>
       <r>  -16.1342    1.0000 </r>
       <r>  -16.1340    1.0000 </r>
       <r>  -16.0935    1.0000 </r>
       <r>  -16.0829    1.0000 </r>
       <r>  -16.0828    1.0000 </r>
       <r>  -16.0743    1.0000 </r>
       <r>  -15.9919    1.0000 </r>
       <r>  -15.9916    1.0000 </r>
       <r>  -15.9906    1.0000 </r>
       <r>  -15.9903    1.0000 </r>
       <r>  -15.9859    1.0000 </r>
       <r>  -15.9853    1.0000 </r>
       <r>  -15.9851    1.0000 </r>
       <r>  -15.9847    1.0000 </r>
       <r>  -15.9740    1.0000 </r>
       <r>  -15.9735    1.0000 </r>
       <r>  -15.9733    1.0000 </r>
       <r>  -15.9729    1.0000 </r>
       <r>  -14.0989    1.0000 </r>
       <r>  -13.9440    1.0000 </r>
       <r>  -13.9173    1.0000 </r>
       <r>  -13.8212    1.0000 </r>
       <r>  -13.8196    1.0000 </r>
       <r>  -13.8126    1.0000 </r>
       <r>  -13.7341    1.0000 </r>
       <r>  -13.7241    1.0000 </r>
       <r>  -13.6084    1.0000 </r>
       <r>  -13.5755    1.0000 </r>
       <r>  -13.5728    1.0000 </r>
       <r>  -13.5290    1.0000 </r>
       <r>   -7.7324    1.0000 </r>
       <r>   -7.2214    1.0000 </r>
       <r>   -7.1992    1.0000 </r>
       <r>   -6.8776    1.0000 </r>
       <r>   -6.8761    1.0000 </r>
       <r>   -6.8671    1.0000 </r>
       <r>   -6.8620    1.0000 </r>
       <r>   -6.8436    1.0000 </r>
       <r>   -6.8339    1.0000 </r>
       <r>   -6.8295    1.0000 </r>
       <r>   -6.8235    1.0000 </r>
       <r>   -6.8145    1.0000 </r>
       <r>   -6.8081    1.0000 </r>
       <r>   -6.7945    1.0000 </r>
       <r>   -6.7809    1.0000 </r>
       <r>   -6.5733    1.0000 </r>
       <r>   -3.0837    1.0000 </r>
       <r>   -2.9813    1.0000 </r>
       <r>   -2.8246    1.0000 </r>
       <r>   -2.6771    1.0000 </r>
       <r>   -2.5135    1.0000 </r>
       <r>   -2.4131    1.0000 </r>
       <r>   -2.1163    1.0000 </r>
       <r>   -1.8837    1.0000 </r>
       <r>   -1.8620    1.0000 </r>
       <r>   -1.8167    1.0000 </r>
       <r>   -1.7474    1.0000 </r>
       <r>   -1.6122    1.0000 </r>
       <r>   -1.5669    1.0000 </r>
       <r>   -1.4932    1.0000 </r>
       <r>   -1.3871    1.0000 </r>
       <r>   -1.3865    1.0000 </r>
       <r>   -1.2423    1.0000 </r>
       <r>   -1.2105    1.0000 </r>
       <r>   -1.1993    1.0000 </r>
       <r>   -1.1552    1.0000 </r>
       <r>   -1.0876    1.0000 </r>
       <r>   -1.0758    1.0000 </r>
       <r>   -1.0576    1.0000 </r>
       <r>   -1.0555    1.0000 </r>
       <r>   -1.0212    1.0000 </r>
       <r>   -1.0156    1.0000 </r>
       <r>   -0.9546    1.0000 </r>
       <r>   -0.9276    1.0000 </r>
       <r>   -0.9108    1.0000 </r>
       <r>   -0.8600    1.0000 </r>
       <r>   -0.8093    1.0000 </r>
       <r>   -0.7495    1.0000 </r>
       <r>   -0.6286    1.0000 </r>
       <r>   -0.3753    1.0000 </r>
       <r>   -0.2004    1.0000 </r>
       <r>    0.2199    1.0000 </r>
       <r>    3.2523    0.0000 </r>
       <r>    3.5977    0.0000 </r>
       <r>    3.9380    0.0000 </r>
       <r>    4.0222    0.0000 </r>
       <r>    4.3601    0.0000 </r>
       <r>    4.4118    0.0000 </r>
       <r>    5.3549    0.0000 </r>
       <r>    5.4281    0.0000 </r>
       <r>    5.6225    0.0000 </r>
       <r>    5.8117    0.0000 </r>
       <r>    6.0983    0.0000 </r>
       <r>    6.2063    0.0000 </r>
       <r>    6.4911    0.0000 </r>
       <r>    6.4973    0.0000 </r>
       <r>    6.5282    0.0000 </r>
       <r>    6.7684    0.0000 </r>
       <r>    6.8803    0.0000 </r>
       <r>    6.9776    0.0000 </r>
       <r>    7.0037    0.0000 </r>
       <r>    7.1818    0.0000 </r>
       <r>    7.2318    0.0000 </r>
       <r>    7.3786    0.0000 </r>
       <r>    7.4302    0.0000 </r>
       <r>    7.4843    0.0000 </r>
      </set>
      <set comment="kpoint 6">
       <r>  -20.4165    1.0000 </r>
       <r>  -20.4151    1.0000 </r>
       <r>  -20.4140    1.0000 </r>
       <r>  -20.4130    1.0000 </r>
       <r>  -16.1669    1.0000 </r>
       <r>  -16.1572    1.0000 </r>
       <r>  -16.1335    1.0000 </r>
       <r>  -16.1130    1.0000 </r>
       <r>  -16.1124    1.0000 </r>
       <r>  -16.0896    1.0000 </r>
       <r>  -16.0764    1.0000 </r>
       <r>  -16.0623    1.0000 </r>
       <r>  -15.9918    1.0000 </r>
       <r>  -15.9916    1.0000 </r>
       <r>  -15.9906    1.0000 </r>
       <r>  -15.9904    1.0000 </r>
       <r>  -15.9857    1.0000 </r>
       <r>  -15.9853    1.0000 </r>
       <r>  -15.9850    1.0000 </r>
       <r>  -15.9848    1.0000 </r>
       <r>  -15.9738    1.0000 </r>
       <r>  -15.9735    1.0000 </r>
       <r>  -15.9733    1.0000 </r>
       <r>  -15.9730    1.0000 </r>
       <r>  -14.0467    1.0000 </r>
       <r>  -13.9403    1.0000 </r>
       <r>  -13.8778    1.0000 </r>
       <r>  -13.8293    1.0000 </r>
       <r>  -13.8217    1.0000 </r>
       <r>  -13.8036    1.0000 </r>
       <r>  -13.7901    1.0000 </r>
       <r>  -13.7257    1.0000 </r>
       <r>  -13.6891    1.0000 </r>
       <r>  -13.6282    1.0000 </r>
       <r>  -13.5279    1.0000 </r>
       <r>  -13.4912    1.0000 </r>
       <r>   -7.6000    1.0000 </r>
       <r>   -7.3481    1.0000 </r>
       <r>   -7.0545    1.0000 </r>
       <r>   -6.8700    1.0000 </r>
       <r>   -6.8597    1.0000 </r>
       <r>   -6.8575    1.0000 </r>
       <r>   -6.8449    1.0000 </r>
       <r>   -6.8428    1.0000 </r>
       <r>   -6.8267    1.0000 </r>
       <r>   -6.8259    1.0000 </r>
       <r>   -6.8186    1.0000 </r>
       <r>   -6.8159    1.0000 </r>
       <r>   -6.8078    1.0000 </r>
       <r>   -6.7945    1.0000 </r>
       <r>   -6.7899    1.0000 </r>
       <r>   -6.6948    1.0000 </r>
       <r>   -3.0755    1.0000 </r>
       <r>   -3.0366    1.0000 </r>
       <r>   -2.9883    1.0000 </r>
       <r>   -2.8360    1.0000 </r>
       <r>   -2.6055    1.0000 </r>
       <r>   -2.4543    1.0000 </r>
       <r>   -2.0503    1.0000 </r>
       <r>   -1.8949    1.0000 </r>
       <r>   -1.8776    1.0000 </r>
       <r>   -1.8715    1.0000 </r>
       <r>   -1.7885    1.0000 </r>
       <r>   -1.5162    1.0000 </r>
       <r>   -1.5093    1.0000 </r>
       <r>   -1.4389    1.0000 </r>
       <r>   -1.3192    1.0000 </r>
       <r>   -1.2694    1.0000 </r>
       <r>   -1.2269    1.0000 </r>
       <r>   -1.1889    1.0000 </r>
       <r>   -1.1642    1.0000 </r>
       <r>   -1.1496    1.0000 </r>
       <r>   -1.1364    1.0000 </r>
       <r>   -1.1254    1.0000 </r>
       <r>   -1.0842    1.0000 </r>
       <r>   -1.0472    1.0000 </r>
       <r>   -1.0255    1.0000 </r>
       <r>   -0.9967    1.0000 </r>
       <r>   -0.9790    1.0000 </r>
       <r>   -0.9492    1.0000 </r>
       <r>   -0.9152    1.0000 </r>
       <r>   -0.8554    1.0000 </r>
       <r>   -0.8150    1.0000 </r>
       <r>   -0.7646    1.0000 </r>
       <r>   -0.5527    1.0000 </r>
       <r>   -0.3557    1.0000 </r>
       <r>   -0.0409    1.0000 </r>
       <r>    0.2544    1.0000 </r>
       <r>    3.3269    0.0000 </r>
       <r>    3.4284    0.0000 </r>
       <r>    3.5015    0.0000 </r>
       <r>    3.8375    0.0000 </r>
       <r>    4.2450    0.0000 </r>
       <r>    4.6044    0.0000 </r>
       <r>    5.1551    0.0000 </r>
       <r>    5.6114    0.0000 </r>
       <r>    5.8341    0.0000 </r>
       <r>    6.2975    0.0000 </r>
       <r>    6.3852    0.0000 </r>
       <r>    6.3969    0.0000 </r>
       <r>    6.5594    0.0000 </r>
       <r>    6.6666    0.0000 </r>
       <r>    6.7061    0.0000 </r>
       <r>    6.9008    0.0000 </r>
       <r>    6.9786    0.0000 </r>
       <r>    7.0002    0.0000 </r>
       <r>    7.0477    0.0000 </r>
       <r>    7.2010    0.0000 </r>
       <r>    7.2876    0.0000 </r>
       <r>    7.3130    0.0000 </r>
       <r>    7.5421    0.0000 </r>
       <r>    7.5639    0.0000 </r>
      </set>
      <set comment="kpoint 7">
       <r>  -20.4165    1.0000 </r>
       <r>  -20.4165    1.0000 </r>
       <r>  -20.4129    1.0000 </r>
       <r>  -20.4129    1.0000 </r>
       <r>  -16.1341    1.0000 </r>
       <r>  -16.1341    1.0000 </r>
       <r>  -16.1281    1.0000 </r>
       <r>  -16.1281    1.0000 </r>
       <r>  -16.1112    1.0000 </r>
       <r>  -16.1112    1.0000 </r>
       <r>  -16.0829    1.0000 </r>
       <r>  -16.0829    1.0000 </r>
       <r>  -15.9913    1.0000 </r>
       <r>  -15.9913    1.0000 </r>
       <r>  -15.9909    1.0000 </r>
       <r>  -15.9909    1.0000 </r>
       <r>  -15.9856    1.0000 </r>
       <r>  -15.9856    1.0000 </r>
       <r>  -15.9849    1.0000 </r>
       <r>  -15.9849    1.0000 </r>
       <r>  -15.9738    1.0000 </r>
       <r>  -15.9738    1.0000 </r>
       <r>  -15.9731    1.0000 </r>
       <r>  -15.9731    1.0000 </r>
       <r>  -14.0458    1.0000 </r>
       <r>  -14.0458    1.0000 </r>
       <r>  -13.9139    1.0000 </r>
       <r>  -13.9139    1.0000 </r>
       <r>  -13.7307    1.0000 </r>
       <r>  -13.7307    1.0000 </r>
       <r>  -13.6776    1.0000 </r>
       <r>  -13.6776    1.0000 </r>
       <r>  -13.6346    1.0000 </r>
       <r>  -13.6346    1.0000 </r>
       <r>  -13.5745    1.0000 </r>
       <r>  -13.5745    1.0000 </r>
       <r>   -7.4867    1.0000 </r>
       <r>   -7.4867    1.0000 </r>
       <r>   -6.9784    1.0000 </r>
       <r>   -6.9784    1.0000 </r>
       <r>   -6.8840    1.0000 </r>
       <r>   -6.8840    1.0000 </r>
       <r>   -6.8509    1.0000 </r>
       <r>   -6.8509    1.0000 </r>
       <r>   -6.8265    1.0000 </r>
       <r>   -6.8265    1.0000 </r>
       <r>   -6.8201    1.0000 </r>
       <r>   -6.8201    1.0000 </r>
       <r>   -6.8032    1.0000 </r>
       <r>   -6.8032    1.0000 </r>
       <r>   -6.7899    1.0000 </r>
       <r>   -6.7899    1.0000 </r>
       <r>   -2.7608    1.0000 </r>
       <r>   -2.7608    1.0000 </r>
       <r>   -2.5628    1.0000 </r>
       <r>   -2.5628    1.0000 </r>
       <r>   -2.2384    1.0000 </r>
       <r>   -2.2384    1.0000 </r>
       <r>   -2.1626    1.0000 </r>
       <r>   -2.1626    1.0000 </r>
       <r>   -2.0004    1.0000 </r>
       <r>   -2.0004    1.0000 </r>
       <r>   -1.8028    1.0000 </r>
       <r>   -1.8028    1.0000 </r>
       <r>   -1.4710    1.0000 </r>
       <r>   -1.4710    1.0000 </r>
       <r>   -1.4237    1.0000 </r>
       <r>   -1.4237    1.0000 </r>
       <r>   -1.2880    1.0000 </r>
       <r>   -1.2880    1.0000 </r>
       <r>   -1.2224    1.0000 </r>
       <r>   -1.2224    1.0000 </r>
       <r>   -1.1254    1.0000 </r>
       <r>   -1.1254    1.0000 </r>
       <r>   -1.1017    1.0000 </r>
       <r>   -1.1017    1.0000 </r>
       <r>   -0.9509    1.0000 </r>
       <r>   -0.9509    1.0000 </r>
       <r>   -0.9020    1.0000 </r>
       <r>   -0.9020    1.0000 </r>
       <r>   -0.8696    1.0000 </r>
       <r>   -0.8696    1.0000 </r>
       <r>   -0.8334    1.0000 </r>
       <r>   -0.8334    1.0000 </r>
       <r>   -0.5853    1.0000 </r>
       <r>   -0.5853    1.0000 </r>
       <r>   -0.2950    1.0000 </r>
       <r>   -0.2950    1.0000 </r>
       <r>    4.1164    0.0000 </r>
       <r>    4.1164    0.0000 </r>
       <r>    4.1990    0.0000 </r>
       <r>    4.1990    0.0000 </r>
       <r>    4.7986    0.0000 </r>
       <r>    4.7986    0.0000 </r>
       <r>    5.0729    0.0000 </r>
       <r>    5.0729    0.0000 </r>
       <r>    5.5068    0.0000 </r>
       <r>    5.5068    0.0000 </r>
       <r>    5.6676    0.0000 </r>
       <r>    5.6676    0.0000 </r>
       <r>    6.4476    0.0000 </r>
       <r>    6.4476    0.0000 </r>
       <r>    6.6069    0.0000 </r>
       <r>    6.6069    0.0000 </r>
       <r>    6.8373    0.0000 </r>
       <r>    6.8373    0.0000 </r>
       <r>    6.9662    0.0000 </r>
       <r>    6.9662    0.0000 </r>
       <r>    7.2242    0.0000 </r>
       <r>    7.2242    0.0000 </r>
       <r>    7.4596    0.0000 </r>
       <r>    7.4597    0.0000 </r>
      </set>
      <set comment="kpoint 8">
       <r>  -20.4155    1.0000 </r>
       <r>  -20.4155    1.0000 </r>
       <r>  -20.4138    1.0000 </r>
       <r>  -20.4138    1.0000 </r>
       <r>  -16.1443    1.0000 </r>
       <r>  -16.1443    1.0000 </r>
       <r>  -16.1294    1.0000 </r>
       <r>  -16.1294    1.0000 </r>
       <r>  -16.1010    1.0000 </r>
       <r>  -16.1010    1.0000 </r>
       <r>  -16.0818    1.0000 </r>
       <r>  -16.0818    1.0000 </r>
       <r>  -15.9912    1.0000 </r>
       <r>  -15.9912    1.0000 </r>
       <r>  -15.9910    1.0000 </r>
       <r>  -15.9910    1.0000 </r>
       <r>  -15.9854    1.0000 </r>
       <r>  -15.9854    1.0000 </r>
       <r>  -15.9851    1.0000 </r>
       <r>  -15.9851    1.0000 </r>
       <r>  -15.9736    1.0000 </r>
       <r>  -15.9736    1.0000 </r>
       <r>  -15.9733    1.0000 </r>
       <r>  -15.9733    1.0000 </r>
       <r>  -13.9985    1.0000 </r>
       <r>  -13.9985    1.0000 </r>
       <r>  -13.9034    1.0000 </r>
       <r>  -13.9034    1.0000 </r>
       <r>  -13.8005    1.0000 </r>
       <r>  -13.8005    1.0000 </r>
       <r>  -13.7097    1.0000 </r>
       <r>  -13.7097    1.0000 </r>
       <r>  -13.6038    1.0000 </r>
       <r>  -13.6038    1.0000 </r>
       <r>  -13.5681    1.0000 </r>
       <r>  -13.5681    1.0000 </r>
       <r>   -7.3510    1.0000 </r>
       <r>   -7.3510    1.0000 </r>
       <r>   -7.0948    1.0000 </r>
       <r>   -7.0948    1.0000 </r>
       <r>   -6.8661    1.0000 </r>
       <r>   -6.8661    1.0000 </r>
       <r>   -6.8437    1.0000 </r>
       <r>   -6.8437    1.0000 </r>
       <r>   -6.8286    1.0000 </r>
       <r>   -6.8286    1.0000 </r>
       <r>   -6.8232    1.0000 </r>
       <r>   -6.8232    1.0000 </r>
       <r>   -6.8067    1.0000 </r>
       <r>   -6.8067    1.0000 </r>
       <r>   -6.7815    1.0000 </r>
       <r>   -6.7815    1.0000 </r>
       <r>   -2.9319    1.0000 </r>
       <r>   -2.9319    1.0000 </r>
       <r>   -2.5700    1.0000 </r>
       <r>   -2.5700    1.0000 </r>
       <r>   -2.2988    1.0000 </r>
       <r>   -2.2988    1.0000 </r>
       <r>   -2.1809    1.0000 </r>
       <r>   -2.1809    1.0000 </r>
       <r>   -1.9614    1.0000 </r>
       <r>   -1.9614    1.0000 </r>
       <r>   -1.8012    1.0000 </r>
       <r>   -1.8012    1.0000 </r>
       <r>   -1.5242    1.0000 </r>
       <r>   -1.5242    1.0000 </r>
       <r>   -1.4414    1.0000 </r>
       <r>   -1.4414    1.0000 </r>
       <r>   -1.2815    1.0000 </r>
       <r>   -1.2815    1.0000 </r>
       <r>   -1.1779    1.0000 </r>
       <r>   -1.1779    1.0000 </r>
       <r>   -1.1382    1.0000 </r>
       <r>   -1.1382    1.0000 </r>
       <r>   -1.0101    1.0000 </r>
       <r>   -1.0101    1.0000 </r>
       <r>   -0.9558    1.0000 </r>
       <r>   -0.9558    1.0000 </r>
       <r>   -0.8986    1.0000 </r>
       <r>   -0.8986    1.0000 </r>
       <r>   -0.8621    1.0000 </r>
       <r>   -0.8621    1.0000 </r>
       <r>   -0.8061    1.0000 </r>
       <r>   -0.8061    1.0000 </r>
       <r>   -0.5017    1.0000 </r>
       <r>   -0.5017    1.0000 </r>
       <r>   -0.2363    1.0000 </r>
       <r>   -0.2363    1.0000 </r>
       <r>    3.6245    0.0000 </r>
       <r>    3.6245    0.0000 </r>
       <r>    4.4029    0.0000 </r>
       <r>    4.4029    0.0000 </r>
       <r>    4.8483    0.0000 </r>
       <r>    4.8483    0.0000 </r>
       <r>    4.9748    0.0000 </r>
       <r>    4.9748    0.0000 </r>
       <r>    5.4429    0.0000 </r>
       <r>    5.4429    0.0000 </r>
       <r>    6.1148    0.0000 </r>
       <r>    6.1148    0.0000 </r>
       <r>    6.7002    0.0000 </r>
       <r>    6.7002    0.0000 </r>
       <r>    6.7674    0.0000 </r>
       <r>    6.7674    0.0000 </r>
       <r>    6.9695    0.0000 </r>
       <r>    6.9695    0.0000 </r>
       <r>    7.1402    0.0000 </r>
       <r>    7.1402    0.0000 </r>
       <r>    7.1506    0.0000 </r>
       <r>    7.1506    0.0000 </r>
       <r>    7.3761    0.0000 </r>
       <r>    7.3761    0.0000 </r>
      </set>
     </set>
    </set>
   </array>
  </eigenvalues>
  <separator name="orbital magnetization" >
   <v name="MAGDIPOLOUT">      0.00000000      0.00000000      0.00000000</v>
  </separator>
  <dos>
   <i name="efermi">      0.88309686 </i>
   <total>
    <array>
     <dimension dim="1">gridpoints</dimension>
     <dimension dim="2">spin</dimension>
     <field>energy</field>
     <field>total</field>
     <field>integrated</field>
     <set>
      <set comment="spin 1">
       <r>   -21.8177     0.0000     0.0000 </r>
       <r>   -21.7151     0.0000     0.0000 </r>
       <r>   -21.6125     0.0000     0.0000 </r>
       <r>   -21.5099     0.0000     0.0000 </r>
       <r>   -21.4073     0.0000     0.0000 </r>
       <r>   -21.3047     0.0000     0.0000 </r>
       <r>   -21.2021     0.0000     0.0000 </r>
       <r>   -21.0995     0.0000     0.0000 </r>
       <r>   -20.9969     0.0000     0.0000 </r>
       <r>   -20.8943     0.0000     0.0000 </r>
       <r>   -20.7917     0.0000     0.0000 </r>
       <r>   -20.6891     0.0000     0.0000 </r>
       <r>   -20.5865     0.0000     0.0000 </r>
       <r>   -20.4839     0.0000     0.0000 </r>
       <r>   -20.3813    77.9706     8.0000 </r>
       <r>   -20.2787     0.0000     8.0000 </r>
       <r>   -20.1761     0.0000     8.0000 </r>
       <r>   -20.0735     0.0000     8.0000 </r>
       <r>   -19.9709     0.0000     8.0000 </r>
       <r>   -19.8683     0.0000     8.0000 </r>
       <r>   -19.7657     0.0000     8.0000 </r>
       <r>   -19.6631     0.0000     8.0000 </r>
       <r>   -19.5605     0.0000     8.0000 </r>
       <r>   -19.4579     0.0000     8.0000 </r>
       <r>   -19.3553     0.0000     8.0000 </r>
       <r>   -19.2527     0.0000     8.0000 </r>
       <r>   -19.1501     0.0000     8.0000 </r>
       <r>   -19.0475     0.0000     8.0000 </r>
       <r>   -18.9449     0.0000     8.0000 </r>
       <r>   -18.8423     0.0000     8.0000 </r>
       <r>   -18.7397     0.0000     8.0000 </r>
       <r>   -18.6371     0.0000     8.0000 </r>
       <r>   -18.5345     0.0000     8.0000 </r>
       <r>   -18.4318     0.0000     8.0000 </r>
       <r>   -18.3292     0.0000     8.0000 </r>
       <r>   -18.2266     0.0000     8.0000 </r>
       <r>   -18.1240     0.0000     8.0000 </r>
       <r>   -18.0214     0.0000     8.0000 </r>
       <r>   -17.9188     0.0000     8.0000 </r>
       <r>   -17.8162     0.0000     8.0000 </r>
       <r>   -17.7136     0.0000     8.0000 </r>
       <r>   -17.6110     0.0000     8.0000 </r>
       <r>   -17.5084     0.0000     8.0000 </r>
       <r>   -17.4058     0.0000     8.0000 </r>
       <r>   -17.3032     0.0000     8.0000 </r>
       <r>   -17.2006     0.0000     8.0000 </r>
       <r>   -17.0980     0.0000     8.0000 </r>
       <r>   -16.9954     0.0000     8.0000 </r>
       <r>   -16.8928     0.0000     8.0000 </r>
       <r>   -16.7902     0.0000     8.0000 </r>
       <r>   -16.6876     0.0000     8.0000 </r>
       <r>   -16.5850     0.0000     8.0000 </r>
       <r>   -16.4824     0.0000     8.0000 </r>
       <r>   -16.3798     0.0000     8.0000 </r>
       <r>   -16.2772     0.0000     8.0000 </r>
       <r>   -16.1746     1.1057     8.1134 </r>
       <r>   -16.0720   123.7261    22.5835 </r>
       <r>   -15.9694   210.6567    45.6139 </r>
       <r>   -15.8668     0.0000    48.0000 </r>
       <r>   -15.7642     0.0000    48.0000 </r>
       <r>   -15.6616     0.0000    48.0000 </r>
       <r>   -15.5590     0.0000    48.0000 </r>
       <r>   -15.4564     0.0000    48.0000 </r>
       <r>   -15.3538     0.0000    48.0000 </r>
       <r>   -15.2512     0.0000    48.0000 </r>
       <r>   -15.1486     0.0000    48.0000 </r>
       <r>   -15.0460     0.0000    48.0000 </r>
       <r>   -14.9434     0.0000    48.0000 </r>
       <r>   -14.8408     0.0000    48.0000 </r>
       <r>   -14.7382     0.0000    48.0000 </r>
       <r>   -14.6356     0.0000    48.0000 </r>
       <r>   -14.5329     0.0000    48.0000 </r>
       <r>   -14.4303     0.0000    48.0000 </r>
       <r>   -14.3277     0.0000    48.0000 </r>
       <r>   -14.2251     0.0000    48.0000 </r>
       <r>   -14.1225     1.1025    48.1131 </r>
       <r>   -14.0199    17.3354    50.1121 </r>
       <r>   -13.9173    18.6841    52.9170 </r>
       <r>   -13.8147    24.3525    56.7208 </r>
       <r>   -13.7121    27.8836    61.7499 </r>
       <r>   -13.6095    32.7870    66.5867 </r>
       <r>   -13.5069    35.8280    71.1205 </r>
       <r>   -13.4043     0.0000    72.0000 </r>
       <r>   -13.3017     0.0000    72.0000 </r>
       <r>   -13.1991     0.0000    72.0000 </r>
       <r>   -13.0965     0.0000    72.0000 </r>
       <r>   -12.9939     0.0000    72.0000 </r>
       <r>   -12.8913     0.0000    72.0000 </r>
       <r>   -12.7887     0.0000    72.0000 </r>
       <r>   -12.6861     0.0000    72.0000 </r>
       <r>   -12.5835     0.0000    72.0000 </r>
       <r>   -12.4809     0.0000    72.0000 </r>
       <r>   -12.3783     0.0000    72.0000 </r>
       <r>   -12.2757     0.0000    72.0000 </r>
       <r>   -12.1731     0.0000    72.0000 </r>
       <r>   -12.0705     0.0000    72.0000 </r>
       <r>   -11.9679     0.0000    72.0000 </r>
       <r>   -11.8653     0.0000    72.0000 </r>
       <r>   -11.7627     0.0000    72.0000 </r>
       <r>   -11.6601     0.0000    72.0000 </r>
       <r>   -11.5575     0.0000    72.0000 </r>
       <r>   -11.4549     0.0000    72.0000 </r>
       <r>   -11.3523     0.0000    72.0000 </r>
       <r>   -11.2497     0.0000    72.0000 </r>
       <r>   -11.1471     0.0000    72.0000 </r>
       <r>   -11.0445     0.0000    72.0000 </r>
       <r>   -10.9419     0.0000    72.0000 </r>
       <r>   -10.8393     0.0000    72.0000 </r>
       <r>   -10.7367     0.0000    72.0000 </r>
       <r>   -10.6340     0.0000    72.0000 </r>
       <r>   -10.5314     0.0000    72.0000 </r>
       <r>   -10.4288     0.0000    72.0000 </r>
       <r>   -10.3262     0.0000    72.0000 </r>
       <r>   -10.2236     0.0000    72.0000 </r>
       <r>   -10.1210     0.0000    72.0000 </r>
       <r>   -10.0184     0.0000    72.0000 </r>
       <r>    -9.9158     0.0000    72.0000 </r>
       <r>    -9.8132     0.0000    72.0000 </r>
       <r>    -9.7106     0.0000    72.0000 </r>
       <r>    -9.6080     0.0000    72.0000 </r>
       <r>    -9.5054     0.0000    72.0000 </r>
       <r>    -9.4028     0.0000    72.0000 </r>
       <r>    -9.3002     0.0000    72.0000 </r>
       <r>    -9.1976     0.0000    72.0000 </r>
       <r>    -9.0950     0.0000    72.0000 </r>
       <r>    -8.9924     0.0000    72.0000 </r>
       <r>    -8.8898     0.0000    72.0000 </r>
       <r>    -8.7872     0.0000    72.0000 </r>
       <r>    -8.6846     0.0000    72.0000 </r>
       <r>    -8.5820     0.0000    72.0000 </r>
       <r>    -8.4794     0.0000    72.0000 </r>
       <r>    -8.3768     0.0000    72.0000 </r>
       <r>    -8.2742     0.0000    72.0000 </r>
       <r>    -8.1716     0.0000    72.0000 </r>
       <r>    -8.0690     0.0000    72.0000 </r>
       <r>    -7.9664     0.0531    72.0055 </r>
       <r>    -7.8638     0.0000    72.1111 </r>
       <r>    -7.7612     0.0009    72.1112 </r>
       <r>    -7.6586     6.4967    72.7778 </r>
       <r>    -7.5560     4.3317    73.2222 </r>
       <r>    -7.4534     8.6634    74.1111 </r>
       <r>    -7.3508     7.0389    74.8333 </r>
       <r>    -7.2482     0.2802    75.5843 </r>
       <r>    -7.1456     6.4974    76.4444 </r>
       <r>    -7.0430    12.7714    77.7548 </r>
       <r>    -6.9404     8.6639    78.6667 </r>
       <r>    -6.8378    95.0926    88.4235 </r>
       <r>    -6.7351    70.3879   102.7778 </r>
       <r>    -6.6325     4.3317   103.2222 </r>
       <r>    -6.5299     6.4975   103.8889 </r>
       <r>    -6.4273     0.0000   103.8889 </r>
       <r>    -6.3247     0.0000   103.8889 </r>
       <r>    -6.2221     0.1719   103.9065 </r>
       <r>    -6.1195     0.0000   104.0000 </r>
       <r>    -6.0169     0.0000   104.0000 </r>
       <r>    -5.9143     0.0000   104.0000 </r>
       <r>    -5.8117     0.0000   104.0000 </r>
       <r>    -5.7091     0.0000   104.0000 </r>
       <r>    -5.6065     0.0000   104.0000 </r>
       <r>    -5.5039     0.0000   104.0000 </r>
       <r>    -5.4013     0.0000   104.0000 </r>
       <r>    -5.2987     0.0000   104.0000 </r>
       <r>    -5.1961     0.0000   104.0000 </r>
       <r>    -5.0935     0.0000   104.0000 </r>
       <r>    -4.9909     0.0000   104.0000 </r>
       <r>    -4.8883     0.0000   104.0000 </r>
       <r>    -4.7857     0.0000   104.0000 </r>
       <r>    -4.6831     0.0000   104.0000 </r>
       <r>    -4.5805     0.0000   104.0000 </r>
       <r>    -4.4779     0.0000   104.0000 </r>
       <r>    -4.3753     0.0000   104.0000 </r>
       <r>    -4.2727     0.0000   104.0000 </r>
       <r>    -4.1701     0.0000   104.0000 </r>
       <r>    -4.0675     0.0000   104.0000 </r>
       <r>    -3.9649     0.0000   104.0000 </r>
       <r>    -3.8623     0.0000   104.0000 </r>
       <r>    -3.7597     0.0000   104.0000 </r>
       <r>    -3.6571     0.0000   104.0000 </r>
       <r>    -3.5545     0.0000   104.0000 </r>
       <r>    -3.4519     0.0000   104.0000 </r>
       <r>    -3.3493     0.0000   104.0000 </r>
       <r>    -3.2467     0.0000   104.0000 </r>
       <r>    -3.1441     1.0788   104.1107 </r>
       <r>    -3.0415    13.3679   105.4827 </r>
       <r>    -2.9389    14.0705   107.3326 </r>
       <r>    -2.8362     3.3021   108.4499 </r>
       <r>    -2.7336     6.4971   109.5555 </r>
       <r>    -2.6310     9.3339   110.5132 </r>
       <r>    -2.5284    21.0917   113.0530 </r>
       <r>    -2.4258     4.4085   113.7857 </r>
       <r>    -2.3232     0.0024   114.0003 </r>
       <r>    -2.2206    17.7655   115.8230 </r>
       <r>    -2.1180    18.2678   117.8743 </r>
       <r>    -2.0154     6.5694   118.8963 </r>
       <r>    -1.9128    16.0316   120.9782 </r>
       <r>    -1.8102    24.9366   124.0030 </r>
       <r>    -1.7076     9.7050   126.6624 </r>
       <r>    -1.6050     4.9993   127.1796 </r>
       <r>    -1.5024    30.5692   130.3588 </r>
       <r>    -1.3998    31.8310   133.9326 </r>
       <r>    -1.2972    11.9332   135.7799 </r>
       <r>    -1.1946    28.8350   140.5141 </r>
       <r>    -1.0920    62.9317   148.9014 </r>
       <r>    -0.9894    33.2028   153.6290 </r>
       <r>    -0.8868    52.8100   159.5296 </r>
       <r>    -0.7842    51.0821   166.7969 </r>
       <r>    -0.6816     6.4975   168.0000 </r>
       <r>    -0.5790     5.6916   168.5840 </r>
       <r>    -0.4764    18.7438   170.5899 </r>
       <r>    -0.3738     1.2946   171.1328 </r>
       <r>    -0.2712     7.5307   172.4393 </r>
       <r>    -0.1686    15.1551   173.9994 </r>
       <r>    -0.0660     2.1667   174.2223 </r>
       <r>     0.0366     4.3309   174.6667 </r>
       <r>     0.1392     0.0000   174.6667 </r>
       <r>     0.2418     3.4112   175.0167 </r>
       <r>     0.3444     4.3260   175.8883 </r>
       <r>     0.4470     0.0000   175.8889 </r>
       <r>     0.5496     0.0000   175.8889 </r>
       <r>     0.6522     0.0000   175.8889 </r>
       <r>     0.7548     0.0000   175.8889 </r>
       <r>     0.8574     1.0829   176.0000 </r>
       <r>     0.9600     0.0000   176.0000 </r>
       <r>     1.0627     0.0000   176.0000 </r>
       <r>     1.1653     0.0000   176.0000 </r>
       <r>     1.2679     0.0000   176.0000 </r>
       <r>     1.3705     0.0000   176.0000 </r>
       <r>     1.4731     0.0000   176.0000 </r>
       <r>     1.5757     0.0000   176.0000 </r>
       <r>     1.6783     0.0000   176.0000 </r>
       <r>     1.7809     0.0000   176.0000 </r>
       <r>     1.8835     0.0000   176.0000 </r>
       <r>     1.9861     0.0000   176.0000 </r>
       <r>     2.0887     0.0000   176.0000 </r>
       <r>     2.1913     0.0000   176.0000 </r>
       <r>     2.2939     0.0000   176.0000 </r>
       <r>     2.3965     0.0000   176.0000 </r>
       <r>     2.4991     0.0000   176.0000 </r>
       <r>     2.6017     0.0000   176.0000 </r>
       <r>     2.7043     0.0000   176.0000 </r>
       <r>     2.8069     0.0000   176.0000 </r>
       <r>     2.9095     0.0000   176.0000 </r>
       <r>     3.0121     0.0000   176.0000 </r>
       <r>     3.1147     2.1658   176.2222 </r>
       <r>     3.2173     0.0000   176.2222 </r>
       <r>     3.3199     8.2714   177.0709 </r>
       <r>     3.4225     0.8692   177.5336 </r>
       <r>     3.5251     6.1055   178.5153 </r>
       <r>     3.6277    10.1770   179.7108 </r>
       <r>     3.7303     0.0000   180.0000 </r>
       <r>     3.8329     5.1953   180.5330 </r>
       <r>     3.9355     0.7897   180.9699 </r>
       <r>     4.0381     6.4710   181.7751 </r>
       <r>     4.1407     4.3304   182.2221 </r>
       <r>     4.2433    10.4189   183.2912 </r>
       <r>     4.3459     4.3090   183.9977 </r>
       <r>     4.4485    10.8293   185.3333 </r>
       <r>     4.5511     0.0144   185.3348 </r>
       <r>     4.6537     4.3332   186.0002 </r>
       <r>     4.7563     2.1644   186.2222 </r>
       <r>     4.8589    16.7516   187.9410 </r>
       <r>     4.9616     0.2671   188.0274 </r>
       <r>     5.0642     4.6515   189.3661 </r>
       <r>     5.1668     4.1188   190.2004 </r>
       <r>     5.2694     2.1659   190.4444 </r>
       <r>     5.3720     5.3978   190.9983 </r>
       <r>     5.4746    15.1528   192.5547 </r>
       <r>     5.5772     6.4976   193.2222 </r>
       <r>     5.6798    14.9742   194.7586 </r>
       <r>     5.7824     4.3317   195.2222 </r>
       <r>     5.8850     6.4975   195.8889 </r>
       <r>     5.9876     2.1659   196.1111 </r>
       <r>     6.0902     1.3592   196.2506 </r>
       <r>     6.1928    12.4622   197.7233 </r>
       <r>     6.2954     3.4104   198.5721 </r>
       <r>     6.3980     7.6938   199.7894 </r>
       <r>     6.5006    14.7204   201.5104 </r>
       <r>     6.6032    14.1287   203.3385 </r>
       <r>     6.7058    17.5598   205.4683 </r>
       <r>     6.8084    20.4852   207.9907 </r>
       <r>     6.9110    13.4457   209.6018 </r>
       <r>     7.0136    36.9156   213.5654 </r>
       <r>     7.1162     6.6237   214.3463 </r>
       <r>     7.2188    32.5381   217.7832 </r>
       <r>     7.3214    10.5629   219.8616 </r>
       <r>     7.4240    16.2212   221.8866 </r>
       <r>     7.5266     7.4017   222.8705 </r>
       <r>     7.6292     6.4970   224.0000 </r>
       <r>     7.7318     0.0000   224.0000 </r>
       <r>     7.8344     0.0000   224.0000 </r>
       <r>     7.9370     0.0000   224.0000 </r>
       <r>     8.0396     0.0000   224.0000 </r>
       <r>     8.1422     0.0000   224.0000 </r>
       <r>     8.2448     0.0000   224.0000 </r>
       <r>     8.3474     0.0000   224.0000 </r>
       <r>     8.4500     0.0000   224.0000 </r>
       <r>     8.5526     0.0000   224.0000 </r>
       <r>     8.6552     0.0000   224.0000 </r>
       <r>     8.7578     0.0000   224.0000 </r>
       <r>     8.8605     0.0000   224.0000 </r>
       <r>     8.9631     0.0000   224.0000 </r>
      </set>
     </set>
    </array>
   </total>
   <partial>
    <array>
     <dimension dim="1">gridpoints</dimension>
     <dimension dim="2">spin</dimension>
     <dimension dim="3">ion</dimension>
     <field>energy</field>
     <field>  s  </field>
     <field>  p  </field>
     <field>  d  </field>
     <set>
      <set comment="ion 1">
       <set comment="spin 1">
        <r>   -21.8177     0.0000     0.0000     0.0000 </r>
[...]
        <r>  0.0000  0.0002  0.0005 </r>
        <r>  0.0001  0.0057  0.0002 </r>
        <r>  0.0000  0.0034  0.0004 </r>
        <r>  0.0027  0.1805  0.0017 </r>
        <r>  0.0029  0.1568  0.0020 </r>
        <r>  0.0004  0.0053  0.0018 </r>
        <r>  0.0001  0.0040  0.0010 </r>
        <r>  0.0001  0.0027  0.0014 </r>
        <r>  0.0006  0.0063  0.0012 </r>
        <r>  0.0142  0.0350  0.0080 </r>
        <r>  0.0012  0.0144  0.0009 </r>
        <r>  0.0000  0.0004  0.0001 </r>
        <r>  0.0004  0.0009  0.0003 </r>
        <r>  0.0003  0.0019  0.0002 </r>
        <r>  0.0000  0.0003  0.0000 </r>
        <r>  0.0143  0.0340  0.0082 </r>
        <r>  0.0012  0.0145  0.0009 </r>
       </set>
       <set comment="band 93">
        <r>  0.0000  0.0001  0.0004 </r>
        <r>  0.0005  0.0003  0.0007 </r>
        <r>  0.0000  0.0001  0.0009 </r>
        <r>  0.0000  0.0009  0.0019 </r>
        <r>  0.0023  0.1222  0.0012 </r>
        <r>  0.0016  0.0724  0.0009 </r>
        <r>  0.0026  0.0426  0.0013 </r>
        <r>  0.0040  0.0720  0.0019 </r>
        <r>  0.0088  0.0019  0.0034 </r>
        <r>  0.0002  0.0751  0.0006 </r>
        <r>  0.0128  0.0031  0.0054 </r>
        <r>  0.0002  0.0492  0.0008 </r>
        <r>  0.0003  0.0062  0.0009 </r>
        <r>  0.0000  0.0012  0.0016 </r>
        <r>  0.0000  0.0014  0.0027 </r>
        <r>  0.0008  0.0056  0.0015 </r>
        <r>  0.0005  0.0090  0.0014 </r>
        <r>  0.0000  0.0018  0.0027 </r>
        <r>  0.0005  0.0029  0.0010 </r>
        <r>  0.0000  0.0008  0.0016 </r>
       </set>
       <set comment="band 94">
        <r>  0.0000  0.0009  0.0019 </r>
        <r>  0.0000  0.0001  0.0009 </r>
        <r>  0.0005  0.0003  0.0007 </r>
        <r>  0.0000  0.0001  0.0004 </r>
        <r>  0.0040  0.0720  0.0019 </r>
        <r>  0.0026  0.0426  0.0013 </r>
        <r>  0.0016  0.0724  0.0009 </r>
        <r>  0.0023  0.1222  0.0012 </r>
        <r>  0.0002  0.0492  0.0008 </r>
        <r>  0.0128  0.0031  0.0054 </r>
        <r>  0.0002  0.0751  0.0006 </r>
        <r>  0.0088  0.0019  0.0034 </r>
        <r>  0.0008  0.0056  0.0015 </r>
        <r>  0.0000  0.0014  0.0027 </r>
        <r>  0.0000  0.0012  0.0016 </r>
        <r>  0.0003  0.0062  0.0009 </r>
        <r>  0.0005  0.0029  0.0010 </r>
        <r>  0.0000  0.0008  0.0016 </r>
        <r>  0.0005  0.0090  0.0014 </r>
        <r>  0.0000  0.0018  0.0027 </r>
       </set>
       <set comment="band 95">
        <r>  0.0000  0.0002  0.0005 </r>
        <r>  0.0001  0.0010  0.0014 </r>
        <r>  0.0000  0.0002  0.0004 </r>
        <r>  0.0003  0.0003  0.0005 </r>
        <r>  0.0025  0.0339  0.0012 </r>
        <r>  0.0043  0.0661  0.0022 </r>
        <r>  0.0021  0.1438  0.0011 </r>
        <r>  0.0013  0.0716  0.0009 </r>
        <r>  0.0128  0.0032  0.0060 </r>
        <r>  0.0003  0.0374  0.0008 </r>
        <r>  0.0070  0.0017  0.0031 </r>
        <r>  0.0005  0.0713  0.0003 </r>
        <r>  0.0006  0.0082  0.0027 </r>
        <r>  0.0002  0.0057  0.0012 </r>
        <r>  0.0001  0.0050  0.0009 </r>
        <r>  0.0002  0.0045  0.0017 </r>
        <r>  0.0003  0.0038  0.0012 </r>
        <r>  0.0001  0.0021  0.0007 </r>
        <r>  0.0005  0.0089  0.0032 </r>
        <r>  0.0002  0.0087  0.0015 </r>
       </set>
       <set comment="band 96">
        <r>  0.0003  0.0003  0.0005 </r>
        <r>  0.0000  0.0002  0.0004 </r>
        <r>  0.0001  0.0010  0.0014 </r>
        <r>  0.0000  0.0002  0.0005 </r>
        <r>  0.0013  0.0716  0.0009 </r>
        <r>  0.0021  0.1438  0.0011 </r>
        <r>  0.0043  0.0661  0.0022 </r>
        <r>  0.0025  0.0339  0.0012 </r>
        <r>  0.0005  0.0713  0.0003 </r>
        <r>  0.0070  0.0017  0.0031 </r>
        <r>  0.0003  0.0374  0.0008 </r>
        <r>  0.0128  0.0032  0.0060 </r>
        <r>  0.0002  0.0045  0.0017 </r>
        <r>  0.0001  0.0050  0.0009 </r>
        <r>  0.0002  0.0057  0.0012 </r>
        <r>  0.0006  0.0082  0.0027 </r>
        <r>  0.0005  0.0089  0.0032 </r>
        <r>  0.0002  0.0087  0.0015 </r>
        <r>  0.0003  0.0038  0.0012 </r>
        <r>  0.0001  0.0021  0.0007 </r>
       </set>
       <set comment="band 97">
        <r>  0.0000  0.0000  0.0020 </r>
        <r>  0.0001  0.0005  0.0010 </r>
        <r>  0.0000  0.0001  0.0032 </r>
        <r>  0.0003  0.0005  0.0011 </r>
        <r>  0.0032  0.1183  0.0010 </r>
        <r>  0.0025  0.0784  0.0010 </r>
        <r>  0.0016  0.0404  0.0008 </r>
        <r>  0.0016  0.0663  0.0013 </r>
        <r>  0.0006  0.0048  0.0005 </r>
        <r>  0.0002  0.0153  0.0036 </r>
        <r>  0.0040  0.0033  0.0022 </r>
        <r>  0.0000  0.0023  0.0033 </r>
        <r>  0.0015  0.0266  0.0016 </r>
        <r>  0.0001  0.0007  0.0017 </r>
        <r>  0.0002  0.0026  0.0025 </r>
        <r>  0.0045  0.0446  0.0019 </r>
        <r>  0.0033  0.0480  0.0024 </r>
        <r>  0.0002  0.0017  0.0029 </r>
        <r>  0.0027  0.0233  0.0011 </r>
        <r>  0.0001  0.0017  0.0014 </r>
       </set>
       <set comment="band 98">
        <r>  0.0003  0.0005  0.0011 </r>
        <r>  0.0000  0.0001  0.0032 </r>
        <r>  0.0001  0.0005  0.0010 </r>
        <r>  0.0000  0.0000  0.0020 </r>
        <r>  0.0016  0.0663  0.0013 </r>
        <r>  0.0016  0.0404  0.0008 </r>
        <r>  0.0025  0.0784  0.0010 </r>
        <r>  0.0032  0.1183  0.0010 </r>
        <r>  0.0000  0.0023  0.0033 </r>
        <r>  0.0040  0.0033  0.0022 </r>
        <r>  0.0002  0.0153  0.0036 </r>
        <r>  0.0006  0.0048  0.0005 </r>
        <r>  0.0045  0.0446  0.0019 </r>
        <r>  0.0002  0.0026  0.0025 </r>
        <r>  0.0001  0.0007  0.0017 </r>
        <r>  0.0015  0.0266  0.0016 </r>
        <r>  0.0027  0.0233  0.0011 </r>
        <r>  0.0001  0.0017  0.0014 </r>
        <r>  0.0033  0.0480  0.0024 </r>
        <r>  0.0002  0.0017  0.0029 </r>
       </set>
       <set comment="band 99">
        <r>  0.0000  0.0000  0.0032 </r>
        <r>  0.0000  0.0002  0.0028 </r>
        <r>  0.0000  0.0001  0.0032 </r>
        <r>  0.0000  0.0003  0.0016 </r>
        <r>  0.0000  0.0290  0.0006 </r>
        <r>  0.0002  0.0354  0.0009 </r>
        <r>  0.0001  0.1287  0.0005 </r>
        <r>  0.0000  0.1046  0.0006 </r>
        <r>  0.0006  0.0013  0.0015 </r>
        <r>  0.0000  0.0006  0.0042 </r>
        <r>  0.0001  0.0040  0.0007 </r>
        <r>  0.0001  0.0028  0.0044 </r>
        <r>  0.0001  0.0018  0.0041 </r>
        <r>  0.0000  0.0723  0.0028 </r>
        <r>  0.0001  0.0220  0.0008 </r>
        <r>  0.0001  0.0005  0.0015 </r>
        <r>  0.0000  0.0009  0.0010 </r>
        <r>  0.0000  0.0191  0.0013 </r>
        <r>  0.0001  0.0014  0.0045 </r>
        <r>  0.0001  0.0752  0.0022 </r>
       </set>
       <set comment="band 100">
        <r>  0.0000  0.0003  0.0016 </r>
        <r>  0.0000  0.0001  0.0032 </r>
        <r>  0.0000  0.0002  0.0028 </r>
        <r>  0.0000  0.0000  0.0032 </r>
        <r>  0.0000  0.1046  0.0006 </r>
        <r>  0.0001  0.1287  0.0005 </r>
        <r>  0.0002  0.0354  0.0009 </r>
        <r>  0.0000  0.0290  0.0006 </r>
        <r>  0.0001  0.0028  0.0044 </r>
        <r>  0.0001  0.0040  0.0007 </r>
        <r>  0.0000  0.0006  0.0042 </r>
        <r>  0.0006  0.0013  0.0015 </r>
        <r>  0.0001  0.0005  0.0015 </r>
        <r>  0.0001  0.0220  0.0008 </r>
        <r>  0.0000  0.0723  0.0028 </r>
        <r>  0.0001  0.0018  0.0041 </r>
        <r>  0.0001  0.0014  0.0045 </r>
        <r>  0.0001  0.0752  0.0022 </r>
        <r>  0.0000  0.0009  0.0010 </r>
        <r>  0.0000  0.0191  0.0013 </r>
       </set>
       <set comment="band 101">
        <r>  0.0012  0.0017  0.0165 </r>
        <r>  0.0053  0.0030  0.0275 </r>
        <r>  0.0037  0.0021  0.0214 </r>
        <r>  0.0018  0.0022  0.0155 </r>
        <r>  0.0001  0.0074  0.0002 </r>
        <r>  0.0005  0.0131  0.0002 </r>
        <r>  0.0000  0.0022  0.0013 </r>
        <r>  0.0000  0.0021  0.0004 </r>
        <r>  0.0007  0.0036  0.0043 </r>
        <r>  0.0015  0.0048  0.0029 </r>
        <r>  0.0021  0.0041  0.0039 </r>
        <r>  0.0005  0.0039  0.0031 </r>
        <r>  0.0008  0.0046  0.0016 </r>
        <r>  0.0023  0.0030  0.0025 </r>
        <r>  0.0041  0.0023  0.0023 </r>
        <r>  0.0004  0.0020  0.0008 </r>
        <r>  0.0002  0.0020  0.0005 </r>
        <r>  0.0043  0.0028  0.0027 </r>
        <r>  0.0010  0.0045  0.0019 </r>
        <r>  0.0022  0.0025  0.0021 </r>
       </set>
       <set comment="band 102">
        <r>  0.0018  0.0022  0.0155 </r>
        <r>  0.0037  0.0021  0.0214 </r>
        <r>  0.0053  0.0030  0.0275 </r>
        <r>  0.0012  0.0017  0.0165 </r>
        <r>  0.0000  0.0021  0.0004 </r>
        <r>  0.0000  0.0022  0.0013 </r>
        <r>  0.0005  0.0131  0.0002 </r>
        <r>  0.0001  0.0074  0.0002 </r>
        <r>  0.0005  0.0039  0.0031 </r>
        <r>  0.0021  0.0041  0.0039 </r>
        <r>  0.0015  0.0048  0.0029 </r>
        <r>  0.0007  0.0036  0.0043 </r>
        <r>  0.0004  0.0020  0.0008 </r>
        <r>  0.0041  0.0023  0.0023 </r>
        <r>  0.0023  0.0030  0.0025 </r>
        <r>  0.0008  0.0046  0.0016 </r>
        <r>  0.0010  0.0045  0.0019 </r>
        <r>  0.0022  0.0025  0.0021 </r>
        <r>  0.0002  0.0020  0.0005 </r>
        <r>  0.0043  0.0028  0.0027 </r>
       </set>
       <set comment="band 103">
        <r>  0.0053  0.0020  0.0237 </r>
        <r>  0.0009  0.0013  0.0177 </r>
        <r>  0.0008  0.0014  0.0168 </r>
        <r>  0.0058  0.0022  0.0261 </r>
        <r>  0.0004  0.0077  0.0007 </r>
        <r>  0.0000  0.0060  0.0002 </r>
        <r>  0.0001  0.0024  0.0001 </r>
        <r>  0.0000  0.0102  0.0001 </r>
        <r>  0.0010  0.0106  0.0028 </r>
        <r>  0.0007  0.0087  0.0026 </r>
        <r>  0.0007  0.0093  0.0029 </r>
        <r>  0.0009  0.0099  0.0026 </r>
        <r>  0.0015  0.0043  0.0018 </r>
        <r>  0.0009  0.0035  0.0010 </r>
        <r>  0.0016  0.0019  0.0018 </r>
        <r>  0.0010  0.0047  0.0020 </r>
        <r>  0.0010  0.0047  0.0019 </r>
        <r>  0.0017  0.0021  0.0018 </r>
        <r>  0.0016  0.0043  0.0019 </r>
        <r>  0.0009  0.0033  0.0010 </r>
       </set>
       <set comment="band 104">
        <r>  0.0058  0.0022  0.0261 </r>
        <r>  0.0008  0.0014  0.0168 </r>
        <r>  0.0009  0.0013  0.0177 </r>
        <r>  0.0053  0.0020  0.0237 </r>
        <r>  0.0000  0.0102  0.0001 </r>
        <r>  0.0001  0.0024  0.0001 </r>
        <r>  0.0000  0.0060  0.0002 </r>
        <r>  0.0004  0.0077  0.0007 </r>
        <r>  0.0009  0.0099  0.0026 </r>
        <r>  0.0007  0.0093  0.0029 </r>
        <r>  0.0007  0.0087  0.0026 </r>
        <r>  0.0010  0.0106  0.0028 </r>
        <r>  0.0010  0.0047  0.0020 </r>
        <r>  0.0016  0.0019  0.0018 </r>
        <r>  0.0009  0.0035  0.0010 </r>
        <r>  0.0015  0.0043  0.0018 </r>
        <r>  0.0016  0.0043  0.0019 </r>
        <r>  0.0009  0.0033  0.0010 </r>
        <r>  0.0010  0.0047  0.0019 </r>
        <r>  0.0017  0.0021  0.0018 </r>
       </set>
       <set comment="band 105">
        <r>  0.0005  0.0005  0.0315 </r>
        <r>  0.0014  0.0020  0.0300 </r>
        <r>  0.0011  0.0016  0.0293 </r>
        <r>  0.0006  0.0006  0.0304 </r>
        <r>  0.0000  0.0009  0.0013 </r>
        <r>  0.0009  0.0022  0.0006 </r>
        <r>  0.0000  0.0086  0.0014 </r>
        <r>  0.0000  0.0080  0.0007 </r>
        <r>  0.0002  0.0024  0.0021 </r>
        <r>  0.0002  0.0037  0.0022 </r>
        <r>  0.0003  0.0041  0.0023 </r>
        <r>  0.0002  0.0020  0.0019 </r>
        <r>  0.0020  0.0024  0.0035 </r>
        <r>  0.0025  0.0019  0.0037 </r>
        <r>  0.0002  0.0017  0.0020 </r>
        <r>  0.0009  0.0028  0.0036 </r>
        <r>  0.0012  0.0022  0.0035 </r>
        <r>  0.0004  0.0018  0.0019 </r>
        <r>  0.0018  0.0030  0.0036 </r>
        <r>  0.0023  0.0018  0.0038 </r>
       </set>
       <set comment="band 106">
        <r>  0.0006  0.0006  0.0304 </r>
        <r>  0.0011  0.0016  0.0293 </r>
        <r>  0.0014  0.0020  0.0300 </r>
        <r>  0.0005  0.0005  0.0315 </r>
        <r>  0.0000  0.0080  0.0007 </r>
        <r>  0.0000  0.0086  0.0014 </r>
        <r>  0.0009  0.0022  0.0006 </r>
        <r>  0.0000  0.0009  0.0013 </r>
        <r>  0.0002  0.0020  0.0019 </r>
        <r>  0.0003  0.0041  0.0023 </r>
        <r>  0.0002  0.0037  0.0022 </r>
        <r>  0.0002  0.0024  0.0021 </r>
        <r>  0.0009  0.0028  0.0036 </r>
        <r>  0.0002  0.0017  0.0020 </r>
        <r>  0.0025  0.0019  0.0037 </r>
        <r>  0.0020  0.0024  0.0035 </r>
        <r>  0.0018  0.0030  0.0036 </r>
        <r>  0.0023  0.0018  0.0038 </r>
        <r>  0.0012  0.0022  0.0035 </r>
        <r>  0.0004  0.0018  0.0019 </r>
       </set>
       <set comment="band 107">
        <r>  0.0001  0.0031  0.0251 </r>
        <r>  0.0013  0.0013  0.0317 </r>
        <r>  0.0010  0.0011  0.0362 </r>
        <r>  0.0002  0.0038  0.0249 </r>
        <r>  0.0002  0.0014  0.0002 </r>
        <r>  0.0000  0.0038  0.0009 </r>
        <r>  0.0002  0.0130  0.0017 </r>
        <r>  0.0001  0.0101  0.0025 </r>
        <r>  0.0004  0.0035  0.0018 </r>
        <r>  0.0007  0.0039  0.0019 </r>
        <r>  0.0010  0.0039  0.0021 </r>
        <r>  0.0003  0.0037  0.0020 </r>
        <r>  0.0018  0.0044  0.0061 </r>
        <r>  0.0006  0.0018  0.0050 </r>
        <r>  0.0010  0.0019  0.0017 </r>
        <r>  0.0003  0.0027  0.0026 </r>
        <r>  0.0002  0.0028  0.0021 </r>
        <r>  0.0008  0.0020  0.0017 </r>
        <r>  0.0019  0.0044  0.0065 </r>
        <r>  0.0008  0.0017  0.0050 </r>
       </set>
       <set comment="band 108">
        <r>  0.0002  0.0038  0.0249 </r>
        <r>  0.0010  0.0011  0.0362 </r>
        <r>  0.0013  0.0013  0.0317 </r>
        <r>  0.0001  0.0031  0.0251 </r>
        <r>  0.0001  0.0101  0.0025 </r>
        <r>  0.0002  0.0130  0.0017 </r>
        <r>  0.0000  0.0038  0.0009 </r>
        <r>  0.0002  0.0014  0.0002 </r>
        <r>  0.0003  0.0037  0.0020 </r>
        <r>  0.0010  0.0039  0.0021 </r>
        <r>  0.0007  0.0039  0.0019 </r>
        <r>  0.0004  0.0035  0.0018 </r>
        <r>  0.0003  0.0027  0.0026 </r>
        <r>  0.0010  0.0019  0.0017 </r>
        <r>  0.0006  0.0018  0.0050 </r>
        <r>  0.0018  0.0044  0.0061 </r>
        <r>  0.0019  0.0044  0.0065 </r>
        <r>  0.0008  0.0017  0.0050 </r>
        <r>  0.0002  0.0028  0.0021 </r>
        <r>  0.0008  0.0020  0.0017 </r>
       </set>
       <set comment="band 109">
        <r>  0.0006  0.0025  0.0400 </r>
        <r>  0.0003  0.0031  0.0219 </r>
        <r>  0.0004  0.0039  0.0258 </r>
        <r>  0.0005  0.0020  0.0320 </r>
        <r>  0.0001  0.0047  0.0007 </r>
        <r>  0.0000  0.0024  0.0013 </r>
        <r>  0.0001  0.0046  0.0004 </r>
        <r>  0.0000  0.0052  0.0005 </r>
        <r>  0.0026  0.0028  0.0026 </r>
        <r>  0.0002  0.0074  0.0029 </r>
        <r>  0.0001  0.0057  0.0023 </r>
        <r>  0.0034  0.0029  0.0032 </r>
        <r>  0.0015  0.0015  0.0029 </r>
        <r>  0.0002  0.0054  0.0046 </r>
        <r>  0.0001  0.0042  0.0031 </r>
        <r>  0.0001  0.0032  0.0013 </r>
        <r>  0.0001  0.0035  0.0016 </r>
        <r>  0.0001  0.0040  0.0026 </r>
        <r>  0.0015  0.0012  0.0026 </r>
        <r>  0.0003  0.0056  0.0051 </r>
       </set>
       <set comment="band 110">
        <r>  0.0005  0.0020  0.0320 </r>
        <r>  0.0004  0.0039  0.0258 </r>
        <r>  0.0003  0.0031  0.0219 </r>
        <r>  0.0006  0.0025  0.0400 </r>
        <r>  0.0000  0.0052  0.0005 </r>
        <r>  0.0001  0.0046  0.0004 </r>
        <r>  0.0000  0.0024  0.0013 </r>
        <r>  0.0001  0.0047  0.0007 </r>
        <r>  0.0034  0.0029  0.0032 </r>
        <r>  0.0001  0.0057  0.0023 </r>
        <r>  0.0002  0.0074  0.0029 </r>
        <r>  0.0026  0.0028  0.0026 </r>
        <r>  0.0001  0.0032  0.0013 </r>
        <r>  0.0001  0.0042  0.0031 </r>
        <r>  0.0002  0.0054  0.0046 </r>
        <r>  0.0015  0.0015  0.0029 </r>
        <r>  0.0015  0.0012  0.0026 </r>
        <r>  0.0003  0.0056  0.0051 </r>
        <r>  0.0001  0.0035  0.0016 </r>
        <r>  0.0001  0.0040  0.0026 </r>
       </set>
       <set comment="band 111">
        <r>  0.0026  0.0020  0.0365 </r>
        <r>  0.0012  0.0023  0.0269 </r>
        <r>  0.0008  0.0018  0.0230 </r>
        <r>  0.0043  0.0025  0.0316 </r>
        <r>  0.0002  0.0031  0.0025 </r>
        <r>  0.0001  0.0065  0.0020 </r>
        <r>  0.0001  0.0066  0.0003 </r>
        <r>  0.0000  0.0107  0.0010 </r>
        <r>  0.0002  0.0108  0.0016 </r>
        <r>  0.0006  0.0022  0.0033 </r>
        <r>  0.0010  0.0037  0.0032 </r>
        <r>  0.0001  0.0066  0.0011 </r>
        <r>  0.0002  0.0010  0.0026 </r>
        <r>  0.0011  0.0065  0.0027 </r>
        <r>  0.0004  0.0017  0.0049 </r>
        <r>  0.0012  0.0048  0.0035 </r>
        <r>  0.0012  0.0042  0.0037 </r>
        <r>  0.0004  0.0023  0.0055 </r>
        <r>  0.0002  0.0015  0.0024 </r>
        <r>  0.0011  0.0060  0.0021 </r>
       </set>
       <set comment="band 112">
        <r>  0.0043  0.0025  0.0316 </r>
        <r>  0.0008  0.0018  0.0231 </r>
        <r>  0.0013  0.0023  0.0269 </r>
        <r>  0.0026  0.0020  0.0365 </r>
        <r>  0.0000  0.0107  0.0010 </r>
        <r>  0.0001  0.0066  0.0003 </r>
        <r>  0.0001  0.0065  0.0020 </r>
        <r>  0.0002  0.0031  0.0025 </r>
        <r>  0.0001  0.0066  0.0012 </r>
        <r>  0.0010  0.0037  0.0032 </r>
        <r>  0.0006  0.0022  0.0033 </r>
        <r>  0.0002  0.0109  0.0016 </r>
        <r>  0.0012  0.0048  0.0035 </r>
        <r>  0.0004  0.0017  0.0049 </r>
        <r>  0.0011  0.0065  0.0027 </r>
        <r>  0.0002  0.0010  0.0026 </r>
        <r>  0.0002  0.0015  0.0024 </r>
        <r>  0.0011  0.0060  0.0021 </r>
        <r>  0.0012  0.0042  0.0037 </r>
        <r>  0.0004  0.0023  0.0055 </r>
       </set>
      </set>
     </set>
    </set>
   </array>
  </projected>
 </calculation>
 <structure name="finalpos" >
  <crystal>
   <varray name="basis" >
    <v>       8.41320389       0.00000000       0.00000000 </v>
    <v>       0.00000000      11.70438635       0.00000000 </v>
    <v>      -0.00000000       0.00000000       7.79651031 </v>
   </varray>
   <i name="volume">    767.73319683 </i>
   <varray name="rec_basis" >
    <v>       0.11886078      -0.00000000       0.00000000 </v>
    <v>       0.00000000       0.08543805      -0.00000000 </v>
    <v>      -0.00000000       0.00000000       0.12826251 </v>
   </varray>
  </crystal>
  <varray name="positions" >
   <v>       0.07607096       0.25000000       0.47172528 </v>
   <v>       0.42392904       0.75000000       0.97172528 </v>
   <v>       0.57607096       0.25000000       0.02827472 </v>
   <v>       0.92392904       0.75000000       0.52827472 </v>
   <v>       0.00000000       0.00000000       0.00000000 </v>
   <v>       0.50000000       0.00000000       0.50000000 </v>
   <v>       0.50000000       0.50000000       0.50000000 </v>
   <v>       0.00000000       0.50000000       0.00000000 </v>
   <v>       0.50100940       0.75000000       0.43375268 </v>
   <v>       0.99899060       0.25000000       0.93375268 </v>
   <v>       0.00100940       0.75000000       0.06624732 </v>
   <v>       0.49899060       0.25000000       0.56624732 </v>
   <v>       0.30694969       0.46542476       0.18442285 </v>
   <v>       0.19305031       0.53457524       0.68442285 </v>
   <v>       0.80694969       0.03457524       0.31557715 </v>
   <v>       0.69305031       0.96542476       0.81557715 </v>
   <v>       0.30694969       0.03457524       0.18442285 </v>
   <v>       0.19305031       0.96542476       0.68442285 </v>
   <v>       0.69305031       0.53457524       0.81557715 </v>
   <v>       0.80694969       0.46542476       0.31557715 </v>
  </varray>
 </structure>
</modeling>
