CsPbBr3 cubic bulk                      
           1
     8.413204    0.000000    0.000000
     0.000000   11.704386    0.000000
    -0.000000    0.000000    7.796510
   Cs   Pb   Br
   4   4  12
Direct configuration=     1
   0.07607096  0.25000000  0.47172528
   0.42392904  0.75000000  0.97172528
   0.57607096  0.25000000  0.02827472
   0.92392904  0.75000000  0.52827472
   0.00000000  0.00000000  0.00000000
   0.50000000  0.00000000  0.50000000
   0.50000000  0.50000000  0.50000000
   0.00000000  0.50000000  0.00000000
   0.50100940  0.75000000  0.43375268
   0.99899060  0.25000000  0.93375268
   0.00100940  0.75000000  0.06624732
   0.49899060  0.25000000  0.56624732
   0.30694969  0.46542476  0.18442285
   0.19305031  0.53457524  0.68442285
   0.80694969  0.03457524  0.31557715
   0.69305031  0.96542476  0.81557715
   0.30694969  0.03457524  0.18442285
   0.19305031  0.96542476  0.68442285
   0.69305031  0.53457524  0.81557715
   0.80694969  0.46542476  0.31557715
