  20  20   1   0
  0.4066461E+02  0.1018489E-08  0.1018489E-08  0.1018489E-08  0.5000000E-15
   1.0000000000000000E-004
  CAR 
 CsPbBr3 cubic bulk                      
      8.70878378    -22.53345096  301      0.32545079      1.00000000
    -22.533  0.0000E+00  0.0000E+00
    -22.429  0.0000E+00  0.0000E+00
    -22.325  0.0000E+00  0.0000E+00
    -22.221  0.0000E+00  0.0000E+00
    -22.117  0.0000E+00  0.0000E+00
    -22.013  0.0000E+00  0.0000E+00
    -21.909  0.0000E+00  0.0000E+00
    -21.804  0.0000E+00  0.0000E+00
    -21.700  0.0000E+00  0.0000E+00
    -21.596  0.0000E+00  0.0000E+00
    -21.492  0.0000E+00  0.0000E+00
    -21.388  0.0000E+00  0.0000E+00
    -21.284  0.0000E+00  0.0000E+00
    -21.180  0.0000E+00  0.0000E+00
    -21.075  0.1920E+02  0.2000E+01
    -20.971  0.8191E-05  0.2000E+01
    -20.867  0.5761E+02  0.8000E+01
    -20.763  0.0000E+00  0.8000E+01
    -20.659  0.0000E+00  0.8000E+01
    -20.555  0.0000E+00  0.8000E+01
    -20.451  0.0000E+00  0.8000E+01
    -20.346  0.0000E+00  0.8000E+01
    -20.242  0.0000E+00  0.8000E+01
    -20.138  0.0000E+00  0.8000E+01
    -20.034  0.0000E+00  0.8000E+01
    -19.930  0.0000E+00  0.8000E+01
    -19.826  0.0000E+00  0.8000E+01
    -19.722  0.0000E+00  0.8000E+01
    -19.618  0.0000E+00  0.8000E+01
    -19.513  0.0000E+00  0.8000E+01
    -19.409  0.0000E+00  0.8000E+01
    -19.305  0.0000E+00  0.8000E+01
    -19.201  0.0000E+00  0.8000E+01
    -19.097  0.0000E+00  0.8000E+01
    -18.993  0.0000E+00  0.8000E+01
    -18.889  0.0000E+00  0.8000E+01
    -18.784  0.0000E+00  0.8000E+01
    -18.680  0.0000E+00  0.8000E+01
    -18.576  0.0000E+00  0.8000E+01
    -18.472  0.0000E+00  0.8000E+01
    -18.368  0.0000E+00  0.8000E+01
    -18.264  0.0000E+00  0.8000E+01
    -18.160  0.0000E+00  0.8000E+01
    -18.055  0.0000E+00  0.8000E+01
    -17.951  0.0000E+00  0.8000E+01
    -17.847  0.0000E+00  0.8000E+01
    -17.743  0.0000E+00  0.8000E+01
    -17.639  0.0000E+00  0.8000E+01
    -17.535  0.0000E+00  0.8000E+01
    -17.431  0.0000E+00  0.8000E+01
    -17.326  0.0000E+00  0.8000E+01
    -17.222  0.0000E+00  0.8000E+01
    -17.118  0.0000E+00  0.8000E+01
    -17.014  0.0000E+00  0.8000E+01
    -16.910  0.0000E+00  0.8000E+01
    -16.806  0.0000E+00  0.8000E+01
    -16.702  0.0000E+00  0.8000E+01
    -16.597  0.0000E+00  0.8000E+01
    -16.493  0.0000E+00  0.8000E+01
    -16.389  0.6808E+02  0.1509E+02
    -16.285  0.5619E+02  0.2400E+02
    -16.181  0.2305E+03  0.4800E+02
    -16.077  0.0000E+00  0.4800E+02
    -15.973  0.0000E+00  0.4800E+02
    -15.868  0.0000E+00  0.4800E+02
    -15.764  0.0000E+00  0.4800E+02
    -15.660  0.0000E+00  0.4800E+02
    -15.556  0.0000E+00  0.4800E+02
    -15.452  0.0000E+00  0.4800E+02
    -15.348  0.0000E+00  0.4800E+02
    -15.244  0.0000E+00  0.4800E+02
    -15.139  0.0000E+00  0.4800E+02
    -15.035  0.0000E+00  0.4800E+02
    -14.931  0.0000E+00  0.4800E+02
    -14.827  0.0000E+00  0.4800E+02
    -14.723  0.0000E+00  0.4800E+02
    -14.619  0.0000E+00  0.4800E+02
    -14.515  0.0000E+00  0.4800E+02
    -14.410  0.8544E-03  0.4800E+02
    -14.306  0.8536E+01  0.4896E+02
    -14.202  0.2186E+02  0.5124E+02
    -14.098  0.2777E+02  0.5497E+02
    -13.994  0.4267E+02  0.5978E+02
    -13.890  0.5870E+02  0.6589E+02
    -13.786  0.3465E+02  0.6968E+02
    -13.681  0.5690E+01  0.7200E+02
    -13.577  0.0000E+00  0.7200E+02
    -13.473  0.0000E+00  0.7200E+02
    -13.369  0.0000E+00  0.7200E+02
    -13.265  0.0000E+00  0.7200E+02
    -13.161  0.0000E+00  0.7200E+02
    -13.057  0.0000E+00  0.7200E+02
    -12.952  0.0000E+00  0.7200E+02
    -12.848  0.0000E+00  0.7200E+02
    -12.744  0.0000E+00  0.7200E+02
    -12.640  0.0000E+00  0.7200E+02
    -12.536  0.0000E+00  0.7200E+02
    -12.432  0.0000E+00  0.7200E+02
    -12.328  0.0000E+00  0.7200E+02
    -12.224  0.0000E+00  0.7200E+02
    -12.119  0.0000E+00  0.7200E+02
    -12.015  0.0000E+00  0.7200E+02
    -11.911  0.0000E+00  0.7200E+02
    -11.807  0.0000E+00  0.7200E+02
    -11.703  0.0000E+00  0.7200E+02
    -11.599  0.0000E+00  0.7200E+02
    -11.495  0.0000E+00  0.7200E+02
    -11.390  0.0000E+00  0.7200E+02
    -11.286  0.0000E+00  0.7200E+02
    -11.182  0.0000E+00  0.7200E+02
    -11.078  0.0000E+00  0.7200E+02
    -10.974  0.0000E+00  0.7200E+02
    -10.870  0.0000E+00  0.7200E+02
    -10.766  0.0000E+00  0.7200E+02
    -10.661  0.0000E+00  0.7200E+02
    -10.557  0.0000E+00  0.7200E+02
    -10.453  0.0000E+00  0.7200E+02
    -10.349  0.0000E+00  0.7200E+02
    -10.245  0.0000E+00  0.7200E+02
    -10.141  0.0000E+00  0.7200E+02
    -10.037  0.0000E+00  0.7200E+02
     -9.932  0.0000E+00  0.7200E+02
     -9.828  0.0000E+00  0.7200E+02
     -9.724  0.0000E+00  0.7200E+02
     -9.620  0.0000E+00  0.7200E+02
     -9.516  0.0000E+00  0.7200E+02
     -9.412  0.0000E+00  0.7200E+02
     -9.308  0.0000E+00  0.7200E+02
     -9.203  0.0000E+00  0.7200E+02
     -9.099  0.0000E+00  0.7200E+02
     -8.995  0.0000E+00  0.7200E+02
     -8.891  0.0000E+00  0.7200E+02
     -8.787  0.0000E+00  0.7200E+02
     -8.683  0.0000E+00  0.7200E+02
     -8.579  0.0000E+00  0.7200E+02
     -8.474  0.0000E+00  0.7200E+02
     -8.370  0.0000E+00  0.7200E+02
     -8.266  0.0000E+00  0.7200E+02
     -8.162  0.1048E-10  0.7200E+02
     -8.058  0.4268E+01  0.7244E+02
     -7.954  0.0000E+00  0.7244E+02
     -7.850  0.5690E+01  0.7304E+02
     -7.745  0.3118E+00  0.7307E+02
     -7.641  0.2134E+01  0.7504E+02
     -7.537  0.0000E+00  0.7504E+02
     -7.433  0.6615E+02  0.8193E+02
     -7.329  0.6765E+02  0.8897E+02
     -7.225  0.6546E+02  0.1019E+03
     -7.121  0.0000E+00  0.1026E+03
     -7.016  0.8371E-11  0.1026E+03
     -6.912  0.4268E+01  0.1030E+03
     -6.808  0.8535E+01  0.1039E+03
     -6.704  0.0000E+00  0.1039E+03
     -6.600  0.0000E+00  0.1039E+03
     -6.496  0.2351E-10  0.1039E+03
     -6.392  0.7113E+00  0.1040E+03
     -6.287  0.0000E+00  0.1040E+03
     -6.183  0.0000E+00  0.1040E+03
     -6.079  0.0000E+00  0.1040E+03
     -5.975  0.0000E+00  0.1040E+03
     -5.871  0.0000E+00  0.1040E+03
     -5.767  0.0000E+00  0.1040E+03
     -5.663  0.0000E+00  0.1040E+03
     -5.559  0.0000E+00  0.1040E+03
     -5.454  0.0000E+00  0.1040E+03
     -5.350  0.0000E+00  0.1040E+03
     -5.246  0.0000E+00  0.1040E+03
     -5.142  0.0000E+00  0.1040E+03
     -5.038  0.0000E+00  0.1040E+03
     -4.934  0.0000E+00  0.1040E+03
     -4.830  0.0000E+00  0.1040E+03
     -4.725  0.0000E+00  0.1040E+03
     -4.621  0.0000E+00  0.1040E+03
     -4.517  0.0000E+00  0.1040E+03
     -4.413  0.0000E+00  0.1040E+03
     -4.309  0.0000E+00  0.1040E+03
     -4.205  0.0000E+00  0.1040E+03
     -4.101  0.0000E+00  0.1040E+03
     -3.996  0.0000E+00  0.1040E+03
     -3.892  0.0000E+00  0.1040E+03
     -3.788  0.0000E+00  0.1040E+03
     -3.684  0.0000E+00  0.1040E+03
     -3.580  0.0000E+00  0.1040E+03
     -3.476  0.0000E+00  0.1040E+03
     -3.372  0.1096E+00  0.1040E+03
     -3.267  0.1707E+02  0.1060E+03
     -3.163  0.1707E+02  0.1078E+03
     -3.059  0.2139E+01  0.1080E+03
     -2.955  0.6769E+01  0.1096E+03
     -2.851  0.8424E+01  0.1115E+03
     -2.747  0.4268E+02  0.1160E+03
     -2.643  0.0000E+00  0.1160E+03
     -2.538  0.0000E+00  0.1160E+03
     -2.434  0.0000E+00  0.1160E+03
     -2.330  0.0000E+00  0.1160E+03
     -2.226  0.8486E+01  0.1169E+03
     -2.122  0.2271E+02  0.1197E+03
     -2.018  0.4325E+02  0.1259E+03
     -1.914  0.1048E+02  0.1271E+03
     -1.809  0.4268E+01  0.1282E+03
     -1.705  0.3597E+02  0.1320E+03
     -1.601  0.2348E+02  0.1345E+03
     -1.497  0.2728E+02  0.1382E+03
     -1.393  0.3648E+02  0.1430E+03
     -1.289  0.7617E+02  0.1518E+03
     -1.185  0.6101E+02  0.1590E+03
     -1.080  0.3675E+02  0.1637E+03
     -0.976  0.3323E+02  0.1676E+03
     -0.872  0.1139E+02  0.1690E+03
     -0.768  0.9958E+01  0.1712E+03
     -0.664  0.8528E+01  0.1721E+03
     -0.560  0.8535E+01  0.1730E+03
     -0.456  0.2139E+00  0.1730E+03
     -0.351  0.5054E-09  0.1736E+03
     -0.247  0.1707E+02  0.1753E+03
     -0.143  0.0000E+00  0.1753E+03
     -0.039  0.1392E+01  0.1755E+03
      0.065  0.0000E+00  0.1756E+03
      0.169  0.0000E+00  0.1756E+03
      0.273  0.3130E+01  0.1759E+03
      0.378  0.0000E+00  0.1760E+03
      0.482  0.0000E+00  0.1760E+03
      0.586  0.0000E+00  0.1760E+03
      0.690  0.0000E+00  0.1760E+03
      0.794  0.0000E+00  0.1760E+03
      0.898  0.0000E+00  0.1760E+03
      1.002  0.0000E+00  0.1760E+03
      1.107  0.0000E+00  0.1760E+03
      1.211  0.0000E+00  0.1760E+03
      1.315  0.0000E+00  0.1760E+03
      1.419  0.0000E+00  0.1760E+03
      1.523  0.0000E+00  0.1760E+03
      1.627  0.0000E+00  0.1760E+03
      1.731  0.0000E+00  0.1760E+03
      1.835  0.0000E+00  0.1760E+03
      1.940  0.0000E+00  0.1760E+03
      2.044  0.0000E+00  0.1760E+03
      2.148  0.0000E+00  0.1760E+03
      2.252  0.0000E+00  0.1760E+03
      2.356  0.0000E+00  0.1760E+03
      2.460  0.0000E+00  0.1760E+03
      2.564  0.0000E+00  0.1760E+03
      2.669  0.0000E+00  0.1760E+03
      2.773  0.0000E+00  0.1760E+03
      2.877  0.8430E+01  0.1769E+03
      2.981  0.0000E+00  0.1769E+03
      3.085  0.0000E+00  0.1769E+03
      3.189  0.1350E+02  0.1783E+03
      3.293  0.2134E+01  0.1791E+03
      3.398  0.2369E-15  0.1791E+03
      3.502  0.4597E+01  0.1796E+03
      3.606  0.7481E-01  0.1800E+03
      3.710  0.9016E-05  0.1804E+03
      3.814  0.1138E+02  0.1816E+03
      3.918  0.1453E+02  0.1831E+03
      4.022  0.5749E-02  0.1840E+03
      4.127  0.5760E-01  0.1849E+03
      4.231  0.5686E+01  0.1876E+03
      4.335  0.2168E-05  0.1876E+03
      4.439  0.4268E+01  0.1880E+03
      4.543  0.0000E+00  0.1880E+03
      4.647  0.4597E+00  0.1880E+03
      4.751  0.0000E+00  0.1881E+03
      4.856  0.0000E+00  0.1881E+03
      4.960  0.0000E+00  0.1881E+03
      5.064  0.1002E-05  0.1881E+03
      5.168  0.2561E+02  0.1907E+03
      5.272  0.7012E-04  0.1907E+03
      5.376  0.2878E+02  0.1937E+03
      5.480  0.8535E+01  0.1952E+03
      5.585  0.0000E+00  0.1952E+03
      5.689  0.1135E+02  0.1964E+03
      5.793  0.1431E+01  0.1967E+03
      5.897  0.8535E+01  0.1978E+03
      6.001  0.1310E+02  0.1991E+03
      6.105  0.3840E+02  0.2036E+03
      6.209  0.9958E+01  0.2046E+03
      6.314  0.2832E+02  0.2075E+03
      6.418  0.6401E+01  0.2084E+03
      6.522  0.2625E+02  0.2111E+03
      6.626  0.2423E+02  0.2149E+03
      6.730  0.2457E+02  0.2179E+03
      6.834  0.2134E+02  0.2208E+03
      6.938  0.1212E+02  0.2225E+03
      7.043  0.8517E+01  0.2239E+03
      7.147  0.0000E+00  0.2239E+03
      7.251  0.3034E-07  0.2239E+03
      7.355  0.7113E+00  0.2240E+03
      7.459  0.0000E+00  0.2240E+03
      7.563  0.0000E+00  0.2240E+03
      7.667  0.0000E+00  0.2240E+03
      7.772  0.0000E+00  0.2240E+03
      7.876  0.0000E+00  0.2240E+03
      7.980  0.0000E+00  0.2240E+03
      8.084  0.0000E+00  0.2240E+03
      8.188  0.0000E+00  0.2240E+03
      8.292  0.0000E+00  0.2240E+03
      8.396  0.0000E+00  0.2240E+03
      8.501  0.0000E+00  0.2240E+03
      8.605  0.0000E+00  0.2240E+03
      8.709  0.0000E+00  0.2240E+03
      8.70878378    -22.53345096  301      0.32545079      1.00000000
    -22.533  0.0000E+00  0.0000E+00  0.0000E+00
    -22.429  0.0000E+00  0.0000E+00  0.0000E+00
    -22.325  0.0000E+00  0.0000E+00  0.0000E+00
    -22.221  0.0000E+00  0.0000E+00  0.0000E+00
    -22.117  0.0000E+00  0.0000E+00  0.0000E+00
    -22.013  0.0000E+00  0.0000E+00  0.0000E+00
    -21.909  0.0000E+00  0.0000E+00  0.0000E+00
    -21.804  0.0000E+00  0.0000E+00  0.0000E+00
    -21.700  0.0000E+00  0.0000E+00  0.0000E+00
    -21.596  0.0000E+00  0.0000E+00  0.0000E+00
    -21.492  0.0000E+00  0.0000E+00  0.0000E+00
    -21.388  0.0000E+00  0.0000E+00  0.0000E+00
    -21.284  0.0000E+00  0.0000E+00  0.0000E+00
    -21.180  0.0000E+00  0.0000E+00  0.0000E+00
    -21.075  0.1705E+02  0.3550E-08  0.1740E-09
    -20.971  0.5101E-10  0.1584E-13  0.1347E-14
    -20.867  0.3108E-03  0.9734E-07  0.9684E-08
    -20.763  0.0000E+00  0.0000E+00  0.0000E+00
    -20.659  0.0000E+00  0.0000E+00  0.0000E+00
    -20.555  0.0000E+00  0.0000E+00  0.0000E+00
    -20.451  0.0000E+00  0.0000E+00  0.0000E+00
    -20.346  0.0000E+00  0.0000E+00  0.0000E+00
    -20.242  0.0000E+00  0.0000E+00  0.0000E+00
    -20.138  0.0000E+00  0.0000E+00  0.0000E+00
    -20.034  0.0000E+00  0.0000E+00  0.0000E+00
    -19.930  0.0000E+00  0.0000E+00  0.0000E+00
    -19.826  0.0000E+00  0.0000E+00  0.0000E+00
    -19.722  0.0000E+00  0.0000E+00  0.0000E+00
    -19.618  0.0000E+00  0.0000E+00  0.0000E+00
    -19.513  0.0000E+00  0.0000E+00  0.0000E+00
    -19.409  0.0000E+00  0.0000E+00  0.0000E+00
    -19.305  0.0000E+00  0.0000E+00  0.0000E+00
    -19.201  0.0000E+00  0.0000E+00  0.0000E+00
    -19.097  0.0000E+00  0.0000E+00  0.0000E+00
    -18.993  0.0000E+00  0.0000E+00  0.0000E+00
    -18.889  0.0000E+00  0.0000E+00  0.0000E+00
    -18.784  0.0000E+00  0.0000E+00  0.0000E+00
    -18.680  0.0000E+00  0.0000E+00  0.0000E+00
    -18.576  0.0000E+00  0.0000E+00  0.0000E+00
    -18.472  0.0000E+00  0.0000E+00  0.0000E+00
    -18.368  0.0000E+00  0.0000E+00  0.0000E+00
    -18.264  0.0000E+00  0.0000E+00  0.0000E+00
    -18.160  0.0000E+00  0.0000E+00  0.0000E+00
    -18.055  0.0000E+00  0.0000E+00  0.0000E+00
    -17.951  0.0000E+00  0.0000E+00  0.0000E+00
    -17.847  0.0000E+00  0.0000E+00  0.0000E+00
    -17.743  0.0000E+00  0.0000E+00  0.0000E+00
    -17.639  0.0000E+00  0.0000E+00  0.0000E+00
    -17.535  0.0000E+00  0.0000E+00  0.0000E+00
    -17.431  0.0000E+00  0.0000E+00  0.0000E+00
    -17.326  0.0000E+00  0.0000E+00  0.0000E+00
    -17.222  0.0000E+00  0.0000E+00  0.0000E+00
    -17.118  0.0000E+00  0.0000E+00  0.0000E+00
    -17.014  0.0000E+00  0.0000E+00  0.0000E+00
    -16.910  0.0000E+00  0.0000E+00  0.0000E+00
    -16.806  0.0000E+00  0.0000E+00  0.0000E+00
    -16.702  0.0000E+00  0.0000E+00  0.0000E+00
    -16.597  0.0000E+00  0.0000E+00  0.0000E+00
    -16.493  0.0000E+00  0.0000E+00  0.0000E+00
    -16.389  0.3598E-07  0.6609E-05  0.4697E-05
    -16.285  0.7913E-09  0.1302E-04  0.8878E-06
    -16.181  0.2597E-04  0.1781E-04  0.1829E-05
    -16.077  0.0000E+00  0.0000E+00  0.0000E+00
    -15.973  0.0000E+00  0.0000E+00  0.0000E+00
    -15.868  0.0000E+00  0.0000E+00  0.0000E+00
    -15.764  0.0000E+00  0.0000E+00  0.0000E+00
    -15.660  0.0000E+00  0.0000E+00  0.0000E+00
    -15.556  0.0000E+00  0.0000E+00  0.0000E+00
    -15.452  0.0000E+00  0.0000E+00  0.0000E+00
    -15.348  0.0000E+00  0.0000E+00  0.0000E+00
    -15.244  0.0000E+00  0.0000E+00  0.0000E+00
    -15.139  0.0000E+00  0.0000E+00  0.0000E+00
    -15.035  0.0000E+00  0.0000E+00  0.0000E+00
    -14.931  0.0000E+00  0.0000E+00  0.0000E+00
    -14.827  0.0000E+00  0.0000E+00  0.0000E+00
    -14.723  0.0000E+00  0.0000E+00  0.0000E+00
    -14.619  0.0000E+00  0.0000E+00  0.0000E+00
    -14.515  0.0000E+00  0.0000E+00  0.0000E+00
    -14.410  0.1525E-06  0.9060E-21  0.7905E-16
    -14.306  0.1066E-02  0.2936E-03  0.1365E-05
    -14.202  0.1228E-02  0.1552E-02  0.1994E-04
    -14.098  0.5577E-04  0.2306E-02  0.7226E-04
    -13.994  0.5944E-03  0.1480E-02  0.1327E-03
    -13.890  0.1641E-03  0.1416E-02  0.2026E-03
    -13.786  0.2365E-04  0.2813E-03  0.9848E-04
    -13.681  0.5059E-09  0.6930E-05  0.1141E-04
    -13.577  0.0000E+00  0.0000E+00  0.0000E+00
    -13.473  0.0000E+00  0.0000E+00  0.0000E+00
    -13.369  0.0000E+00  0.0000E+00  0.0000E+00
    -13.265  0.0000E+00  0.0000E+00  0.0000E+00
    -13.161  0.0000E+00  0.0000E+00  0.0000E+00
    -13.057  0.0000E+00  0.0000E+00  0.0000E+00
    -12.952  0.0000E+00  0.0000E+00  0.0000E+00
    -12.848  0.0000E+00  0.0000E+00  0.0000E+00
    -12.744  0.0000E+00  0.0000E+00  0.0000E+00
    -12.640  0.0000E+00  0.0000E+00  0.0000E+00
    -12.536  0.0000E+00  0.0000E+00  0.0000E+00
    -12.432  0.0000E+00  0.0000E+00  0.0000E+00
    -12.328  0.0000E+00  0.0000E+00  0.0000E+00
    -12.224  0.0000E+00  0.0000E+00  0.0000E+00
    -12.119  0.0000E+00  0.0000E+00  0.0000E+00
    -12.015  0.0000E+00  0.0000E+00  0.0000E+00
    -11.911  0.0000E+00  0.0000E+00  0.0000E+00
    -11.807  0.0000E+00  0.0000E+00  0.0000E+00
    -11.703  0.0000E+00  0.0000E+00  0.0000E+00
    -11.599  0.0000E+00  0.0000E+00  0.0000E+00
    -11.495  0.0000E+00  0.0000E+00  0.0000E+00
    -11.390  0.0000E+00  0.0000E+00  0.0000E+00
    -11.286  0.0000E+00  0.0000E+00  0.0000E+00
    -11.182  0.0000E+00  0.0000E+00  0.0000E+00
    -11.078  0.0000E+00  0.0000E+00  0.0000E+00
    -10.974  0.0000E+00  0.0000E+00  0.0000E+00
    -10.870  0.0000E+00  0.0000E+00  0.0000E+00
    -10.766  0.0000E+00  0.0000E+00  0.0000E+00
    -10.661  0.0000E+00  0.0000E+00  0.0000E+00
    -10.557  0.0000E+00  0.0000E+00  0.0000E+00
    -10.453  0.0000E+00  0.0000E+00  0.0000E+00
    -10.349  0.0000E+00  0.0000E+00  0.0000E+00
    -10.245  0.0000E+00  0.0000E+00  0.0000E+00
    -10.141  0.0000E+00  0.0000E+00  0.0000E+00
    -10.037  0.0000E+00  0.0000E+00  0.0000E+00
     -9.932  0.0000E+00  0.0000E+00  0.0000E+00
     -9.828  0.0000E+00  0.0000E+00  0.0000E+00
     -9.724  0.0000E+00  0.0000E+00  0.0000E+00
     -9.620  0.0000E+00  0.0000E+00  0.0000E+00
     -9.516  0.0000E+00  0.0000E+00  0.0000E+00
     -9.412  0.0000E+00  0.0000E+00  0.0000E+00
     -9.308  0.0000E+00  0.0000E+00  0.0000E+00
     -9.203  0.0000E+00  0.0000E+00  0.0000E+00
     -9.099  0.0000E+00  0.0000E+00  0.0000E+00
     -8.995  0.0000E+00  0.0000E+00  0.0000E+00
     -8.891  0.0000E+00  0.0000E+00  0.0000E+00
     -8.787  0.0000E+00  0.0000E+00  0.0000E+00
     -8.683  0.0000E+00  0.0000E+00  0.0000E+00
     -8.579  0.0000E+00  0.0000E+00  0.0000E+00
     -8.474  0.0000E+00  0.0000E+00  0.0000E+00
     -8.370  0.0000E+00  0.0000E+00  0.0000E+00
     -8.266  0.0000E+00  0.0000E+00  0.0000E+00
     -8.162  0.9898E-26  0.4304E-23  0.3105E-17
     -8.058  0.4032E-14  0.1753E-11  0.1265E-05
     -7.954  0.0000E+00  0.0000E+00  0.0000E+00
     -7.850  0.7453E-06  0.1315E-03  0.4804E-05
     -7.745  0.3333E-15  0.1554E-04  0.4704E-06
     -7.641  0.1113E-13  0.3973E-16  0.3781E-05
     -7.537  0.0000E+00  0.0000E+00  0.0000E+00
     -7.433  0.3512E-05  0.4435E+02  0.1435E-04
     -7.329  0.1571E-04  0.1095E+00  0.3064E-04
     -7.225  0.8687E-05  0.4795E-01  0.8626E-05
     -7.121  0.0000E+00  0.0000E+00  0.0000E+00
     -7.016  0.7844E-17  0.8546E-15  0.2173E-20
     -6.912  0.3999E-05  0.4357E-03  0.1108E-08
     -6.808  0.1572E-04  0.1531E-02  0.4273E-05
     -6.704  0.0000E+00  0.0000E+00  0.0000E+00
     -6.600  0.0000E+00  0.0000E+00  0.0000E+00
     -6.496  0.4078E-16  0.2468E-27  0.8523E-25
     -6.392  0.1234E-05  0.7466E-17  0.2579E-14
     -6.287  0.0000E+00  0.0000E+00  0.0000E+00
     -6.183  0.0000E+00  0.0000E+00  0.0000E+00
     -6.079  0.0000E+00  0.0000E+00  0.0000E+00
     -5.975  0.0000E+00  0.0000E+00  0.0000E+00
     -5.871  0.0000E+00  0.0000E+00  0.0000E+00
     -5.767  0.0000E+00  0.0000E+00  0.0000E+00
     -5.663  0.0000E+00  0.0000E+00  0.0000E+00
     -5.559  0.0000E+00  0.0000E+00  0.0000E+00
     -5.454  0.0000E+00  0.0000E+00  0.0000E+00
     -5.350  0.0000E+00  0.0000E+00  0.0000E+00
     -5.246  0.0000E+00  0.0000E+00  0.0000E+00
     -5.142  0.0000E+00  0.0000E+00  0.0000E+00
     -5.038  0.0000E+00  0.0000E+00  0.0000E+00
     -4.934  0.0000E+00  0.0000E+00  0.0000E+00
     -4.830  0.0000E+00  0.0000E+00  0.0000E+00
     -4.725  0.0000E+00  0.0000E+00  0.0000E+00
     -4.621  0.0000E+00  0.0000E+00  0.0000E+00
     -4.517  0.0000E+00  0.0000E+00  0.0000E+00
     -4.413  0.0000E+00  0.0000E+00  0.0000E+00
     -4.309  0.0000E+00  0.0000E+00  0.0000E+00
     -4.205  0.0000E+00  0.0000E+00  0.0000E+00
     -4.101  0.0000E+00  0.0000E+00  0.0000E+00
     -3.996  0.0000E+00  0.0000E+00  0.0000E+00
     -3.892  0.0000E+00  0.0000E+00  0.0000E+00
     -3.788  0.0000E+00  0.0000E+00  0.0000E+00
     -3.684  0.0000E+00  0.0000E+00  0.0000E+00
     -3.580  0.0000E+00  0.0000E+00  0.0000E+00
     -3.476  0.0000E+00  0.0000E+00  0.0000E+00
     -3.372  0.1378E-16  0.1762E-03  0.2520E-15
     -3.267  0.1753E-12  0.1187E-01  0.9005E-03
     -3.163  0.3755E-12  0.1045E-02  0.1043E-02
     -3.059  0.1200E-10  0.6755E-05  0.2113E-07
     -2.955  0.9566E-09  0.4159E-02  0.5862E-03
     -2.851  0.4888E-12  0.2020E-02  0.8141E-03
     -2.747  0.9385E-03  0.1902E-01  0.1938E-02
     -2.643  0.0000E+00  0.0000E+00  0.0000E+00
     -2.538  0.0000E+00  0.0000E+00  0.0000E+00
     -2.434  0.0000E+00  0.0000E+00  0.0000E+00
     -2.330  0.0000E+00  0.0000E+00  0.0000E+00
     -2.226  0.1501E-04  0.1143E-01  0.1318E-03
     -2.122  0.1256E-01  0.8416E-02  0.1724E-02
     -2.018  0.1005E-01  0.6687E-01  0.4953E-02
     -1.914  0.1656E-02  0.1212E-01  0.5915E-03
     -1.809  0.8476E-10  0.2329E-01  0.1823E-03
     -1.705  0.6495E-03  0.1218E+00  0.7384E-02
     -1.601  0.1490E-02  0.5504E-01  0.6437E-02
     -1.497  0.5626E-03  0.7533E-02  0.9302E-02
     -1.393  0.5941E-03  0.1795E-01  0.1195E-01
     -1.289  0.1850E-02  0.4400E-01  0.9907E-02
     -1.185  0.2832E-02  0.4548E-01  0.1580E-01
     -1.080  0.7101E-03  0.3488E-01  0.5326E-02
     -0.976  0.8709E-03  0.4681E-02  0.4041E-02
     -0.872  0.9576E-04  0.7287E-04  0.7612E-03
     -0.768  0.9209E-03  0.2503E-03  0.2468E-03
     -0.664  0.4313E-03  0.1781E-02  0.1333E-03
     -0.560  0.5346E-12  0.9953E-03  0.7538E-04
     -0.456  0.3544E-05  0.1374E-04  0.5109E-06
     -0.351  0.9438E-22  0.8921E-13  0.8038E-14
     -0.247  0.2028E-11  0.1857E-02  0.4690E-03
     -0.143  0.0000E+00  0.0000E+00  0.0000E+00
     -0.039  0.2869E-12  0.1396E-15  0.1473E-03
      0.065  0.0000E+00  0.0000E+00  0.0000E+00
      0.169  0.0000E+00  0.0000E+00  0.0000E+00
      0.273  0.1333E-12  0.2401E-11  0.3639E-04
      0.378  0.0000E+00  0.0000E+00  0.0000E+00
      0.482  0.0000E+00  0.0000E+00  0.0000E+00
      0.586  0.0000E+00  0.0000E+00  0.0000E+00
      0.690  0.0000E+00  0.0000E+00  0.0000E+00
      0.794  0.0000E+00  0.0000E+00  0.0000E+00
      0.898  0.0000E+00  0.0000E+00  0.0000E+00
      1.002  0.0000E+00  0.0000E+00  0.0000E+00
      1.107  0.0000E+00  0.0000E+00  0.0000E+00
      1.211  0.0000E+00  0.0000E+00  0.0000E+00
      1.315  0.0000E+00  0.0000E+00  0.0000E+00
      1.419  0.0000E+00  0.0000E+00  0.0000E+00
      1.523  0.0000E+00  0.0000E+00  0.0000E+00
      1.627  0.0000E+00  0.0000E+00  0.0000E+00
      1.731  0.0000E+00  0.0000E+00  0.0000E+00
      1.835  0.0000E+00  0.0000E+00  0.0000E+00
      1.940  0.0000E+00  0.0000E+00  0.0000E+00
      2.044  0.0000E+00  0.0000E+00  0.0000E+00
      2.148  0.0000E+00  0.0000E+00  0.0000E+00
      2.252  0.0000E+00  0.0000E+00  0.0000E+00
      2.356  0.0000E+00  0.0000E+00  0.0000E+00
      2.460  0.0000E+00  0.0000E+00  0.0000E+00
      2.564  0.0000E+00  0.0000E+00  0.0000E+00
      2.669  0.0000E+00  0.0000E+00  0.0000E+00
      2.773  0.0000E+00  0.0000E+00  0.0000E+00
      2.877  0.3089E-11  0.2813E-03  0.4004E-02
      2.981  0.0000E+00  0.0000E+00  0.0000E+00
      3.085  0.0000E+00  0.0000E+00  0.0000E+00
      3.189  0.2431E-04  0.9437E-03  0.1783E-02
      3.293  0.3110E-14  0.1389E-03  0.4560E-14
      3.398  0.6722E-21  0.1007E-19  0.6187E-19
      3.502  0.1447E-04  0.1876E-03  0.1153E-02
      3.606  0.1260E-12  0.1594E-12  0.8471E-04
      3.710  0.1705E-17  0.4022E-09  0.4952E-08
      3.814  0.2093E-11  0.5077E-03  0.6250E-02
      3.918  0.1397E-03  0.1670E-02  0.9265E-02
      4.022  0.1548E-06  0.4384E-06  0.6418E-06
      4.127  0.1029E-05  0.1196E-04  0.8803E-05
      4.231  0.6464E-03  0.2492E-03  0.4083E-03
      4.335  0.1452E-09  0.1003E-09  0.5174E-09
      4.439  0.2857E-03  0.1973E-03  0.1018E-02
      4.543  0.0000E+00  0.0000E+00  0.0000E+00
      4.647  0.6204E-02  0.6355E-14  0.4981E-11
      4.751  0.0000E+00  0.0000E+00  0.0000E+00
      4.856  0.0000E+00  0.0000E+00  0.0000E+00
      4.960  0.0000E+00  0.0000E+00  0.0000E+00
      5.064  0.5832E-08  0.1005E-08  0.1112E-08
      5.168  0.9177E-01  0.1893E-01  0.3683E-01
      5.272  0.1574E-06  0.2296E-08  0.6133E-07
      5.376  0.1797E-01  0.2088E-01  0.3425E-01
      5.480  0.5627E-10  0.4743E-02  0.6765E-03
      5.585  0.0000E+00  0.0000E+00  0.0000E+00
      5.689  0.5524E-01  0.1326E-01  0.2372E-01
      5.793  0.9673E-06  0.6556E-07  0.4576E-01
      5.897  0.1670E-01  0.1132E-02  0.6144E-01
      6.001  0.3664E-01  0.3632E-02  0.1045E-01
      6.105  0.1951E+00  0.2467E-01  0.5840E+00
      6.209  0.1767E-01  0.1539E-02  0.7110E-01
      6.314  0.5766E-01  0.2721E-01  0.3982E+00
      6.418  0.6832E-01  0.2008E-01  0.2170E-01
      6.522  0.1084E+00  0.4135E-01  0.9770E+00
      6.626  0.1412E-07  0.4690E-01  0.5941E+00
      6.730  0.3049E-01  0.1902E-01  0.3434E+00
      6.834  0.2820E-05  0.4269E-02  0.1166E+01
      6.938  0.3019E-02  0.2930E-01  0.5595E+00
      7.043  0.1777E-01  0.1759E-01  0.3665E+00
      7.147  0.0000E+00  0.0000E+00  0.0000E+00
      7.251  0.9965E-09  0.4952E-13  0.8381E-10
      7.355  0.2337E-01  0.1161E-05  0.1965E-02
      7.459  0.0000E+00  0.0000E+00  0.0000E+00
      7.563  0.0000E+00  0.0000E+00  0.0000E+00
      7.667  0.0000E+00  0.0000E+00  0.0000E+00
      7.772  0.0000E+00  0.0000E+00  0.0000E+00
      7.876  0.0000E+00  0.0000E+00  0.0000E+00
      7.980  0.0000E+00  0.0000E+00  0.0000E+00
      8.084  0.0000E+00  0.0000E+00  0.0000E+00
      8.188  0.0000E+00  0.0000E+00  0.0000E+00
      8.292  0.0000E+00  0.0000E+00  0.0000E+00
      8.396  0.0000E+00  0.0000E+00  0.0000E+00
      8.501  0.0000E+00  0.0000E+00  0.0000E+00
      8.605  0.0000E+00  0.0000E+00  0.0000E+00
      8.709  0.0000E+00  0.0000E+00  0.0000E+00
      8.70878378    -22.53345096  301      0.32545079      1.00000000
    -22.533  0.0000E+00  0.0000E+00  0.0000E+00
    -22.429  0.0000E+00  0.0000E+00  0.0000E+00
    -22.325  0.0000E+00  0.0000E+00  0.0000E+00
    -22.221  0.0000E+00  0.0000E+00  0.0000E+00
    -22.117  0.0000E+00  0.0000E+00  0.0000E+00
    -22.013  0.0000E+00  0.0000E+00  0.0000E+00
    -21.909  0.0000E+00  0.0000E+00  0.0000E+00
    -21.804  0.0000E+00  0.0000E+00  0.0000E+00
    -21.700  0.0000E+00  0.0000E+00  0.0000E+00
    -21.596  0.0000E+00  0.0000E+00  0.0000E+00
    -21.492  0.0000E+00  0.0000E+00  0.0000E+00
    -21.388  0.0000E+00  0.0000E+00  0.0000E+00
    -21.284  0.0000E+00  0.0000E+00  0.0000E+00
    -21.180  0.0000E+00  0.0000E+00  0.0000E+00
    -21.075  0.1176E-03  0.2197E-07  0.2196E-08
    -20.971  0.2398E-05  0.9132E-14  0.2159E-11
    -20.867  0.1705E+02  0.6174E-07  0.1532E-04
    -20.763  0.0000E+00  0.0000E+00  0.0000E+00
    -20.659  0.0000E+00  0.0000E+00  0.0000E+00
    -20.555  0.0000E+00  0.0000E+00  0.0000E+00
    -20.451  0.0000E+00  0.0000E+00  0.0000E+00
    -20.346  0.0000E+00  0.0000E+00  0.0000E+00
    -20.242  0.0000E+00  0.0000E+00  0.0000E+00
    -20.138  0.0000E+00  0.0000E+00  0.0000E+00
    -20.034  0.0000E+00  0.0000E+00  0.0000E+00
    -19.930  0.0000E+00  0.0000E+00  0.0000E+00
    -19.826  0.0000E+00  0.0000E+00  0.0000E+00
    -19.722  0.0000E+00  0.0000E+00  0.0000E+00
    -19.618  0.0000E+00  0.0000E+00  0.0000E+00
    -19.513  0.0000E+00  0.0000E+00  0.0000E+00
    -19.409  0.0000E+00  0.0000E+00  0.0000E+00
    -19.305  0.0000E+00  0.0000E+00  0.0000E+00
    -19.201  0.0000E+00  0.0000E+00  0.0000E+00
    -19.097  0.0000E+00  0.0000E+00  0.0000E+00
    -18.993  0.0000E+00  0.0000E+00  0.0000E+00
    -18.889  0.0000E+00  0.0000E+00  0.0000E+00
    -18.784  0.0000E+00  0.0000E+00  0.0000E+00
    -18.680  0.0000E+00  0.0000E+00  0.0000E+00
    -18.576  0.0000E+00  0.0000E+00  0.0000E+00
    -18.472  0.0000E+00  0.0000E+00  0.0000E+00
    -18.368  0.0000E+00  0.0000E+00  0.0000E+00
    -18.264  0.0000E+00  0.0000E+00  0.0000E+00
    -18.160  0.0000E+00  0.0000E+00  0.0000E+00
    -18.055  0.0000E+00  0.0000E+00  0.0000E+00
    -17.951  0.0000E+00  0.0000E+00  0.0000E+00
    -17.847  0.0000E+00  0.0000E+00  0.0000E+00
    -17.743  0.0000E+00  0.0000E+00  0.0000E+00
    -17.639  0.0000E+00  0.0000E+00  0.0000E+00
    -17.535  0.0000E+00  0.0000E+00  0.0000E+00
    -17.431  0.0000E+00  0.0000E+00  0.0000E+00
    -17.326  0.0000E+00  0.0000E+00  0.0000E+00
    -17.222  0.0000E+00  0.0000E+00  0.0000E+00
    -17.118  0.0000E+00  0.0000E+00  0.0000E+00
    -17.014  0.0000E+00  0.0000E+00  0.0000E+00
    -16.910  0.0000E+00  0.0000E+00  0.0000E+00
    -16.806  0.0000E+00  0.0000E+00  0.0000E+00
    -16.702  0.0000E+00  0.0000E+00  0.0000E+00
    -16.597  0.0000E+00  0.0000E+00  0.0000E+00
    -16.493  0.0000E+00  0.0000E+00  0.0000E+00
    -16.389  0.1208E-03  0.6364E-04  0.1200E-04
    -16.285  0.1012E-04  0.3275E-04  0.2655E-05
    -16.181  0.2722E-04  0.1683E-04  0.1803E-05
    -16.077  0.0000E+00  0.0000E+00  0.0000E+00
    -15.973  0.0000E+00  0.0000E+00  0.0000E+00
    -15.868  0.0000E+00  0.0000E+00  0.0000E+00
    -15.764  0.0000E+00  0.0000E+00  0.0000E+00
    -15.660  0.0000E+00  0.0000E+00  0.0000E+00
    -15.556  0.0000E+00  0.0000E+00  0.0000E+00
    -15.452  0.0000E+00  0.0000E+00  0.0000E+00
    -15.348  0.0000E+00  0.0000E+00  0.0000E+00
    -15.244  0.0000E+00  0.0000E+00  0.0000E+00
    -15.139  0.0000E+00  0.0000E+00  0.0000E+00
    -15.035  0.0000E+00  0.0000E+00  0.0000E+00
    -14.931  0.0000E+00  0.0000E+00  0.0000E+00
    -14.827  0.0000E+00  0.0000E+00  0.0000E+00
    -14.723  0.0000E+00  0.0000E+00  0.0000E+00
    -14.619  0.0000E+00  0.0000E+00  0.0000E+00
    -14.515  0.0000E+00  0.0000E+00  0.0000E+00
    -14.410  0.2751E-06  0.3731E-20  0.2616E-08
    -14.306  0.1960E-02  0.5241E-03  0.2279E-04
    -14.202  0.2108E-02  0.3146E-02  0.7583E-04
    -14.098  0.1303E-03  0.4731E-02  0.2726E-03
    -13.994  0.1788E-02  0.2572E-02  0.3232E-03
    -13.890  0.1437E-02  0.6117E-02  0.6541E-03
    -13.786  0.1643E-02  0.2587E-02  0.2278E-03
    -13.681  0.3414E-03  0.7946E-03  0.2841E-04
    -13.577  0.0000E+00  0.0000E+00  0.0000E+00
    -13.473  0.0000E+00  0.0000E+00  0.0000E+00
    -13.369  0.0000E+00  0.0000E+00  0.0000E+00
    -13.265  0.0000E+00  0.0000E+00  0.0000E+00