       N       E                     dE             d eps       ncg     rms          rms(c)
DAV:   1     0.673345892910E+03    0.67335E+03   -0.56107E+04   912   0.926E+02
DAV:   2    -0.566626645654E+03   -0.12400E+04   -0.11833E+04  1056   0.287E+02
DAV:   3    -0.748485000358E+03   -0.18186E+03   -0.18051E+03  1224   0.130E+02
DAV:   4    -0.754210774957E+03   -0.57258E+01   -0.57033E+01  1072   0.301E+01
DAV:   5    -0.754475486124E+03   -0.26471E+00   -0.26449E+00  1184   0.530E+00    0.721E+00
DAV:   6    -0.714875222960E+03    0.39600E+02   -0.11534E+01  1208   0.282E+01    0.513E+00
DAV:   7    -0.714634389101E+03    0.24083E+00   -0.38780E+00  1120   0.487E+00    0.250E+00
DAV:   8    -0.714724561451E+03   -0.90172E-01   -0.18661E-01  1080   0.170E+00    0.147E+00
DAV:   9    -0.714765792927E+03   -0.41231E-01   -0.74536E-02   984   0.116E+00    0.325E-01
DAV:  10    -0.714766463553E+03   -0.67063E-03   -0.41536E-03  1264   0.332E-01    0.187E-01
DAV:  11    -0.714768277159E+03   -0.18136E-02   -0.20825E-03  1064   0.195E-01    0.741E-02
DAV:  12    -0.714768088100E+03    0.18906E-03   -0.44468E-04  1136   0.109E-01    0.251E-02
DAV:  13    -0.714768089560E+03   -0.14605E-05   -0.46570E-05  1160   0.233E-02    0.602E-03
DAV:  14    -0.714768094246E+03   -0.46860E-05   -0.25362E-06   848   0.540E-03    0.208E-03
DAV:  15    -0.714768093937E+03    0.30925E-06   -0.38099E-07   616   0.269E-03
   1 F= -.71476809E+03 E0= -.71476809E+03  d E =-.176177E-16
