 vasp.5.4.4.18Apr17-6-g9f103f2a35 (build Jun 22 2020 09:27:21) complex           
 executed on tx2_gcc-7.3_libsci-1 date 2021.09.20  15:14:57
 running on   64 total cores
 distrk:  each k-point on   64 cores,    1 groups
 distr:  one band on NCORES_PER_BAND=   8 cores,    8 groups


--------------------------------------------------------------------------------------------------------


 INCAR:
 POTCAR:    PAW_PBE Cs_sv 08Apr2002               
 POTCAR:    PAW_PBE Pb_d 06Sep2000                
 POTCAR:    PAW_PBE Br 06Sep2000                  
 POTCAR:    PAW_PBE Cs_sv 08Apr2002               
   VRHFIN =Cs: 5s5p6s                                                           
   LEXCH  = PE                                                                  
   EATOM  =   555.6835 eV,   40.8416 Ry                                         
                                                                                
   TITEL  = PAW_PBE Cs_sv 08Apr2002                                             
   LULTRA =        F    use ultrasoft PP ?                                      
   IUNSCR =        1    unscreen: 0-lin 1-nonlin 2-no                           
   RPACOR =    2.200    partial core radius                                     
   POMASS =  132.900; ZVAL   =    9.000    mass and valenz                      
   RCORE  =    2.500    outmost cutoff radius                                   
   RWIGS  =    2.500; RWIGS  =    1.323    wigner-seitz radius (au A)           
   ENMAX  =  220.318; ENMIN  =  165.238 eV                                      
   RCLOC  =    2.207    cutoff for local pot                                    
   LCOR   =        T    correct aug charges                                     
   LPAW   =        T    paw PP                                                  
   EAUG   =  407.933                                                            
   DEXC   =    0.000                                                            
   RMAX   =    2.554    core radius for proj-oper                               
   RAUG   =    1.300    factor for augmentation sphere                          
   RDEP   =    2.590    radius for radial grids                                 
   RDEPT  =    2.117    core radius for aug-charge                              
                                                                                
   Atomic configuration                                                         
   13 entries                                                                   
     n  l   j            E        occ.                                          
     1  0  0.50    -35790.1377   2.0000                                         
     2  0  0.50     -5613.6201   2.0000                                         
     2  1  1.50     -5035.0101   6.0000                                         
     3  0  0.50     -1167.0767   2.0000                                         
     3  1  1.50      -980.9754   6.0000                                         
     3  2  2.50      -708.0703  10.0000                                         
     4  0  0.50      -220.2386   2.0000                                         
     4  1  1.50      -160.7596   6.0000                                         
     4  2  2.50       -74.2354  10.0000                                         
     5  0  0.50       -26.7287   2.0000                                         
     6  0  0.50        -2.0862   1.0000                                         
     5  1  1.50       -13.5159   6.0000                                         
     5  2  2.50        -0.4136   0.0000                                         
   Description                                                                  
     l       E           TYP  RCUT    TYP  RCUT                                 
     0    -26.7287425     23  1.900                                             
     0     -2.0862306     23  1.900                                             
     1    -13.5158719     23  2.500                                             
     1     -2.7211652     23  2.500                                             
     2     -0.4136171     23  2.500                                             
  local pseudopotential read in
  partial core-charges read in
  partial kinetic energy density read in
  atomic valenz-charges read in
  non local Contribution for L=           0  read in
    real space projection operators read in
  non local Contribution for L=           0  read in
    real space projection operators read in
  non local Contribution for L=           1  read in
    real space projection operators read in
  non local Contribution for L=           1  read in
    real space projection operators read in
  non local Contribution for L=           2  read in
    real space projection operators read in
    PAW grid and wavefunctions read in

   number of l-projection  operators is LMAX  =           5
   number of lm-projection operators is LMMAX =          13

 POTCAR:    PAW_PBE Pb_d 06Sep2000                
   VRHFIN =Pb:                                                                  
   LEXCH  = PE                                                                  
   EATOM  =  1661.6185 eV,  122.1255 Ry                                         
                                                                                
   TITEL  = PAW_PBE Pb_d 06Sep2000                                              
   LULTRA =        F    use ultrasoft PP ?                                      
   IUNSCR =        1    unscreen: 0-lin 1-nonlin 2-no                           
   RPACOR =    2.200    partial core radius                                     
   POMASS =  207.200; ZVAL   =   14.000    mass and valenz                      
   RCORE  =    2.500    outmost cutoff radius                                   
   RWIGS  =    3.260; RWIGS  =    1.725    wigner-seitz radius (au A)           
   ENMAX  =  237.835; ENMIN  =  178.376 eV                                      
   ICORE  =        3    local potential                                         
   LCOR   =        T    correct aug charges                                     
   LPAW   =        T    paw PP                                                  
   EAUG   =  391.914                                                            
   DEXC   =    0.000                                                            
   RMAX   =    2.565    core radius for proj-oper                               
   RAUG   =    1.300    factor for augmentation sphere                          
   RDEP   =    2.643    radius for radial grids                                 
   RDEPT  =    2.092    core radius for aug-charge                              
                                                                                
   Atomic configuration                                                         
   16 entries                                                                   
     n  l   j            E        occ.                                          
     1  0  0.50    -88091.8466   2.0000                                         
     2  0  0.50    -15753.4197   2.0000                                         
     2  1  1.50    -13508.1797   6.0000                                         
     3  0  0.50     -3781.7194   2.0000                                         
     3  1  1.50     -3138.2529   6.0000                                         
     3  2  2.50     -2483.2977  10.0000                                         
     4  0  0.50      -856.2895   2.0000                                         
     4  1  1.50      -645.4942   6.0000                                         
     4  2  2.50      -401.8768  10.0000                                         
     4  3  3.50      -132.9059  14.0000                                         
     5  0  0.50      -144.0950   2.0000                                         
     5  1  1.50       -85.7879   6.0000                                         
     5  2  2.50       -21.1769  10.0000                                         
     6  0  0.50       -12.0372   2.0000                                         
     6  1  1.50        -3.4971   2.0000                                         
     5  3  2.50        -2.7212   0.0000                                         
   Description                                                                  
     l       E           TYP  RCUT    TYP  RCUT                                 
     2    -21.1768523     23  2.500                                             
     2      1.3605826     23  2.500                                             
     0    -12.0371562     23  2.500                                             
     0     13.6058260     23  2.500                                             
     1     -3.4971339     23  2.500                                             
     1     13.6058260     23  2.500                                             
     3     -1.3605826      7  2.500                                             
  local pseudopotential read in
  partial core-charges read in
  partial kinetic energy density read in
  atomic valenz-charges read in
  non local Contribution for L=           2  read in
    real space projection operators read in
  non local Contribution for L=           2  read in
    real space projection operators read in
  non local Contribution for L=           0  read in
    real space projection operators read in
  non local Contribution for L=           0  read in
    real space projection operators read in
  non local Contribution for L=           1  read in
    real space projection operators read in
  non local Contribution for L=           1  read in
    real space projection operators read in
    PAW grid and wavefunctions read in

   number of l-projection  operators is LMAX  =           6
   number of lm-projection operators is LMMAX =          18

 POTCAR:    PAW_PBE Br 06Sep2000                  
   VRHFIN =Br: s2p5                                                             
   LEXCH  = PE                                                                  
   EATOM  =   368.4488 eV,   27.0802 Ry                                         
                                                                                
   TITEL  = PAW_PBE Br 06Sep2000                                                
   LULTRA =        F    use ultrasoft PP ?                                      
   IUNSCR =        1    unscreen: 0-lin 1-nonlin 2-no                           
   RPACOR =    1.900    partial core radius                                     
   POMASS =   79.904; ZVAL   =    7.000    mass and valenz                      
   RCORE  =    2.100    outmost cutoff radius                                   
   RWIGS  =    2.200; RWIGS  =    1.164    wigner-seitz radius (au A)           
   ENMAX  =  216.285; ENMIN  =  162.214 eV                                      
   ICORE  =        3    local potential                                         
   LCOR   =        T    correct aug charges                                     
   LPAW   =        T    paw PP                                                  
   EAUG   =  503.852                                                            
   DEXC   =    0.000                                                            
   RMAX   =    2.139    core radius for proj-oper                               
   RAUG   =    1.300    factor for augmentation sphere                          
   RDEP   =    2.186    radius for radial grids                                 
   RDEPT  =    1.890    core radius for aug-charge                              
                                                                                
   Atomic configuration                                                         
   10 entries                                                                   
     n  l   j            E        occ.                                          
     1  0  0.50    -13316.2796   2.0000                                         
     2  0  0.50     -1732.8239   2.0000                                         
     2  1  1.50     -1528.2193   6.0000                                         
     3  0  0.50      -238.0460   2.0000                                         
     3  1  1.50      -173.4609   6.0000                                         
     3  2  2.50       -66.7132  10.0000                                         
     4  0  0.50       -20.1334   2.0000                                         
     4  1  0.50        -7.8591   5.0000                                         
     4  2  2.50        -8.1635   0.0000                                         
     4  3  2.50        -8.1635   0.0000                                         
   Description                                                                  
     l       E           TYP  RCUT    TYP  RCUT                                 
     0    -20.1333652     23  2.100                                             
     0    -21.4939478     23  2.100                                             
     1     -7.8591052     23  2.100                                             
     1     -3.1608434     23  2.100                                             
     2     -8.1634956     23  2.100                                             
     3     -1.3605826      7  2.100                                             
  local pseudopotential read in
  partial core-charges read in
  partial kinetic energy density read in
  atomic valenz-charges read in
  non local Contribution for L=           0  read in
    real space projection operators read in
  non local Contribution for L=           0  read in
    real space projection operators read in
  non local Contribution for L=           1  read in
    real space projection operators read in
  non local Contribution for L=           1  read in
    real space projection operators read in
  non local Contribution for L=           2  read in
    real space projection operators read in
    PAW grid and wavefunctions read in

   number of l-projection  operators is LMAX  =           5
   number of lm-projection operators is LMMAX =          13

 Optimization of the real space projectors (new method)

 maximal supplied QI-value         = 15.12
 optimisation between [QCUT,QGAM] = [  8.77, 17.69] = [ 21.53, 87.61] Ry 
 Optimized for a Real-space Cutoff    1.85 Angstroem

   l    n(q)    QCUT    max X(q) W(low)/X(q) W(high)/X(q)  e(spline) 
   0     10     8.768    25.322    0.81E-04    0.51E-04    0.48E-06
   0     10     8.768    99.187    0.78E-04    0.50E-04    0.47E-06
   1      9     8.768    11.761    0.21E-03    0.20E-03    0.37E-06
   1      9     8.768     8.275    0.24E-03    0.22E-03    0.41E-06
   2      9     8.768     3.829    0.23E-04    0.15E-03    0.18E-06
 Optimization of the real space projectors (new method)

 maximal supplied QI-value         = 15.12
 optimisation between [QCUT,QGAM] = [  8.77, 17.69] = [ 21.53, 87.61] Ry 
 Optimized for a Real-space Cutoff    1.59 Angstroem

   l    n(q)    QCUT    max X(q) W(low)/X(q) W(high)/X(q)  e(spline) 
   2      7     8.768     3.846    0.48E-04    0.11E-03    0.11E-06
   2      7     8.768     8.593    0.20E-03    0.22E-04    0.24E-06
   0      8     8.768    20.082    0.68E-04    0.88E-04    0.41E-07
   0      8     8.768     8.597    0.89E-04    0.13E-03    0.59E-07
   1      8     8.768    33.223    0.15E-03    0.53E-04    0.87E-07
   1      8     8.768    15.899    0.14E-03    0.44E-04    0.78E-07
 Optimization of the real space projectors (new method)

 maximal supplied QI-value         = 17.95
 optimisation between [QCUT,QGAM] = [  8.80, 17.59] = [ 21.67, 86.68] Ry 
 Optimized for a Real-space Cutoff    1.59 Angstroem

   l    n(q)    QCUT    max X(q) W(low)/X(q) W(high)/X(q)  e(spline) 
   0      8     8.797   175.082    0.82E-04    0.14E-03    0.89E-07
   0      8     8.797   174.004    0.79E-04    0.14E-03    0.86E-07
   1      8     8.797    54.315    0.16E-03    0.14E-04    0.30E-06
   1      8     8.797    42.441    0.16E-03    0.14E-04    0.30E-06
   2      7     8.797     3.596    0.92E-04    0.15E-03    0.85E-07
  PAW_PBE Cs_sv 08Apr2002               :
 energy of atom  1       EATOM= -555.6835
 kinetic energy error for atom=    0.0069 (will be added to EATOM!!)
  PAW_PBE Pb_d 06Sep2000                :
 energy of atom  2       EATOM=-1661.6185
 kinetic energy error for atom=    0.0498 (will be added to EATOM!!)
  PAW_PBE Br 06Sep2000                  :
 energy of atom  3       EATOM= -368.4488
 kinetic energy error for atom=    0.0072 (will be added to EATOM!!)


 POSCAR: Cs4 Pb4 Br12                            
  positions in direct lattice
  velocities in cartesian coordinates

 METAGGA = SCAN     LMAXTAU =  6    LMIXTAU =  F

 exchange correlation table for  LEXCH =        8
   RHO(1)=    0.500       N(1)  =     2000
   RHO(2)=  100.500       N(2)  =     4000

 VTST: version 3.2, (02/03/18)

 CHAIN: initializing optimizer
 
 OPT: Using VASP Conjugate-Gradient optimizer
 CHAIN: Read ICHAIN            0

 POSCAR: Cs4 Pb4 Br12                            
  positions in direct lattice
  velocities in cartesian coordinates



--------------------------------------------------------------------------------------------------------


 ion  position               nearest neighbor table
   1  0.500  0.000  0.000-
   2  0.500  0.500  0.500-
   3  0.000  0.000  0.500-
   4  0.000  0.500  0.000-
   5  0.000  0.000  0.000-  17 2.98  20 2.98  13 2.98  14 2.98   9 2.98  11 2.98
   6  0.000  0.500  0.500-  18 2.98  19 2.98  13 2.98  14 2.98  10 2.98  12 2.98
   7  0.500  0.000  0.500-   9 2.98  11 2.98  18 2.98  19 2.98  15 2.98  16 2.98
   8  0.500  0.500  0.000-  15 2.98  16 2.98  10 2.98  12 2.98  17 2.98  20 2.98
   9  0.224  0.943  0.219-   7 2.98   5 2.98
  10  0.224  0.505  0.781-   6 2.98   8 2.98
  11  0.776  0.057  0.781-   7 2.98   5 2.98
  12  0.776  0.495  0.219-   6 2.98   8 2.98
  13  0.005  0.781  0.724-   5 2.98   6 2.98
  14  0.995  0.219  0.276-   5 2.98   6 2.98
  15  0.557  0.781  0.276-   8 2.98   7 2.98
  16  0.443  0.219  0.724-   8 2.98   7 2.98
  17  0.281  0.276  0.057-   5 2.98   8 2.98
  18  0.281  0.724  0.505-   6 2.98   7 2.98
  19  0.719  0.276  0.495-   6 2.98   7 2.98
  20  0.719  0.724  0.943-   5 2.98   8 2.98

  LATTYP: Found a body centered cubic cell.
 ALAT       =    11.7604933660
  
  Lattice vectors:
  
 A1 = (   5.8802466830,   5.8802466830,   5.8802466830)
 A2 = (   5.8802466830,  -5.8802466830,  -5.8802466830)
 A3 = (  -5.8802466830,   5.8802466830,  -5.8802466830)


Analysis of symmetry for initial positions (statically):
=====================================================================
 Subroutine PRICEL returns:
 Original cell was already a primitive cell.
 

 Routine SETGRP: Setting up the symmetry group for a 
 body centered cubic supercell.


 Subroutine GETGRP returns: Found 24 space group operations
 (whereof  6 operations were pure point group operations)
 out of a pool of 48 trial point group operations.


The static configuration has the point symmetry S_6 .
 The point group associated with its full space group is T_h .


Analysis of symmetry for dynamics (positions and initial velocities):
=====================================================================
 Subroutine PRICEL returns:
 Original cell was already a primitive cell.
 

 Routine SETGRP: Setting up the symmetry group for a 
 body centered cubic supercell.


 Subroutine GETGRP returns: Found 24 space group operations
 (whereof  6 operations were pure point group operations)
 out of a pool of 48 trial point group operations.


The dynamic configuration has the point symmetry S_6 .
 The point group associated with its full space group is T_h .


 Subroutine INISYM returns: Found 24 space group operations
 (whereof  6 operations are pure point group operations),
 and found     1 'primitive' translations



 KPOINTS: 1x1x1                                   

Automatic generation of k-mesh.
Space group operators:
 irot       det(A)        alpha          n_x          n_y          n_z        tau_x        tau_y        tau_z
    1     1.000000     0.000000     1.000000     0.000000     0.000000     0.000000     0.000000     0.000000
    2    -1.000000     0.000000     1.000000     0.000000     0.000000     0.000000     0.000000     0.000000
    3     1.000000   120.000000     0.577350     0.577350     0.577350     0.000000     0.000000     0.000000
    4    -1.000000   120.000000     0.577350     0.577350     0.577350     0.000000     0.000000     0.000000
    5     1.000000   120.000000    -0.577350    -0.577350    -0.577350     0.000000     0.000000     0.000000
    6    -1.000000   120.000000    -0.577350    -0.577350    -0.577350     0.000000     0.000000     0.000000
    7     1.000000   120.000000    -0.577350    -0.577350     0.577350     0.500000     0.500000    -0.000000
    8    -1.000000   120.000000    -0.577350    -0.577350     0.577350     0.500000     0.500000    -0.000000
    9     1.000000   120.000000     0.577350     0.577350    -0.577350     0.500000    -0.000000     0.500000
   10    -1.000000   120.000000     0.577350     0.577350    -0.577350     0.500000    -0.000000     0.500000
   11     1.000000   180.000000     1.000000     0.000000     0.000000     0.500000     0.500000    -0.000000
   12    -1.000000   180.000000     1.000000     0.000000     0.000000     0.500000     0.500000    -0.000000
   13     1.000000   120.000000    -0.577350     0.577350     0.577350     0.000000     0.500000     0.500000
   14    -1.000000   120.000000    -0.577350     0.577350     0.577350     0.000000     0.500000     0.500000
   15     1.000000   120.000000     0.577350    -0.577350    -0.577350     0.500000    -0.000000     0.500000
   16    -1.000000   120.000000     0.577350    -0.577350    -0.577350     0.500000    -0.000000     0.500000
   17     1.000000   120.000000     0.577350    -0.577350     0.577350     0.500000     0.500000    -0.000000
   18    -1.000000   120.000000     0.577350    -0.577350     0.577350     0.500000     0.500000    -0.000000
   19     1.000000   180.000000    -0.000000    -0.000000    -1.000000     0.000000     0.500000     0.500000
   20    -1.000000   180.000000    -0.000000    -0.000000    -1.000000     0.000000     0.500000     0.500000
   21     1.000000   180.000000     0.000000    -1.000000    -0.000000     0.500000    -0.000000     0.500000
   22    -1.000000   180.000000     0.000000    -1.000000    -0.000000     0.500000    -0.000000     0.500000
   23     1.000000   120.000000    -0.577350     0.577350    -0.577350     0.000000     0.500000     0.500000
   24    -1.000000   120.000000    -0.577350     0.577350    -0.577350     0.000000     0.500000     0.500000
 
 Subroutine IBZKPT returns following result:
 ===========================================
 
 Found      4 irreducible k-points:
 
 Following reciprocal coordinates:
            Coordinates               Weight
  0.000000  0.000000  0.000000      1.000000
  0.333333  0.000000  0.000000     12.000000
  0.333333  0.333333  0.000000      8.000000
 -0.333333  0.333333  0.333333      6.000000
 
 Following cartesian coordinates:
            Coordinates               Weight
  0.000000  0.000000 -0.000000      1.000000
  0.028343  0.028343 -0.000000     12.000000
  0.056687  0.028343 -0.028343      8.000000
  0.000000  0.000000 -0.056687      6.000000
 


--------------------------------------------------------------------------------------------------------




 Dimension of arrays:
   k-points           NKPTS =      4   k-points in BZ     NKDIM =      4   number of bands    NBANDS=    112
   number of dos      NEDOS =    301   number of ions     NIONS =     20
   non local maximal  LDIM  =      6   non local SUM 2l+1 LMDIM =     18
   total plane-waves  NPLWV = 216000
   max r-space proj   IRMAX =   7071   max aug-charges    IRDMAX= 112991
   dimension x,y,z NGX =    60 NGY =   60 NGZ =   60
   dimension x,y,z NGXF=   120 NGYF=  120 NGZF=  120
   support grid    NGXF=   240 NGYF=  240 NGZF=  240
   ions per type =               4   4  12
   NGX,Y,Z   is equivalent  to a cutoff of   9.79,  9.79,  9.79 a.u.
   NGXF,Y,Z  is equivalent  to a cutoff of  19.59, 19.59, 19.59 a.u.

 SYSTEM =  CsPbBr3 cubic bulk                      
 POSCAR =  Cs4 Pb4 Br12                            

 Startparameter for this run:
   NWRITE =      2    write-flag & timer
   PREC   = accura    normal or accurate (medium, high low for compatibility)
   ISTART =      0    job   : 0-new  1-cont  2-samecut
   ICHARG =      2    charge: 1-file 2-atom 10-const
   ISPIN  =      1    spin polarized calculation?
   LNONCOLLINEAR =      F non collinear calculations
   LSORBIT =      F    spin-orbit coupling
   INIWAV =      1    electr: 0-lowe 1-rand  2-diag
   LASPH  =      T    aspherical Exc in radial PAW
   METAGGA=      F    non-selfconsistent MetaGGA calc.

 Electronic Relaxation 1
   ENCUT  =  300.0 eV  22.05 Ry    4.70 a.u.  14.38 14.38 14.38*2*pi/ulx,y,z
   ENINI  =  300.0     initial cutoff
   ENAUG  =  503.9 eV  augmentation charge cutoff
   NELM   =    200;   NELMIN=  2; NELMDL=  0     # of ELM steps 
   EDIFF  = 0.1E-05   stopping-criterion for ELM
   LREAL  =      T    real-space projection
   NLSPLINE    = F    spline interpolate recip. space projectors
   LCOMPAT=      F    compatible to vasp.4.4
   GGA_COMPAT  = T    GGA compatible to vasp.4.4-vasp.4.6
   LMAXPAW     = -100 max onsite density
   LMAXMIX     =    2 max onsite mixed and CHGCAR
   VOSKOWN=      0    Vosko Wilk Nusair interpolation
   ROPT   =   -0.00025  -0.00025  -0.00025
 Ionic relaxation
   EDIFFG = -.1E-01   stopping-criterion for IOM
   NSW    =      0    number of steps for IOM
   NBLOCK =      1;   KBLOCK =      1    inner block; outer block 
   IBRION =     -1    ionic relax: 0-MD 1-quasi-New 2-CG
   NFREE  =      1    steps in history (QN), initial steepest desc. (CG)
   ISIF   =      3    stress and relaxation
   IWAVPR =     10    prediction:  0-non 1-charg 2-wave 3-comb
   ISYM   =      2    0-nonsym 1-usesym 2-fastsym
   LCORR  =      T    Harris-Foulkes like correction to forces

   POTIM  = 0.5000    time-step for ionic-motion
   TEIN   =    0.0    initial temperature
   TEBEG  =    0.0;   TEEND  =   0.0 temperature during run
   SMASS  =  -3.00    Nose mass-parameter (am)
   estimated Nose-frequenzy (Omega)   =  0.10E-29 period in steps =****** mass=  -0.237E-26a.u.
   SCALEE = 1.0000    scale energy and forces
   NPACO  =    256;   APACO  = 16.0  distance and # of slots for P.C.
   PSTRESS=    0.0 pullay stress

  Mass of Ions in am
   POMASS = 132.90207.20 79.90
  Ionic Valenz
   ZVAL   =   9.00 14.00  7.00
  Atomic Wigner-Seitz radii
   RWIGS  =  -1.00 -1.00 -1.00
  virtual crystal weights 
   VCA    =   1.00  1.00  1.00
   NELECT =     176.0000    total number of electrons
   NUPDOWN=      -1.0000    fix difference up-down

 DOS related values:
   EMIN   =  10.00;   EMAX   =-10.00  energy-range for DOS
   EFERMI =   0.00
   ISMEAR =     0;   SIGMA  =   0.01  broadening in eV -4-tet -1-fermi 0-gaus

 Electronic relaxation 2 (details)
   IALGO  =     38    algorithm
   LDIAG  =      T    sub-space diagonalisation (order eigenvalues)
   LSUBROT=      F    optimize rotation matrix (better conditioning)
   TURBO    =      0    0=normal 1=particle mesh
   IRESTART =      0    0=no restart 2=restart with 2 vectors
   NREBOOT  =      0    no. of reboots
   NMIN     =      0    reboot dimension
   EREF     =   0.00    reference energy to select bands
   IMIX   =      4    mixing-type and parameters
     AMIX     =   0.40;   BMIX     =  1.00
     AMIX_MAG =   1.60;   BMIX_MAG =  1.00
     AMIN     =   0.10
     WC   =   100.;   INIMIX=   1;  MIXPRE=   1;  MAXMIX= -45

 Intra band minimization:
   WEIMIN = 0.0000     energy-eigenvalue tresh-hold
   EBREAK =  0.22E-08  absolut break condition
   DEPER  =   0.30     relativ break condition  

   TIME   =   0.40     timestep for ELM

  volume/ion in A,a.u.               =      40.66       274.42
  Fermi-wavevector in a.u.,A,eV,Ry     =   0.982872  1.857358 13.143729  0.966037
  Thomas-Fermi vector in A             =   2.113987

 Write flags
   LWAVE        =      F    write WAVECAR
   LDOWNSAMPLE  =      F    k-point downsampling of WAVECAR
   LCHARG       =      F    write CHGCAR
   LVTOT        =      F    write LOCPOT, total local potential
   LVHAR        =      T    write LOCPOT, Hartree potential only
   LELF         =      F    write electronic localiz. function (ELF)
   LORBIT       =     10    0 simple, 1 ext, 2 COOP (PROOUT), +10 PAW based schemes


 Dipole corrections
   LMONO  =      F    monopole corrections only (constant potential shift)
   LDIPOL =      F    correct potential (dipole corrections)
   IDIPOL =      0    1-x, 2-y, 3-z, 4-all directions 
   EPSILON=  1.0000000 bulk dielectric constant

 Exchange correlation treatment:
   GGA     =    --    GGA type
   LEXCH   =     8    internal setting for exchange type
   VOSKOWN=      0    Vosko Wilk Nusair interpolation
   LHFCALC =     F    Hartree Fock is set to
   LHFONE  =     F    Hartree Fock one center treatment
   AEXX    =    0.0000 exact exchange contribution

 Linear response parameters
   LEPSILON=     F    determine dielectric tensor
   LRPA    =     F    only Hartree local field effects (RPA)
   LNABLA  =     F    use nabla operator in PAW spheres
   LVEL    =     F    velocity operator in full k-point grid
   LINTERFAST=   F  fast interpolation
   KINTER  =     0    interpolate to denser k-point grid
   CSHIFT  =0.1000    complex shift for real part using Kramers Kronig
   OMEGAMAX=  -1.0    maximum frequency
   DEG_THRESHOLD= 0.2000000E-02 threshold for treating states as degnerate
   RTIME   =   -0.100 relaxation time in fs
  (WPLASMAI=    0.000 imaginary part of plasma frequency in eV, 0.658/RTIME)
   DFIELD  = 0.0000000 0.0000000 0.0000000 field for delta impulse in time

 Orbital magnetization related:
   ORBITALMAG=     F  switch on orbital magnetization
   LCHIMAG   =     F  perturbation theory with respect to B field
   DQ        =  0.001000  dq finite difference perturbation B field
   LLRAUG    =     F  two centre corrections for induced B field



--------------------------------------------------------------------------------------------------------


 Static calculation
 charge density and potential will be updated during run
 non-spin polarized calculation
 Variant of blocked Davidson
 Davidson routine will perform the subspace rotation
 perform sub-space diagonalisation
    after iterative eigenvector-optimisation
 modified Broyden-mixing scheme, WC =      100.0
 initial mixing is a Kerker type mixing with AMIX =  0.4000 and BMIX =      1.0000
 Hartree-type preconditioning will be used
 using additional bands           24
 real space projection scheme for non local part
 use partial core corrections
 calculate Harris-corrections to forces   (improved forces if not selfconsistent)
 use gradient corrections 
 use of overlap-Matrix (Vanderbilt PP)
 Gauss-broadening in eV      SIGMA  =   0.01


--------------------------------------------------------------------------------------------------------


  energy-cutoff  :      300.00
  volume of cell :      813.29
      direct lattice vectors                 reciprocal lattice vectors
     5.880246683  5.880246683  5.880246683     0.085030446  0.085030446  0.000000000
     5.880246683 -5.880246683 -5.880246683     0.085030446 -0.000000000 -0.085030446
    -5.880246683  5.880246683 -5.880246683    -0.000000000  0.085030446 -0.085030446

  length of vectors
    10.184886016 10.184886016 10.184886016     0.120251210  0.120251210  0.120251210



 k-points in units of 2pi/SCALE and weight: 1x1x1                                   
   0.00000000  0.00000000 -0.00000000       0.037
   0.02834348  0.02834348 -0.00000000       0.444
   0.05668696  0.02834348 -0.02834348       0.296
   0.00000000  0.00000000 -0.05668696       0.222

 k-points in reciprocal lattice and weights: 1x1x1                                   
   0.00000000  0.00000000  0.00000000       0.037
   0.33333333  0.00000000  0.00000000       0.444
   0.33333333  0.33333333  0.00000000       0.296
  -0.33333333  0.33333333  0.33333333       0.222

 position of ions in fractional coordinates (direct lattice) 
   0.50000000  0.00000000  0.00000000
   0.50000000  0.50000000  0.50000000
   0.00000000  0.00000000  0.50000000
   0.00000000  0.50000000  0.00000000
   0.00000000  0.00000000  0.00000000
   0.00000000  0.50000000  0.50000000
   0.50000000  0.00000000  0.50000000
   0.50000000  0.50000000  0.00000000
   0.22382942  0.94266195  0.21883253
   0.22382942  0.50499689  0.78116747
   0.77617058  0.05733805  0.78116747
   0.77617058  0.49500311  0.21883253
   0.00499689  0.78116747  0.72382942
   0.99500311  0.21883253  0.27617058
   0.55733805  0.78116747  0.27617058
   0.44266195  0.21883253  0.72382942
   0.28116747  0.27617058  0.05733805
   0.28116747  0.72382942  0.50499689
   0.71883253  0.27617058  0.49500311
   0.71883253  0.72382942  0.94266195

 position of ions in cartesian coordinates  (Angst):
   2.94012334  2.94012334  2.94012334
   2.94012334  2.94012334 -2.94012334
  -2.94012334  2.94012334 -2.94012334
   2.94012334 -2.94012334 -2.94012334
   0.00000000  0.00000000  0.00000000
   0.00000000  0.00000000 -5.88024668
   0.00000000  5.88024668  0.00000000
   5.88024668  0.00000000  0.00000000
   5.57246775 -2.94012334 -5.51370182
  -0.30777893  2.94012334 -6.24679154
   0.30777893  8.82037002 -0.36654486
   6.18802561  2.94012334  0.36654486
   0.36654486 -0.30777893 -8.82037002
   5.51370182  6.18802561  2.94012334
   6.24679154  0.30777893 -2.94012334
  -0.36654486  5.57246775 -2.94012334
   2.94012334  0.36654486 -0.30777893
   2.94012334  0.36654486 -5.57246775
   2.94012334  5.51370182 -0.30777893
   2.94012334  5.51370182 -5.57246775



--------------------------------------------------------------------------------------------------------


 k-point  1 :   0.0000 0.0000 0.0000  plane waves:    9597
 k-point  2 :   0.3333 0.0000 0.0000  plane waves:    9594
 k-point  3 :   0.3333 0.3333 0.0000  plane waves:    9589
 k-point  4 :  -0.3333 0.3333 0.3333  plane waves:    9612

 maximum and minimum number of plane-waves per node :      1219     1168

 maximum number of plane-waves:      9612
 maximum index in each direction: 
   IXMAX=   14   IYMAX=   14   IZMAX=   14
   IXMIN=  -14   IYMIN=  -14   IZMIN=  -14


 real space projection operators:
  total allocation   :      10555.59 KBytes
  max/ min on nodes  :       1430.29       1212.98


 parallel 3D FFT for wavefunctions:
    minimum data exchange during FFTs selected (reduces bandwidth)
 parallel 3D FFT for charge:
    minimum data exchange during FFTs selected (reduces bandwidth)


 total amount of memory used by VASP MPI-rank0    44520. kBytes
=======================================================================

   base      :      30000. kBytes
   nonlr-proj:       4169. kBytes
   fftplans  :       5014. kBytes
   grid      :       4180. kBytes
   one-center:         46. kBytes
   wavefun   :       1111. kBytes

     INWAV:  cpu time    0.0000: real time    0.0000
 Broyden mixing: mesh for mixing (old mesh)
   NGX = 29   NGY = 29   NGZ = 29
  (NGX  =120   NGY  =120   NGZ  =120)
  gives a total of  24389 points

 initial charge density was supplied:
 charge density of overlapping atoms calculated
 number of electron     176.0000000 magnetization 
 keeping initial charge density in first step


--------------------------------------------------------------------------------------------------------


 Maximum index for non-local projection operator         1052
 Maximum index for augmentation-charges         2463 (set IRDMAX)


--------------------------------------------------------------------------------------------------------


 First call to EWALD:  gamma=   0.190
 Maximum number of real-space cells 3x 3x 3
 Maximum number of reciprocal cells 3x 3x 3

    FEWALD:  cpu time    0.0026: real time    0.0026


--------------------------------------- Iteration      1(   1)  ---------------------------------------


    POTLOK:  cpu time    0.1421: real time    0.1564
    SETDIJ:  cpu time    1.1626: real time    1.1627
     EDDAV:  cpu time    2.3614: real time    2.3669
       DOS:  cpu time    0.0005: real time    0.0005
    --------------------------------------------
      LOOP:  cpu time    3.6666: real time    3.6864

 eigenvalue-minimisations  :   912
 total energy-change (2. order) : 0.6733459E+03  (-0.5610688E+04)
 number of electron     176.0000000 magnetization 
 augmentation part      176.0000000 magnetization 

 Free energy of the ion-electron system (eV)
  ---------------------------------------------------
  alpha Z        PSCENC =       443.63995662
  Ewald energy   TEWEN  =     -9149.12455760
  -Hartree energ DENC   =     -3716.17722041
  -exchange      EXHF   =         0.00000000
  -V(xc)+E(xc)   XCENC  =       461.86569985
  PAW double counting   =     10816.98087266   -11353.96092700
  entropy T*S    EENTRO =        -0.00086258
  eigenvalues    EBANDS =      -120.15716792
  atomic energy  EATOM  =     13290.28009929
  Solvation  Ediel_sol  =         0.00000000
  ---------------------------------------------------
  free energy    TOTEN  =       673.34589291 eV

  energy without entropy =      673.34675549  energy(sigma->0) =      673.34632420


--------------------------------------------------------------------------------------------------------




--------------------------------------- Iteration      1(   2)  ---------------------------------------


     EDDAV:  cpu time    2.6005: real time    2.6419
       DOS:  cpu time    0.0003: real time    0.0003
    --------------------------------------------
      LOOP:  cpu time    2.6008: real time    2.6422

 eigenvalue-minimisations  :  1056
 total energy-change (2. order) :-0.1239973E+04  (-0.1183338E+04)
 number of electron     176.0000000 magnetization 
 augmentation part      176.0000000 magnetization 

 Free energy of the ion-electron system (eV)
  ---------------------------------------------------
  alpha Z        PSCENC =       443.63995662
  Ewald energy   TEWEN  =     -9149.12455760
  -Hartree energ DENC   =     -3716.17722041
  -exchange      EXHF   =         0.00000000
  -V(xc)+E(xc)   XCENC  =       461.86569985
  PAW double counting   =     10816.98087266   -11353.96092700
  entropy T*S    EENTRO =        -0.00000000
  eigenvalues    EBANDS =     -1360.13056907
  atomic energy  EATOM  =     13290.28009929
  Solvation  Ediel_sol  =         0.00000000
  ---------------------------------------------------
  free energy    TOTEN  =      -566.62664565 eV

  energy without entropy =     -566.62664565  energy(sigma->0) =     -566.62664565


--------------------------------------------------------------------------------------------------------




--------------------------------------- Iteration      1(   3)  ---------------------------------------


     EDDAV:  cpu time    2.8535: real time    2.8889
       DOS:  cpu time    0.0002: real time    0.0003
    --------------------------------------------
      LOOP:  cpu time    2.8537: real time    2.8892

 eigenvalue-minimisations  :  1224
 total energy-change (2. order) :-0.1818584E+03  (-0.1805057E+03)
 number of electron     176.0000000 magnetization 
 augmentation part      176.0000000 magnetization 

 Free energy of the ion-electron system (eV)
  ---------------------------------------------------
  alpha Z        PSCENC =       443.63995662
  Ewald energy   TEWEN  =     -9149.12455760
  -Hartree energ DENC   =     -3716.17722041
  -exchange      EXHF   =         0.00000000
  -V(xc)+E(xc)   XCENC  =       461.86569985
  PAW double counting   =     10816.98087266   -11353.96092700
  entropy T*S    EENTRO =        -0.00000000
  eigenvalues    EBANDS =     -1541.98892377
  atomic energy  EATOM  =     13290.28009929
  Solvation  Ediel_sol  =         0.00000000
  ---------------------------------------------------
  free energy    TOTEN  =      -748.48500036 eV

  energy without entropy =     -748.48500036  energy(sigma->0) =     -748.48500036


--------------------------------------------------------------------------------------------------------




--------------------------------------- Iteration      1(   4)  ---------------------------------------


     EDDAV:  cpu time    2.6061: real time    2.6411
       DOS:  cpu time    0.0003: real time    0.0003
    --------------------------------------------
      LOOP:  cpu time    2.6064: real time    2.6414

 eigenvalue-minimisations  :  1072
 total energy-change (2. order) :-0.5725775E+01  (-0.5703282E+01)
 number of electron     176.0000000 magnetization 
 augmentation part      176.0000000 magnetization 

 Free energy of the ion-electron system (eV)
  ---------------------------------------------------
  alpha Z        PSCENC =       443.63995662
  Ewald energy   TEWEN  =     -9149.12455760
  -Hartree energ DENC   =     -3716.17722041
  -exchange      EXHF   =         0.00000000
  -V(xc)+E(xc)   XCENC  =       461.86569985
  PAW double counting   =     10816.98087266   -11353.96092700
  entropy T*S    EENTRO =        -0.00000000
  eigenvalues    EBANDS =     -1547.71469837
  atomic energy  EATOM  =     13290.28009929
  Solvation  Ediel_sol  =         0.00000000
  ---------------------------------------------------
  free energy    TOTEN  =      -754.21077496 eV

  energy without entropy =     -754.21077496  energy(sigma->0) =     -754.21077496


--------------------------------------------------------------------------------------------------------




--------------------------------------- Iteration      1(   5)  ---------------------------------------


     EDDAV:  cpu time    2.8058: real time    2.8216
       DOS:  cpu time    0.0004: real time    0.0004
    CHARGE:  cpu time    0.8013: real time    0.8013
    MIXING:  cpu time    0.0008: real time    0.0008
    --------------------------------------------
      LOOP:  cpu time    3.6084: real time    3.6242

 eigenvalue-minimisations  :  1184
 total energy-change (2. order) :-0.2647112E+00  (-0.2644949E+00)
 number of electron     176.0000004 magnetization 
 augmentation part       -3.2524486 magnetization 

 Broyden mixing:
  rms(total) = 0.72083E+00    rms(broyden)= 0.72060E+00
  rms(prec ) = 0.11807E+01
  weight for this iteration     100.00

 Free energy of the ion-electron system (eV)
  ---------------------------------------------------
  alpha Z        PSCENC =       443.63995662
  Ewald energy   TEWEN  =     -9149.12455760
  -Hartree energ DENC   =     -3716.17722041
  -exchange      EXHF   =         0.00000000
  -V(xc)+E(xc)   XCENC  =       461.86569985
  PAW double counting   =     10816.98087266   -11353.96092700
  entropy T*S    EENTRO =        -0.00000000
  eigenvalues    EBANDS =     -1547.97940954
  atomic energy  EATOM  =     13290.28009929
  Solvation  Ediel_sol  =         0.00000000
  ---------------------------------------------------
  free energy    TOTEN  =      -754.47548612 eV

  energy without entropy =     -754.47548612  energy(sigma->0) =     -754.47548612


--------------------------------------------------------------------------------------------------------




--------------------------------------- Iteration      1(   6)  ---------------------------------------


    POTLOK:  cpu time    0.1362: real time    0.1673
    SETDIJ:  cpu time    1.1603: real time    1.1603
     EDDAV:  cpu time    2.7960: real time    2.7962
       DOS:  cpu time    0.0003: real time    0.0003
    CHARGE:  cpu time    0.7668: real time    0.7668
    MIXING:  cpu time    0.0009: real time    0.0009
    --------------------------------------------
      LOOP:  cpu time    4.8605: real time    4.8918

 eigenvalue-minimisations  :  1208
 total energy-change (2. order) : 0.3960026E+02  (-0.1153416E+01)
 number of electron     176.0000004 magnetization 
 augmentation part       -2.5354149 magnetization 

 Broyden mixing:
  rms(total) = 0.51255E+00    rms(broyden)= 0.51248E+00
  rms(prec ) = 0.72682E+00
  weight for this iteration     100.00

 eigenvalues of (default mixing * dielectric matrix)
  average eigenvalue GAMMA=   1.2046
  1.2046

 Free energy of the ion-electron system (eV)
  ---------------------------------------------------
  alpha Z        PSCENC =       443.63995662
  Ewald energy   TEWEN  =     -9149.12455760
  -Hartree energ DENC   =     -3707.91786905
  -exchange      EXHF   =         0.00000000
  -V(xc)+E(xc)   XCENC  =       477.49226103
  PAW double counting   =     10983.52758406   -11519.90461313
  entropy T*S    EENTRO =        -0.00000000
  eigenvalues    EBANDS =     -1532.86808419
  atomic energy  EATOM  =     13290.28009929
  Solvation  Ediel_sol  =         0.00000000
  ---------------------------------------------------
  free energy    TOTEN  =      -714.87522296 eV

  energy without entropy =     -714.87522296  energy(sigma->0) =     -714.87522296


--------------------------------------------------------------------------------------------------------




--------------------------------------- Iteration      1(   7)  ---------------------------------------


    POTLOK:  cpu time    0.1823: real time    0.1900
    SETDIJ:  cpu time    1.1651: real time    1.1651
     EDDAV:  cpu time    2.6575: real time    2.6575
       DOS:  cpu time    0.0004: real time    0.0004
    CHARGE:  cpu time    0.7686: real time    0.7687
    MIXING:  cpu time    0.0009: real time    0.0009
    --------------------------------------------
      LOOP:  cpu time    4.7748: real time    4.7826

 eigenvalue-minimisations  :  1120
 total energy-change (2. order) : 0.2408339E+00  (-0.3877982E+00)
 number of electron     176.0000004 magnetization 
 augmentation part       -2.2685109 magnetization 

 Broyden mixing:
  rms(total) = 0.25047E+00    rms(broyden)= 0.25046E+00
  rms(prec ) = 0.29546E+00
  weight for this iteration     100.00

 eigenvalues of (default mixing * dielectric matrix)
  average eigenvalue GAMMA=   1.3333
  1.3333  1.3333

 Free energy of the ion-electron system (eV)
  ---------------------------------------------------
  alpha Z        PSCENC =       443.63995662
  Ewald energy   TEWEN  =     -9149.12455760
  -Hartree energ DENC   =     -3729.93602126
  -exchange      EXHF   =         0.00000000
  -V(xc)+E(xc)   XCENC  =       480.28999616
  PAW double counting   =     11319.25371711   -11854.92406036
  entropy T*S    EENTRO =        -0.00000000
  eigenvalues    EBANDS =     -1514.11351907
  atomic energy  EATOM  =     13290.28009929
  Solvation  Ediel_sol  =         0.00000000
  ---------------------------------------------------
  free energy    TOTEN  =      -714.63438910 eV

  energy without entropy =     -714.63438910  energy(sigma->0) =     -714.63438910


--------------------------------------------------------------------------------------------------------




--------------------------------------- Iteration      1(   8)  ---------------------------------------


    POTLOK:  cpu time    0.1361: real time    0.1868
    SETDIJ:  cpu time    1.1642: real time    1.1643
     EDDAV:  cpu time    2.5931: real time    2.5932
       DOS:  cpu time    0.0003: real time    0.0003
    CHARGE:  cpu time    0.7687: real time    0.7688
    MIXING:  cpu time    0.0011: real time    0.0011
    --------------------------------------------
      LOOP:  cpu time    4.6635: real time    4.7144

 eigenvalue-minimisations  :  1080
 total energy-change (2. order) :-0.9017235E-01  (-0.1866090E-01)
 number of electron     176.0000004 magnetization 
 augmentation part       -2.3117345 magnetization 

 Broyden mixing:
  rms(total) = 0.14730E+00    rms(broyden)= 0.14730E+00
  rms(prec ) = 0.17557E+00
  weight for this iteration     100.00

 eigenvalues of (default mixing * dielectric matrix)
  average eigenvalue GAMMA=   1.7293
  1.0672  1.4067  2.7140

 Free energy of the ion-electron system (eV)
  ---------------------------------------------------
  alpha Z        PSCENC =       443.63995662
  Ewald energy   TEWEN  =     -9149.12455760
  -Hartree energ DENC   =     -3731.97610770
  -exchange      EXHF   =         0.00000000
  -V(xc)+E(xc)   XCENC  =       480.61474010
  PAW double counting   =     11437.15574657   -11973.01690561
  entropy T*S    EENTRO =        -0.00000000
  eigenvalues    EBANDS =     -1512.29753313
  atomic energy  EATOM  =     13290.28009929
  Solvation  Ediel_sol  =         0.00000000
  ---------------------------------------------------
  free energy    TOTEN  =      -714.72456145 eV

  energy without entropy =     -714.72456145  energy(sigma->0) =     -714.72456145


--------------------------------------------------------------------------------------------------------




--------------------------------------- Iteration      1(   9)  ---------------------------------------


    POTLOK:  cpu time    0.1904: real time    0.1990
    SETDIJ:  cpu time    1.1651: real time    1.1652
     EDDAV:  cpu time    2.4458: real time    2.4460
       DOS:  cpu time    0.0003: real time    0.0003
    CHARGE:  cpu time    0.7683: real time    0.7683
    MIXING:  cpu time    0.0010: real time    0.0010
    --------------------------------------------
      LOOP:  cpu time    4.5708: real time    4.5797

 eigenvalue-minimisations  :   984
 total energy-change (2. order) :-0.4123148E-01  (-0.7453635E-02)
 number of electron     176.0000004 magnetization 
 augmentation part       -2.3371881 magnetization 

 Broyden mixing:
  rms(total) = 0.32496E-01    rms(broyden)= 0.32494E-01
  rms(prec ) = 0.36645E-01
  weight for this iteration     100.00

 eigenvalues of (default mixing * dielectric matrix)
  average eigenvalue GAMMA=   1.4788
  2.5340  1.2653  1.2653  0.8504

 Free energy of the ion-electron system (eV)
  ---------------------------------------------------
  alpha Z        PSCENC =       443.63995662
  Ewald energy   TEWEN  =     -9149.12455760
  -Hartree energ DENC   =     -3734.72803782
  -exchange      EXHF   =         0.00000000
  -V(xc)+E(xc)   XCENC  =       481.59890134
  PAW double counting   =     11612.04415299   -12148.31932902
  entropy T*S    EENTRO =        -0.00000000
  eigenvalues    EBANDS =     -1510.15697873
  atomic energy  EATOM  =     13290.28009929
  Solvation  Ediel_sol  =         0.00000000
  ---------------------------------------------------
  free energy    TOTEN  =      -714.76579293 eV

  energy without entropy =     -714.76579293  energy(sigma->0) =     -714.76579293


--------------------------------------------------------------------------------------------------------




--------------------------------------- Iteration      1(  10)  ---------------------------------------


    POTLOK:  cpu time    0.1446: real time    0.1922
    SETDIJ:  cpu time    1.1640: real time    1.1640
     EDDAV:  cpu time    2.8767: real time    2.8768
       DOS:  cpu time    0.0004: real time    0.0004
    CHARGE:  cpu time    0.7704: real time    0.7704
    MIXING:  cpu time    0.0011: real time    0.0011
    --------------------------------------------
      LOOP:  cpu time    4.9571: real time    5.0049

 eigenvalue-minimisations  :  1264
 total energy-change (2. order) :-0.6706263E-03  (-0.4153595E-03)
 number of electron     176.0000004 magnetization 
 augmentation part       -2.3293837 magnetization 

 Broyden mixing:
  rms(total) = 0.18698E-01    rms(broyden)= 0.18698E-01
  rms(prec ) = 0.22186E-01
  weight for this iteration     100.00

 eigenvalues of (default mixing * dielectric matrix)
  average eigenvalue GAMMA=   1.6580
  2.5599  2.5599  1.1532  1.1532  0.8637

 Free energy of the ion-electron system (eV)
  ---------------------------------------------------
  alpha Z        PSCENC =       443.63995662
  Ewald energy   TEWEN  =     -9149.12455760
  -Hartree energ DENC   =     -3733.89297904
  -exchange      EXHF   =         0.00000000
  -V(xc)+E(xc)   XCENC  =       481.50455474
  PAW double counting   =     11593.06740012   -12129.36421689
  entropy T*S    EENTRO =        -0.00000000
  eigenvalues    EBANDS =     -1510.87672080
  atomic energy  EATOM  =     13290.28009929
  Solvation  Ediel_sol  =         0.00000000
  ---------------------------------------------------
  free energy    TOTEN  =      -714.76646355 eV

  energy without entropy =     -714.76646355  energy(sigma->0) =     -714.76646355


--------------------------------------------------------------------------------------------------------




--------------------------------------- Iteration      1(  11)  ---------------------------------------


    POTLOK:  cpu time    0.1524: real time    0.1945
    SETDIJ:  cpu time    1.1631: real time    1.1631
     EDDAV:  cpu time    2.5674: real time    2.5675
       DOS:  cpu time    0.0003: real time    0.0003
    CHARGE:  cpu time    0.7653: real time    0.7653
    MIXING:  cpu time    0.0010: real time    0.0010
    --------------------------------------------
      LOOP:  cpu time    4.6495: real time    4.6917

 eigenvalue-minimisations  :  1064
 total energy-change (2. order) :-0.1813606E-02  (-0.2082514E-03)
 number of electron     176.0000004 magnetization 
 augmentation part       -2.3276741 magnetization 

 Broyden mixing:
  rms(total) = 0.74080E-02    rms(broyden)= 0.74077E-02
  rms(prec ) = 0.10047E-01
  weight for this iteration     100.00

 eigenvalues of (default mixing * dielectric matrix)
  average eigenvalue GAMMA=   1.6016
  2.6250  2.6250  1.2562  1.2562  0.9235  0.9235

 Free energy of the ion-electron system (eV)
  ---------------------------------------------------
  alpha Z        PSCENC =       443.63995662
  Ewald energy   TEWEN  =     -9149.12455760
  -Hartree energ DENC   =     -3732.46768441
  -exchange      EXHF   =         0.00000000
  -V(xc)+E(xc)   XCENC  =       481.45358935
  PAW double counting   =     11573.64247321   -12110.06848863
  entropy T*S    EENTRO =        -0.00000000
  eigenvalues    EBANDS =     -1512.12366500
  atomic energy  EATOM  =     13290.28009929
  Solvation  Ediel_sol  =         0.00000000
  ---------------------------------------------------
  free energy    TOTEN  =      -714.76827716 eV

  energy without entropy =     -714.76827716  energy(sigma->0) =     -714.76827716


--------------------------------------------------------------------------------------------------------




--------------------------------------- Iteration      1(  12)  ---------------------------------------


    POTLOK:  cpu time    0.1710: real time    0.2069
    SETDIJ:  cpu time    1.1653: real time    1.1654
     EDDAV:  cpu time    2.6780: real time    2.6781
       DOS:  cpu time    0.0004: real time    0.0004
    CHARGE:  cpu time    0.7694: real time    0.7695
    MIXING:  cpu time    0.0010: real time    0.0010
    --------------------------------------------
      LOOP:  cpu time    4.7852: real time    4.8213

 eigenvalue-minimisations  :  1136
 total energy-change (2. order) : 0.1890593E-03  (-0.4446830E-04)
 number of electron     176.0000004 magnetization 
 augmentation part       -2.3302171 magnetization 

 Broyden mixing:
  rms(total) = 0.25072E-02    rms(broyden)= 0.25068E-02
  rms(prec ) = 0.30538E-02
  weight for this iteration     100.00

 eigenvalues of (default mixing * dielectric matrix)
  average eigenvalue GAMMA=   1.6514
  3.0206  2.4822  1.8045  1.2003  1.0073  1.0226  1.0226

 Free energy of the ion-electron system (eV)
  ---------------------------------------------------
  alpha Z        PSCENC =       443.63995662
  Ewald energy   TEWEN  =     -9149.12455760
  -Hartree energ DENC   =     -3732.84650474
  -exchange      EXHF   =         0.00000000
  -V(xc)+E(xc)   XCENC  =       481.51841711
  PAW double counting   =     11580.69626912   -12117.14579652
  entropy T*S    EENTRO =        -0.00000000
  eigenvalues    EBANDS =     -1511.78597138
  atomic energy  EATOM  =     13290.28009929
  Solvation  Ediel_sol  =         0.00000000
  ---------------------------------------------------
  free energy    TOTEN  =      -714.76808810 eV

  energy without entropy =     -714.76808810  energy(sigma->0) =     -714.76808810


--------------------------------------------------------------------------------------------------------




--------------------------------------- Iteration      1(  13)  ---------------------------------------


    POTLOK:  cpu time    0.1345: real time    0.1910
    SETDIJ:  cpu time    1.1660: real time    1.1660
     EDDAV:  cpu time    2.7173: real time    2.7174
       DOS:  cpu time    0.0003: real time    0.0003
    CHARGE:  cpu time    0.7677: real time    0.7677
    MIXING:  cpu time    0.0012: real time    0.0012
    --------------------------------------------
      LOOP:  cpu time    4.7869: real time    4.8436

 eigenvalue-minimisations  :  1160
 total energy-change (2. order) :-0.1460503E-05  (-0.4656952E-05)
 number of electron     176.0000004 magnetization 
 augmentation part       -2.3298775 magnetization 

 Broyden mixing:
  rms(total) = 0.60188E-03    rms(broyden)= 0.60054E-03
  rms(prec ) = 0.66197E-03
  weight for this iteration     100.00

 eigenvalues of (default mixing * dielectric matrix)
  average eigenvalue GAMMA=   1.6239
  3.0031  2.5070  1.7011  1.5490  1.1447  1.1447  0.9706  0.9706

 Free energy of the ion-electron system (eV)
  ---------------------------------------------------
  alpha Z        PSCENC =       443.63995662
  Ewald energy   TEWEN  =     -9149.12455760
  -Hartree energ DENC   =     -3733.01260681
  -exchange      EXHF   =         0.00000000
  -V(xc)+E(xc)   XCENC  =       481.53035997
  PAW double counting   =     11578.87382137   -12115.32397164
  entropy T*S    EENTRO =        -0.00000000
  eigenvalues    EBANDS =     -1511.63119076
  atomic energy  EATOM  =     13290.28009929
  Solvation  Ediel_sol  =         0.00000000
  ---------------------------------------------------
  free energy    TOTEN  =      -714.76808956 eV

  energy without entropy =     -714.76808956  energy(sigma->0) =     -714.76808956


--------------------------------------------------------------------------------------------------------




--------------------------------------- Iteration      1(  14)  ---------------------------------------


    POTLOK:  cpu time    0.1500: real time    0.1839
    SETDIJ:  cpu time    1.1650: real time    1.1650
     EDDAV:  cpu time    2.2515: real time    2.2516
       DOS:  cpu time    0.0003: real time    0.0003
    CHARGE:  cpu time    0.7681: real time    0.7681
    MIXING:  cpu time    0.0011: real time    0.0011
    --------------------------------------------
      LOOP:  cpu time    4.3360: real time    4.3700

 eigenvalue-minimisations  :   848
 total energy-change (2. order) :-0.4686022E-05  (-0.2536219E-06)
 number of electron     176.0000004 magnetization 
 augmentation part       -2.3297892 magnetization 

 Broyden mixing:
  rms(total) = 0.20819E-03    rms(broyden)= 0.20437E-03
  rms(prec ) = 0.23912E-03
  weight for this iteration     100.00

 eigenvalues of (default mixing * dielectric matrix)
  average eigenvalue GAMMA=   1.6634
  2.9458  2.7109  2.0288  2.0288  1.1280  1.1280  0.9229  1.0386  1.0386

 Free energy of the ion-electron system (eV)
  ---------------------------------------------------
  alpha Z        PSCENC =       443.63995662
  Ewald energy   TEWEN  =     -9149.12455760
  -Hartree energ DENC   =     -3733.01289350
  -exchange      EXHF   =         0.00000000
  -V(xc)+E(xc)   XCENC  =       481.52990012
  PAW double counting   =     11578.80591062   -12115.25449473
  entropy T*S    EENTRO =        -0.00000000
  eigenvalues    EBANDS =     -1511.63201507
  atomic energy  EATOM  =     13290.28009929
  Solvation  Ediel_sol  =         0.00000000
  ---------------------------------------------------
  free energy    TOTEN  =      -714.76809425 eV

  energy without entropy =     -714.76809425  energy(sigma->0) =     -714.76809425


--------------------------------------------------------------------------------------------------------




--------------------------------------- Iteration      1(  15)  ---------------------------------------


    POTLOK:  cpu time    0.1562: real time    0.1907
    SETDIJ:  cpu time    1.1651: real time    1.1653
     EDDAV:  cpu time    1.9015: real time    1.9016
       DOS:  cpu time    0.0002: real time    0.0002
    --------------------------------------------
      LOOP:  cpu time    3.2231: real time    3.2579

 eigenvalue-minimisations  :   616
 total energy-change (2. order) : 0.3092487E-06  (-0.3809901E-07)
 number of electron     176.0000004 magnetization 
 augmentation part       -2.3297892 magnetization 

 Free energy of the ion-electron system (eV)
  ---------------------------------------------------
  alpha Z        PSCENC =       443.63995662
  Ewald energy   TEWEN  =     -9149.12455760
  -Hartree energ DENC   =     -3733.01444568
  -exchange      EXHF   =         0.00000000
  -V(xc)+E(xc)   XCENC  =       481.53007093
  PAW double counting   =     11578.81799507   -12115.26550147
  entropy T*S    EENTRO =        -0.00000000
  eigenvalues    EBANDS =     -1511.63171110
  atomic energy  EATOM  =     13290.28009929
  Solvation  Ediel_sol  =         0.00000000
  ---------------------------------------------------
  free energy    TOTEN  =      -714.76809394 eV

  energy without entropy =     -714.76809394  energy(sigma->0) =     -714.76809394


--------------------------------------------------------------------------------------------------------




 average (electrostatic) potential at core
  the test charge radii are     1.1312  1.1541  1.0178
  (the norm of the test charge is              1.0000)
       1 -55.6214       2 -55.4155       3 -55.4155       4 -55.4155       5-101.5908
       6-101.5908       7-101.5908       8-101.5908       9 -69.0068      10 -69.0068
      11 -69.0068      12 -69.0068      13 -69.0068      14 -69.0068      15 -69.0068
      16 -69.0068      17 -69.0068      18 -69.0068      19 -69.0068      20 -69.0068



 E-fermi :   0.3255     XC(G=0):  -8.0154     alpha+bet : -6.9600


 k-point     1 :       0.0000    0.0000    0.0000
  band No.  band energies     occupation 
      1     -21.1133      2.00000
      2     -20.9360      2.00000
      3     -20.9344      2.00000
      4     -20.9344      2.00000
      5     -16.4303      2.00000
      6     -16.4303      2.00000
      7     -16.4008      2.00000
      8     -16.4008      2.00000
      9     -16.4007      2.00000
     10     -16.3305      2.00000
     11     -16.3305      2.00000
     12     -16.3305      2.00000
     13     -16.2562      2.00000
     14     -16.2562      2.00000
     15     -16.2553      2.00000
     16     -16.2553      2.00000
     17     -16.2551      2.00000
     18     -16.2550      2.00000
     19     -16.2545      2.00000
     20     -16.2545      2.00000
     21     -16.2545      2.00000
     22     -16.2535      2.00000
     23     -16.2530      2.00000
     24     -16.2530      2.00000
     25     -14.3890      2.00000
     26     -14.0446      2.00000
     27     -14.0446      2.00000
     28     -14.0446      2.00000
     29     -14.0391      2.00000
     30     -14.0391      2.00000
     31     -14.0391      2.00000
     32     -13.9662      2.00000
     33     -13.9662      2.00000
     34     -13.9662      2.00000
     35     -13.7344      2.00000
     36     -13.7344      2.00000
     37      -7.6919      2.00000
     38      -7.6919      2.00000
     39      -7.6919      2.00000
     40      -7.4645      2.00000
     41      -7.4643      2.00000
     42      -7.4643      2.00000
     43      -7.3465      2.00000
     44      -7.3465      2.00000
     45      -7.3465      2.00000
     46      -7.3048      2.00000
     47      -7.3048      2.00000
     48      -7.3048      2.00000
     49      -7.2958      2.00000
     50      -7.2958      2.00000
     51      -7.2958      2.00000
     52      -6.4496      2.00000
     53      -3.3600      2.00000
     54      -3.3600      2.00000
     55      -3.3600      2.00000
     56      -3.1361      2.00000
     57      -3.1170      2.00000
     58      -3.1170      2.00000
     59      -2.1758      2.00000
     60      -2.1612      2.00000
     61      -2.1612      2.00000
     62      -1.6393      2.00000
     63      -1.6393      2.00000
     64      -1.6393      2.00000
     65      -1.5716      2.00000
     66      -1.5716      2.00000
     67      -1.5716      2.00000
     68      -1.5436      2.00000
     69      -1.5436      2.00000
     70      -1.5436      2.00000
     71      -1.5088      2.00000
     72      -1.5088      2.00000
     73      -1.5088      2.00000
     74      -1.3806      2.00000
     75      -1.3806      2.00000
     76      -1.3806      2.00000
     77      -1.2669      2.00000
     78      -1.2669      2.00000
     79      -1.2669      2.00000
     80      -1.1621      2.00000
     81      -1.1620      2.00000
     82      -1.1620      2.00000
     83      -0.9303      2.00000
     84      -0.9303      2.00000
     85      -0.8958      2.00000
     86      -0.0418      2.00000
     87      -0.0418      2.00000
     88      -0.0418      2.00000
     89       3.1828      0.00000
     90       3.1828      0.00000
     91       3.1828      0.00000
     92       3.2310      0.00000
     93       3.2311      0.00000
     94       3.2311      0.00000
     95       4.6446      0.00000
     96       5.7197      0.00000
     97       5.7197      0.00000
     98       5.8108      0.00000
     99       5.8124      0.00000
    100       5.8124      0.00000
    101       6.3791      0.00000
    102       6.3791      0.00000
    103       6.3792      0.00000
    104       6.6990      0.00000
    105       6.6990      0.00000
    106       6.6991      0.00000
    107       6.7139      0.00000
    108       6.7142      0.00000
    109       6.7145      0.00000
    110       6.7807      0.00000
    111       6.7807      0.00000
    112       7.2887      0.00000

 k-point     2 :       0.3333    0.0000    0.0000
  band No.  band energies     occupation 
      1     -21.1133      2.00000
      2     -20.9357      2.00000
      3     -20.9347      2.00000
      4     -20.9343      2.00000
      5     -16.4229      2.00000
      6     -16.4080      2.00000
      7     -16.4071      2.00000
      8     -16.3886      2.00000
      9     -16.3886      2.00000
     10     -16.3572      2.00000
     11     -16.3429      2.00000
     12     -16.3429      2.00000
     13     -16.2560      2.00000
     14     -16.2558      2.00000
     15     -16.2554      2.00000
     16     -16.2552      2.00000
     17     -16.2550      2.00000
     18     -16.2549      2.00000
     19     -16.2547      2.00000
     20     -16.2545      2.00000
     21     -16.2543      2.00000
     22     -16.2537      2.00000
     23     -16.2532      2.00000
     24     -16.2532      2.00000
     25     -14.3353      2.00000
     26     -14.1913      2.00000
     27     -14.1058      2.00000
     28     -14.1022      2.00000
     29     -14.0410      2.00000
     30     -14.0379      2.00000
     31     -13.9650      2.00000
     32     -13.8997      2.00000
     33     -13.8979      2.00000
     34     -13.8493      2.00000
     35     -13.8116      2.00000
     36     -13.7629      2.00000
     37      -7.7313      2.00000
     38      -7.7299      2.00000
     39      -7.4652      2.00000
     40      -7.4641      2.00000
     41      -7.4638      2.00000
     42      -7.4623      2.00000
     43      -7.3465      2.00000
     44      -7.3440      2.00000
     45      -7.3390      2.00000
     46      -7.3136      2.00000
     47      -7.3048      2.00000
     48      -7.3027      2.00000
     49      -7.2964      2.00000
     50      -7.2924      2.00000
     51      -7.2841      2.00000
     52      -6.8486      2.00000
     53      -3.3160      2.00000
     54      -3.2002      2.00000
     55      -3.0360      2.00000
     56      -2.7875      2.00000
     57      -2.7822      2.00000
     58      -2.7714      2.00000
     59      -2.2432      2.00000
     60      -2.1140      2.00000
     61      -2.0680      2.00000
     62      -2.0589      2.00000
     63      -2.0577      2.00000
     64      -2.0271      2.00000
     65      -1.7736      2.00000
     66      -1.7597      2.00000
     67      -1.7136      2.00000
     68      -1.5773      2.00000
     69      -1.5443      2.00000
     70      -1.4648      2.00000
     71      -1.4400      2.00000
     72      -1.3884      2.00000
     73      -1.3553      2.00000
     74      -1.3411      2.00000
     75      -1.3102      2.00000
     76      -1.3010      2.00000
     77      -1.2399      2.00000
     78      -1.2264      2.00000
     79      -1.1993      2.00000
     80      -1.1973      2.00000
     81      -1.1851      2.00000
     82      -1.1446      2.00000
     83      -1.0062      2.00000
     84      -0.9806      2.00000
     85      -0.9004      2.00000
     86      -0.6861      2.00000
     87      -0.3057      2.00000
     88      -0.3041      2.00000
     89       3.1834      0.00000
     90       3.1880      0.00000
     91       3.8930      0.00000
     92       3.9294      0.00000
     93       4.0451      0.00000
     94       4.1453      0.00000
     95       5.1012      0.00000
     96       5.1014      0.00000
     97       5.1150      0.00000
     98       5.6820      0.00000
     99       5.8201      0.00000
    100       5.9433      0.00000
    101       6.0538      0.00000
    102       6.0597      0.00000
    103       6.2474      0.00000
    104       6.3071      0.00000
    105       6.5109      0.00000
    106       6.5336      0.00000
    107       6.5888      0.00000
    108       6.6887      0.00000
    109       6.7357      0.00000
    110       6.8014      0.00000
    111       6.9398      0.00000
    112       7.0224      0.00000

 k-point     3 :       0.3333    0.3333    0.0000
  band No.  band energies     occupation 
      1     -21.1133      2.00000
      2     -20.9352      2.00000
      3     -20.9352      2.00000
      4     -20.9343      2.00000
      5     -16.4071      2.00000
      6     -16.4071      2.00000
      7     -16.4070      2.00000
      8     -16.3749      2.00000
      9     -16.3749      2.00000
     10     -16.3748      2.00000
     11     -16.3571      2.00000
     12     -16.3571      2.00000
     13     -16.2558      2.00000
     14     -16.2555      2.00000
     15     -16.2554      2.00000
     16     -16.2552      2.00000
     17     -16.2552      2.00000
     18     -16.2550      2.00000
     19     -16.2546      2.00000
     20     -16.2546      2.00000
     21     -16.2541      2.00000
     22     -16.2537      2.00000
     23     -16.2536      2.00000
     24     -16.2532      2.00000
     25     -14.2405      2.00000
     26     -14.2360      2.00000
     27     -14.2360      2.00000
     28     -14.1337      2.00000
     29     -13.9603      2.00000
     30     -13.9603      2.00000
     31     -13.9366      2.00000
     32     -13.9309      2.00000
     33     -13.9309      2.00000
     34     -13.8114      2.00000
     35     -13.8114      2.00000
     36     -13.8078      2.00000
     37      -7.8799      2.00000
     38      -7.4649      2.00000
     39      -7.4647      2.00000
     40      -7.4636      2.00000
     41      -7.3803      2.00000
     42      -7.3794      2.00000
     43      -7.3794      2.00000
     44      -7.3287      2.00000
     45      -7.3246      2.00000
     46      -7.3246      2.00000
     47      -7.3144      2.00000
     48      -7.3144      2.00000
     49      -7.3018      2.00000
     50      -7.2613      2.00000
     51      -7.2613      2.00000
     52      -7.2501      2.00000
     53      -2.9559      2.00000
     54      -2.9558      2.00000
     55      -2.9456      2.00000
     56      -2.8040      2.00000
     57      -2.8022      2.00000
     58      -2.8022      2.00000
     59      -2.1630      2.00000
     60      -2.1477      2.00000
     61      -2.1477      2.00000
     62      -2.1161      2.00000
     63      -2.1161      2.00000
     64      -2.0455      2.00000
     65      -1.7787      2.00000
     66      -1.7787      2.00000
     67      -1.6490      2.00000
     68      -1.6490      2.00000
     69      -1.6398      2.00000
     70      -1.5246      2.00000
     71      -1.4915      2.00000
     72      -1.4915      2.00000
     73      -1.3326      2.00000
     74      -1.3076      2.00000
     75      -1.3076      2.00000
     76      -1.2683      2.00000
     77      -1.1929      2.00000
     78      -1.1929      2.00000
     79      -1.1294      2.00000
     80      -1.1293      2.00000
     81      -1.1112      2.00000
     82      -1.0823      2.00000
     83      -1.0823      2.00000
     84      -1.0477      2.00000
     85      -0.8614      2.00000
     86      -0.8614      2.00000
     87      -0.8287      2.00000
     88      -0.4430      2.00000
     89       3.7439      0.00000
     90       3.7440      0.00000
     91       3.9054      0.00000
     92       4.1469      0.00000
     93       4.1469      0.00000
     94       4.2081      0.00000
     95       5.3020      0.00000
     96       5.3359      0.00000
     97       5.3359      0.00000
     98       5.3723      0.00000
     99       5.3724      0.00000
    100       5.3739      0.00000
    101       6.0782      0.00000
    102       6.0782      0.00000
    103       6.0834      0.00000
    104       6.1405      0.00000
    105       6.4688      0.00000
    106       6.4688      0.00000
    107       6.4849      0.00000
    108       6.5870      0.00000
    109       6.5871      0.00000
    110       6.6641      0.00000
    111       6.7918      0.00000
    112       6.7919      0.00000

 k-point     4 :      -0.3333    0.3333    0.3333
  band No.  band energies     occupation 
      1     -21.1133      2.00000
      2     -20.9356      2.00000
      3     -20.9352      2.00000
      4     -20.9341      2.00000
      5     -16.4304      2.00000
      6     -16.4199      2.00000
      7     -16.4198      2.00000
      8     -16.3839      2.00000
      9     -16.3623      2.00000
     10     -16.3623      2.00000
     11     -16.3486      2.00000
     12     -16.3305      2.00000
     13     -16.2562      2.00000
     14     -16.2557      2.00000
     15     -16.2556      2.00000
     16     -16.2555      2.00000
     17     -16.2551      2.00000
     18     -16.2549      2.00000
     19     -16.2544      2.00000
     20     -16.2543      2.00000
     21     -16.2542      2.00000
     22     -16.2538      2.00000
     23     -16.2535      2.00000
     24     -16.2528      2.00000
     25     -14.2795      2.00000
     26     -14.1737      2.00000
     27     -14.1736      2.00000
     28     -14.0419      2.00000
     29     -14.0358      2.00000
     30     -14.0352      2.00000
     31     -14.0349      2.00000
     32     -14.0155      2.00000
     33     -13.9246      2.00000
     34     -13.7746      2.00000
     35     -13.7745      2.00000
     36     -13.7350      2.00000
     37      -8.1132      2.00000
     38      -7.4658      2.00000
     39      -7.4652      2.00000
     40      -7.4650      2.00000
     41      -7.3696      2.00000
     42      -7.3683      2.00000
     43      -7.3470      2.00000
     44      -7.3308      2.00000
     45      -7.3280      2.00000
     46      -7.3149      2.00000
     47      -7.3133      2.00000
     48      -7.3099      2.00000
     49      -7.2966      2.00000
     50      -7.2201      2.00000
     51      -7.2200      2.00000
     52      -6.9674      2.00000
     53      -3.2991      2.00000
     54      -3.2945      2.00000
     55      -3.2424      2.00000
     56      -3.2368      2.00000
     57      -2.8710      2.00000
     58      -2.8648      2.00000
     59      -2.2070      2.00000
     60      -2.0327      2.00000
     61      -1.9889      2.00000
     62      -1.9552      2.00000
     63      -1.9127      2.00000
     64      -1.8951      2.00000
     65      -1.8838      2.00000
     66      -1.6548      2.00000
     67      -1.5629      2.00000
     68      -1.4494      2.00000
     69      -1.4429      2.00000
     70      -1.4246      2.00000
     71      -1.4233      2.00000
     72      -1.3643      2.00000
     73      -1.3574      2.00000
     74      -1.3563      2.00000
     75      -1.3282      2.00000
     76      -1.3240      2.00000
     77      -1.2997      2.00000
     78      -1.2572      2.00000
     79      -1.2571      2.00000
     80      -1.2416      2.00000
     81      -1.1563      2.00000
     82      -1.0538      2.00000
     83      -1.0077      2.00000
     84      -1.0014      2.00000
     85      -0.8087      2.00000
     86      -0.5938      2.00000
     87      -0.5925      2.00000
     88       0.2690      2.00000
     89       2.8606      0.00000
     90       2.8614      0.00000
     91       3.4560      0.00000
     92       3.5118      0.00000
     93       3.6208      0.00000
     94       4.3694      0.00000
     95       5.4191      0.00000
     96       5.4387      0.00000
     97       5.6486      0.00000
     98       5.9869      0.00000
     99       6.0105      0.00000
    100       6.0788      0.00000
    101       6.1650      0.00000
    102       6.2565      0.00000
    103       6.2612      0.00000
    104       6.2650      0.00000
    105       6.3385      0.00000
    106       6.5284      0.00000
    107       6.6092      0.00000
    108       6.6405      0.00000
    109       6.6895      0.00000
    110       6.8575      0.00000
    111       6.8648      0.00000
    112       6.8983      0.00000


--------------------------------------------------------------------------------------------------------


 soft charge-density along one line, spin component           1
         0         1         2         3         4         5         6         7         8         9
 total charge-density along one line

 pseudopotential strength for first ion, spin component:           1
 18.118  -4.743  -0.000  -0.000  -0.000   0.000   0.000   0.000
 -4.743   1.250   0.000   0.000   0.000  -0.000  -0.000  -0.000
 -0.000   0.000   2.325  -0.000   0.000  -2.793   0.000  -0.000
 -0.000   0.000  -0.000   2.325  -0.000   0.000  -2.793   0.000
 -0.000   0.000   0.000  -0.000   2.325  -0.000   0.000  -2.793
  0.000  -0.000  -2.793   0.000  -0.000   3.328  -0.000   0.000
  0.000  -0.000   0.000  -2.793   0.000  -0.000   3.328  -0.000
  0.000  -0.000  -0.000   0.000  -2.793   0.000  -0.000   3.328
  0.000  -0.000   0.000   0.000  -0.000  -0.000  -0.000   0.000
 -0.000   0.000  -0.000  -0.000   0.000   0.000   0.000  -0.000
  0.000  -0.000   0.000  -0.000  -0.000  -0.000   0.000   0.000
 -0.000   0.000   0.000   0.000  -0.000  -0.000  -0.000   0.000
 -0.000   0.000   0.000  -0.000   0.000  -0.000   0.000  -0.000
 total augmentation occupancy for first ion, spin component:           1
  1.904  -0.152   0.000   0.000   0.000   0.000   0.000   0.000  -0.000  -0.000  -0.000   0.000   0.000
 -0.152   0.076   0.000   0.000   0.000   0.000   0.000   0.000  -0.000   0.000   0.000   0.000   0.000
  0.000   0.000   2.012  -0.000  -0.000  -0.000  -0.000  -0.000   0.000   0.000   0.000   0.000   0.000
  0.000   0.000  -0.000   2.012   0.000  -0.000  -0.000   0.000   0.000   0.000   0.000   0.000   0.000
  0.000   0.000  -0.000   0.000   2.012  -0.000   0.000  -0.000   0.000   0.000   0.000   0.000   0.000
  0.000   0.000  -0.000  -0.000  -0.000   0.005   0.000   0.000   0.000   0.000   0.000   0.000   0.000
  0.000   0.000  -0.000  -0.000   0.000   0.000   0.005   0.000   0.000   0.000   0.000   0.000   0.000
  0.000   0.000  -0.000   0.000  -0.000  -0.000   0.000   0.005   0.000   0.000   0.000   0.000   0.000
 -0.000  -0.000   0.000   0.000   0.000   0.000   0.000   0.000   0.003  -0.000  -0.000   0.000   0.000
 -0.000   0.000   0.000   0.000   0.000   0.000   0.000   0.000  -0.000   0.003   0.000   0.000  -0.000
 -0.000   0.000   0.000   0.000   0.000   0.000   0.000   0.000  -0.000  -0.000   0.002   0.000  -0.000
  0.000   0.000   0.000   0.000   0.000   0.000   0.000   0.000   0.000   0.000   0.000   0.003   0.000
  0.000  -0.000   0.000   0.000   0.000   0.000   0.000   0.000   0.000  -0.000   0.000   0.000   0.002


------------------------ aborting loop because EDIFF is reached ----------------------------------------





 total charge     

# of ion       s       p       d       tot
------------------------------------------
    1        1.781   4.717   0.010   6.508
    2        1.784   4.719   0.016   6.519
    3        1.784   4.719   0.016   6.519
    4        1.784   4.719   0.016   6.519
    5        1.552   0.431   9.835  11.818
    6        1.552   0.431   9.835  11.818
    7        1.552   0.431   9.835  11.818
    8        1.552   0.431   9.835  11.818
    9        1.615   3.279   0.007   4.901
   10        1.615   3.279   0.007   4.901
   11        1.615   3.279   0.007   4.901
   12        1.615   3.279   0.007   4.901
   13        1.614   3.292   0.006   4.912
   14        1.614   3.292   0.006   4.912
   15        1.614   3.293   0.006   4.913
   16        1.614   3.293   0.006   4.913
   17        1.615   3.279   0.007   4.901
   18        1.615   3.279   0.007   4.901
   19        1.615   3.279   0.007   4.901
   20        1.615   3.279   0.007   4.901
--------------------------------------------------
tot         32.716  60.001  39.477 132.194

    CHARGE:  cpu time    0.1262: real time    0.1262
    FORLOC:  cpu time    0.0047: real time    0.0047
    FORNL :  cpu time    0.4989: real time    0.4989
    STRESS:  cpu time    8.0227: real time    8.0231
    FORCOR:  cpu time    0.1196: real time    0.1197
    FORHAR:  cpu time    0.0132: real time    0.0132
    MIXING:  cpu time    0.0013: real time    0.0013
    OFIELD:  cpu time    0.0000: real time    0.0000

  FORCE on cell =-STRESS in cart. coord.  units (eV):
  Direction    XX          YY          ZZ          XY          YZ          ZX
  --------------------------------------------------------------------------------------
  Alpha Z   443.63996   443.63996   443.63996
  Ewald   -3049.71703 -3049.71703 -3049.71703    -0.00000     0.00000     0.00000
  Hartree  1244.34010  1244.34010  1244.34010    -0.00000     0.00000     0.00000
  E(xc)    -738.90897  -738.90948  -738.86484     0.00292    -0.00081    -0.00192
  Local   -1457.39849 -1457.39849 -1457.39849     0.00041    -0.00041    -0.00041
  n-local   900.84992   900.85735   900.56648    -0.06710    -0.05288     0.04617
  augment   406.14773   406.14773   406.14773     0.00006    -0.00002    -0.00006
  Kinetic  2249.81489  2249.80465  2251.69273     0.07648     0.01813    -0.02002
  Fock        0.00000     0.00000     0.00000     0.00000     0.00000     0.00000
  -------------------------------------------------------------------------------------
  Total      -0.68682    -0.68682    -0.68682     0.00000    -0.00000     0.00000
  in kB      -1.35303    -1.35303    -1.35303     0.00000    -0.00000     0.00000
  external pressure =       -1.35 kB  Pullay stress =        0.00 kB


 VOLUME and BASIS-vectors are now :
 -----------------------------------------------------------------------------
  energy-cutoff  :      300.00
  volume of cell :      813.29
      direct lattice vectors                 reciprocal lattice vectors
     5.880246683  5.880246683  5.880246683     0.085030446  0.085030446  0.000000000
     5.880246683 -5.880246683 -5.880246683     0.085030446 -0.000000000 -0.085030446
    -5.880246683  5.880246683 -5.880246683    -0.000000000  0.085030446 -0.085030446

  length of vectors
    10.184886016 10.184886016 10.184886016     0.120251210  0.120251210  0.120251210


 FORCES acting on ions
    electron-ion (+dipol)            ewald-force                    non-local-force                 convergence-correction
 -----------------------------------------------------------------------------------------------
   0.354E-12 -.387E-12 0.379E-12   0.724E-14 0.213E-13 -.107E-13   0.000E+00 0.331E-23 0.000E+00   -.543E-13 0.123E-12 -.278E-12
   -.112E-10 -.220E-09 0.234E-09   -.208E-13 0.213E-13 -.213E-13   0.827E-24 -.827E-24 0.000E+00   0.125E-13 0.163E-13 0.298E-12
   0.288E-09 -.211E-09 -.412E-09   0.142E-13 0.888E-14 0.000E+00   0.000E+00 0.000E+00 0.000E+00   -.274E-16 -.140E-12 0.547E-13
   0.476E-11 -.201E-09 -.382E-09   -.252E-13 -.107E-13 0.000E+00   -.103E-24 0.414E-24 0.827E-24   0.642E-13 -.363E-13 -.179E-13
   0.272E-12 -.421E-12 0.212E-12   0.000E+00 -.355E-13 0.249E-13   0.000E+00 -.182E-22 -.165E-23   0.259E-12 0.415E-12 -.164E-12
   0.813E-13 -.946E-13 -.125E-11   -.256E-13 0.973E-13 -.110E-12   0.662E-23 0.000E+00 0.265E-22   -.241E-12 -.151E-12 -.643E-13
   0.154E-11 -.844E-12 0.191E-11   -.500E-15 -.244E-13 0.104E-12   0.265E-22 0.132E-22 -.529E-22   0.489E-12 -.227E-12 0.860E-13
   0.289E-11 -.283E-11 0.436E-11   -.853E-13 0.320E-13 -.568E-13   -.529E-22 0.273E-22 -.414E-23   0.213E-13 0.276E-12 -.230E-12
   0.156E+02 0.667E-05 -.173E+02   -.157E+02 0.458E-11 0.175E+02   0.957E-01 -.260E-17 -.146E+00   0.201E-03 0.302E-08 0.126E-03
   0.156E+02 -.375E-06 0.173E+02   -.157E+02 0.157E-11 -.175E+02   0.957E-01 0.000E+00 0.146E+00   0.201E-03 -.233E-08 -.126E-03
   -.156E+02 -.667E-05 0.173E+02   0.157E+02 -.452E-11 -.175E+02   -.957E-01 0.260E-17 0.146E+00   -.201E-03 -.302E-08 -.126E-03
   -.156E+02 0.375E-06 -.173E+02   0.157E+02 -.169E-11 0.175E+02   -.957E-01 0.867E-18 -.146E+00   -.201E-03 0.233E-08 0.126E-03
   -.173E+02 0.156E+02 0.505E-06   0.175E+02 -.157E+02 0.141E-11   -.146E+00 0.957E-01 0.347E-17   0.126E-03 0.201E-03 0.233E-08
   0.173E+02 -.156E+02 -.505E-06   -.175E+02 0.157E+02 -.133E-11   0.146E+00 -.957E-01 -.282E-17   -.126E-03 -.201E-03 -.233E-08
   -.173E+02 -.156E+02 0.677E-05   0.175E+02 0.157E+02 0.718E-12   -.146E+00 -.957E-01 -.347E-17   0.126E-03 -.201E-03 0.302E-08
   0.173E+02 0.156E+02 -.677E-05   -.175E+02 -.157E+02 -.773E-12   0.146E+00 0.957E-01 0.260E-17   -.126E-03 0.201E-03 -.302E-08
   -.679E-05 -.173E+02 0.156E+02   0.479E-11 0.175E+02 -.157E+02   0.867E-18 -.146E+00 0.957E-01   -.302E-08 0.126E-03 0.201E-03
   -.373E-06 -.173E+02 -.156E+02   0.244E-12 0.175E+02 0.157E+02   -.217E-18 -.146E+00 -.957E-01   -.233E-08 0.126E-03 -.201E-03
   0.373E-06 0.173E+02 0.156E+02   -.228E-12 -.175E+02 -.157E+02   0.217E-18 0.146E+00 0.957E-01   0.233E-08 -.126E-03 0.201E-03
   0.679E-05 0.173E+02 -.156E+02   -.468E-11 -.175E+02 0.157E+02   -.347E-17 0.146E+00 -.957E-01   0.302E-08 -.126E-03 -.201E-03
 -----------------------------------------------------------------------------------------------
   0.294E-09 -.636E-09 -.553E-09   -.159E-13 0.107E-13 -.302E-13   -.304E-16 0.278E-16 -.416E-16   0.568E-12 0.243E-12 -.344E-12


 POSITION                                       TOTAL-FORCE (eV/Angst)
 -----------------------------------------------------------------------------------
      2.94012      2.94012      2.94012         0.000000      0.000000     -0.000000
      2.94012      2.94012     -2.94012         0.000000      0.000000     -0.000000
     -2.94012      2.94012     -2.94012         0.000000      0.000000     -0.000000
      2.94012     -2.94012     -2.94012         0.000000      0.000000     -0.000000
      0.00000      0.00000      0.00000         0.000000      0.000000     -0.000000
      0.00000      0.00000     -5.88025         0.000000      0.000000     -0.000000
      0.00000      5.88025      0.00000         0.000000      0.000000     -0.000000
      5.88025      0.00000      0.00000         0.000000      0.000000     -0.000000
      5.57247     -2.94012     -5.51370        -0.007071      0.000000      0.000490
     -0.30778      2.94012     -6.24679        -0.007071      0.000000     -0.000490
      0.30778      8.82037     -0.36654         0.007071      0.000000     -0.000490
      6.18803      2.94012      0.36654         0.007071      0.000000      0.000490
      0.36654     -0.30778     -8.82037         0.000490     -0.007071     -0.000000
      5.51370      6.18803      2.94012        -0.000490      0.007071     -0.000000
      6.24679      0.30778     -2.94012         0.000490      0.007071     -0.000000
     -0.36654      5.57247     -2.94012        -0.000490     -0.007071     -0.000000
      2.94012      0.36654     -0.30778         0.000000      0.000490     -0.007071
      2.94012      0.36654     -5.57247         0.000000      0.000490      0.007071
      2.94012      5.51370     -0.30778         0.000000     -0.000490     -0.007071
      2.94012      5.51370     -5.57247         0.000000     -0.000490      0.007071
 -----------------------------------------------------------------------------------
    total drift:                                0.000000     -0.000000     -0.000000


--------------------------------------------------------------------------------------------------------



  FREE ENERGIE OF THE ION-ELECTRON SYSTEM (eV)
  ---------------------------------------------------
  free  energy   TOTEN  =      -714.76809394 eV

  energy  without entropy=     -714.76809394  energy(sigma->0) =     -714.76809394



--------------------------------------------------------------------------------------------------------


    POTLOK:  cpu time    1.2833: real time    1.2833


--------------------------------------------------------------------------------------------------------


 stress matrix after NEB project (eV)
     -0.68682      0.00000      0.00000
      0.00000     -0.68682     -0.00000
      0.00000     -0.00000     -0.68682
  FORCES: max atom, RMS     0.007088    0.005490
  FORCE total and by dimension    0.024554    0.007071
  Stress total and by dimension    1.189606    0.686819
     LOOP+:  cpu time   72.2638: real time   72.8557
    4ORBIT:  cpu time    0.0000: real time    0.0000



 total charge     

# of ion       s       p       d       tot
------------------------------------------
    1        1.781   4.717   0.010   6.508
    2        1.784   4.719   0.016   6.519
    3        1.784   4.719   0.016   6.519
    4        1.784   4.719   0.016   6.519
    5        1.552   0.431   9.835  11.818
    6        1.552   0.431   9.835  11.818
    7        1.552   0.431   9.835  11.818
    8        1.552   0.431   9.835  11.818
    9        1.615   3.279   0.007   4.901
   10        1.615   3.279   0.007   4.901
   11        1.615   3.279   0.007   4.901
   12        1.615   3.279   0.007   4.901
   13        1.614   3.292   0.006   4.912
   14        1.614   3.292   0.006   4.912
   15        1.614   3.293   0.006   4.913
   16        1.614   3.293   0.006   4.913
   17        1.615   3.279   0.007   4.901
   18        1.615   3.279   0.007   4.901
   19        1.615   3.279   0.007   4.901
   20        1.615   3.279   0.007   4.901
--------------------------------------------------
tot         32.716  60.001  39.477 132.194


 total amount of memory used by VASP MPI-rank0    44520. kBytes
=======================================================================

   base      :      30000. kBytes
   nonlr-proj:       4169. kBytes
   fftplans  :       5014. kBytes
   grid      :       4180. kBytes
   one-center:         46. kBytes
   wavefun   :       1111. kBytes

  
  
 General timing and accounting informations for this job:
 ========================================================
  
                  Total CPU time used (sec):       79.432
                            User time (sec):       78.640
                          System time (sec):        0.792
                         Elapsed time (sec):       80.392
  
                   Maximum memory used (kb):       87624.
                   Average memory used (kb):           0.
  
                          Minor page faults:        21970
                          Major page faults:            0
                 Voluntary context switches:         1509
