PROCAR new format
# of k-points:    4         # of bands:  112         # of ions:   20

 k-point     1 :    0.00000000 0.00000000 0.00000000     weight = 0.03703704

band     1 # energy  -21.11333110 # occ.  2.00000000

ion      s      p      d    tot
    1  0.888  0.000  0.000  0.888
    2  0.000  0.000  0.000  0.000
    3  0.000  0.000  0.000  0.000
    4  0.000  0.000  0.000  0.000
    5  0.000  0.000  0.000  0.000
    6  0.000  0.000  0.000  0.000
    7  0.000  0.000  0.000  0.000
    8  0.000  0.000  0.000  0.000
    9  0.000  0.000  0.000  0.000
   10  0.000  0.000  0.000  0.000
   11  0.000  0.000  0.000  0.000
   12  0.000  0.000  0.000  0.000
   13  0.000  0.000  0.000  0.000
   14  0.000  0.000  0.000  0.000
   15  0.000  0.000  0.000  0.000
   16  0.000  0.000  0.000  0.000
   17  0.000  0.000  0.000  0.000
   18  0.000  0.000  0.000  0.000
   19  0.000  0.000  0.000  0.000
   20  0.000  0.000  0.000  0.000
tot    0.888  0.000  0.000  0.888

band     2 # energy  -20.93604465 # occ.  2.00000000

ion      s      p      d    tot
    1  0.000  0.000  0.000  0.000
    2  0.296  0.000  0.000  0.296
    3  0.296  0.000  0.000  0.296
    4  0.296  0.000  0.000  0.296
    5  0.000  0.000  0.000  0.000
    6  0.000  0.000  0.000  0.000
    7  0.000  0.000  0.000  0.000
    8  0.000  0.000  0.000  0.000
    9  0.000  0.000  0.000  0.000
   10  0.000  0.000  0.000  0.000
   11  0.000  0.000  0.000  0.000
   12  0.000  0.000  0.000  0.000
   13  0.000  0.000  0.000  0.000
   14  0.000  0.000  0.000  0.000
   15  0.000  0.000  0.000  0.000
   16  0.000  0.000  0.000  0.000
   17  0.000  0.000  0.000  0.000
   18  0.000  0.000  0.000  0.000
   19  0.000  0.000  0.000  0.000
   20  0.000  0.000  0.000  0.000
tot    0.888  0.000  0.000  0.888

band     3 # energy  -20.93435560 # occ.  2.00000000

ion      s      p      d    tot
    1  0.000  0.000  0.000  0.000
    2  0.101  0.000  0.000  0.101
    3  0.586  0.000  0.000  0.586
    4  0.201  0.000  0.000  0.201
    5  0.000  0.000  0.000  0.000
    6  0.000  0.000  0.000  0.000
    7  0.000  0.000  0.000  0.000
    8  0.000  0.000  0.000  0.000
    9  0.000  0.000  0.000  0.000
   10  0.000  0.000  0.000  0.000
   11  0.000  0.000  0.000  0.000
   12  0.000  0.000  0.000  0.000
   13  0.000  0.000  0.000  0.000
   14  0.000  0.000  0.000  0.000
   15  0.000  0.000  0.000  0.000
   16  0.000  0.000  0.000  0.000
   17  0.000  0.000  0.000  0.000
   18  0.000  0.000  0.000  0.000
   19  0.000  0.000  0.000  0.000
   20  0.000  0.000  0.000  0.000
tot    0.888  0.000  0.000  0.888

band     4 # energy  -20.93435558 # occ.  2.00000000

ion      s      p      d    tot
    1  0.000  0.000  0.000  0.000
    2  0.491  0.000  0.000  0.491
    3  0.006  0.000  0.000  0.006
    4  0.391  0.000  0.000  0.391
    5  0.000  0.000  0.000  0.000
    6  0.000  0.000  0.000  0.000
    7  0.000  0.000  0.000  0.000
    8  0.000  0.000  0.000  0.000
    9  0.000  0.000  0.000  0.000
   10  0.000  0.000  0.000  0.000
   11  0.000  0.000  0.000  0.000
   12  0.000  0.000  0.000  0.000
   13  0.000  0.000  0.000  0.000
   14  0.000  0.000  0.000  0.000
   15  0.000  0.000  0.000  0.000
   16  0.000  0.000  0.000  0.000
   17  0.000  0.000  0.000  0.000
   18  0.000  0.000  0.000  0.000
   19  0.000  0.000  0.000  0.000
   20  0.000  0.000  0.000  0.000
tot    0.888  0.000  0.000  0.888

band     5 # energy  -16.43026624 # occ.  2.00000000

ion      s      p      d    tot
    1  0.000  0.000  0.000  0.000
    2  0.000  0.000  0.000  0.000
    3  0.000  0.000  0.000  0.000
    4  0.000  0.000  0.000  0.000
    5  0.000  0.000  0.229  0.229
    6  0.000  0.000  0.229  0.229
    7  0.000  0.000  0.230  0.230
    8  0.000  0.000  0.229  0.229
    9  0.006  0.000  0.000  0.006
   10  0.006  0.000  0.000  0.006
   11  0.006  0.000  0.000  0.006
   12  0.006  0.000  0.000  0.006
   13  0.004  0.000  0.000  0.004
   14  0.004  0.000  0.000  0.004
   15  0.004  0.000  0.000  0.004
   16  0.004  0.000  0.000  0.004
   17  0.000  0.000  0.000  0.000
   18  0.000  0.000  0.000  0.000
   19  0.000  0.000  0.000  0.000
   20  0.000  0.000  0.000  0.000
tot    0.042  0.000  0.918  0.960

band     6 # energy  -16.43026618 # occ.  2.00000000

ion      s      p      d    tot
    1  0.000  0.000  0.000  0.000
    2  0.000  0.000  0.000  0.000
    3  0.000  0.000  0.000  0.000
    4  0.000  0.000  0.000  0.000
    5  0.000  0.000  0.230  0.230
    6  0.000  0.000  0.229  0.229
    7  0.000  0.000  0.229  0.229
    8  0.000  0.000  0.230  0.230
    9  0.001  0.000  0.000  0.001
   10  0.001  0.000  0.000  0.001
   11  0.001  0.000  0.000  0.001
   12  0.001  0.000  0.000  0.001
   13  0.003  0.000  0.000  0.003
   14  0.003  0.000  0.000  0.003
   15  0.003  0.000  0.000  0.003
   16  0.003  0.000  0.000  0.003
   17  0.007  0.000  0.000  0.007
   18  0.007  0.000  0.000  0.007
   19  0.007  0.000  0.000  0.007
   20  0.007  0.000  0.000  0.007
tot    0.042  0.000  0.918  0.960

band     7 # energy  -16.40076232 # occ.  2.00000000

ion      s      p      d    tot
    1  0.000  0.000  0.000  0.000
    2  0.000  0.000  0.000  0.000
    3  0.000  0.000  0.000  0.000
    4  0.000  0.000  0.000  0.000
    5  0.000  0.000  0.049  0.049
    6  0.000  0.000  0.349  0.349
    7  0.000  0.000  0.314  0.314
    8  0.000  0.000  0.219  0.219
    9  0.002  0.000  0.000  0.002
   10  0.002  0.000  0.000  0.002
   11  0.002  0.000  0.000  0.002
   12  0.002  0.000  0.000  0.002
   13  0.005  0.000  0.000  0.005
   14  0.005  0.000  0.000  0.005
   15  0.005  0.000  0.000  0.005
   16  0.005  0.000  0.000  0.005
   17  0.001  0.000  0.000  0.001
   18  0.001  0.000  0.000  0.001
   19  0.001  0.000  0.000  0.001
   20  0.001  0.000  0.000  0.001
tot    0.031  0.001  0.931  0.963

band     8 # energy  -16.40076226 # occ.  2.00000000

ion      s      p      d    tot
    1  0.000  0.000  0.000  0.000
    2  0.000  0.000  0.000  0.000
    3  0.000  0.000  0.000  0.000
    4  0.000  0.000  0.000  0.000
    5  0.000  0.000  0.339  0.339
    6  0.000  0.000  0.349  0.349
    7  0.000  0.000  0.073  0.074
    8  0.000  0.000  0.169  0.170
    9  0.003  0.000  0.000  0.003
   10  0.003  0.000  0.000  0.003
   11  0.003  0.000  0.000  0.003
   12  0.003  0.000  0.000  0.003
   13  0.000  0.000  0.000  0.000
   14  0.000  0.000  0.000  0.000
   15  0.000  0.000  0.000  0.000
   16  0.000  0.000  0.000  0.000
   17  0.005  0.000  0.000  0.005
   18  0.005  0.000  0.000  0.005
   19  0.005  0.000  0.000  0.005
   20  0.005  0.000  0.000  0.005
tot    0.031  0.001  0.931  0.963

band     9 # energy  -16.40074179 # occ.  2.00000000

ion      s      p      d    tot
    1  0.000  0.000  0.000  0.000
    2  0.000  0.000  0.000  0.000
    3  0.000  0.000  0.000  0.000
    4  0.000  0.000  0.000  0.000
    5  0.000  0.000  0.310  0.310
    6  0.000  0.000  0.000  0.000
    7  0.000  0.000  0.311  0.311
    8  0.000  0.000  0.310  0.310
    9  0.003  0.000  0.000  0.003
   10  0.003  0.000  0.000  0.003
   11  0.003  0.000  0.000  0.003
   12  0.003  0.000  0.000  0.003
   13  0.003  0.000  0.000  0.003
   14  0.003  0.000  0.000  0.003
   15  0.003  0.000  0.000  0.003
   16  0.003  0.000  0.000  0.003
   17  0.003  0.000  0.000  0.003
   18  0.003  0.000  0.000  0.003
   19  0.003  0.000  0.000  0.003
   20  0.003  0.000  0.000  0.003
tot    0.031  0.001  0.931  0.963

band    10 # energy  -16.33054136 # occ.  2.00000000

ion      s      p      d    tot
    1  0.000  0.000  0.000  0.000
    2  0.000  0.000  0.000  0.000
    3  0.000  0.000  0.000  0.000
    4  0.000  0.000  0.000  0.000
    5  0.000  0.000  0.324  0.324
    6  0.000  0.000  0.000  0.000
    7  0.000  0.000  0.324  0.324
    8  0.000  0.000  0.324  0.324
    9  0.000  0.000  0.000  0.000
   10  0.000  0.000  0.000  0.000
   11  0.000  0.000  0.000  0.000
   12  0.000  0.000  0.000  0.000
   13  0.000  0.000  0.000  0.000
   14  0.000  0.000  0.000  0.000
   15  0.000  0.000  0.000  0.000
   16  0.000  0.000  0.000  0.000
   17  0.000  0.000  0.000  0.000
   18  0.000  0.000  0.000  0.000
   19  0.000  0.000  0.000  0.000
   20  0.000  0.000  0.000  0.000
tot    0.000  0.003  0.971  0.974

band    11 # energy  -16.33049987 # occ.  2.00000000

ion      s      p      d    tot
    1  0.000  0.000  0.000  0.000
    2  0.000  0.000  0.000  0.000
    3  0.000  0.000  0.000  0.000
    4  0.000  0.000  0.000  0.000
    5  0.000  0.000  0.263  0.263
    6  0.000  0.000  0.364  0.364
    7  0.000  0.000  0.042  0.042
    8  0.000  0.000  0.302  0.302
    9  0.000  0.000  0.000  0.000
   10  0.000  0.001  0.000  0.001
   11  0.000  0.000  0.000  0.000
   12  0.000  0.001  0.000  0.001
   13  0.000  0.000  0.000  0.000
   14  0.000  0.000  0.000  0.000
   15  0.000  0.000  0.000  0.000
   16  0.000  0.000  0.000  0.000
   17  0.000  0.000  0.000  0.000
   18  0.000  0.000  0.000  0.000
   19  0.000  0.000  0.000  0.000
   20  0.000  0.000  0.000  0.000
tot    0.000  0.003  0.971  0.974

band    12 # energy  -16.33049984 # occ.  2.00000000

ion      s      p      d    tot
    1  0.000  0.000  0.000  0.000
    2  0.000  0.000  0.000  0.000
    3  0.000  0.000  0.000  0.000
    4  0.000  0.000  0.000  0.000
    5  0.000  0.000  0.141  0.141
    6  0.000  0.000  0.364  0.364
    7  0.000  0.000  0.363  0.363
    8  0.000  0.000  0.103  0.103
    9  0.000  0.000  0.000  0.000
   10  0.000  0.000  0.000  0.000
   11  0.000  0.000  0.000  0.000
   12  0.000  0.000  0.000  0.000
   13  0.000  0.000  0.000  0.000
   14  0.000  0.000  0.000  0.000
   15  0.000  0.000  0.000  0.000
   16  0.000  0.000  0.000  0.000
   17  0.000  0.000  0.000  0.000
   18  0.000  0.001  0.000  0.001
   19  0.000  0.001  0.000  0.001
   20  0.000  0.000  0.000  0.000
tot    0.000  0.003  0.971  0.974

band    13 # energy  -16.25616953 # occ.  2.00000000

ion      s      p      d    tot
    1  0.000  0.000  0.000  0.000
    2  0.000  0.000  0.000  0.000
    3  0.000  0.000  0.000  0.000
    4  0.000  0.000  0.000  0.000
    5  0.000  0.000  0.220  0.220
    6  0.000  0.000  0.109  0.109
    7  0.000  0.000  0.447  0.447
    8  0.000  0.000  0.202  0.202
    9  0.000  0.000  0.000  0.000
   10  0.000  0.000  0.000  0.000
   11  0.000  0.000  0.000  0.000
   12  0.000  0.000  0.000  0.000
   13  0.000  0.000  0.000  0.000
   14  0.000  0.000  0.000  0.000
   15  0.000  0.000  0.000  0.000
   16  0.000  0.000  0.000  0.000
   17  0.000  0.000  0.000  0.000
   18  0.000  0.000  0.000  0.000
   19  0.000  0.000  0.000  0.000
   20  0.000  0.000  0.000  0.000
tot    0.000  0.000  0.977  0.977

band    14 # energy  -16.25616945 # occ.  2.00000000

ion      s      p      d    tot
    1  0.000  0.000  0.000  0.000
    2  0.000  0.000  0.000  0.000
    3  0.000  0.000  0.000  0.000
    4  0.000  0.000  0.000  0.000
    5  0.000  0.000  0.359  0.359
    6  0.000  0.000  0.109  0.109
    7  0.000  0.000  0.132  0.132
    8  0.000  0.000  0.377  0.377
    9  0.000  0.000  0.000  0.000
   10  0.000  0.000  0.000  0.000
   11  0.000  0.000  0.000  0.000
   12  0.000  0.000  0.000  0.000
   13  0.000  0.000  0.000  0.000
   14  0.000  0.000  0.000  0.000
   15  0.000  0.000  0.000  0.000
   16  0.000  0.000  0.000  0.000
   17  0.000  0.000  0.000  0.000
   18  0.000  0.000  0.000  0.000
   19  0.000  0.000  0.000  0.000
   20  0.000  0.000  0.000  0.000
tot    0.000  0.000  0.977  0.977

band    15 # energy  -16.25533747 # occ.  2.00000000

ion      s      p      d    tot
    1  0.000  0.000  0.000  0.000
    2  0.000  0.000  0.000  0.000
    3  0.000  0.000  0.000  0.000
    4  0.000  0.000  0.000  0.000
    5  0.000  0.000  0.198  0.198
    6  0.000  0.000  0.438  0.438
    7  0.000  0.000  0.164  0.164
    8  0.000  0.000  0.177  0.177
    9  0.000  0.000  0.000  0.000
   10  0.000  0.000  0.000  0.000
   11  0.000  0.000  0.000  0.000
   12  0.000  0.000  0.000  0.000
   13  0.000  0.000  0.000  0.000
   14  0.000  0.000  0.000  0.000
   15  0.000  0.000  0.000  0.000
   16  0.000  0.000  0.000  0.000
   17  0.000  0.000  0.000  0.000
   18  0.000  0.000  0.000  0.000
   19  0.000  0.000  0.000  0.000
   20  0.000  0.000  0.000  0.000
tot    0.000  0.000  0.978  0.978

band    16 # energy  -16.25533727 # occ.  2.00000000

ion      s      p      d    tot
    1  0.000  0.000  0.000  0.000
    2  0.000  0.000  0.000  0.000
    3  0.000  0.000  0.000  0.000
    4  0.000  0.000  0.000  0.000
    5  0.000  0.000  0.161  0.161
    6  0.000  0.000  0.438  0.438
    7  0.000  0.000  0.195  0.195
    8  0.000  0.000  0.183  0.183
    9  0.000  0.000  0.000  0.000
   10  0.000  0.000  0.000  0.000
   11  0.000  0.000  0.000  0.000
   12  0.000  0.000  0.000  0.000
   13  0.000  0.000  0.000  0.000
   14  0.000  0.000  0.000  0.000
   15  0.000  0.000  0.000  0.000
   16  0.000  0.000  0.000  0.000
   17  0.000  0.000  0.000  0.000
   18  0.000  0.000  0.000  0.000
   19  0.000  0.000  0.000  0.000
   20  0.000  0.000  0.000  0.000
tot    0.000  0.000  0.978  0.978

band    17 # energy  -16.25513105 # occ.  2.00000000

ion      s      p      d    tot
    1  0.000  0.000  0.000  0.000
    2  0.000  0.000  0.000  0.000
    3  0.000  0.000  0.000  0.000
    4  0.000  0.000  0.000  0.000
    5  0.000  0.000  0.318  0.318
    6  0.000  0.000  0.024  0.024
    7  0.000  0.000  0.318  0.318
    8  0.000  0.000  0.318  0.318
    9  0.000  0.000  0.000  0.000
   10  0.000  0.000  0.000  0.000
   11  0.000  0.000  0.000  0.000
   12  0.000  0.000  0.000  0.000
   13  0.000  0.000  0.000  0.000
   14  0.000  0.000  0.000  0.000
   15  0.000  0.000  0.000  0.000
   16  0.000  0.000  0.000  0.000
   17  0.000  0.000  0.000  0.000
   18  0.000  0.000  0.000  0.000
   19  0.000  0.000  0.000  0.000
   20  0.000  0.000  0.000  0.000
tot    0.000  0.000  0.978  0.978

band    18 # energy  -16.25501142 # occ.  2.00000000

ion      s      p      d    tot
    1  0.000  0.000  0.000  0.000
    2  0.000  0.000  0.000  0.000
    3  0.000  0.000  0.000  0.000
    4  0.000  0.000  0.000  0.000
    5  0.000  0.000  0.238  0.238
    6  0.000  0.000  0.263  0.263
    7  0.000  0.000  0.238  0.238
    8  0.000  0.000  0.238  0.238
    9  0.000  0.000  0.000  0.000
   10  0.000  0.000  0.000  0.000
   11  0.000  0.000  0.000  0.000
   12  0.000  0.000  0.000  0.000
   13  0.000  0.000  0.000  0.000
   14  0.000  0.000  0.000  0.000
   15  0.000  0.000  0.000  0.000
   16  0.000  0.000  0.000  0.000
   17  0.000  0.000  0.000  0.000
   18  0.000  0.000  0.000  0.000
   19  0.000  0.000  0.000  0.000
   20  0.000  0.000  0.000  0.000
tot    0.000  0.000  0.978  0.978

band    19 # energy  -16.25452092 # occ.  2.00000000

ion      s      p      d    tot
    1  0.000  0.000  0.000  0.000
    2  0.000  0.000  0.000  0.000
    3  0.000  0.000  0.000  0.000
    4  0.000  0.000  0.000  0.000
    5  0.000  0.000  0.165  0.165
    6  0.000  0.000  0.372  0.372
    7  0.000  0.000  0.292  0.292
    8  0.000  0.000  0.149  0.149
    9  0.000  0.000  0.000  0.000
   10  0.000  0.000  0.000  0.000
   11  0.000  0.000  0.000  0.000
   12  0.000  0.000  0.000  0.000
   13  0.000  0.000  0.000  0.000
   14  0.000  0.000  0.000  0.000
   15  0.000  0.000  0.000  0.000
   16  0.000  0.000  0.000  0.000
   17  0.000  0.000  0.000  0.000
   18  0.000  0.000  0.000  0.000
   19  0.000  0.000  0.000  0.000
   20  0.000  0.000  0.000  0.000
tot    0.000  0.000  0.978  0.978

band    20 # energy  -16.25452071 # occ.  2.00000000

ion      s      p      d    tot
    1  0.000  0.000  0.000  0.000
    2  0.000  0.000  0.000  0.000
    3  0.000  0.000  0.000  0.000
    4  0.000  0.000  0.000  0.000
    5  0.000  0.000  0.239  0.239
    6  0.000  0.000  0.372  0.372
    7  0.000  0.000  0.111  0.111
    8  0.000  0.000  0.255  0.255
    9  0.000  0.000  0.000  0.000
   10  0.000  0.000  0.000  0.000
   11  0.000  0.000  0.000  0.000
   12  0.000  0.000  0.000  0.000
   13  0.000  0.000  0.000  0.000
   14  0.000  0.000  0.000  0.000
   15  0.000  0.000  0.000  0.000
   16  0.000  0.000  0.000  0.000
   17  0.000  0.000  0.000  0.000
   18  0.000  0.000  0.000  0.000
   19  0.000  0.000  0.000  0.000
   20  0.000  0.000  0.000  0.000
tot    0.000  0.000  0.978  0.978

band    21 # energy  -16.25447723 # occ.  2.00000000

ion      s      p      d    tot
    1  0.000  0.000  0.000  0.000
    2  0.000  0.000  0.000  0.000
    3  0.000  0.000  0.000  0.000
    4  0.000  0.000  0.000  0.000
    5  0.000  0.000  0.269  0.269
    6  0.000  0.000  0.169  0.169
    7  0.000  0.000  0.270  0.270
    8  0.000  0.000  0.269  0.269
    9  0.000  0.000  0.000  0.000
   10  0.000  0.000  0.000  0.000
   11  0.000  0.000  0.000  0.000
   12  0.000  0.000  0.000  0.000
   13  0.000  0.000  0.000  0.000
   14  0.000  0.000  0.000  0.000
   15  0.000  0.000  0.000  0.000
   16  0.000  0.000  0.000  0.000
   17  0.000  0.000  0.000  0.000
   18  0.000  0.000  0.000  0.000
   19  0.000  0.000  0.000  0.000
   20  0.000  0.000  0.000  0.000
tot    0.000  0.000  0.977  0.978

band    22 # energy  -16.25347828 # occ.  2.00000000

ion      s      p      d    tot
    1  0.000  0.000  0.000  0.000
    2  0.000  0.000  0.000  0.000
    3  0.000  0.000  0.000  0.000
    4  0.000  0.000  0.000  0.000
    5  0.000  0.000  0.152  0.152
    6  0.000  0.000  0.522  0.522
    7  0.000  0.000  0.152  0.152
    8  0.000  0.000  0.152  0.152
    9  0.000  0.000  0.000  0.000
   10  0.000  0.000  0.000  0.000
   11  0.000  0.000  0.000  0.000
   12  0.000  0.000  0.000  0.000
   13  0.000  0.000  0.000  0.000
   14  0.000  0.000  0.000  0.000
   15  0.000  0.000  0.000  0.000
   16  0.000  0.000  0.000  0.000
   17  0.000  0.000  0.000  0.000
   18  0.000  0.000  0.000  0.000
   19  0.000  0.000  0.000  0.000
   20  0.000  0.000  0.000  0.000
tot    0.000  0.000  0.978  0.978

band    23 # energy  -16.25298923 # occ.  2.00000000

ion      s      p      d    tot
    1  0.000  0.000  0.000  0.000
    2  0.000  0.000  0.000  0.000
    3  0.000  0.000  0.000  0.000
    4  0.000  0.000  0.000  0.000
    5  0.000  0.000  0.430  0.430
    6  0.000  0.000  0.058  0.058
    7  0.000  0.000  0.062  0.062
    8  0.000  0.000  0.428  0.428
    9  0.000  0.000  0.000  0.000
   10  0.000  0.000  0.000  0.000
   11  0.000  0.000  0.000  0.000
   12  0.000  0.000  0.000  0.000
   13  0.000  0.000  0.000  0.000
   14  0.000  0.000  0.000  0.000
   15  0.000  0.000  0.000  0.000
   16  0.000  0.000  0.000  0.000
   17  0.000  0.000  0.000  0.000
   18  0.000  0.000  0.000  0.000
   19  0.000  0.000  0.000  0.000
   20  0.000  0.000  0.000  0.000
tot    0.000  0.000  0.978  0.978

band    24 # energy  -16.25298884 # occ.  2.00000000

ion      s      p      d    tot
    1  0.000  0.000  0.000  0.000
    2  0.000  0.000  0.000  0.000
    3  0.000  0.000  0.000  0.000
    4  0.000  0.000  0.000  0.000
    5  0.000  0.000  0.182  0.182
    6  0.000  0.000  0.058  0.058
    7  0.000  0.000  0.552  0.552
    8  0.000  0.000  0.185  0.185
    9  0.000  0.000  0.000  0.000
   10  0.000  0.000  0.000  0.000
   11  0.000  0.000  0.000  0.000
   12  0.000  0.000  0.000  0.000
   13  0.000  0.000  0.000  0.000
   14  0.000  0.000  0.000  0.000
   15  0.000  0.000  0.000  0.000
   16  0.000  0.000  0.000  0.000
   17  0.000  0.000  0.000  0.000
   18  0.000  0.000  0.000  0.000
   19  0.000  0.000  0.000  0.000
   20  0.000  0.000  0.000  0.000
tot    0.000  0.000  0.978  0.978

band    25 # energy  -14.38900654 # occ.  2.00000000

ion      s      p      d    tot
    1  0.000  0.000  0.000  0.000
    2  0.000  0.000  0.000  0.000
    3  0.000  0.000  0.000  0.000
    4  0.000  0.000  0.000  0.000
    5  0.008  0.000  0.000  0.008
    6  0.008  0.000  0.000  0.008
    7  0.008  0.000  0.000  0.008
    8  0.008  0.000  0.000  0.008
    9  0.061  0.000  0.000  0.061
   10  0.061  0.000  0.000  0.061
   11  0.061  0.000  0.000  0.061
   12  0.061  0.000  0.000  0.061
   13  0.061  0.000  0.000  0.061
   14  0.061  0.000  0.000  0.061
   15  0.061  0.000  0.000  0.061
   16  0.061  0.000  0.000  0.061
   17  0.061  0.000  0.000  0.061
   18  0.061  0.000  0.000  0.061
   19  0.061  0.000  0.000  0.061
   20  0.061  0.000  0.000  0.061
tot    0.770  0.000  0.000  0.770

band    26 # energy  -14.04463622 # occ.  2.00000000

ion      s      p      d    tot
    1  0.000  0.000  0.000  0.000
    2  0.000  0.000  0.000  0.000
    3  0.000  0.000  0.000  0.000
    4  0.000  0.000  0.000  0.000
    5  0.000  0.001  0.000  0.001
    6  0.000  0.002  0.000  0.002
    7  0.000  0.001  0.000  0.001
    8  0.000  0.001  0.000  0.001
    9  0.002  0.000  0.000  0.002
   10  0.130  0.000  0.000  0.130
   11  0.002  0.000  0.000  0.002
   12  0.130  0.000  0.000  0.130
   13  0.130  0.000  0.000  0.130
   14  0.130  0.000  0.000  0.130
   15  0.002  0.000  0.000  0.002
   16  0.002  0.000  0.000  0.002
   17  0.002  0.000  0.000  0.002
   18  0.130  0.000  0.000  0.130
   19  0.130  0.000  0.000  0.130
   20  0.002  0.000  0.000  0.002
tot    0.792  0.005  0.000  0.798

band    27 # energy  -14.04463115 # occ.  2.00000000

ion      s      p      d    tot
    1  0.000  0.000  0.000  0.000
    2  0.000  0.000  0.000  0.000
    3  0.000  0.000  0.000  0.000
    4  0.000  0.000  0.000  0.000
    5  0.000  0.002  0.000  0.002
    6  0.000  0.001  0.000  0.001
    7  0.000  0.002  0.000  0.002
    8  0.000  0.001  0.000  0.001
    9  0.196  0.000  0.000  0.196
   10  0.004  0.000  0.000  0.004
   11  0.196  0.000  0.000  0.196
   12  0.004  0.000  0.000  0.004
   13  0.035  0.000  0.000  0.035
   14  0.035  0.000  0.000  0.035
   15  0.044  0.000  0.000  0.044
   16  0.044  0.000  0.000  0.044
   17  0.054  0.000  0.000  0.054
   18  0.063  0.000  0.000  0.063
   19  0.063  0.000  0.000  0.063
   20  0.054  0.000  0.000  0.054
tot    0.792  0.005  0.000  0.798

band    28 # energy  -14.04463113 # occ.  2.00000000

ion      s      p      d    tot
    1  0.000  0.000  0.000  0.000
    2  0.000  0.000  0.000  0.000
    3  0.000  0.000  0.000  0.000
    4  0.000  0.000  0.000  0.000
    5  0.000  0.001  0.000  0.001
    6  0.000  0.001  0.000  0.001
    7  0.000  0.001  0.000  0.001
    8  0.000  0.002  0.000  0.002
    9  0.000  0.000  0.000  0.000
   10  0.064  0.000  0.000  0.064
   11  0.000  0.000  0.000  0.000
   12  0.064  0.000  0.000  0.064
   13  0.033  0.000  0.000  0.033
   14  0.033  0.000  0.000  0.033
   15  0.152  0.000  0.000  0.152
   16  0.152  0.000  0.000  0.152
   17  0.142  0.000  0.000  0.142
   18  0.005  0.000  0.000  0.005
   19  0.005  0.000  0.000  0.005
   20  0.142  0.000  0.000  0.142
tot    0.792  0.005  0.000  0.798

band    29 # energy  -14.03906919 # occ.  2.00000000

ion      s      p      d    tot
    1  0.000  0.000  0.000  0.000
    2  0.000  0.000  0.000  0.000
    3  0.000  0.000  0.000  0.000
    4  0.000  0.000  0.000  0.000
    5  0.000  0.000  0.000  0.000
    6  0.000  0.002  0.000  0.002
    7  0.000  0.002  0.000  0.002
    8  0.000  0.001  0.000  0.001
    9  0.057  0.000  0.000  0.057
   10  0.080  0.000  0.000  0.080
   11  0.057  0.000  0.000  0.057
   12  0.080  0.000  0.000  0.080
   13  0.024  0.000  0.000  0.024
   14  0.024  0.000  0.000  0.024
   15  0.044  0.000  0.000  0.044
   16  0.044  0.000  0.000  0.044
   17  0.001  0.000  0.000  0.001
   18  0.191  0.000  0.000  0.191
   19  0.191  0.000  0.000  0.191
   20  0.001  0.000  0.000  0.001
tot    0.793  0.005  0.000  0.798

band    30 # energy  -14.03906916 # occ.  2.00000000

ion      s      p      d    tot
    1  0.000  0.000  0.000  0.000
    2  0.000  0.000  0.000  0.000
    3  0.000  0.000  0.000  0.000
    4  0.000  0.000  0.000  0.000
    5  0.000  0.001  0.000  0.001
    6  0.000  0.002  0.000  0.002
    7  0.000  0.000  0.000  0.000
    8  0.000  0.001  0.000  0.001
    9  0.011  0.000  0.000  0.011
   10  0.116  0.000  0.000  0.116
   11  0.011  0.000  0.000  0.011
   12  0.116  0.000  0.000  0.116
   13  0.172  0.000  0.000  0.172
   14  0.172  0.000  0.000  0.172
   15  0.024  0.000  0.000  0.024
   16  0.024  0.000  0.000  0.024
   17  0.067  0.000  0.000  0.067
   18  0.005  0.000  0.000  0.005
   19  0.005  0.000  0.000  0.005
   20  0.067  0.000  0.000  0.067
tot    0.793  0.005  0.000  0.798

band    31 # energy  -14.03906359 # occ.  2.00000000

ion      s      p      d    tot
    1  0.000  0.000  0.000  0.000
    2  0.000  0.000  0.000  0.000
    3  0.000  0.000  0.000  0.000
    4  0.000  0.000  0.000  0.000
    5  0.000  0.001  0.000  0.001
    6  0.000  0.000  0.000  0.000
    7  0.000  0.001  0.000  0.001
    8  0.000  0.001  0.000  0.001
    9  0.130  0.000  0.000  0.130
   10  0.002  0.000  0.000  0.002
   11  0.130  0.000  0.000  0.130
   12  0.002  0.000  0.000  0.002
   13  0.002  0.000  0.000  0.002
   14  0.002  0.000  0.000  0.002
   15  0.130  0.000  0.000  0.130
   16  0.130  0.000  0.000  0.130
   17  0.130  0.000  0.000  0.130
   18  0.002  0.000  0.000  0.002
   19  0.002  0.000  0.000  0.002
   20  0.130  0.000  0.000  0.130
tot    0.793  0.005  0.000  0.798

band    32 # energy  -13.96623718 # occ.  2.00000000

ion      s      p      d    tot
    1  0.000  0.000  0.000  0.000
    2  0.000  0.000  0.000  0.000
    3  0.000  0.000  0.000  0.000
    4  0.000  0.000  0.000  0.000
    5  0.000  0.000  0.016  0.017
    6  0.000  0.000  0.017  0.017
    7  0.008  0.000  0.004  0.012
    8  0.006  0.000  0.008  0.014
    9  0.074  0.000  0.000  0.074
   10  0.074  0.000  0.000  0.074
   11  0.074  0.000  0.000  0.074
   12  0.074  0.000  0.000  0.074
   13  0.003  0.000  0.000  0.003
   14  0.003  0.000  0.000  0.003
   15  0.003  0.000  0.000  0.003
   16  0.003  0.000  0.000  0.003
   17  0.110  0.000  0.000  0.110
   18  0.110  0.000  0.000  0.110
   19  0.110  0.000  0.000  0.110
   20  0.110  0.000  0.000  0.110
tot    0.763  0.001  0.045  0.809

band    33 # energy  -13.96623716 # occ.  2.00000000

ion      s      p      d    tot
    1  0.000  0.000  0.000  0.000
    2  0.000  0.000  0.000  0.000
    3  0.000  0.000  0.000  0.000
    4  0.000  0.000  0.000  0.000
    5  0.009  0.000  0.002  0.011
    6  0.000  0.000  0.017  0.017
    7  0.001  0.000  0.015  0.016
    8  0.004  0.000  0.011  0.015
    9  0.051  0.000  0.000  0.051
   10  0.051  0.000  0.000  0.051
   11  0.051  0.000  0.000  0.051
   12  0.051  0.000  0.000  0.051
   13  0.120  0.000  0.000  0.120
   14  0.120  0.000  0.000  0.120
   15  0.120  0.000  0.000  0.120
   16  0.120  0.000  0.000  0.120
   17  0.016  0.000  0.000  0.017
   18  0.016  0.000  0.000  0.016
   19  0.016  0.000  0.000  0.016
   20  0.016  0.000  0.000  0.017
tot    0.763  0.001  0.045  0.809

band    34 # energy  -13.96623555 # occ.  2.00000000

ion      s      p      d    tot
    1  0.000  0.000  0.000  0.000
    2  0.000  0.000  0.000  0.000
    3  0.000  0.000  0.000  0.000
    4  0.000  0.000  0.000  0.000
    5  0.001  0.000  0.015  0.016
    6  0.011  0.000  0.000  0.011
    7  0.001  0.000  0.015  0.016
    8  0.001  0.000  0.015  0.016
    9  0.062  0.000  0.000  0.062
   10  0.062  0.000  0.000  0.062
   11  0.062  0.000  0.000  0.062
   12  0.062  0.000  0.000  0.062
   13  0.064  0.000  0.000  0.065
   14  0.064  0.000  0.000  0.065
   15  0.064  0.000  0.000  0.064
   16  0.064  0.000  0.000  0.064
   17  0.061  0.000  0.000  0.061
   18  0.061  0.000  0.000  0.061
   19  0.061  0.000  0.000  0.061
   20  0.061  0.000  0.000  0.061
tot    0.763  0.001  0.045  0.809

band    35 # energy  -13.73439597 # occ.  2.00000000

ion      s      p      d    tot
    1  0.000  0.000  0.000  0.000
    2  0.000  0.000  0.000  0.000
    3  0.000  0.000  0.000  0.000
    4  0.000  0.000  0.000  0.000
    5  0.000  0.000  0.016  0.016
    6  0.000  0.000  0.016  0.016
    7  0.000  0.000  0.016  0.016
    8  0.000  0.000  0.016  0.016
    9  0.080  0.000  0.000  0.080
   10  0.080  0.000  0.000  0.080
   11  0.080  0.000  0.000  0.080
   12  0.080  0.000  0.000  0.080
   13  0.002  0.000  0.000  0.002
   14  0.002  0.000  0.000  0.002
   15  0.002  0.000  0.000  0.002
   16  0.002  0.000  0.000  0.002
   17  0.110  0.000  0.000  0.110
   18  0.110  0.000  0.000  0.110
   19  0.110  0.000  0.000  0.110
   20  0.110  0.000  0.000  0.110
tot    0.770  0.000  0.062  0.832

band    36 # energy  -13.73439594 # occ.  2.00000000

ion      s      p      d    tot
    1  0.000  0.000  0.000  0.000
    2  0.000  0.000  0.000  0.000
    3  0.000  0.000  0.000  0.000
    4  0.000  0.000  0.000  0.000
    5  0.000  0.000  0.016  0.016
    6  0.000  0.000  0.016  0.016
    7  0.000  0.000  0.016  0.016
    8  0.000  0.000  0.016  0.016
    9  0.048  0.000  0.000  0.048
   10  0.048  0.000  0.000  0.048
   11  0.048  0.000  0.000  0.048
   12  0.048  0.000  0.000  0.048
   13  0.126  0.000  0.000  0.126
   14  0.126  0.000  0.000  0.126
   15  0.126  0.000  0.000  0.126
   16  0.126  0.000  0.000  0.126
   17  0.019  0.000  0.000  0.019
   18  0.019  0.000  0.000  0.019
   19  0.019  0.000  0.000  0.019
   20  0.019  0.000  0.000  0.019
tot    0.770  0.000  0.062  0.832

band    37 # energy   -7.69186243 # occ.  2.00000000

ion      s      p      d    tot
    1  0.000  0.000  0.000  0.000
    2  0.000  0.000  0.000  0.000
    3  0.000  0.000  0.000  0.000
    4  0.000  0.000  0.000  0.000
    5  0.040  0.000  0.001  0.040
    6  0.438  0.000  0.000  0.438
    7  0.044  0.000  0.001  0.045
    8  0.064  0.000  0.001  0.065
    9  0.002  0.000  0.000  0.002
   10  0.002  0.015  0.000  0.017
   11  0.002  0.000  0.000  0.002
   12  0.002  0.015  0.000  0.017
   13  0.003  0.013  0.000  0.016
   14  0.003  0.013  0.000  0.016
   15  0.003  0.000  0.000  0.003
   16  0.003  0.000  0.000  0.003
   17  0.003  0.000  0.000  0.003
   18  0.003  0.014  0.000  0.016
   19  0.003  0.014  0.000  0.016
   20  0.003  0.000  0.000  0.003
tot    0.617  0.085  0.004  0.705

band    38 # energy   -7.69186220 # occ.  2.00000000

ion      s      p      d    tot
    1  0.000  0.000  0.000  0.000
    2  0.000  0.000  0.000  0.000
    3  0.000  0.000  0.000  0.000