CsPbBr3 cubic bulk                      
           1
     5.880247    5.880247    5.880247
     5.880247   -5.880247   -5.880247
    -5.880247    5.880247   -5.880247
   Cs   Pb   Br
   4   4  12
Direct configuration=     1
   0.50000000  0.00000000  0.00000000
   0.50000000  0.50000000  0.50000000
   0.00000000  0.00000000  0.50000000
   0.00000000  0.50000000  0.00000000
   0.00000000  0.00000000  0.00000000
   0.00000000  0.50000000  0.50000000
   0.50000000  0.00000000  0.50000000
   0.50000000  0.50000000  0.00000000
   0.22382942  0.94266195  0.21883253
   0.22382942  0.50499689  0.78116747
   0.77617058  0.05733805  0.78116747
   0.77617058  0.49500311  0.21883253
   0.00499689  0.78116747  0.72382942
   0.99500311  0.21883253  0.27617058
   0.55733805  0.78116747  0.27617058
   0.44266195  0.21883253  0.72382942
   0.28116747  0.27617058  0.05733805
   0.28116747  0.72382942  0.50499689
   0.71883253  0.27617058  0.49500311
   0.71883253  0.72382942  0.94266195
