  20  20   1   0
  0.4005308E+02  0.8504218E-09  0.1182145E-08  0.7968213E-09  0.5000000E-15
   1.0000000000000000E-004
  CAR 
 CsPbBr3 cubic bulk                      
      8.63475527    -22.14817638  301      0.55423571      1.00000000
    -22.148  0.0000E+00  0.0000E+00
    -22.046  0.0000E+00  0.0000E+00
    -21.943  0.0000E+00  0.0000E+00
    -21.840  0.0000E+00  0.0000E+00
    -21.738  0.0000E+00  0.0000E+00
    -21.635  0.0000E+00  0.0000E+00
    -21.533  0.0000E+00  0.0000E+00
    -21.430  0.0000E+00  0.0000E+00
    -21.327  0.0000E+00  0.0000E+00
    -21.225  0.0000E+00  0.0000E+00
    -21.122  0.0000E+00  0.0000E+00
    -21.019  0.0000E+00  0.0000E+00
    -20.917  0.0000E+00  0.0000E+00
    -20.814  0.0000E+00  0.0000E+00
    -20.712  0.7797E+02  0.8000E+01
    -20.609  0.0000E+00  0.8000E+01
    -20.506  0.0000E+00  0.8000E+01
    -20.404  0.0000E+00  0.8000E+01
    -20.301  0.0000E+00  0.8000E+01
    -20.199  0.0000E+00  0.8000E+01
    -20.096  0.0000E+00  0.8000E+01
    -19.993  0.0000E+00  0.8000E+01
    -19.891  0.0000E+00  0.8000E+01
    -19.788  0.0000E+00  0.8000E+01
    -19.686  0.0000E+00  0.8000E+01
    -19.583  0.0000E+00  0.8000E+01
    -19.480  0.0000E+00  0.8000E+01
    -19.378  0.0000E+00  0.8000E+01
    -19.275  0.0000E+00  0.8000E+01
    -19.172  0.0000E+00  0.8000E+01
    -19.070  0.0000E+00  0.8000E+01
    -18.967  0.0000E+00  0.8000E+01
    -18.865  0.0000E+00  0.8000E+01
    -18.762  0.0000E+00  0.8000E+01
    -18.659  0.0000E+00  0.8000E+01
    -18.557  0.0000E+00  0.8000E+01
    -18.454  0.0000E+00  0.8000E+01
    -18.352  0.0000E+00  0.8000E+01
    -18.249  0.0000E+00  0.8000E+01
    -18.146  0.0000E+00  0.8000E+01
    -18.044  0.0000E+00  0.8000E+01
    -17.941  0.0000E+00  0.8000E+01
    -17.839  0.0000E+00  0.8000E+01
    -17.736  0.0000E+00  0.8000E+01
    -17.633  0.0000E+00  0.8000E+01
    -17.531  0.0000E+00  0.8000E+01
    -17.428  0.0000E+00  0.8000E+01
    -17.326  0.0000E+00  0.8000E+01
    -17.223  0.0000E+00  0.8000E+01
    -17.120  0.0000E+00  0.8000E+01
    -17.018  0.0000E+00  0.8000E+01
    -16.915  0.0000E+00  0.8000E+01
    -16.812  0.0000E+00  0.8000E+01
    -16.710  0.0000E+00  0.8000E+01
    -16.607  0.0000E+00  0.8000E+01
    -16.505  0.1632E-07  0.8000E+01
    -16.402  0.1060E+03  0.1888E+02
    -16.299  0.1842E+03  0.4190E+02
    -16.197  0.0000E+00  0.4800E+02
    -16.094  0.0000E+00  0.4800E+02
    -15.992  0.0000E+00  0.4800E+02
    -15.889  0.0000E+00  0.4800E+02
    -15.786  0.0000E+00  0.4800E+02
    -15.684  0.0000E+00  0.4800E+02
    -15.581  0.0000E+00  0.4800E+02
    -15.479  0.0000E+00  0.4800E+02
    -15.376  0.0000E+00  0.4800E+02
    -15.273  0.0000E+00  0.4800E+02
    -15.171  0.0000E+00  0.4800E+02
    -15.068  0.0000E+00  0.4800E+02
    -14.965  0.0000E+00  0.4800E+02
    -14.863  0.0000E+00  0.4800E+02
    -14.760  0.0000E+00  0.4800E+02
    -14.658  0.0000E+00  0.4800E+02
    -14.555  0.0000E+00  0.4800E+02
    -14.452  0.0000E+00  0.4800E+02
    -14.350  0.6238E-06  0.4800E+02
    -14.247  0.7462E+01  0.4877E+02
    -14.145  0.2240E+02  0.5108E+02
    -14.042  0.3037E+02  0.5467E+02
    -13.939  0.5146E+02  0.6017E+02
    -13.837  0.4177E+02  0.6573E+02
    -13.734  0.3513E+02  0.7105E+02
    -13.632  0.0000E+00  0.7200E+02
    -13.529  0.0000E+00  0.7200E+02
    -13.426  0.0000E+00  0.7200E+02
    -13.324  0.0000E+00  0.7200E+02
    -13.221  0.0000E+00  0.7200E+02
    -13.119  0.0000E+00  0.7200E+02
    -13.016  0.0000E+00  0.7200E+02
    -12.913  0.0000E+00  0.7200E+02
    -12.811  0.0000E+00  0.7200E+02
    -12.708  0.0000E+00  0.7200E+02
    -12.605  0.0000E+00  0.7200E+02
    -12.503  0.0000E+00  0.7200E+02
    -12.400  0.0000E+00  0.7200E+02
    -12.298  0.0000E+00  0.7200E+02
    -12.195  0.0000E+00  0.7200E+02
    -12.092  0.0000E+00  0.7200E+02
    -11.990  0.0000E+00  0.7200E+02
    -11.887  0.0000E+00  0.7200E+02
    -11.785  0.0000E+00  0.7200E+02
    -11.682  0.0000E+00  0.7200E+02
    -11.579  0.0000E+00  0.7200E+02
    -11.477  0.0000E+00  0.7200E+02
    -11.374  0.0000E+00  0.7200E+02
    -11.272  0.0000E+00  0.7200E+02
    -11.169  0.0000E+00  0.7200E+02
    -11.066  0.0000E+00  0.7200E+02
    -10.964  0.0000E+00  0.7200E+02
    -10.861  0.0000E+00  0.7200E+02
    -10.758  0.0000E+00  0.7200E+02
    -10.656  0.0000E+00  0.7200E+02
    -10.553  0.0000E+00  0.7200E+02
    -10.451  0.0000E+00  0.7200E+02
    -10.348  0.0000E+00  0.7200E+02
    -10.245  0.0000E+00  0.7200E+02
    -10.143  0.0000E+00  0.7200E+02
    -10.040  0.0000E+00  0.7200E+02
     -9.938  0.0000E+00  0.7200E+02
     -9.835  0.0000E+00  0.7200E+02
     -9.732  0.0000E+00  0.7200E+02
     -9.630  0.0000E+00  0.7200E+02
     -9.527  0.0000E+00  0.7200E+02
     -9.425  0.0000E+00  0.7200E+02
     -9.322  0.0000E+00  0.7200E+02
     -9.219  0.0000E+00  0.7200E+02
     -9.117  0.0000E+00  0.7200E+02
     -9.014  0.0000E+00  0.7200E+02
     -8.912  0.0000E+00  0.7200E+02
     -8.809  0.0000E+00  0.7200E+02
     -8.706  0.0000E+00  0.7200E+02
     -8.604  0.0000E+00  0.7200E+02
     -8.501  0.0000E+00  0.7200E+02
     -8.398  0.0000E+00  0.7200E+02
     -8.296  0.0000E+00  0.7200E+02
     -8.193  0.3468E-11  0.7200E+02
     -8.091  0.1083E+01  0.7211E+02
     -7.988  0.1638E-11  0.7211E+02
     -7.885  0.6497E+01  0.7278E+02
     -7.783  0.4331E+01  0.7322E+02
     -7.680  0.8661E+01  0.7411E+02
     -7.578  0.5490E+01  0.7467E+02
     -7.475  0.2906E+00  0.7559E+02
     -7.372  0.6496E+01  0.7644E+02
     -7.270  0.1300E+02  0.7778E+02
     -7.167  0.4779E+02  0.8313E+02
     -7.065  0.1353E+03  0.1028E+03
     -6.962  0.4330E+01  0.1032E+03
     -6.859  0.6297E+01  0.1039E+03
     -6.757  0.0000E+00  0.1039E+03
     -6.654  0.0000E+00  0.1039E+03
     -6.551  0.9646E-02  0.1039E+03
     -6.449  0.0000E+00  0.1040E+03
     -6.346  0.0000E+00  0.1040E+03
     -6.244  0.0000E+00  0.1040E+03
     -6.141  0.0000E+00  0.1040E+03
     -6.038  0.0000E+00  0.1040E+03
     -5.936  0.0000E+00  0.1040E+03
     -5.833  0.0000E+00  0.1040E+03
     -5.731  0.0000E+00  0.1040E+03
     -5.628  0.0000E+00  0.1040E+03
     -5.525  0.0000E+00  0.1040E+03
     -5.423  0.0000E+00  0.1040E+03
     -5.320  0.0000E+00  0.1040E+03
     -5.218  0.0000E+00  0.1040E+03
     -5.115  0.0000E+00  0.1040E+03
     -5.012  0.0000E+00  0.1040E+03
     -4.910  0.0000E+00  0.1040E+03
     -4.807  0.0000E+00  0.1040E+03
     -4.705  0.0000E+00  0.1040E+03
     -4.602  0.0000E+00  0.1040E+03
     -4.499  0.0000E+00  0.1040E+03
     -4.397  0.0000E+00  0.1040E+03
     -4.294  0.0000E+00  0.1040E+03
     -4.191  0.0000E+00  0.1040E+03
     -4.089  0.0000E+00  0.1040E+03
     -3.986  0.0000E+00  0.1040E+03
     -3.884  0.0000E+00  0.1040E+03
     -3.781  0.0000E+00  0.1040E+03
     -3.678  0.0000E+00  0.1040E+03
     -3.576  0.0000E+00  0.1040E+03
     -3.473  0.0000E+00  0.1040E+03
     -3.371  0.0000E+00  0.1040E+03
     -3.268  0.1025E+01  0.1041E+03
     -3.165  0.1664E+02  0.1059E+03
     -3.063  0.1441E+02  0.1081E+03
     -2.960  0.6403E+01  0.1089E+03
     -2.858  0.1036E+02  0.1100E+03
     -2.755  0.1223E+02  0.1115E+03
     -2.652  0.6601E+01  0.1133E+03
     -2.550  0.2166E+01  0.1140E+03
     -2.447  0.9510E+01  0.1150E+03
     -2.344  0.2469E+02  0.1176E+03
     -2.242  0.4332E+01  0.1182E+03
     -2.139  0.1281E+02  0.1195E+03
     -2.037  0.1905E+02  0.1227E+03
     -1.934  0.2700E+02  0.1262E+03
     -1.831  0.4059E+01  0.1270E+03
     -1.729  0.8751E+01  0.1281E+03
     -1.626  0.4240E+02  0.1330E+03
     -1.524  0.7340E+01  0.1346E+03
     -1.421  0.4074E+02  0.1397E+03
     -1.318  0.7056E+02  0.1477E+03
     -1.216  0.4823E+02  0.1537E+03
     -1.113  0.4486E+02  0.1596E+03
     -1.011  0.4582E+02  0.1667E+03
     -0.908  0.5448E+01  0.1680E+03
     -0.805  0.9414E+01  0.1692E+03
     -0.703  0.6552E+01  0.1710E+03
     -0.600  0.1156E+02  0.1724E+03
     -0.498  0.1525E+02  0.1740E+03
     -0.395  0.1444E-01  0.1742E+03
     -0.292  0.0000E+00  0.1747E+03
     -0.190  0.5371E-07  0.1747E+03
     -0.087  0.4940E+01  0.1752E+03
      0.016  0.2166E+01  0.1759E+03
      0.118  0.0000E+00  0.1759E+03
      0.221  0.0000E+00  0.1759E+03
      0.323  0.0000E+00  0.1759E+03
      0.426  0.3944E-01  0.1759E+03
      0.529  0.0000E+00  0.1760E+03
      0.631  0.0000E+00  0.1760E+03
      0.734  0.0000E+00  0.1760E+03
      0.836  0.0000E+00  0.1760E+03
      0.939  0.0000E+00  0.1760E+03
      1.042  0.0000E+00  0.1760E+03
      1.144  0.0000E+00  0.1760E+03
      1.247  0.0000E+00  0.1760E+03
      1.349  0.0000E+00  0.1760E+03
      1.452  0.0000E+00  0.1760E+03
      1.555  0.0000E+00  0.1760E+03
      1.657  0.0000E+00  0.1760E+03
      1.760  0.0000E+00  0.1760E+03
      1.863  0.0000E+00  0.1760E+03
      1.965  0.0000E+00  0.1760E+03
      2.068  0.0000E+00  0.1760E+03
      2.170  0.0000E+00  0.1760E+03
      2.273  0.0000E+00  0.1760E+03
      2.376  0.0000E+00  0.1760E+03
      2.478  0.0000E+00  0.1760E+03
      2.581  0.0000E+00  0.1760E+03
      2.683  0.5432E-05  0.1760E+03
      2.786  0.2162E+01  0.1762E+03
      2.889  0.2003E-06  0.1762E+03
      2.991  0.7586E+01  0.1770E+03
      3.094  0.3673E+01  0.1778E+03
      3.196  0.6424E+01  0.1787E+03
      3.299  0.1299E+02  0.1800E+03
      3.402  0.1083E+01  0.1801E+03
      3.504  0.7475E+01  0.1809E+03
      3.607  0.7531E+00  0.1810E+03
      3.709  0.6497E+01  0.1818E+03
      3.812  0.5457E+01  0.1823E+03
      3.915  0.1079E+02  0.1836E+03
      4.017  0.6475E+01  0.1842E+03
      4.120  0.1083E+02  0.1853E+03
      4.223  0.2245E+01  0.1856E+03
      4.325  0.2163E+01  0.1862E+03
      4.428  0.1150E+01  0.1863E+03
      4.530  0.8663E+01  0.1880E+03
      4.633  0.7200E+01  0.1887E+03
      4.736  0.8637E+01  0.1898E+03
      4.838  0.2945E+01  0.1901E+03
      4.941  0.2404E+01  0.1905E+03
      5.043  0.4287E+01  0.1910E+03
      5.146  0.1654E+02  0.1927E+03
      5.249  0.7404E+01  0.1938E+03
      5.351  0.1083E+02  0.1952E+03
      5.454  0.4004E+00  0.1953E+03
      5.556  0.4319E+01  0.1959E+03
      5.659  0.2263E+01  0.1961E+03
      5.762  0.4765E+01  0.1967E+03
      5.864  0.7580E+01  0.1981E+03
      5.967  0.6121E+01  0.1987E+03
      6.070  0.5035E+01  0.1998E+03
      6.172  0.1581E+02  0.2021E+03
      6.275  0.6493E+01  0.2030E+03
      6.377  0.2103E+02  0.2052E+03
      6.480  0.2145E+02  0.2076E+03
      6.583  0.1153E+02  0.2094E+03
      6.685  0.2901E+02  0.2128E+03
      6.788  0.1685E+02  0.2147E+03
      6.890  0.2287E+02  0.2172E+03
      6.993  0.1428E+02  0.2196E+03
      7.096  0.2117E+02  0.2223E+03
      7.198  0.4330E+01  0.2236E+03
      7.301  0.4331E+01  0.2240E+03
      7.403  0.0000E+00  0.2240E+03
      7.506  0.0000E+00  0.2240E+03
      7.609  0.0000E+00  0.2240E+03
      7.711  0.0000E+00  0.2240E+03
      7.814  0.0000E+00  0.2240E+03
      7.916  0.0000E+00  0.2240E+03
      8.019  0.0000E+00  0.2240E+03
      8.122  0.0000E+00  0.2240E+03
      8.224  0.0000E+00  0.2240E+03
      8.327  0.0000E+00  0.2240E+03
      8.430  0.0000E+00  0.2240E+03
      8.532  0.0000E+00  0.2240E+03
      8.635  0.0000E+00  0.2240E+03
      8.63475527    -22.14817638  301      0.55423571      1.00000000
    -22.148  0.0000E+00  0.0000E+00  0.0000E+00
    -22.046  0.0000E+00  0.0000E+00  0.0000E+00
    -21.943  0.0000E+00  0.0000E+00  0.0000E+00
    -21.840  0.0000E+00  0.0000E+00  0.0000E+00
    -21.738  0.0000E+00  0.0000E+00  0.0000E+00
    -21.635  0.0000E+00  0.0000E+00  0.0000E+00
    -21.533  0.0000E+00  0.0000E+00  0.0000E+00
    -21.430  0.0000E+00  0.0000E+00  0.0000E+00
    -21.327  0.0000E+00  0.0000E+00  0.0000E+00
    -21.225  0.0000E+00  0.0000E+00  0.0000E+00
    -21.122  0.0000E+00  0.0000E+00  0.0000E+00
    -21.019  0.0000E+00  0.0000E+00  0.0000E+00
    -20.917  0.0000E+00  0.0000E+00  0.0000E+00
    -20.814  0.0000E+00  0.0000E+00  0.0000E+00
    -20.712  0.1730E+02  0.9907E-05  0.2697E-05
    -20.609  0.0000E+00  0.0000E+00  0.0000E+00
    -20.506  0.0000E+00  0.0000E+00  0.0000E+00
    -20.404  0.0000E+00  0.0000E+00  0.0000E+00
    -20.301  0.0000E+00  0.0000E+00  0.0000E+00
    -20.199  0.0000E+00  0.0000E+00  0.0000E+00
    -20.096  0.0000E+00  0.0000E+00  0.0000E+00
    -19.993  0.0000E+00  0.0000E+00  0.0000E+00
    -19.891  0.0000E+00  0.0000E+00  0.0000E+00
    -19.788  0.0000E+00  0.0000E+00  0.0000E+00
    -19.686  0.0000E+00  0.0000E+00  0.0000E+00
    -19.583  0.0000E+00  0.0000E+00  0.0000E+00
    -19.480  0.0000E+00  0.0000E+00  0.0000E+00
    -19.378  0.0000E+00  0.0000E+00  0.0000E+00
    -19.275  0.0000E+00  0.0000E+00  0.0000E+00
    -19.172  0.0000E+00  0.0000E+00  0.0000E+00
    -19.070  0.0000E+00  0.0000E+00  0.0000E+00
    -18.967  0.0000E+00  0.0000E+00  0.0000E+00
    -18.865  0.0000E+00  0.0000E+00  0.0000E+00
    -18.762  0.0000E+00  0.0000E+00  0.0000E+00
    -18.659  0.0000E+00  0.0000E+00  0.0000E+00
    -18.557  0.0000E+00  0.0000E+00  0.0000E+00
    -18.454  0.0000E+00  0.0000E+00  0.0000E+00
    -18.352  0.0000E+00  0.0000E+00  0.0000E+00
    -18.249  0.0000E+00  0.0000E+00  0.0000E+00
    -18.146  0.0000E+00  0.0000E+00  0.0000E+00
    -18.044  0.0000E+00  0.0000E+00  0.0000E+00
    -17.941  0.0000E+00  0.0000E+00  0.0000E+00
    -17.839  0.0000E+00  0.0000E+00  0.0000E+00
    -17.736  0.0000E+00  0.0000E+00  0.0000E+00
    -17.633  0.0000E+00  0.0000E+00  0.0000E+00
    -17.531  0.0000E+00  0.0000E+00  0.0000E+00
    -17.428  0.0000E+00  0.0000E+00  0.0000E+00
    -17.326  0.0000E+00  0.0000E+00  0.0000E+00
    -17.223  0.0000E+00  0.0000E+00  0.0000E+00
    -17.120  0.0000E+00  0.0000E+00  0.0000E+00
    -17.018  0.0000E+00  0.0000E+00  0.0000E+00
    -16.915  0.0000E+00  0.0000E+00  0.0000E+00
    -16.812  0.0000E+00  0.0000E+00  0.0000E+00
    -16.710  0.0000E+00  0.0000E+00  0.0000E+00
    -16.607  0.0000E+00  0.0000E+00  0.0000E+00
    -16.505  0.3198E-13  0.2375E-13  0.4267E-14
    -16.402  0.1132E-03  0.1008E-03  0.2035E-04
    -16.299  0.6516E-04  0.3550E-04  0.4314E-05
    -16.197  0.0000E+00  0.0000E+00  0.0000E+00
    -16.094  0.0000E+00  0.0000E+00  0.0000E+00
    -15.992  0.0000E+00  0.0000E+00  0.0000E+00
    -15.889  0.0000E+00  0.0000E+00  0.0000E+00
    -15.786  0.0000E+00  0.0000E+00  0.0000E+00
    -15.684  0.0000E+00  0.0000E+00  0.0000E+00
    -15.581  0.0000E+00  0.0000E+00  0.0000E+00
    -15.479  0.0000E+00  0.0000E+00  0.0000E+00
    -15.376  0.0000E+00  0.0000E+00  0.0000E+00
    -15.273  0.0000E+00  0.0000E+00  0.0000E+00
    -15.171  0.0000E+00  0.0000E+00  0.0000E+00
    -15.068  0.0000E+00  0.0000E+00  0.0000E+00
    -14.965  0.0000E+00  0.0000E+00  0.0000E+00
    -14.863  0.0000E+00  0.0000E+00  0.0000E+00
    -14.760  0.0000E+00  0.0000E+00  0.0000E+00
    -14.658  0.0000E+00  0.0000E+00  0.0000E+00
    -14.555  0.0000E+00  0.0000E+00  0.0000E+00
    -14.452  0.0000E+00  0.0000E+00  0.0000E+00
    -14.350  0.2822E-09  0.2112E-11  0.3554E-12
    -14.247  0.2459E-02  0.5632E-03  0.9890E-05
    -14.145  0.3533E-02  0.3866E-02  0.8181E-04
    -14.042  0.6723E-03  0.5129E-02  0.2356E-03
    -13.939  0.3490E-02  0.7269E-02  0.5968E-03
    -13.837  0.8183E-03  0.3954E-02  0.4010E-03
    -13.734  0.9925E-03  0.2466E-02  0.3912E-03
    -13.632  0.0000E+00  0.0000E+00  0.0000E+00
    -13.529  0.0000E+00  0.0000E+00  0.0000E+00
    -13.426  0.0000E+00  0.0000E+00  0.0000E+00
    -13.324  0.0000E+00  0.0000E+00  0.0000E+00
    -13.221  0.0000E+00  0.0000E+00  0.0000E+00
    -13.119  0.0000E+00  0.0000E+00  0.0000E+00
    -13.016  0.0000E+00  0.0000E+00  0.0000E+00
    -12.913  0.0000E+00  0.0000E+00  0.0000E+00
    -12.811  0.0000E+00  0.0000E+00  0.0000E+00
    -12.708  0.0000E+00  0.0000E+00  0.0000E+00
    -12.605  0.0000E+00  0.0000E+00  0.0000E+00
    -12.503  0.0000E+00  0.0000E+00  0.0000E+00
    -12.400  0.0000E+00  0.0000E+00  0.0000E+00
    -12.298  0.0000E+00  0.0000E+00  0.0000E+00
    -12.195  0.0000E+00  0.0000E+00  0.0000E+00
    -12.092  0.0000E+00  0.0000E+00  0.0000E+00
    -11.990  0.0000E+00  0.0000E+00  0.0000E+00
    -11.887  0.0000E+00  0.0000E+00  0.0000E+00
    -11.785  0.0000E+00  0.0000E+00  0.0000E+00
    -11.682  0.0000E+00  0.0000E+00  0.0000E+00
    -11.579  0.0000E+00  0.0000E+00  0.0000E+00
    -11.477  0.0000E+00  0.0000E+00  0.0000E+00
    -11.374  0.0000E+00  0.0000E+00  0.0000E+00
    -11.272  0.0000E+00  0.0000E+00  0.0000E+00
    -11.169  0.0000E+00  0.0000E+00  0.0000E+00
    -11.066  0.0000E+00  0.0000E+00  0.0000E+00
    -10.964  0.0000E+00  0.0000E+00  0.0000E+00
    -10.861  0.0000E+00  0.0000E+00  0.0000E+00
    -10.758  0.0000E+00  0.0000E+00  0.0000E+00
    -10.656  0.0000E+00  0.0000E+00  0.0000E+00
    -10.553  0.0000E+00  0.0000E+00  0.0000E+00
    -10.451  0.0000E+00  0.0000E+00  0.0000E+00
    -10.348  0.0000E+00  0.0000E+00  0.0000E+00
    -10.245  0.0000E+00  0.0000E+00  0.0000E+00
    -10.143  0.0000E+00  0.0000E+00  0.0000E+00
    -10.040  0.0000E+00  0.0000E+00  0.0000E+00
     -9.938  0.0000E+00  0.0000E+00  0.0000E+00
     -9.835  0.0000E+00  0.0000E+00  0.0000E+00
     -9.732  0.0000E+00  0.0000E+00  0.0000E+00
     -9.630  0.0000E+00  0.0000E+00  0.0000E+00
     -9.527  0.0000E+00  0.0000E+00  0.0000E+00
     -9.425  0.0000E+00  0.0000E+00  0.0000E+00
     -9.322  0.0000E+00  0.0000E+00  0.0000E+00
     -9.219  0.0000E+00  0.0000E+00  0.0000E+00
     -9.117  0.0000E+00  0.0000E+00  0.0000E+00
     -9.014  0.0000E+00  0.0000E+00  0.0000E+00
     -8.912  0.0000E+00  0.0000E+00  0.0000E+00
     -8.809  0.0000E+00  0.0000E+00  0.0000E+00
     -8.706  0.0000E+00  0.0000E+00  0.0000E+00
     -8.604  0.0000E+00  0.0000E+00  0.0000E+00
     -8.501  0.0000E+00  0.0000E+00  0.0000E+00
     -8.398  0.0000E+00  0.0000E+00  0.0000E+00
     -8.296  0.0000E+00  0.0000E+00  0.0000E+00
     -8.193  0.2995E-29  0.9191E-16  0.2444E-16
     -8.091  0.9351E-18  0.2870E-04  0.7631E-05
     -7.988  0.1060E-29  0.1643E-14  0.5541E-17
     -7.885  0.5507E-07  0.5235E-02  0.3860E-04
     -7.783  0.2357E-17  0.5377E-02  0.3030E-04
     -7.680  0.1101E-04  0.2224E-01  0.4737E-04
     -7.578  0.7600E-05  0.2432E-01  0.2686E-04
     -7.475  0.3235E-10  0.2799E-02  0.7334E-06
     -7.372  0.1096E-04  0.7458E-01  0.4045E-04
     -7.270  0.5144E-04  0.3172E+00  0.4427E-04
     -7.167  0.3666E-04  0.8282E+01  0.5678E-04
     -7.065  0.4312E-04  0.2532E+02  0.6125E-04
     -6.962  0.1961E-04  0.1334E+00  0.2886E-04
     -6.859  0.5545E-04  0.5775E-01  0.2448E-04
     -6.757  0.0000E+00  0.0000E+00  0.0000E+00
     -6.654  0.0000E+00  0.0000E+00  0.0000E+00
     -6.551  0.1071E-06  0.2893E-04  0.5492E-08
     -6.449  0.0000E+00  0.0000E+00  0.0000E+00
     -6.346  0.0000E+00  0.0000E+00  0.0000E+00
     -6.244  0.0000E+00  0.0000E+00  0.0000E+00
     -6.141  0.0000E+00  0.0000E+00  0.0000E+00
     -6.038  0.0000E+00  0.0000E+00  0.0000E+00
     -5.936  0.0000E+00  0.0000E+00  0.0000E+00
     -5.833  0.0000E+00  0.0000E+00  0.0000E+00
     -5.731  0.0000E+00  0.0000E+00  0.0000E+00
     -5.628  0.0000E+00  0.0000E+00  0.0000E+00
     -5.525  0.0000E+00  0.0000E+00  0.0000E+00
     -5.423  0.0000E+00  0.0000E+00  0.0000E+00
     -5.320  0.0000E+00  0.0000E+00  0.0000E+00
     -5.218  0.0000E+00  0.0000E+00  0.0000E+00
     -5.115  0.0000E+00  0.0000E+00  0.0000E+00
     -5.012  0.0000E+00  0.0000E+00  0.0000E+00
     -4.910  0.0000E+00  0.0000E+00  0.0000E+00
     -4.807  0.0000E+00  0.0000E+00  0.0000E+00
     -4.705  0.0000E+00  0.0000E+00  0.0000E+00
     -4.602  0.0000E+00  0.0000E+00  0.0000E+00
     -4.499  0.0000E+00  0.0000E+00  0.0000E+00
     -4.397  0.0000E+00  0.0000E+00  0.0000E+00
     -4.294  0.0000E+00  0.0000E+00  0.0000E+00
     -4.191  0.0000E+00  0.0000E+00  0.0000E+00
     -4.089  0.0000E+00  0.0000E+00  0.0000E+00
     -3.986  0.0000E+00  0.0000E+00  0.0000E+00
     -3.884  0.0000E+00  0.0000E+00  0.0000E+00
     -3.781  0.0000E+00  0.0000E+00  0.0000E+00
     -3.678  0.0000E+00  0.0000E+00  0.0000E+00
     -3.576  0.0000E+00  0.0000E+00  0.0000E+00
     -3.473  0.0000E+00  0.0000E+00  0.0000E+00
     -3.371  0.0000E+00  0.0000E+00  0.0000E+00
     -3.268  0.2830E-05  0.1655E-02  0.1424E-04
     -3.165  0.1220E-03  0.1857E-01  0.1596E-02
     -3.063  0.2203E-03  0.1122E-01  0.1719E-02
     -2.960  0.2031E-03  0.5604E-02  0.7452E-03
     -2.858  0.4194E-03  0.1830E-01  0.8907E-03
     -2.755  0.1781E-03  0.1399E-01  0.9950E-03
     -2.652  0.4851E-03  0.8687E-02  0.7818E-03
     -2.550  0.6146E-18  0.2918E-02  0.2656E-03
     -2.447  0.2792E-03  0.1870E-01  0.1106E-02
     -2.344  0.2775E-02  0.2070E-01  0.3168E-02
     -2.242  0.7716E-03  0.2302E-02  0.3914E-03
     -2.139  0.4324E-02  0.1362E-01  0.1236E-02
     -2.037  0.1160E-01  0.2954E-01  0.2540E-02
     -1.934  0.1855E-01  0.5032E-01  0.5631E-02
     -1.831  0.1134E-02  0.2297E-01  0.4470E-03
     -1.729  0.6762E-03  0.5738E-01  0.2330E-02
     -1.626  0.3418E-02  0.1600E+00  0.1700E-01
     -1.524  0.2996E-03  0.2789E-01  0.2303E-02
     -1.421  0.5499E-02  0.7229E-01  0.1805E-01
     -1.318  0.5865E-02  0.1064E+00  0.3121E-01
     -1.216  0.5146E-02  0.6409E-01  0.1293E-01
     -1.113  0.2123E-02  0.8930E-01  0.1312E-01
     -1.011  0.1922E-02  0.6254E-01  0.1155E-01
     -0.908  0.2560E-03  0.8531E-02  0.1431E-02
     -0.805  0.2725E-03  0.1431E-01  0.3748E-02
     -0.703  0.3093E-03  0.1001E-01  0.1075E-02
     -0.600  0.7054E-03  0.5042E-02  0.1451E-02
     -0.498  0.6449E-03  0.5677E-02  0.1754E-02
     -0.395  0.5151E-18  0.1025E-04  0.1449E-06
     -0.292  0.0000E+00  0.0000E+00  0.0000E+00
     -0.190  0.2957E-12  0.2022E-10  0.7818E-11
     -0.087  0.5963E-05  0.7184E-03  0.8171E-03
      0.016  0.2125E-05  0.4237E-03  0.2863E-03
      0.118  0.0000E+00  0.0000E+00  0.0000E+00
      0.221  0.0000E+00  0.0000E+00  0.0000E+00
      0.323  0.0000E+00  0.0000E+00  0.0000E+00
      0.426  0.1974E-17  0.1620E-05  0.4167E-05
      0.529  0.0000E+00  0.0000E+00  0.0000E+00
      0.631  0.0000E+00  0.0000E+00  0.0000E+00
      0.734  0.0000E+00  0.0000E+00  0.0000E+00
      0.836  0.0000E+00  0.0000E+00  0.0000E+00
      0.939  0.0000E+00  0.0000E+00  0.0000E+00
      1.042  0.0000E+00  0.0000E+00  0.0000E+00
      1.144  0.0000E+00  0.0000E+00  0.0000E+00
      1.247  0.0000E+00  0.0000E+00  0.0000E+00
      1.349  0.0000E+00  0.0000E+00  0.0000E+00
      1.452  0.0000E+00  0.0000E+00  0.0000E+00
      1.555  0.0000E+00  0.0000E+00  0.0000E+00
      1.657  0.0000E+00  0.0000E+00  0.0000E+00
      1.760  0.0000E+00  0.0000E+00  0.0000E+00
      1.863  0.0000E+00  0.0000E+00  0.0000E+00
      1.965  0.0000E+00  0.0000E+00  0.0000E+00
      2.068  0.0000E+00  0.0000E+00  0.0000E+00
      2.170  0.0000E+00  0.0000E+00  0.0000E+00
      2.273  0.0000E+00  0.0000E+00  0.0000E+00
      2.376  0.0000E+00  0.0000E+00  0.0000E+00
      2.478  0.0000E+00  0.0000E+00  0.0000E+00
      2.581  0.0000E+00  0.0000E+00  0.0000E+00
      2.683  0.4411E-22  0.2329E-09  0.5060E-08
      2.786  0.3538E-04  0.2571E-03  0.1524E-02
      2.889  0.2946E-10  0.1829E-10  0.1114E-09
      2.991  0.5806E-03  0.1146E-02  0.3953E-02
      3.094  0.4785E-06  0.2947E-02  0.1213E-02
      3.196  0.4920E-03  0.9200E-03  0.1900E-02
      3.299  0.1027E-02  0.6681E-02  0.3893E-02
      3.402  0.6599E-04  0.1701E-03  0.2410E-03
      3.504  0.8463E-03  0.2522E-02  0.3982E-02
      3.607  0.3966E-16  0.1293E-03  0.9910E-03
      3.709  0.6415E-03  0.1375E-02  0.4922E-02
      3.812  0.5918E-03  0.1519E-02  0.4523E-02
      3.915  0.8077E-03  0.1289E-02  0.6524E-02
      4.017  0.5695E-03  0.2093E-02  0.3809E-02
      4.120  0.4002E-03  0.2114E-02  0.4132E-02
      4.223  0.1686E-03  0.8663E-03  0.5684E-03
      4.325  0.4424E-04  0.3717E-03  0.2828E-02
      4.428  0.1043E-03  0.5173E-03  0.1209E-02
      4.530  0.2068E-04  0.3774E-02  0.7996E-02
      4.633  0.9722E-03  0.1461E-02  0.2900E-02
      4.736  0.1886E-02  0.3327E-02  0.4586E-02
      4.838  0.3749E-07  0.2713E-03  0.3927E-02
      4.941  0.3995E-02  0.8522E-03  0.1264E-02
      5.043  0.7708E-06  0.2124E-02  0.4364E-02
      5.146  0.2922E-02  0.4029E-02  0.1966E-01
      5.249  0.1090E-01  0.5666E-02  0.5136E-02
      5.351  0.6385E-02  0.5654E-02  0.1106E-01
      5.454  0.1207E-03  0.5619E-04  0.3569E-03
      5.556  0.5704E-09  0.1161E-03  0.1120E-01
      5.659  0.1832E-01  0.3089E-02  0.5319E-02
      5.762  0.1276E-01  0.2704E-02  0.1334E-01
      5.864  0.8626E-02  0.1781E-02  0.1553E-01
      5.967  0.3728E-03  0.1127E-02  0.1357E-01
      6.070  0.3594E-01  0.1653E-01  0.3057E-01
      6.172  0.2990E-01  0.7789E-02  0.9516E-01
      6.275  0.7258E-02  0.4371E-02  0.1504E+00
      6.377  0.6071E-01  0.4131E-01  0.3833E+00
      6.480  0.5022E-01  0.3150E-01  0.5312E+00
      6.583  0.1971E-01  0.4568E-02  0.2888E+00
      6.685  0.3727E-01  0.4460E-01  0.8190E+00
      6.788  0.4122E-01  0.2239E-01  0.4159E+00
      6.890  0.7371E-02  0.5788E-01  0.7046E+00
      6.993  0.6151E-02  0.1507E-01  0.5817E+00
      7.096  0.3683E-01  0.3720E-01  0.6708E+00
      7.198  0.2880E-02  0.1147E-01  0.1354E+00
      7.301  0.8816E-04  0.6177E-02  0.1657E+00
      7.403  0.0000E+00  0.0000E+00  0.0000E+00
      7.506  0.0000E+00  0.0000E+00  0.0000E+00
      7.609  0.0000E+00  0.0000E+00  0.0000E+00
      7.711  0.0000E+00  0.0000E+00  0.0000E+00
      7.814  0.0000E+00  0.0000E+00  0.0000E+00
      7.916  0.0000E+00  0.0000E+00  0.0000E+00
      8.019  0.0000E+00  0.0000E+00  0.0000E+00
      8.122  0.0000E+00  0.0000E+00  0.0000E+00
      8.224  0.0000E+00  0.0000E+00  0.0000E+00
      8.327  0.0000E+00  0.0000E+00  0.0000E+00
      8.430  0.0000E+00  0.0000E+00  0.0000E+00
      8.532  0.0000E+00  0.0000E+00  0.0000E+00
      8.635  0.0000E+00  0.0000E+00  0.0000E+00
      8.63475527    -22.14817638  301      0.55423571      1.00000000
    -22.148  0.0000E+00  0.0000E+00  0.0000E+00
    -22.046  0.0000E+00  0.0000E+00  0.0000E+00
    -21.943  0.0000E+00  0.0000E+00  0.0000E+00
    -21.840  0.0000E+00  0.0000E+00  0.0000E+00
    -21.738  0.0000E+00  0.0000E+00  0.0000E+00
    -21.635  0.0000E+00  0.0000E+00  0.0000E+00
    -21.533  0.0000E+00  0.0000E+00  0.0000E+00
    -21.430  0.0000E+00  0.0000E+00  0.0000E+00
    -21.327  0.0000E+00  0.0000E+00  0.0000E+00
    -21.225  0.0000E+00  0.0000E+00  0.0000E+00
    -21.122  0.0000E+00  0.0000E+00  0.0000E+00
    -21.019  0.0000E+00  0.0000E+00  0.0000E+00
    -20.917  0.0000E+00  0.0000E+00  0.0000E+00
    -20.814  0.0000E+00  0.0000E+00  0.0000E+00
    -20.712  0.1730E+02  0.9902E-05  0.2704E-05
    -20.609  0.0000E+00  0.0000E+00  0.0000E+00
    -20.506  0.0000E+00  0.0000E+00  0.0000E+00
    -20.404  0.0000E+00  0.0000E+00  0.0000E+00
    -20.301  0.0000E+00  0.0000E+00  0.0000E+00
    -20.199  0.0000E+00  0.0000E+00  0.0000E+00
    -20.096  0.0000E+00  0.0000E+00  0.0000E+00
    -19.993  0.0000E+00  0.0000E+00  0.0000E+00
    -19.891  0.0000E+00  0.0000E+00  0.0000E+00
    -19.788  0.0000E+00  0.0000E+00  0.0000E+00
    -19.686  0.0000E+00  0.0000E+00  0.0000E+00
    -19.583  0.0000E+00  0.0000E+00  0.0000E+00
    -19.480  0.0000E+00  0.0000E+00  0.0000E+00
    -19.378  0.0000E+00  0.0000E+00  0.0000E+00
    -19.275  0.0000E+00  0.0000E+00  0.0000E+00
    -19.172  0.0000E+00  0.0000E+00  0.0000E+00
    -19.070  0.0000E+00  0.0000E+00  0.0000E+00
    -18.967  0.0000E+00  0.0000E+00  0.0000E+00
    -18.865  0.0000E+00  0.0000E+00  0.0000E+00
    -18.762  0.0000E+00  0.0000E+00  0.0000E+00
    -18.659  0.0000E+00  0.0000E+00  0.0000E+00
    -18.557  0.0000E+00  0.0000E+00  0.0000E+00
    -18.454  0.0000E+00  0.0000E+00  0.0000E+00
    -18.352  0.0000E+00  0.0000E+00  0.0000E+00
    -18.249  0.0000E+00  0.0000E+00  0.0000E+00
    -18.146  0.0000E+00  0.0000E+00  0.0000E+00
    -18.044  0.0000E+00  0.0000E+00  0.0000E+00
    -17.941  0.0000E+00  0.0000E+00  0.0000E+00
    -17.839  0.0000E+00  0.0000E+00  0.0000E+00
    -17.736  0.0000E+00  0.0000E+00  0.0000E+00
    -17.633  0.0000E+00  0.0000E+00  0.0000E+00
    -17.531  0.0000E+00  0.0000E+00  0.0000E+00
    -17.428  0.0000E+00  0.0000E+00  0.0000E+00
    -17.326  0.0000E+00  0.0000E+00  0.0000E+00
    -17.223  0.0000E+00  0.0000E+00  0.0000E+00
    -17.120  0.0000E+00  0.0000E+00  0.0000E+00
    -17.018  0.0000E+00  0.0000E+00  0.0000E+00
    -16.915  0.0000E+00  0.0000E+00  0.0000E+00
    -16.812  0.0000E+00  0.0000E+00  0.0000E+00
    -16.710  0.0000E+00  0.0000E+00  0.0000E+00
    -16.607  0.0000E+00  0.0000E+00  0.0000E+00
    -16.505  0.4451E-14  0.2402E-13  0.4612E-14
    -16.402  0.1129E-03  0.9022E-04  0.2013E-04
    -16.299  0.6458E-04  0.3534E-04  0.4302E-05
    -16.197  0.0000E+00  0.0000E+00  0.0000E+00
    -16.094  0.0000E+00  0.0000E+00  0.0000E+00
    -15.992  0.0000E+00  0.0000E+00  0.0000E+00
    -15.889  0.0000E+00  0.0000E+00  0.0000E+00
    -15.786  0.0000E+00  0.0000E+00  0.0000E+00
    -15.684  0.0000E+00  0.0000E+00  0.0000E+00
    -15.581  0.0000E+00  0.0000E+00  0.0000E+00
    -15.479  0.0000E+00  0.0000E+00  0.0000E+00
    -15.376  0.0000E+00  0.0000E+00  0.0000E+00
    -15.273  0.0000E+00  0.0000E+00  0.0000E+00
    -15.171  0.0000E+00  0.0000E+00  0.0000E+00
    -15.068  0.0000E+00  0.0000E+00  0.0000E+00
    -14.965  0.0000E+00  0.0000E+00  0.0000E+00
    -14.863  0.0000E+00  0.0000E+00  0.0000E+00
    -14.760  0.0000E+00  0.0000E+00  0.0000E+00
    -14.658  0.0000E+00  0.0000E+00  0.0000E+00
    -14.555  0.0000E+00  0.0000E+00  0.0000E+00
    -14.452  0.0000E+00  0.0000E+00  0.0000E+00
    -14.350  0.2822E-09  0.2112E-11  0.3554E-12
    -14.247  0.2459E-02  0.5632E-03  0.9890E-05
    -14.145  0.4127E-02  0.3056E-02  0.8260E-04
    -14.042  0.6146E-03  0.7387E-02  0.2393E-03
    -13.939  0.1717E-02  0.4924E-02  0.4541E-03
    -13.837  0.1724E-02  0.5128E-02  0.4733E-03
    -13.734  0.1049E-02  0.2315E-02  0.3203E-03
    -13.632  0.0000E+00  0.0000E+00  0.0000E+00
    -13.529  0.0000E+00  0.0000E+00  0.0000E+00
    -13.426  0.0000E+00  0.0000E+00  0.0000E+00
    -13.324  0.0000E+00  0.0000E+00  0.0000E+00
    -13.221  0.0000E+00  0.0000E+00  0.0000E+00
    -13.119  0.0000E+00  0.0000E+00  0.0000E+00
    -13.016  0.0000E+00  0.0000E+00  0.0000E+00