 vasp.5.4.4.18Apr17-6-g9f103f2a35 (build Jun 29 2021 12:58:12) complex           
 executed on tx2_gcc-7.3_libsci-1 date 2021.09.21  08:28:59
 running on   64 total cores
 distrk:  each k-point on   64 cores,    1 groups
 distr:  one band on NCORES_PER_BAND=   8 cores,    8 groups


--------------------------------------------------------------------------------------------------------


 INCAR:
 POTCAR:    PAW_PBE Cs_sv 08Apr2002               
 POTCAR:    PAW_PBE Pb_d 06Sep2000                
 POTCAR:    PAW_PBE Br 06Sep2000                  
 POTCAR:    PAW_PBE Cs_sv 08Apr2002               
   SHA256 =  c1463496f0f6037ed62c6012a8013a89ee9ad6ffb38599dcd6c079e7ed31779b Cs
   COPYR  = (c) Copyright 08Apr2002 Georg Kresse                                
   COPYR  = This file is part of the software VASP. Any use, copying, and all ot
   COPYR  = If you do not have a valid VASP license, you may not use, copy or di
   VRHFIN =Cs: 5s5p6s                                                           
   LEXCH  = PE                                                                  
   EATOM  =   555.6835 eV,   40.8416 Ry                                         
                                                                                
   TITEL  = PAW_PBE Cs_sv 08Apr2002                                             
   LULTRA =        F    use ultrasoft PP ?                                      
   IUNSCR =        1    unscreen: 0-lin 1-nonlin 2-no                           
   RPACOR =    2.200    partial core radius                                     
   POMASS =  132.900; ZVAL   =    9.000    mass and valenz                      
   RCORE  =    2.500    outmost cutoff radius                                   
   RWIGS  =    2.500; RWIGS  =    1.323    wigner-seitz radius (au A)           
   ENMAX  =  220.318; ENMIN  =  165.238 eV                                      
   RCLOC  =    2.207    cutoff for local pot                                    
   LCOR   =        T    correct aug charges                                     
   LPAW   =        T    paw PP                                                  
   EAUG   =  407.933                                                            
   DEXC   =    0.000                                                            
   RMAX   =    2.554    core radius for proj-oper                               
   RAUG   =    1.300    factor for augmentation sphere                          
   RDEP   =    2.590    radius for radial grids                                 
   RDEPT  =    2.117    core radius for aug-charge                              
                                                                                
   Atomic configuration                                                         
   13 entries                                                                   
     n  l   j            E        occ.                                          
     1  0  0.50    -35790.1377   2.0000                                         
     2  0  0.50     -5613.6201   2.0000                                         
     2  1  1.50     -5035.0101   6.0000                                         
     3  0  0.50     -1167.0767   2.0000                                         
     3  1  1.50      -980.9754   6.0000                                         
     3  2  2.50      -708.0703  10.0000                                         
     4  0  0.50      -220.2386   2.0000                                         
     4  1  1.50      -160.7596   6.0000                                         
     4  2  2.50       -74.2354  10.0000                                         
     5  0  0.50       -26.7287   2.0000                                         
     6  0  0.50        -2.0862   1.0000                                         
     5  1  1.50       -13.5159   6.0000                                         
     5  2  2.50        -0.4136   0.0000                                         
   Description                                                                  
     l       E           TYP  RCUT    TYP  RCUT                                 
     0    -26.7287425     23  1.900                                             
     0     -2.0862306     23  1.900                                             
     1    -13.5158719     23  2.500                                             
     1     -2.7211652     23  2.500                                             
     2     -0.4136171     23  2.500                                             
  local pseudopotential read in
  partial core-charges read in
  partial kinetic energy density read in
  atomic valenz-charges read in
  non local Contribution for L=           0  read in
    real space projection operators read in
  non local Contribution for L=           0  read in
    real space projection operators read in
  non local Contribution for L=           1  read in
    real space projection operators read in
  non local Contribution for L=           1  read in
    real space projection operators read in
  non local Contribution for L=           2  read in
    real space projection operators read in
    PAW grid and wavefunctions read in

   number of l-projection  operators is LMAX  =           5
   number of lm-projection operators is LMMAX =          13

 POTCAR:    PAW_PBE Pb_d 06Sep2000                
   SHA256 =  fb885b08f0fba73a15f6a6b0e39bd200c13ec96ef97cf3ecd8e63bade5137abd Pb
   COPYR  = (c) Copyright 06Sep2000 Georg Kresse                                
   COPYR  = This file is part of the software VASP. Any use, copying, and all ot
   COPYR  = If you do not have a valid VASP license, you may not use, copy or di
   VRHFIN =Pb:                                                                  
   LEXCH  = PE                                                                  
   EATOM  =  1661.6185 eV,  122.1255 Ry                                         
                                                                                
   TITEL  = PAW_PBE Pb_d 06Sep2000                                              
   LULTRA =        F    use ultrasoft PP ?                                      
   IUNSCR =        1    unscreen: 0-lin 1-nonlin 2-no                           
   RPACOR =    2.200    partial core radius                                     
   POMASS =  207.200; ZVAL   =   14.000    mass and valenz                      
   RCORE  =    2.500    outmost cutoff radius                                   
   RWIGS  =    3.260; RWIGS  =    1.725    wigner-seitz radius (au A)           
   ENMAX  =  237.835; ENMIN  =  178.376 eV                                      
   ICORE  =        3    local potential                                         
   LCOR   =        T    correct aug charges                                     
   LPAW   =        T    paw PP                                                  
   EAUG   =  391.914                                                            
   DEXC   =    0.000                                                            
   RMAX   =    2.565    core radius for proj-oper                               
   RAUG   =    1.300    factor for augmentation sphere                          
   RDEP   =    2.643    radius for radial grids                                 
   RDEPT  =    2.092    core radius for aug-charge                              
                                                                                
   Atomic configuration                                                         
   16 entries                                                                   
     n  l   j            E        occ.                                          
     1  0  0.50    -88091.8466   2.0000                                         
     2  0  0.50    -15753.4197   2.0000                                         
     2  1  1.50    -13508.1797   6.0000                                         
     3  0  0.50     -3781.7194   2.0000                                         
     3  1  1.50     -3138.2529   6.0000                                         
     3  2  2.50     -2483.2977  10.0000                                         
     4  0  0.50      -856.2895   2.0000                                         
     4  1  1.50      -645.4942   6.0000                                         
     4  2  2.50      -401.8768  10.0000                                         
     4  3  3.50      -132.9059  14.0000                                         
     5  0  0.50      -144.0950   2.0000                                         
     5  1  1.50       -85.7879   6.0000                                         
     5  2  2.50       -21.1769  10.0000                                         
     6  0  0.50       -12.0372   2.0000                                         
     6  1  1.50        -3.4971   2.0000                                         
     5  3  2.50        -2.7212   0.0000                                         
   Description                                                                  
     l       E           TYP  RCUT    TYP  RCUT                                 
     2    -21.1768523     23  2.500                                             
     2      1.3605826     23  2.500                                             
     0    -12.0371562     23  2.500                                             
     0     13.6058260     23  2.500                                             
     1     -3.4971339     23  2.500                                             
     1     13.6058260     23  2.500                                             
     3     -1.3605826      7  2.500                                             
  local pseudopotential read in
  partial core-charges read in
  partial kinetic energy density read in
  atomic valenz-charges read in
  non local Contribution for L=           2  read in
    real space projection operators read in
  non local Contribution for L=           2  read in
    real space projection operators read in
  non local Contribution for L=           0  read in
    real space projection operators read in
  non local Contribution for L=           0  read in
    real space projection operators read in
  non local Contribution for L=           1  read in
    real space projection operators read in
  non local Contribution for L=           1  read in
    real space projection operators read in
    PAW grid and wavefunctions read in

   number of l-projection  operators is LMAX  =           6
   number of lm-projection operators is LMMAX =          18

 POTCAR:    PAW_PBE Br 06Sep2000                  
   SHA256 =  96a73d2954943bbee26f4990d676cc6c3bf44b8dd2c75cd4b3b825d8403f0103 Br
   COPYR  = (c) Copyright 06Sep2000 Georg Kresse                                
   COPYR  = This file is part of the software VASP. Any use, copying, and all ot
   COPYR  = If you do not have a valid VASP license, you may not use, copy or di
   VRHFIN =Br: s2p5                                                             
   LEXCH  = PE                                                                  
   EATOM  =   368.4488 eV,   27.0802 Ry                                         
                                                                                
   TITEL  = PAW_PBE Br 06Sep2000                                                
   LULTRA =        F    use ultrasoft PP ?                                      
   IUNSCR =        1    unscreen: 0-lin 1-nonlin 2-no                           
   RPACOR =    1.900    partial core radius                                     
   POMASS =   79.904; ZVAL   =    7.000    mass and valenz                      
   RCORE  =    2.100    outmost cutoff radius                                   
   RWIGS  =    2.200; RWIGS  =    1.164    wigner-seitz radius (au A)           
   ENMAX  =  216.285; ENMIN  =  162.214 eV                                      
   ICORE  =        3    local potential                                         
   LCOR   =        T    correct aug charges                                     
   LPAW   =        T    paw PP                                                  
   EAUG   =  503.852                                                            
   DEXC   =    0.000                                                            
   RMAX   =    2.139    core radius for proj-oper                               
   RAUG   =    1.300    factor for augmentation sphere                          
   RDEP   =    2.186    radius for radial grids                                 
   RDEPT  =    1.890    core radius for aug-charge                              
                                                                                
   Atomic configuration                                                         
   10 entries                                                                   
     n  l   j            E        occ.                                          
     1  0  0.50    -13316.2796   2.0000                                         
     2  0  0.50     -1732.8239   2.0000                                         
     2  1  1.50     -1528.2193   6.0000                                         
     3  0  0.50      -238.0460   2.0000                                         
     3  1  1.50      -173.4609   6.0000                                         
     3  2  2.50       -66.7132  10.0000                                         
     4  0  0.50       -20.1334   2.0000                                         
     4  1  0.50        -7.8591   5.0000                                         
     4  2  2.50        -8.1635   0.0000                                         
     4  3  2.50        -8.1635   0.0000                                         
   Description                                                                  
     l       E           TYP  RCUT    TYP  RCUT                                 
     0    -20.1333652     23  2.100                                             
     0    -21.4939478     23  2.100                                             
     1     -7.8591052     23  2.100                                             
     1     -3.1608434     23  2.100                                             
     2     -8.1634956     23  2.100                                             
     3     -1.3605826      7  2.100                                             
  local pseudopotential read in
  partial core-charges read in
  partial kinetic energy density read in
  atomic valenz-charges read in
  non local Contribution for L=           0  read in
    real space projection operators read in
  non local Contribution for L=           0  read in
    real space projection operators read in
  non local Contribution for L=           1  read in
    real space projection operators read in
  non local Contribution for L=           1  read in
    real space projection operators read in
  non local Contribution for L=           2  read in
    real space projection operators read in
    PAW grid and wavefunctions read in

   number of l-projection  operators is LMAX  =           5
   number of lm-projection operators is LMMAX =          13

 Optimization of the real space projectors (new method)

 maximal supplied QI-value         = 15.12
 optimisation between [QCUT,QGAM] = [  8.77, 17.69] = [ 21.53, 87.61] Ry 
 Optimized for a Real-space Cutoff    1.85 Angstroem

   l    n(q)    QCUT    max X(q) W(low)/X(q) W(high)/X(q)  e(spline) 
   0     10     8.768    25.322    0.81E-04    0.51E-04    0.48E-06
   0     10     8.768    99.187    0.78E-04    0.50E-04    0.47E-06
   1      9     8.768    11.761    0.21E-03    0.20E-03    0.37E-06
   1      9     8.768     8.275    0.24E-03    0.22E-03    0.41E-06
   2      9     8.768     3.829    0.23E-04    0.15E-03    0.18E-06
 Optimization of the real space projectors (new method)

 maximal supplied QI-value         = 15.12
 optimisation between [QCUT,QGAM] = [  8.77, 17.69] = [ 21.53, 87.61] Ry 
 Optimized for a Real-space Cutoff    1.59 Angstroem

   l    n(q)    QCUT    max X(q) W(low)/X(q) W(high)/X(q)  e(spline) 
   2      7     8.768     3.846    0.48E-04    0.11E-03    0.11E-06
   2      7     8.768     8.593    0.20E-03    0.22E-04    0.24E-06
   0      8     8.768    20.082    0.68E-04    0.88E-04    0.41E-07
   0      8     8.768     8.597    0.89E-04    0.13E-03    0.59E-07
   1      8     8.768    33.223    0.15E-03    0.53E-04    0.87E-07
   1      8     8.768    15.899    0.14E-03    0.44E-04    0.78E-07
 Optimization of the real space projectors (new method)

 maximal supplied QI-value         = 17.95
 optimisation between [QCUT,QGAM] = [  8.80, 17.59] = [ 21.67, 86.68] Ry 
 Optimized for a Real-space Cutoff    1.59 Angstroem

   l    n(q)    QCUT    max X(q) W(low)/X(q) W(high)/X(q)  e(spline) 
   0      8     8.797   175.082    0.82E-04    0.14E-03    0.89E-07
   0      8     8.797   174.004    0.79E-04    0.14E-03    0.86E-07
   1      8     8.797    54.315    0.16E-03    0.14E-04    0.30E-06
   1      8     8.797    42.441    0.16E-03    0.14E-04    0.30E-06
   2      7     8.797     3.596    0.92E-04    0.15E-03    0.85E-07
  PAW_PBE Cs_sv 08Apr2002               :
 energy of atom  1       EATOM= -555.6835
 kinetic energy error for atom=    0.0069 (will be added to EATOM!!)
  PAW_PBE Pb_d 06Sep2000                :
 energy of atom  2       EATOM=-1661.6185
 kinetic energy error for atom=    0.0498 (will be added to EATOM!!)
  PAW_PBE Br 06Sep2000                  :
 energy of atom  3       EATOM= -368.4488
 kinetic energy error for atom=    0.0072 (will be added to EATOM!!)


 POSCAR: Cs4 Pb4 Br12                            
  positions in direct lattice
  velocities in cartesian coordinates

 METAGGA = SCAN     LMAXTAU =  6    LMIXTAU =  F

 exchange correlation table for  LEXCH =        8
   RHO(1)=    0.500       N(1)  =     2000
   RHO(2)=  100.500       N(2)  =     4000

 VTST: version 3.2, (02/03/18)

 CHAIN: initializing optimizer
 
 OPT: Using VASP Conjugate-Gradient optimizer
 CHAIN: Read ICHAIN            0

 POSCAR: Cs4 Pb4 Br12                            
  positions in direct lattice
  velocities in cartesian coordinates



--------------------------------------------------------------------------------------------------------


 ion  position               nearest neighbor table
   1  0.068  0.250  0.477-
   2  0.432  0.750  0.977-
   3  0.568  0.250  0.023-
   4  0.932  0.750  0.523-
   5  0.000  0.000  0.000-  10 3.00  11 3.00  15 3.00  18 3.00  17 3.01  16 3.01
   6  0.500  0.000  0.500-   9 3.00  12 3.00  16 3.00  17 3.00  18 3.01  15 3.01
   7  0.500  0.500  0.500-   9 3.00  12 3.00  13 3.00  19 3.00  14 3.01  20 3.01
   8  0.000  0.500  0.000-  10 3.00  11 3.00  20 3.00  14 3.00  19 3.01  13 3.01
   9  0.507  0.750  0.436-   6 3.00   7 3.00
  10  0.993  0.250  0.936-   5 3.00   8 3.00
  11  0.007  0.750  0.064-   5 3.00   8 3.00
  12  0.493  0.250  0.564-   6 3.00   7 3.00
  13  0.301  0.466  0.193-   7 3.00   8 3.01
  14  0.199  0.534  0.693-   8 3.00   7 3.01
  15  0.801  0.034  0.307-   5 3.00   6 3.01
  16  0.699  0.966  0.807-   6 3.00   5 3.01
  17  0.301  0.034  0.193-   6 3.00   5 3.01
  18  0.199  0.966  0.693-   5 3.00   6 3.01
  19  0.699  0.534  0.807-   7 3.00   8 3.01
  20  0.801  0.466  0.307-   8 3.00   7 3.01

  LATTYP: Found a simple orthorhombic cell.
 ALAT       =     7.9682125689
 B/A-ratio  =     1.0672679350
 C/A-ratio  =     1.4835756150
  
  Lattice vectors:
  
 A1 = (   0.0000000000,   0.0000000000,   7.9682125689)
 A2 = (  -8.5042177739,   0.0000000000,   0.0000000000)
 A3 = (   0.0000000000, -11.8214458625,   0.0000000000)


Analysis of symmetry for initial positions (statically):
=====================================================================
 Subroutine PRICEL returns:
 Original cell was already a primitive cell.
 

 Routine SETGRP: Setting up the symmetry group for a 
 simple orthorhombic supercell.


 Subroutine GETGRP returns: Found  8 space group operations
 (whereof  2 operations were pure point group operations)
 out of a pool of  8 trial point group operations.


The static configuration has the point symmetry S_2 .
 The point group associated with its full space group is D_2h.


Analysis of symmetry for dynamics (positions and initial velocities):
=====================================================================
 Subroutine PRICEL returns:
 Original cell was already a primitive cell.
 

 Routine SETGRP: Setting up the symmetry group for a 
 simple orthorhombic supercell.


 Subroutine GETGRP returns: Found  8 space group operations
 (whereof  2 operations were pure point group operations)
 out of a pool of  8 trial point group operations.


The dynamic configuration has the point symmetry S_2 .
 The point group associated with its full space group is D_2h.


 Subroutine INISYM returns: Found  8 space group operations
 (whereof  2 operations are pure point group operations),
 and found     1 'primitive' translations



 KPOINTS: 1x1x1                                   

Automatic generation of k-mesh.
Space group operators:
 irot       det(A)        alpha          n_x          n_y          n_z        tau_x        tau_y        tau_z
    1     1.000000     0.000000     1.000000     0.000000     0.000000     0.000000     0.000000     0.000000
    2    -1.000000     0.000000     1.000000     0.000000     0.000000     0.000000     0.000000     0.000000
    3     1.000000   180.000000     0.000000     1.000000     0.000000     0.000000    -0.500000     0.000000
    4    -1.000000   180.000000     0.000000     1.000000     0.000000     0.000000    -0.500000     0.000000
    5     1.000000   180.000000     1.000000     0.000000     0.000000    -0.500000    -0.500000     0.500000
    6    -1.000000   180.000000     1.000000     0.000000     0.000000    -0.500000    -0.500000     0.500000
    7     1.000000   180.000000     0.000000     0.000000     1.000000    -0.500000     0.000000     0.500000
    8    -1.000000   180.000000     0.000000     0.000000     1.000000    -0.500000     0.000000     0.500000
 
 Subroutine IBZKPT returns following result:
 ===========================================
 
 Found      8 irreducible k-points:
 
 Following reciprocal coordinates:
            Coordinates               Weight
  0.000000  0.000000  0.000000      1.000000
  0.333333  0.000000  0.000000      2.000000
  0.000000  0.500000  0.000000      1.000000
  0.333333  0.500000  0.000000      2.000000
  0.000000  0.000000  0.333333      2.000000
  0.333333  0.000000  0.333333      4.000000
  0.000000  0.500000  0.333333      2.000000
  0.333333  0.500000  0.333333      4.000000
 
 Following cartesian coordinates:
            Coordinates               Weight
  0.000000  0.000000  0.000000      1.000000
  0.039196  0.000000  0.000000      2.000000
  0.000000  0.042296  0.000000      1.000000
  0.039196  0.042296  0.000000      2.000000
  0.000000  0.000000  0.041833      2.000000
  0.039196  0.000000  0.041833      4.000000
  0.000000  0.042296  0.041833      2.000000
  0.039196  0.042296  0.041833      4.000000
 


--------------------------------------------------------------------------------------------------------




 Dimension of arrays:
   k-points           NKPTS =      8   k-points in BZ     NKDIM =      8   number of bands    NBANDS=    112
   number of dos      NEDOS =    301   number of ions     NIONS =     20
   non local maximal  LDIM  =      6   non local SUM 2l+1 LMDIM =     18
   total plane-waves  NPLWV = 161280
   max r-space proj   IRMAX =   5372   max aug-charges    IRDMAX=  85703
   dimension x,y,z NGX =    48 NGY =   70 NGZ =   48
   dimension x,y,z NGXF=    96 NGYF=  140 NGZF=   96
   support grid    NGXF=   192 NGYF=  280 NGZF=  192
   ions per type =               4   4  12
   NGX,Y,Z   is equivalent  to a cutoff of   9.38,  9.84, 10.01 a.u.
   NGXF,Y,Z  is equivalent  to a cutoff of  18.77, 19.69, 20.03 a.u.

 SYSTEM =  CsPbBr3 cubic bulk                      
 POSCAR =  Cs4 Pb4 Br12                            

 Startparameter for this run:
   NWRITE =      2    write-flag & timer
   PREC   = accura    normal or accurate (medium, high low for compatibility)
   ISTART =      0    job   : 0-new  1-cont  2-samecut
   ICHARG =      2    charge: 1-file 2-atom 10-const
   ISPIN  =      1    spin polarized calculation?
   LNONCOLLINEAR =      F non collinear calculations
   LSORBIT =      F    spin-orbit coupling
   INIWAV =      1    electr: 0-lowe 1-rand  2-diag
   LASPH  =      T    aspherical Exc in radial PAW
   METAGGA=      F    non-selfconsistent MetaGGA calc.

 Electronic Relaxation 1
   ENCUT  =  300.0 eV  22.05 Ry    4.70 a.u.  12.01 16.70 11.25*2*pi/ulx,y,z
   ENINI  =  300.0     initial cutoff
   ENAUG  =  503.9 eV  augmentation charge cutoff
   NELM   =    200;   NELMIN=  2; NELMDL= -5     # of ELM steps 
   EDIFF  = 0.1E-05   stopping-criterion for ELM
   LREAL  =      T    real-space projection
   NLSPLINE    = F    spline interpolate recip. space projectors
   LCOMPAT=      F    compatible to vasp.4.4
   GGA_COMPAT  = T    GGA compatible to vasp.4.4-vasp.4.6
   LMAXPAW     = -100 max onsite density
   LMAXMIX     =    2 max onsite mixed and CHGCAR
   VOSKOWN=      0    Vosko Wilk Nusair interpolation
   ROPT   =   -0.00025  -0.00025  -0.00025
 Ionic relaxation
   EDIFFG = -.1E-01   stopping-criterion for IOM
   NSW    =      0    number of steps for IOM
   NBLOCK =      1;   KBLOCK =      1    inner block; outer block 
   IBRION =     -1    ionic relax: 0-MD 1-quasi-New 2-CG
   NFREE  =      1    steps in history (QN), initial steepest desc. (CG)
   ISIF   =      3    stress and relaxation
   IWAVPR =     10    prediction:  0-non 1-charg 2-wave 3-comb
   ISYM   =      2    0-nonsym 1-usesym 2-fastsym
   LCORR  =      T    Harris-Foulkes like correction to forces

   POTIM  = 0.5000    time-step for ionic-motion
   TEIN   =    0.0    initial temperature
   TEBEG  =    0.0;   TEEND  =   0.0 temperature during run
   SMASS  =  -3.00    Nose mass-parameter (am)
   estimated Nose-frequenzy (Omega)   =  0.10E-29 period in steps =****** mass=  -0.165E-26a.u.
   SCALEE = 1.0000    scale energy and forces
   NPACO  =    256;   APACO  = 16.0  distance and # of slots for P.C.
   PSTRESS=    0.0 pullay stress

  Mass of Ions in am
   POMASS = 132.90207.20 79.90
  Ionic Valenz
   ZVAL   =   9.00 14.00  7.00
  Atomic Wigner-Seitz radii
   RWIGS  =  -1.00 -1.00 -1.00
  virtual crystal weights 
   VCA    =   1.00  1.00  1.00
   NELECT =     176.0000    total number of electrons
   NUPDOWN=      -1.0000    fix difference up-down

 DOS related values:
   EMIN   =  10.00;   EMAX   =-10.00  energy-range for DOS
   EFERMI =   0.00
   ISMEAR =     0;   SIGMA  =   0.01  broadening in eV -4-tet -1-fermi 0-gaus

 Electronic relaxation 2 (details)
   IALGO  =     38    algorithm
   LDIAG  =      T    sub-space diagonalisation (order eigenvalues)
   LSUBROT=      F    optimize rotation matrix (better conditioning)
   TURBO    =      0    0=normal 1=particle mesh
   IRESTART =      0    0=no restart 2=restart with 2 vectors
   NREBOOT  =      0    no. of reboots
   NMIN     =      0    reboot dimension
   EREF     =   0.00    reference energy to select bands
   IMIX   =      4    mixing-type and parameters
     AMIX     =   0.40;   BMIX     =  1.00
     AMIX_MAG =   1.60;   BMIX_MAG =  1.00
     AMIN     =   0.10
     WC   =   100.;   INIMIX=   1;  MIXPRE=   1;  MAXMIX= -45

 Intra band minimization:
   WEIMIN = 0.0000     energy-eigenvalue tresh-hold
   EBREAK =  0.22E-08  absolut break condition
   DEPER  =   0.30     relativ break condition  

   TIME   =   0.40     timestep for ELM

  volume/ion in A,a.u.               =      40.05       270.29
  Fermi-wavevector in a.u.,A,eV,Ry     =   0.987849  1.866763 13.277178  0.975845
  Thomas-Fermi vector in A             =   2.119333

 Write flags
   LWAVE        =      F    write WAVECAR
   LDOWNSAMPLE  =      F    k-point downsampling of WAVECAR
   LCHARG       =      F    write CHGCAR
   LVTOT        =      F    write LOCPOT, total local potential
   LVHAR        =      T    write LOCPOT, Hartree potential only
   LELF         =      F    write electronic localiz. function (ELF)
   LORBIT       =     10    0 simple, 1 ext, 2 COOP (PROOUT), +10 PAW based schemes


 Dipole corrections
   LMONO  =      F    monopole corrections only (constant potential shift)
   LDIPOL =      F    correct potential (dipole corrections)
   IDIPOL =      0    1-x, 2-y, 3-z, 4-all directions 
   EPSILON=  1.0000000 bulk dielectric constant

 Exchange correlation treatment:
   GGA     =    --    GGA type
   LEXCH   =     8    internal setting for exchange type
   VOSKOWN=      0    Vosko Wilk Nusair interpolation
   LHFCALC =     F    Hartree Fock is set to
   LHFONE  =     F    Hartree Fock one center treatment
   AEXX    =    0.0000 exact exchange contribution

 Linear response parameters
   LEPSILON=     F    determine dielectric tensor
   LRPA    =     F    only Hartree local field effects (RPA)
   LNABLA  =     F    use nabla operator in PAW spheres
   LVEL    =     F    velocity operator in full k-point grid
   LINTERFAST=   F  fast interpolation
   KINTER  =     0    interpolate to denser k-point grid
   CSHIFT  =0.1000    complex shift for real part using Kramers Kronig
   OMEGAMAX=  -1.0    maximum frequency
   DEG_THRESHOLD= 0.2000000E-02 threshold for treating states as degnerate
   RTIME   =   -0.100 relaxation time in fs
  (WPLASMAI=    0.000 imaginary part of plasma frequency in eV, 0.658/RTIME)
   DFIELD  = 0.0000000 0.0000000 0.0000000 field for delta impulse in time

 Orbital magnetization related:
   ORBITALMAG=     F  switch on orbital magnetization
   LCHIMAG   =     F  perturbation theory with respect to B field
   DQ        =  0.001000  dq finite difference perturbation B field
   LLRAUG    =     F  two centre corrections for induced B field



--------------------------------------------------------------------------------------------------------


 Static calculation
 charge density and potential will be updated during run
 non-spin polarized calculation
 Variant of blocked Davidson
 Davidson routine will perform the subspace rotation
 perform sub-space diagonalisation
    after iterative eigenvector-optimisation
 modified Broyden-mixing scheme, WC =      100.0
 initial mixing is a Kerker type mixing with AMIX =  0.4000 and BMIX =      1.0000
 Hartree-type preconditioning will be used
 using additional bands           24
 real space projection scheme for non local part
 use partial core corrections
 calculate Harris-corrections to forces   (improved forces if not selfconsistent)
 use gradient corrections 
 use of overlap-Matrix (Vanderbilt PP)
 Gauss-broadening in eV      SIGMA  =   0.01


--------------------------------------------------------------------------------------------------------


  energy-cutoff  :      300.00
  volume of cell :      801.06
      direct lattice vectors                 reciprocal lattice vectors
     8.504217774  0.000000000  0.000000000     0.117588710  0.000000000  0.000000000
     0.000000000 11.821445862  0.000000000     0.000000000  0.084592021  0.000000000
     0.000000000  0.000000000  7.968212569     0.000000000  0.000000000  0.125498660

  length of vectors
     8.504217774 11.821445862  7.968212569     0.117588710  0.084592021  0.125498660



 k-points in units of 2pi/SCALE and weight: 1x1x1                                   
   0.00000000  0.00000000  0.00000000       0.056
   0.03919624  0.00000000  0.00000000       0.111
   0.00000000  0.04229601  0.00000000       0.056
   0.03919624  0.04229601  0.00000000       0.111
   0.00000000  0.00000000  0.04183289       0.111
   0.03919624  0.00000000  0.04183289       0.222
   0.00000000  0.04229601  0.04183289       0.111
   0.03919624  0.04229601  0.04183289       0.222

 k-points in reciprocal lattice and weights: 1x1x1                                   
   0.00000000  0.00000000  0.00000000       0.056
   0.33333333  0.00000000  0.00000000       0.111
   0.00000000  0.50000000  0.00000000       0.056
   0.33333333  0.50000000  0.00000000       0.111
   0.00000000  0.00000000  0.33333333       0.111
   0.33333333  0.00000000  0.33333333       0.222
   0.00000000  0.50000000  0.33333333       0.111
   0.33333333  0.50000000  0.33333333       0.222

 position of ions in fractional coordinates (direct lattice) 
   0.06774232  0.25000000  0.47656096
   0.43225768  0.75000000  0.97656096
   0.56774232  0.25000000  0.02343904
   0.93225768  0.75000000  0.52343904
   0.00000000  0.00000000  0.00000000
   0.50000000  0.00000000  0.50000000
   0.50000000  0.50000000  0.50000000
   0.00000000  0.50000000  0.00000000
   0.50661004  0.75000000  0.43577185
   0.99338996  0.25000000  0.93577185
   0.00661004  0.75000000  0.06422815
   0.49338996  0.25000000  0.56422815
   0.30075466  0.46616906  0.19282620
   0.19924534  0.53383094  0.69282620
   0.80075466  0.03383094  0.30717380
   0.69924534  0.96616906  0.80717380
   0.30075466  0.03383094  0.19282620
   0.19924534  0.96616906  0.69282620
   0.69924534  0.53383094  0.80717380
   0.80075466  0.46616906  0.30717380

 position of ions in cartesian coordinates  (Angst):
   0.57609546  2.95536147  3.79733903
   3.67601343  8.86608440  7.78144531
   4.82820435  2.95536147  0.18676726
   7.92812231  8.86608440  4.17087354
   0.00000000  0.00000000  0.00000000
   4.25210889  0.00000000  3.98410628
   4.25210889  5.91072293  3.98410628
   0.00000000  5.91072293  0.00000000
   4.30832209  8.86608440  3.47232275
   8.44800457  2.95536147  7.45642903
   0.05621321  8.86608440  0.51178354
   4.19589568  2.95536147  4.49588982
   2.55768313  5.51079230  1.53648016
   1.69442576  6.31065356  5.52058645
   6.80979201  0.39993063  2.44762612
   5.94653465 11.42151523  6.43173241
   2.55768313  0.39993063  1.53648016
   1.69442576 11.42151523  5.52058645
   5.94653465  6.31065356  6.43173241
   6.80979201  5.51079230  2.44762612



--------------------------------------------------------------------------------------------------------


 k-point  1 :   0.0000 0.0000 0.0000  plane waves:    9499
 k-point  2 :   0.3333 0.0000 0.0000  plane waves:    9442
 k-point  3 :   0.0000 0.5000 0.0000  plane waves:    9446
 k-point  4 :   0.3333 0.5000 0.0000  plane waves:    9474
 k-point  5 :   0.0000 0.0000 0.3333  plane waves:    9426
 k-point  6 :   0.3333 0.0000 0.3333  plane waves:    9455
 k-point  7 :   0.0000 0.5000 0.3333  plane waves:    9426
 k-point  8 :   0.3333 0.5000 0.3333  plane waves:    9464

 maximum and minimum number of plane-waves per node :      1202     1167

 maximum number of plane-waves:      9499
 maximum index in each direction: 
   IXMAX=   12   IYMAX=   16   IZMAX=   11
   IXMIN=  -12   IYMIN=  -17   IZMIN=  -11


 real space projection operators:
  total allocation   :       7977.50 KBytes
  max/ min on nodes  :       1048.12        958.72


 parallel 3D FFT for wavefunctions:
    minimum data exchange during FFTs selected (reduces bandwidth)
 parallel 3D FFT for charge:
    minimum data exchange during FFTs selected (reduces bandwidth)


 total amount of memory used by VASP MPI-rank0    42352. kBytes
=======================================================================

   base      :      30000. kBytes
   nonlr-proj:       2993. kBytes
   fftplans  :       3667. kBytes
   grid      :       3424. kBytes
   one-center:         46. kBytes
   wavefun   :       2222. kBytes

     INWAV:  cpu time    0.0002: real time    0.0005
 Broyden mixing: mesh for mixing (old mesh)
   NGX = 25   NGY = 33   NGZ = 23
  (NGX  = 96   NGY  =140   NGZ  = 96)
  gives a total of  18975 points

 initial charge density was supplied:
 charge density of overlapping atoms calculated
 number of electron     176.0000000 magnetization 
 keeping initial charge density in first step


--------------------------------------------------------------------------------------------------------


 Maximum index for non-local projection operator          634
 Maximum index for augmentation-charges         2381 (set IRDMAX)


--------------------------------------------------------------------------------------------------------


 First call to EWALD:  gamma=   0.191
 Maximum number of real-space cells 3x 2x 3
 Maximum number of reciprocal cells 3x 3x 2

    FEWALD:  cpu time    0.0020: real time    0.0020


--------------------------------------- Iteration      1(   1)  ---------------------------------------


    POTLOK:  cpu time    0.1263: real time    0.1263
    SETDIJ:  cpu time    1.0863: real time    1.0864
     EDDAV:  cpu time    3.9522: real time    3.9569
       DOS:  cpu time    0.0010: real time    0.0010
    --------------------------------------------
      LOOP:  cpu time    5.1658: real time    5.1706

 eigenvalue-minimisations  :  1840
 total energy-change (2. order) : 0.6616676E+03  (-0.5620584E+04)
 number of electron     176.0000000 magnetization 
 augmentation part      176.0000000 magnetization 

 Free energy of the ion-electron system (eV)
  ---------------------------------------------------
  alpha Z        PSCENC =       450.41350151
  Ewald energy   TEWEN  =     -9237.67801521
  -Hartree energ DENC   =     -3648.76039526
  -exchange      EXHF   =         0.00000000
  -V(xc)+E(xc)   XCENC  =       462.00779967
  PAW double counting   =     10816.98087266   -11353.96092700
  entropy T*S    EENTRO =        -0.00062856
  eigenvalues    EBANDS =      -117.61468539
  atomic energy  EATOM  =     13290.28009929
  Solvation  Ediel_sol  =         0.00000000
  ---------------------------------------------------
  free energy    TOTEN  =       661.66762170 eV

  energy without entropy =      661.66825027  energy(sigma->0) =      661.66793599


--------------------------------------------------------------------------------------------------------




--------------------------------------- Iteration      1(   2)  ---------------------------------------


     EDDAV:  cpu time    4.3776: real time    4.4231
       DOS:  cpu time    0.0007: real time    0.0007
    --------------------------------------------
      LOOP:  cpu time    4.3783: real time    4.4238

 eigenvalue-minimisations  :  2160
 total energy-change (2. order) :-0.1236380E+04  (-0.1189521E+04)
 number of electron     176.0000000 magnetization 
 augmentation part      176.0000000 magnetization 

 Free energy of the ion-electron system (eV)
  ---------------------------------------------------
  alpha Z        PSCENC =       450.41350151
  Ewald energy   TEWEN  =     -9237.67801521
  -Hartree energ DENC   =     -3648.76039526
  -exchange      EXHF   =         0.00000000
  -V(xc)+E(xc)   XCENC  =       462.00779967
  PAW double counting   =     10816.98087266   -11353.96092700
  entropy T*S    EENTRO =        -0.00000000
  eigenvalues    EBANDS =     -1353.99519842
  atomic energy  EATOM  =     13290.28009929
  Solvation  Ediel_sol  =         0.00000000
  ---------------------------------------------------
  free energy    TOTEN  =      -574.71226276 eV

  energy without entropy =     -574.71226276  energy(sigma->0) =     -574.71226276


--------------------------------------------------------------------------------------------------------




--------------------------------------- Iteration      1(   3)  ---------------------------------------


     EDDAV:  cpu time    4.7656: real time    4.7892
       DOS:  cpu time    0.0003: real time    0.0003
    --------------------------------------------
      LOOP:  cpu time    4.7659: real time    4.7895

 eigenvalue-minimisations  :  2424
 total energy-change (2. order) :-0.1740989E+03  (-0.1728765E+03)
 number of electron     176.0000000 magnetization 
 augmentation part      176.0000000 magnetization 

 Free energy of the ion-electron system (eV)
  ---------------------------------------------------
  alpha Z        PSCENC =       450.41350151
  Ewald energy   TEWEN  =     -9237.67801521
  -Hartree energ DENC   =     -3648.76039526
  -exchange      EXHF   =         0.00000000
  -V(xc)+E(xc)   XCENC  =       462.00779967
  PAW double counting   =     10816.98087266   -11353.96092700
  entropy T*S    EENTRO =        -0.00000000
  eigenvalues    EBANDS =     -1528.09411092
  atomic energy  EATOM  =     13290.28009929
  Solvation  Ediel_sol  =         0.00000000
  ---------------------------------------------------
  free energy    TOTEN  =      -748.81117527 eV

  energy without entropy =     -748.81117527  energy(sigma->0) =     -748.81117527


--------------------------------------------------------------------------------------------------------




--------------------------------------- Iteration      1(   4)  ---------------------------------------


     EDDAV:  cpu time    4.4254: real time    4.4530
       DOS:  cpu time    0.0003: real time    0.0003
    --------------------------------------------
      LOOP:  cpu time    4.4257: real time    4.4533

 eigenvalue-minimisations  :  2184
 total energy-change (2. order) :-0.5739474E+01  (-0.5718196E+01)
 number of electron     176.0000000 magnetization 
 augmentation part      176.0000000 magnetization 

 Free energy of the ion-electron system (eV)
  ---------------------------------------------------
  alpha Z        PSCENC =       450.41350151
  Ewald energy   TEWEN  =     -9237.67801521
  -Hartree energ DENC   =     -3648.76039526
  -exchange      EXHF   =         0.00000000
  -V(xc)+E(xc)   XCENC  =       462.00779967
  PAW double counting   =     10816.98087266   -11353.96092700
  entropy T*S    EENTRO =        -0.00000000
  eigenvalues    EBANDS =     -1533.83358496
  atomic energy  EATOM  =     13290.28009929
  Solvation  Ediel_sol  =         0.00000000
  ---------------------------------------------------
  free energy    TOTEN  =      -754.55064930 eV

  energy without entropy =     -754.55064930  energy(sigma->0) =     -754.55064930


--------------------------------------------------------------------------------------------------------




--------------------------------------- Iteration      1(   5)  ---------------------------------------


     EDDAV:  cpu time    4.6182: real time    4.6550
       DOS:  cpu time    0.0004: real time    0.0004
    CHARGE:  cpu time    0.8625: real time    0.8625
    MIXING:  cpu time    0.0008: real time    0.0008
    --------------------------------------------
      LOOP:  cpu time    5.4818: real time    5.5187

 eigenvalue-minimisations  :  2336
 total energy-change (2. order) :-0.2692624E+00  (-0.2690573E+00)
 number of electron     176.0000002 magnetization 
 augmentation part       -3.2458321 magnetization 

 Broyden mixing:
  rms(total) = 0.70331E+00    rms(broyden)= 0.70309E+00
  rms(prec ) = 0.97340E+00
  weight for this iteration     100.00

 Free energy of the ion-electron system (eV)
  ---------------------------------------------------
  alpha Z        PSCENC =       450.41350151
  Ewald energy   TEWEN  =     -9237.67801521
  -Hartree energ DENC   =     -3648.76039526
  -exchange      EXHF   =         0.00000000
  -V(xc)+E(xc)   XCENC  =       462.00779967
  PAW double counting   =     10816.98087266   -11353.96092700
  entropy T*S    EENTRO =        -0.00000000
  eigenvalues    EBANDS =     -1534.10284738
  atomic energy  EATOM  =     13290.28009929
  Solvation  Ediel_sol  =         0.00000000
  ---------------------------------------------------
  free energy    TOTEN  =      -754.81991173 eV

  energy without entropy =     -754.81991173  energy(sigma->0) =     -754.81991173


--------------------------------------------------------------------------------------------------------




--------------------------------------- Iteration      1(   6)  ---------------------------------------


    POTLOK:  cpu time    0.1738: real time    0.1840
    SETDIJ:  cpu time    1.0884: real time    1.0885
     EDDAV:  cpu time    4.6914: real time    4.6917
       DOS:  cpu time    0.0004: real time    0.0004
    CHARGE:  cpu time    0.8316: real time    0.8316
    MIXING:  cpu time    0.0009: real time    0.0009
    --------------------------------------------
      LOOP:  cpu time    6.7865: real time    6.7970

 eigenvalue-minimisations  :  2408
 total energy-change (2. order) : 0.3980070E+02  (-0.1184806E+01)
 number of electron     176.0000002 magnetization 
 augmentation part       -2.5238582 magnetization 

 Broyden mixing:
  rms(total) = 0.50121E+00    rms(broyden)= 0.50115E+00
  rms(prec ) = 0.62172E+00
  weight for this iteration     100.00

 eigenvalues of (default mixing * dielectric matrix)
  average eigenvalue GAMMA=   1.1633
  1.1633

 Free energy of the ion-electron system (eV)
  ---------------------------------------------------
  alpha Z        PSCENC =       450.41350151
  Ewald energy   TEWEN  =     -9237.67801521
  -Hartree energ DENC   =     -3638.61185518
  -exchange      EXHF   =         0.00000000
  -V(xc)+E(xc)   XCENC  =       477.48620667
  PAW double counting   =     10964.04428946   -11500.13197192
  entropy T*S    EENTRO =        -0.00000000
  eigenvalues    EBANDS =     -1520.82146781
  atomic energy  EATOM  =     13290.28009929
  Solvation  Ediel_sol  =         0.00000000
  ---------------------------------------------------
  free energy    TOTEN  =      -715.01921319 eV

  energy without entropy =     -715.01921319  energy(sigma->0) =     -715.01921319


--------------------------------------------------------------------------------------------------------




--------------------------------------- Iteration      1(   7)  ---------------------------------------


    POTLOK:  cpu time    0.1554: real time    0.1678
    SETDIJ:  cpu time    1.0880: real time    1.0880
     EDDAV:  cpu time    4.4966: real time    4.4969
       DOS:  cpu time    0.0008: real time    0.0008
    CHARGE:  cpu time    0.8391: real time    0.8392
    MIXING:  cpu time    0.0011: real time    0.0011
    --------------------------------------------
      LOOP:  cpu time    6.5810: real time    6.5937

 eigenvalue-minimisations  :  2264
 total energy-change (2. order) : 0.2347171E+00  (-0.3827854E+00)
 number of electron     176.0000002 magnetization 
 augmentation part       -2.2616578 magnetization 

 Broyden mixing:
  rms(total) = 0.25888E+00    rms(broyden)= 0.25887E+00
  rms(prec ) = 0.28353E+00
  weight for this iteration     100.00

 eigenvalues of (default mixing * dielectric matrix)
  average eigenvalue GAMMA=   1.3157
  1.3157  1.3157

 Free energy of the ion-electron system (eV)
  ---------------------------------------------------
  alpha Z        PSCENC =       450.41350151
  Ewald energy   TEWEN  =     -9237.67801521
  -Hartree energ DENC   =     -3658.13741747
  -exchange      EXHF   =         0.00000000
  -V(xc)+E(xc)   XCENC  =       480.08822861
  PAW double counting   =     11270.20252294   -11805.39131084
  entropy T*S    EENTRO =        -0.00000000
  eigenvalues    EBANDS =     -1504.56210496
  atomic energy  EATOM  =     13290.28009929
  Solvation  Ediel_sol  =         0.00000000
  ---------------------------------------------------
  free energy    TOTEN  =      -714.78449613 eV

  energy without entropy =     -714.78449613  energy(sigma->0) =     -714.78449613


--------------------------------------------------------------------------------------------------------




--------------------------------------- Iteration      1(   8)  ---------------------------------------


    POTLOK:  cpu time    0.1370: real time    0.1433
    SETDIJ:  cpu time    1.0874: real time    1.0874
     EDDAV:  cpu time    4.3491: real time    4.3492
       DOS:  cpu time    0.0004: real time    0.0004
    CHARGE:  cpu time    0.8239: real time    0.8240
    MIXING:  cpu time    0.0009: real time    0.0009
    --------------------------------------------
      LOOP:  cpu time    6.3987: real time    6.4052

 eigenvalue-minimisations  :  2152
 total energy-change (2. order) :-0.9460001E-01  (-0.1808243E-01)
 number of electron     176.0000002 magnetization 
 augmentation part       -2.3028643 magnetization 

 Broyden mixing:
  rms(total) = 0.14821E+00    rms(broyden)= 0.14821E+00
  rms(prec ) = 0.16386E+00
  weight for this iteration     100.00

 eigenvalues of (default mixing * dielectric matrix)
  average eigenvalue GAMMA=   1.7152
  1.1110  1.2993  2.7352

 Free energy of the ion-electron system (eV)
  ---------------------------------------------------
  alpha Z        PSCENC =       450.41350151
  Ewald energy   TEWEN  =     -9237.67801521
  -Hartree energ DENC   =     -3660.34042258
  -exchange      EXHF   =         0.00000000
  -V(xc)+E(xc)   XCENC  =       480.46484009
  PAW double counting   =     11392.81770211   -11928.16555238
  entropy T*S    EENTRO =        -0.00000000
  eigenvalues    EBANDS =     -1502.67124896
  atomic energy  EATOM  =     13290.28009929
  Solvation  Ediel_sol  =         0.00000000
  ---------------------------------------------------
  free energy    TOTEN  =      -714.87909614 eV

  energy without entropy =     -714.87909614  energy(sigma->0) =     -714.87909614


--------------------------------------------------------------------------------------------------------




--------------------------------------- Iteration      1(   9)  ---------------------------------------


    POTLOK:  cpu time    0.1751: real time    0.1780
    SETDIJ:  cpu time    1.0868: real time    1.0868
     EDDAV:  cpu time    4.0968: real time    4.0971
       DOS:  cpu time    0.0010: real time    0.0010
    CHARGE:  cpu time    0.8272: real time    0.8273
    MIXING:  cpu time    0.0009: real time    0.0009
    --------------------------------------------
      LOOP:  cpu time    6.1878: real time    6.1911

 eigenvalue-minimisations  :  1968
 total energy-change (2. order) :-0.3934978E-01  (-0.8103667E-02)
 number of electron     176.0000002 magnetization 
 augmentation part       -2.3248969 magnetization 

 Broyden mixing:
  rms(total) = 0.32326E-01    rms(broyden)= 0.32324E-01
  rms(prec ) = 0.34663E-01
  weight for this iteration     100.00

 eigenvalues of (default mixing * dielectric matrix)
  average eigenvalue GAMMA=   1.4660
  2.5532  1.2416  1.2416  0.8276

 Free energy of the ion-electron system (eV)
  ---------------------------------------------------
  alpha Z        PSCENC =       450.41350151
  Ewald energy   TEWEN  =     -9237.67801521
  -Hartree energ DENC   =     -3662.81084558
  -exchange      EXHF   =         0.00000000
  -V(xc)+E(xc)   XCENC  =       481.46727592
  PAW double counting   =     11565.58615770   -12101.30834665
  entropy T*S    EENTRO =        -0.00000000
  eigenvalues    EBANDS =     -1500.86827291
  atomic energy  EATOM  =     13290.28009929
  Solvation  Ediel_sol  =         0.00000000
  ---------------------------------------------------
  free energy    TOTEN  =      -714.91844592 eV

  energy without entropy =     -714.91844592  energy(sigma->0) =     -714.91844592


--------------------------------------------------------------------------------------------------------




--------------------------------------- Iteration      1(  10)  ---------------------------------------


    POTLOK:  cpu time    0.1467: real time    0.1653
    SETDIJ:  cpu time    1.0878: real time    1.0879
     EDDAV:  cpu time    4.9186: real time    4.9188
       DOS:  cpu time    0.0003: real time    0.0003
    CHARGE:  cpu time    0.8296: real time    0.8296
    MIXING:  cpu time    0.0010: real time    0.0010
    --------------------------------------------
      LOOP:  cpu time    6.9841: real time    7.0029

 eigenvalue-minimisations  :  2584
 total energy-change (2. order) :-0.8249545E-03  (-0.4795753E-03)
 number of electron     176.0000002 magnetization 
 augmentation part       -2.3181049 magnetization 

 Broyden mixing:
  rms(total) = 0.18239E-01    rms(broyden)= 0.18239E-01
  rms(prec ) = 0.20334E-01
  weight for this iteration     100.00

 eigenvalues of (default mixing * dielectric matrix)
  average eigenvalue GAMMA=   1.5949
  2.4302  2.4302  1.1322  1.1322  0.8497

 Free energy of the ion-electron system (eV)
  ---------------------------------------------------
  alpha Z        PSCENC =       450.41350151
  Ewald energy   TEWEN  =     -9237.67801521
  -Hartree energ DENC   =     -3661.90194800
  -exchange      EXHF   =         0.00000000
  -V(xc)+E(xc)   XCENC  =       481.35967940
  PAW double counting   =     11547.46195699   -12083.22326469
  entropy T*S    EENTRO =        -0.00000000
  eigenvalues    EBANDS =     -1501.63128016
  atomic energy  EATOM  =     13290.28009929
  Solvation  Ediel_sol  =         0.00000000
  ---------------------------------------------------
  free energy    TOTEN  =      -714.91927088 eV

  energy without entropy =     -714.91927088  energy(sigma->0) =     -714.91927088


--------------------------------------------------------------------------------------------------------




--------------------------------------- Iteration      1(  11)  ---------------------------------------


    POTLOK:  cpu time    0.1382: real time    0.1693
    SETDIJ:  cpu time    1.0907: real time    1.0907
     EDDAV:  cpu time    4.1197: real time    4.1199
       DOS:  cpu time    0.0004: real time    0.0004
    CHARGE:  cpu time    0.8304: real time    0.8305
    MIXING:  cpu time    0.0010: real time    0.0010
    --------------------------------------------
      LOOP:  cpu time    6.1803: real time    6.2117

 eigenvalue-minimisations  :  1984
 total energy-change (2. order) :-0.1492590E-02  (-0.1654606E-03)
 number of electron     176.0000002 magnetization 
 augmentation part       -2.3175895 magnetization 

 Broyden mixing:
  rms(total) = 0.66820E-02    rms(broyden)= 0.66817E-02
  rms(prec ) = 0.81430E-02
  weight for this iteration     100.00

 eigenvalues of (default mixing * dielectric matrix)
  average eigenvalue GAMMA=   1.5803
  2.5993  2.5993  1.2249  1.2249  0.9167  0.9167

 Free energy of the ion-electron system (eV)
  ---------------------------------------------------
  alpha Z        PSCENC =       450.41350151
  Ewald energy   TEWEN  =     -9237.67801521
  -Hartree energ DENC   =     -3660.56640173
  -exchange      EXHF   =         0.00000000
  -V(xc)+E(xc)   XCENC  =       481.31190800
  PAW double counting   =     11532.97220681   -12068.89279794
  entropy T*S    EENTRO =        -0.00000000
  eigenvalues    EBANDS =     -1502.76126419
  atomic energy  EATOM  =     13290.28009929
  Solvation  Ediel_sol  =         0.00000000
  ---------------------------------------------------
  free energy    TOTEN  =      -714.92076347 eV

  energy without entropy =     -714.92076347  energy(sigma->0) =     -714.92076347


--------------------------------------------------------------------------------------------------------




--------------------------------------- Iteration      1(  12)  ---------------------------------------


    POTLOK:  cpu time    0.1485: real time    0.1713
    SETDIJ:  cpu time    1.0935: real time    1.0935
     EDDAV:  cpu time    4.3865: real time    4.3868
       DOS:  cpu time    0.0004: real time    0.0004
    CHARGE:  cpu time    0.8268: real time    0.8269
    MIXING:  cpu time    0.0010: real time    0.0010
    --------------------------------------------
      LOOP:  cpu time    6.4567: real time    6.4799

 eigenvalue-minimisations  :  2184
 total energy-change (2. order) :-0.6406230E-04  (-0.4471587E-04)
 number of electron     176.0000002 magnetization 
 augmentation part       -2.3194068 magnetization 

 Broyden mixing:
  rms(total) = 0.22656E-02    rms(broyden)= 0.22650E-02
  rms(prec ) = 0.25761E-02
  weight for this iteration     100.00

 eigenvalues of (default mixing * dielectric matrix)
  average eigenvalue GAMMA=   1.6333
  3.0634  2.2856  1.9336  0.9569  0.9569  1.1538  1.0828

 Free energy of the ion-electron system (eV)
  ---------------------------------------------------
  alpha Z        PSCENC =       450.41350151
  Ewald energy   TEWEN  =     -9237.67801521
  -Hartree energ DENC   =     -3660.70007918
  -exchange      EXHF   =         0.00000000
  -V(xc)+E(xc)   XCENC  =       481.37240973
  PAW double counting   =     11538.13228660   -12074.10147104
  entropy T*S    EENTRO =        -0.00000000
  eigenvalues    EBANDS =     -1502.63955923
  atomic energy  EATOM  =     13290.28009929
  Solvation  Ediel_sol  =         0.00000000
  ---------------------------------------------------
  free energy    TOTEN  =      -714.92082753 eV

  energy without entropy =     -714.92082753  energy(sigma->0) =     -714.92082753


--------------------------------------------------------------------------------------------------------




--------------------------------------- Iteration      1(  13)  ---------------------------------------


    POTLOK:  cpu time    0.1188: real time    0.1769
    SETDIJ:  cpu time    1.0888: real time    1.0888
     EDDAV:  cpu time    4.4252: real time    4.4254
       DOS:  cpu time    0.0004: real time    0.0004
    CHARGE:  cpu time    0.8296: real time    0.8296
    MIXING:  cpu time    0.0013: real time    0.0013
    --------------------------------------------
      LOOP:  cpu time    6.4640: real time    6.5223

 eigenvalue-minimisations  :  2216
 total energy-change (2. order) : 0.6095609E-06  (-0.4392943E-05)
 number of electron     176.0000002 magnetization 
 augmentation part       -2.3193471 magnetization 

 Broyden mixing:
  rms(total) = 0.69150E-03    rms(broyden)= 0.69020E-03
  rms(prec ) = 0.75230E-03
  weight for this iteration     100.00

 eigenvalues of (default mixing * dielectric matrix)
  average eigenvalue GAMMA=   1.6245
  2.9750  2.4180  2.1105  1.2772  1.2772  0.9375  1.0003  1.0003

 Free energy of the ion-electron system (eV)
  ---------------------------------------------------
  alpha Z        PSCENC =       450.41350151
  Ewald energy   TEWEN  =     -9237.67801521
  -Hartree energ DENC   =     -3660.85644611
  -exchange      EXHF   =         0.00000000
  -V(xc)+E(xc)   XCENC  =       481.38602003
  PAW double counting   =     11537.01725119   -12072.99111539
  entropy T*S    EENTRO =        -0.00000000
  eigenvalues    EBANDS =     -1502.49212223
  atomic energy  EATOM  =     13290.28009929
  Solvation  Ediel_sol  =         0.00000000
  ---------------------------------------------------
  free energy    TOTEN  =      -714.92082692 eV

  energy without entropy =     -714.92082692  energy(sigma->0) =     -714.92082692


--------------------------------------------------------------------------------------------------------




--------------------------------------- Iteration      1(  14)  ---------------------------------------


    POTLOK:  cpu time    0.1404: real time    0.1588
    SETDIJ:  cpu time    1.0901: real time    1.0902
     EDDAV:  cpu time    3.8085: real time    3.8087
       DOS:  cpu time    0.0006: real time    0.0006
    CHARGE:  cpu time    0.8404: real time    0.8404
    MIXING:  cpu time    0.0011: real time    0.0011
    --------------------------------------------
      LOOP:  cpu time    5.8810: real time    5.8998

 eigenvalue-minimisations  :  1712
 total energy-change (2. order) :-0.1512211E-04  (-0.2679744E-06)
 number of electron     176.0000002 magnetization 
 augmentation part       -2.3191593 magnetization 

 Broyden mixing:
  rms(total) = 0.19860E-03    rms(broyden)= 0.19421E-03
  rms(prec ) = 0.23741E-03
  weight for this iteration     100.00

 eigenvalues of (default mixing * dielectric matrix)
  average eigenvalue GAMMA=   1.6895
  2.8630  2.8630  2.1320  2.1320  1.1461  1.1461  0.9291  0.9969  0.9969

 Free energy of the ion-electron system (eV)
  ---------------------------------------------------
  alpha Z        PSCENC =       450.41350151
  Ewald energy   TEWEN  =     -9237.67801521
  -Hartree energ DENC   =     -3660.86506300
  -exchange      EXHF   =         0.00000000
  -V(xc)+E(xc)   XCENC  =       481.38555072
  PAW double counting   =     11536.62720695   -12072.59928609
  entropy T*S    EENTRO =        -0.00000000
  eigenvalues    EBANDS =     -1502.48483621
  atomic energy  EATOM  =     13290.28009929
  Solvation  Ediel_sol  =         0.00000000
  ---------------------------------------------------
  free energy    TOTEN  =      -714.92084204 eV

  energy without entropy =     -714.92084204  energy(sigma->0) =     -714.92084204


--------------------------------------------------------------------------------------------------------




--------------------------------------- Iteration      1(  15)  ---------------------------------------


    POTLOK:  cpu time    0.1381: real time    0.1724
    SETDIJ:  cpu time    1.0898: real time    1.0898
     EDDAV:  cpu time    3.2604: real time    3.2606
       DOS:  cpu time    0.0004: real time    0.0004
    CHARGE:  cpu time    0.8457: real time    0.8457
    MIXING:  cpu time    0.0011: real time    0.0011
    --------------------------------------------
      LOOP:  cpu time    5.3355: real time    5.3700

 eigenvalue-minimisations  :  1280
 total energy-change (2. order) :-0.3956805E-05  (-0.4935547E-07)
 number of electron     176.0000002 magnetization 
 augmentation part       -2.3191589 magnetization 

 Broyden mixing:
  rms(total) = 0.90761E-04    rms(broyden)= 0.80744E-04
  rms(prec ) = 0.92014E-04
  weight for this iteration     100.00
  WARNING: grid for Broyden might be to small

 eigenvalues of (default mixing * dielectric matrix)
  average eigenvalue GAMMA=   1.6545
  3.0930  2.6606  2.4956  1.9179  1.2182  1.2182  1.0298  1.0298  0.9412  0.9412

 Free energy of the ion-electron system (eV)
  ---------------------------------------------------
  alpha Z        PSCENC =       450.41350151
  Ewald energy   TEWEN  =     -9237.67801521
  -Hartree energ DENC   =     -3660.85315951
  -exchange      EXHF   =         0.00000000
  -V(xc)+E(xc)   XCENC  =       481.38489056
  PAW double counting   =     11536.61031565   -12072.58243609
  entropy T*S    EENTRO =        -0.00000000
  eigenvalues    EBANDS =     -1502.49604220
  atomic energy  EATOM  =     13290.28009929
  Solvation  Ediel_sol  =         0.00000000
  ---------------------------------------------------
  free energy    TOTEN  =      -714.92084600 eV

  energy without entropy =     -714.92084600  energy(sigma->0) =     -714.92084600


--------------------------------------------------------------------------------------------------------




--------------------------------------- Iteration      1(  16)  ---------------------------------------


    POTLOK:  cpu time    0.1353: real time    0.1707
    SETDIJ:  cpu time    1.0914: real time    1.0914
     EDDAV:  cpu time    3.1781: real time    3.1783
       DOS:  cpu time    0.0004: real time    0.0004
    CHARGE:  cpu time    0.8249: real time    0.8249
    MIXING:  cpu time    0.0012: real time    0.0012
    --------------------------------------------
      LOOP:  cpu time    5.2312: real time    5.2669

 eigenvalue-minimisations  :  1216
 total energy-change (2. order) : 0.3265391E-05  (-0.1563487E-07)
 number of electron     176.0000002 magnetization 
 augmentation part       -2.3192101 magnetization 

 Broyden mixing:
  rms(total) = 0.53250E-04    rms(broyden)= 0.33436E-04
  rms(prec ) = 0.38005E-04
  weight for this iteration     100.00
  WARNING: grid for Broyden might be to small

 eigenvalues of (default mixing * dielectric matrix)
  average eigenvalue GAMMA=   1.6921
  3.0657  2.7332  2.7332  1.9246  1.9246  1.1850  1.1850  0.9896  0.9896  0.9410
  0.9410

 Free energy of the ion-electron system (eV)
  ---------------------------------------------------
  alpha Z        PSCENC =       450.41350151
  Ewald energy   TEWEN  =     -9237.67801521
  -Hartree energ DENC   =     -3660.85798519
  -exchange      EXHF   =         0.00000000
  -V(xc)+E(xc)   XCENC  =       481.38531925
  PAW double counting   =     11536.62751915   -12072.59947485
  entropy T*S    EENTRO =        -0.00000000
  eigenvalues    EBANDS =     -1502.49180668
  atomic energy  EATOM  =     13290.28009929
  Solvation  Ediel_sol  =         0.00000000
  ---------------------------------------------------
  free energy    TOTEN  =      -714.92084273 eV

  energy without entropy =     -714.92084273  energy(sigma->0) =     -714.92084273


--------------------------------------------------------------------------------------------------------




--------------------------------------- Iteration      1(  17)  ---------------------------------------


    POTLOK:  cpu time    0.1626: real time    0.1739
    SETDIJ:  cpu time    1.0862: real time    1.0862
     EDDAV:  cpu time    3.0744: real time    3.0745
       DOS:  cpu time    0.0004: real time    0.0004
    CHARGE:  cpu time    0.8258: real time    0.8258
    MIXING:  cpu time    0.0014: real time    0.0014
    --------------------------------------------
      LOOP:  cpu time    5.1508: real time    5.1623

 eigenvalue-minimisations  :  1136
 total energy-change (2. order) : 0.1286992E-05  (-0.1567392E-07)
 number of electron     176.0000002 magnetization 
 augmentation part       -2.3191900 magnetization 

 Broyden mixing:
  rms(total) = 0.50721E-04    rms(broyden)= 0.29244E-04
  rms(prec ) = 0.30683E-04
  weight for this iteration     100.00
  WARNING: grid for Broyden might be to small

 eigenvalues of (default mixing * dielectric matrix)
  average eigenvalue GAMMA=   1.5842
  3.1227  2.9346  2.5965  1.9159  1.9159  1.1854  1.1854  0.9896  0.9896  0.9421
  0.9421  0.2908

 Free energy of the ion-electron system (eV)
  ---------------------------------------------------
  alpha Z        PSCENC =       450.41350151
  Ewald energy   TEWEN  =     -9237.67801521
  -Hartree energ DENC   =     -3660.86049015
  -exchange      EXHF   =         0.00000000
  -V(xc)+E(xc)   XCENC  =       481.38550441
  PAW double counting   =     11536.62352669   -12072.59640916
  entropy T*S    EENTRO =        -0.00000000
  eigenvalues    EBANDS =     -1502.48855882
  atomic energy  EATOM  =     13290.28009929
  Solvation  Ediel_sol  =         0.00000000
  ---------------------------------------------------
  free energy    TOTEN  =      -714.92084145 eV

  energy without entropy =     -714.92084145  energy(sigma->0) =     -714.92084145


--------------------------------------------------------------------------------------------------------




--------------------------------------- Iteration      1(  18)  ---------------------------------------


    POTLOK:  cpu time    0.1399: real time    0.1657
    SETDIJ:  cpu time    1.0869: real time    1.0869
     EDDAV:  cpu time    3.0395: real time    3.0397
       DOS:  cpu time    0.0003: real time    0.0003
    --------------------------------------------
      LOOP:  cpu time    4.2665: real time    4.2927

 eigenvalue-minimisations  :  1112
 total energy-change (2. order) : 0.1247197E-06  (-0.1016523E-07)
 number of electron     176.0000002 magnetization 
 augmentation part       -2.3191900 magnetization 

 Free energy of the ion-electron system (eV)
  ---------------------------------------------------
  alpha Z        PSCENC =       450.41350151
  Ewald energy   TEWEN  =     -9237.67801521
  -Hartree energ DENC   =     -3660.86058037
  -exchange      EXHF   =         0.00000000
  -V(xc)+E(xc)   XCENC  =       481.38547198
  PAW double counting   =     11536.61858327   -12072.59058006
  entropy T*S    EENTRO =        -0.00000000
  eigenvalues    EBANDS =     -1502.48932174
  atomic energy  EATOM  =     13290.28009929
  Solvation  Ediel_sol  =         0.00000000
  ---------------------------------------------------
  free energy    TOTEN  =      -714.92084132 eV

  energy without entropy =     -714.92084132  energy(sigma->0) =     -714.92084132


--------------------------------------------------------------------------------------------------------




 average (electrostatic) potential at core
  the test charge radii are     1.1312  1.1541  1.0178
  (the norm of the test charge is              1.0000)
       1 -55.2173       2 -55.2172       3 -55.2173       4 -55.2172       5-101.6486
       6-101.6486       7-101.6486       8-101.6486       9 -68.9718      10 -68.9718
      11 -68.9718      12 -68.9718      13 -68.9624      14 -68.9624      15 -68.9624
      16 -68.9624      17 -68.9624      18 -68.9624      19 -68.9624      20 -68.9624



 E-fermi :   0.5542     XC(G=0):  -8.0882     alpha+bet : -7.0663


 k-point     1 :       0.0000    0.0000    0.0000
  band No.  band energies     occupation 
      1     -20.7490      2.00000
      2     -20.7472      2.00000
      3     -20.7448      2.00000
      4     -20.7437      2.00000
      5     -16.4649      2.00000
      6     -16.4558      2.00000
      7     -16.4557      2.00000
      8     -16.4393      2.00000
      9     -16.4092      2.00000
     10     -16.3782      2.00000
     11     -16.3706      2.00000
     12     -16.3705      2.00000
     13     -16.3129      2.00000
     14     -16.3124      2.00000
     15     -16.3120      2.00000
     16     -16.3114      2.00000
     17     -16.3070      2.00000
     18     -16.3065      2.00000
     19     -16.3059      2.00000
     20     -16.3055      2.00000
     21     -16.2993      2.00000
     22     -16.2989      2.00000
     23     -16.2980      2.00000
     24     -16.2978      2.00000
     25     -14.3154      2.00000
     26     -14.1387      2.00000
     27     -14.0053      2.00000
     28     -14.0017      2.00000
     29     -13.9989      2.00000
     30     -13.9902      2.00000
     31     -13.9625      2.00000
     32     -13.9560      2.00000
     33     -13.9426      2.00000
     34     -13.7305      2.00000
     35     -13.7227      2.00000
     36     -13.7197      2.00000
     37      -8.1447      2.00000
     38      -7.6525      2.00000
     39      -7.2002      2.00000
     40      -7.1812      2.00000
     41      -7.1806      2.00000
     42      -7.1708      2.00000
     43      -7.1626      2.00000
     44      -7.1596      2.00000
     45      -7.1564      2.00000
     46      -7.1474      2.00000
     47      -7.1396      2.00000
     48      -7.1354      2.00000
     49      -7.1267      2.00000
     50      -7.1161      2.00000
     51      -7.0892      2.00000
     52      -6.5347      2.00000
     53      -3.2768      2.00000
     54      -3.2565      2.00000
     55      -3.2061      2.00000
     56      -3.1440      2.00000
     57      -3.1002      2.00000
     58      -3.0591      2.00000
     59      -2.1200      2.00000
     60      -1.8958      2.00000
     61      -1.8567      2.00000
     62      -1.8330      2.00000
     63      -1.8265      2.00000
     64      -1.7207      2.00000
     65      -1.6048      2.00000
     66      -1.5106      2.00000
     67      -1.4839      2.00000
     68      -1.4822      2.00000
     69      -1.4088      2.00000
     70      -1.4003      2.00000
     71      -1.3932      2.00000
     72      -1.3852      2.00000
     73      -1.3712      2.00000
     74      -1.3372      2.00000
     75      -1.3147      2.00000
     76      -1.3131      2.00000
     77      -1.3058      2.00000
     78      -1.1251      2.00000
     79      -1.1147      2.00000
     80      -1.1120      2.00000
     81      -1.0510      2.00000
     82      -1.0193      2.00000
     83      -0.9965      2.00000
     84      -0.9580      2.00000
     85      -0.7874      2.00000
     86      -0.6046      2.00000
     87      -0.1520      2.00000
     88       0.4387      2.00000
     89       2.7146      0.00000
     90       2.7671      0.00000
     91       2.9421      0.00000
     92       3.1143      0.00000
     93       3.3756      0.00000
     94       3.4914      0.00000
     95       4.9463      0.00000
     96       5.6685      0.00000
     97       5.8005      0.00000
     98       5.8874      0.00000
     99       6.0679      0.00000
    100       6.0809      0.00000
    101       6.1641      0.00000
    102       6.2189      0.00000
    103       6.2412      0.00000
    104       6.4187      0.00000
    105       6.5146      0.00000
    106       6.5173      0.00000
    107       6.6150      0.00000
    108       6.7739      0.00000
    109       6.8917      0.00000
    110       7.0099      0.00000
    111       7.0152      0.00000
    112       7.1135      0.00000

 k-point     2 :       0.3333    0.0000    0.0000
  band No.  band energies     occupation 
      1     -20.7479      2.00000
      2     -20.7462      2.00000
      3     -20.7457      2.00000
      4     -20.7444      2.00000
      5     -16.4582      2.00000
      6     -16.4456      2.00000
      7     -16.4354      2.00000
      8     -16.4353      2.00000
      9     -16.4012      2.00000
     10     -16.3929      2.00000
     11     -16.3928      2.00000
     12     -16.3857      2.00000
     13     -16.3128      2.00000
     14     -16.3125      2.00000
     15     -16.3119      2.00000
     16     -16.3114      2.00000
     17     -16.3067      2.00000
     18     -16.3062      2.00000
     19     -16.3061      2.00000
     20     -16.3056      2.00000
     21     -16.2989      2.00000
     22     -16.2986      2.00000
     23     -16.2983      2.00000
     24     -16.2980      2.00000
     25     -14.2679      2.00000
     26     -14.1396      2.00000
     27     -14.1040      2.00000
     28     -14.0298      2.00000
     29     -14.0047      2.00000
     30     -14.0022      2.00000
     31     -13.9025      2.00000
     32     -13.8965      2.00000
     33     -13.8300      2.00000
     34     -13.7826      2.00000
     35     -13.7785      2.00000
     36     -13.7532      2.00000
     37      -7.9380      2.00000
     38      -7.4671      2.00000
     39      -7.4440      2.00000
     40      -7.2056      2.00000
     41      -7.1734      2.00000
     42      -7.1712      2.00000
     43      -7.1627      2.00000
     44      -7.1529      2.00000
     45      -7.1497      2.00000
     46      -7.1386      2.00000
     47      -7.1357      2.00000
     48      -7.1216      2.00000
     49      -7.1208      2.00000
     50      -7.1141      2.00000
     51      -7.1043      2.00000
     52      -6.8722      2.00000
     53      -3.2236      2.00000
     54      -3.1280      2.00000
     55      -2.9247      2.00000
     56      -2.7998      2.00000
     57      -2.7272      2.00000
     58      -2.7051      2.00000
     59      -2.2150      2.00000
     60      -2.0869      2.00000
     61      -2.0565      2.00000
     62      -1.9574      2.00000
     63      -1.9530      2.00000
     64      -1.9254      2.00000
     65      -1.7759      2.00000
     66      -1.6611      2.00000
     67      -1.6302      2.00000
     68      -1.5944      2.00000
     69      -1.4398      2.00000
     70      -1.4085      2.00000
     71      -1.3914      2.00000
     72      -1.3716      2.00000
     73      -1.3488      2.00000
     74      -1.3390      2.00000
     75      -1.2825      2.00000
     76      -1.2797      2.00000
     77      -1.2242      2.00000
     78      -1.1791      2.00000
     79      -1.1757      2.00000
     80      -1.1161      2.00000
     81      -1.0770      2.00000
     82      -1.0669      2.00000
     83      -1.0097      2.00000
     84      -0.9744      2.00000
     85      -0.7666      2.00000
     86      -0.6389      2.00000
     87      -0.4853      2.00000
     88      -0.0727      2.00000
     89       2.9349      0.00000
     90       3.2759      0.00000
     91       3.4911      0.00000
     92       3.8117      0.00000
     93       3.8503      0.00000
     94       4.1775      0.00000
     95       4.9853      0.00000
     96       5.1950      0.00000
     97       5.2501      0.00000
     98       5.3055      0.00000
     99       5.8117      0.00000
    100       5.8374      0.00000
    101       6.1650      0.00000
    102       6.2544      0.00000
    103       6.4446      0.00000
    104       6.4817      0.00000
    105       6.5158      0.00000
    106       6.5218      0.00000
    107       6.5313      0.00000
    108       6.7595      0.00000
    109       6.9355      0.00000
    110       7.0406      0.00000
    111       7.1567      0.00000
    112       7.1748      0.00000

 k-point     3 :       0.0000    0.5000    0.0000
  band No.  band energies     occupation 
      1     -20.7480      2.00000
      2     -20.7480      2.00000
      3     -20.7442      2.00000
      4     -20.7442      2.00000
      5     -16.4557      2.00000
      6     -16.4557      2.00000
      7     -16.4373      2.00000
      8     -16.4373      2.00000
      9     -16.4092      2.00000
     10     -16.4092      2.00000
     11     -16.3705      2.00000
     12     -16.3705      2.00000
     13     -16.3125      2.00000
     14     -16.3125      2.00000
     15     -16.3118      2.00000
     16     -16.3118      2.00000
     17     -16.3066      2.00000
     18     -16.3066      2.00000
     19     -16.3056      2.00000
     20     -16.3056      2.00000
     21     -16.2990      2.00000
     22     -16.2990      2.00000
     23     -16.2978      2.00000
     24     -16.2978      2.00000
     25     -14.2596      2.00000
     26     -14.2596      2.00000
     27     -13.9953      2.00000
     28     -13.9953      2.00000
     29     -13.9709      2.00000
     30     -13.9709      2.00000
     31     -13.9594      2.00000
     32     -13.9594      2.00000
     33     -13.8346      2.00000
     34     -13.8346      2.00000
     35     -13.7212      2.00000
     36     -13.7212      2.00000
     37      -7.9171      2.00000
     38      -7.9171      2.00000
     39      -7.1914      2.00000
     40      -7.1914      2.00000
     41      -7.1742      2.00000
     42      -7.1741      2.00000
     43      -7.1497      2.00000
     44      -7.1497      2.00000
     45      -7.1414      2.00000
     46      -7.1414      2.00000
     47      -7.1334      2.00000
     48      -7.1334      2.00000
     49      -7.1224      2.00000
     50      -7.1224      2.00000
     51      -6.8860      2.00000
     52      -6.8860      2.00000
     53      -3.2136      2.00000
     54      -3.2136      2.00000
     55      -3.1542      2.00000
     56      -3.1542      2.00000
     57      -2.4451      2.00000
     58      -2.4451      2.00000
     59      -2.2982      2.00000
     60      -2.2982      2.00000
     61      -1.9934      2.00000
     62      -1.9934      2.00000
     63      -1.7798      2.00000
     64      -1.7798      2.00000
     65      -1.7422      2.00000
     66      -1.7422      2.00000
     67      -1.4762      2.00000
     68      -1.4762      2.00000
     69      -1.4405      2.00000
     70      -1.4405      2.00000
     71      -1.3775      2.00000
     72      -1.3775      2.00000
     73      -1.3230      2.00000
     74      -1.3230      2.00000
     75      -1.2882      2.00000
     76      -1.2882      2.00000
     77      -1.1824      2.00000
     78      -1.1824      2.00000
     79      -1.1405      2.00000
     80      -1.1405      2.00000
     81      -1.0914      2.00000
     82      -1.0914      2.00000
     83      -1.0422      2.00000
     84      -1.0422      2.00000
     85      -0.8026      2.00000
     86      -0.8026      2.00000
     87      -0.0178      2.00000
     88      -0.0178      2.00000
     89       2.9255      0.00000
     90       2.9255      0.00000
     91       3.1558      0.00000
     92       3.1558      0.00000
     93       4.3041      0.00000
     94       4.3041      0.00000
     95       4.8668      0.00000
     96       4.8668      0.00000
     97       5.5947      0.00000
     98       5.5947      0.00000
     99       5.9539      0.00000
    100       5.9539      0.00000
    101       6.1091      0.00000
    102       6.1091      0.00000
    103       6.3007      0.00000
    104       6.3007      0.00000
[...]
     60      -2.3522      2.00000
     61      -2.1759      2.00000
     62      -2.1759      2.00000
     63      -1.9883      2.00000
     64      -1.9883      2.00000
     65      -1.6695      2.00000
     66      -1.6695      2.00000
     67      -1.6320      2.00000
     68      -1.6320      2.00000
     69      -1.4998      2.00000
     70      -1.4998      2.00000
     71      -1.4306      2.00000
     72      -1.4306      2.00000
     73      -1.3163      2.00000
     74      -1.3163      2.00000
     75      -1.2990      2.00000
     76      -1.2990      2.00000
     77      -1.1695      2.00000
     78      -1.1695      2.00000
     79      -1.1155      2.00000
     80      -1.1155      2.00000
     81      -1.1004      2.00000
     82      -1.1004      2.00000
     83      -1.0612      2.00000
     84      -1.0612      2.00000
     85      -0.8643      2.00000
     86      -0.8643      2.00000
     87      -0.6154      2.00000
     88      -0.6154      2.00000
     89       3.7736      0.00000
     90       3.7736      0.00000
     91       3.8502      0.00000
     92       3.8502      0.00000
     93       4.4325      0.00000
     94       4.4325      0.00000
     95       4.7178      0.00000
     96       4.7178      0.00000
     97       5.1493      0.00000
     98       5.1493      0.00000
     99       5.2888      0.00000
    100       5.2888      0.00000
    101       6.0950      0.00000
    102       6.0950      0.00000
    103       6.3199      0.00000
    104       6.3199      0.00000
    105       6.4978      0.00000
    106       6.4978      0.00000
    107       6.6773      0.00000
    108       6.6773      0.00000
    109       6.9013      0.00000
    110       6.9013      0.00000
    111       7.0967      0.00000
    112       7.0973      0.00000

 k-point     8 :       0.3333    0.5000    0.3333
  band No.  band energies     occupation 
      1     -20.7466      2.00000
      2     -20.7466      2.00000
      3     -20.7455      2.00000
      4     -20.7455      2.00000
      5     -16.4439      2.00000
      6     -16.4439      2.00000
      7     -16.4314      2.00000
      8     -16.4314      2.00000
      9     -16.4078      2.00000
     10     -16.4078      2.00000
     11     -16.3920      2.00000
     12     -16.3920      2.00000
     13     -16.3122      2.00000
     14     -16.3122      2.00000
     15     -16.3121      2.00000
     16     -16.3121      2.00000
     17     -16.3062      2.00000
     18     -16.3062      2.00000
     19     -16.3060      2.00000
     20     -16.3060      2.00000
     21     -16.2986      2.00000
     22     -16.2986      2.00000
     23     -16.2983      2.00000
     24     -16.2983      2.00000
     25     -14.1695      2.00000
     26     -14.1695      2.00000
     27     -14.0849      2.00000
     28     -14.0849      2.00000
     29     -13.9877      2.00000
     30     -13.9877      2.00000
     31     -13.9072      2.00000
     32     -13.9072      2.00000
     33     -13.8190      2.00000
     34     -13.8190      2.00000
     35     -13.7869      2.00000
     36     -13.7869      2.00000
     37      -7.5764      2.00000
     38      -7.5764      2.00000
     39      -7.3351      2.00000
     40      -7.3351      2.00000
     41      -7.1700      2.00000
     42      -7.1700      2.00000
     43      -7.1520      2.00000
     44      -7.1520      2.00000
     45      -7.1380      2.00000
     46      -7.1380      2.00000
     47      -7.1331      2.00000
     48      -7.1331      2.00000
     49      -7.1244      2.00000
     50      -7.1244      2.00000
     51      -7.1021      2.00000
     52      -7.1021      2.00000
     53      -3.0993      2.00000
     54      -3.0993      2.00000
     55      -2.7461      2.00000
     56      -2.7461      2.00000
     57      -2.4819      2.00000
     58      -2.4819      2.00000
     59      -2.3635      2.00000
     60      -2.3635      2.00000
     61      -2.1226      2.00000
     62      -2.1226      2.00000
     63      -1.9721      2.00000
     64      -1.9721      2.00000
     65      -1.7053      2.00000
     66      -1.7053      2.00000
     67      -1.6254      2.00000
     68      -1.6254      2.00000
     69      -1.4755      2.00000
     70      -1.4755      2.00000
     71      -1.3928      2.00000
     72      -1.3928      2.00000
     73      -1.3319      2.00000
     74      -1.3319      2.00000
     75      -1.2410      2.00000
     76      -1.2410      2.00000
     77      -1.2026      2.00000
     78      -1.2026      2.00000
     79      -1.1371      2.00000
     80      -1.1371      2.00000
     81      -1.0881      2.00000
     82      -1.0881      2.00000
     83      -1.0374      2.00000
     84      -1.0374      2.00000
     85      -0.7899      2.00000
     86      -0.7899      2.00000
     87      -0.5390      2.00000
     88      -0.5390      2.00000
     89       3.2735      0.00000
     90       3.2735      0.00000
     91       4.0479      0.00000
     92       4.0479      0.00000
     93       4.5022      0.00000
     94       4.5022      0.00000
     95       4.6262      0.00000
     96       4.6262      0.00000
     97       5.0662      0.00000
     98       5.0662      0.00000
     99       5.7654      0.00000
    100       5.7654      0.00000
    101       6.3495      0.00000
    102       6.3495      0.00000
    103       6.4593      0.00000
    104       6.4593      0.00000
    105       6.6518      0.00000
    106       6.6518      0.00000
    107       6.8283      0.00000
    108       6.8283      0.00000
    109       6.8547      0.00000
    110       6.8547      0.00000
    111       7.0274      0.00000
    112       7.0274      0.00000


--------------------------------------------------------------------------------------------------------


 soft charge-density along one line, spin component           1
         0         1         2         3         4         5         6         7         8         9
 total charge-density along one line

 pseudopotential strength for first ion, spin component:           1
 17.945  -4.698  -0.000  -0.001  -0.001   0.000   0.002   0.001
 -4.698   1.238   0.000   0.000   0.000  -0.000  -0.000  -0.000
 -0.000   0.000   2.254  -0.000  -0.000  -2.693   0.000   0.000
 -0.001   0.000  -0.000   2.255  -0.001   0.000  -2.695   0.001
 -0.001   0.000  -0.000  -0.001   2.254   0.000   0.001  -2.694
  0.000  -0.000  -2.693   0.000   0.000   3.186  -0.000  -0.000
  0.002  -0.000   0.000  -2.695   0.001  -0.000   3.188  -0.001
  0.001  -0.000   0.000   0.001  -2.694  -0.000  -0.001   3.186
 -0.000   0.000   0.000  -0.000  -0.000  -0.000   0.000   0.000
 -0.000   0.000   0.000   0.000  -0.000  -0.000  -0.000   0.000
  0.001  -0.000   0.000  -0.002   0.000  -0.000   0.003  -0.001
 -0.001   0.000  -0.000  -0.000   0.000   0.000   0.000  -0.000
  0.000  -0.000  -0.000  -0.000  -0.001   0.000   0.000   0.002
 total augmentation occupancy for first ion, spin component:           1
  1.910  -0.142   0.000  -0.000  -0.000   0.000  -0.000  -0.001   0.000  -0.000   0.001  -0.001   0.000
 -0.142   0.120   0.000  -0.004  -0.002   0.000   0.001   0.002   0.000  -0.000  -0.002   0.005   0.001
  0.000   0.000   2.016  -0.000   0.000   0.003   0.000   0.000   0.001   0.001   0.000   0.000   0.000
 -0.000  -0.004  -0.000   2.018  -0.003  -0.000   0.005  -0.002  -0.000  -0.000  -0.005  -0.001  -0.000
 -0.000  -0.002   0.000  -0.003   2.017   0.000  -0.002   0.004  -0.000  -0.000   0.001   0.001  -0.003
  0.000   0.000   0.003  -0.000   0.000   0.008  -0.000   0.000  -0.001  -0.002   0.000   0.000   0.000
 -0.000   0.001   0.000   0.005  -0.002  -0.000   0.008   0.001  -0.000   0.000   0.003  -0.000   0.000
 -0.001   0.002   0.000  -0.002   0.004   0.000   0.001   0.009   0.000  -0.000  -0.001  -0.001   0.002
  0.000   0.000   0.001  -0.000  -0.000  -0.001  -0.000   0.000   0.006   0.002  -0.000   0.000   0.000
 -0.000  -0.000   0.001  -0.000  -0.000  -0.002   0.000  -0.000   0.002   0.005   0.000   0.000   0.000
  0.001  -0.002   0.000  -0.005   0.001   0.000   0.003  -0.001  -0.000   0.000   0.005  -0.002  -0.001
 -0.001   0.005   0.000  -0.001   0.001   0.000  -0.000  -0.001   0.000   0.000  -0.002   0.004   0.001
  0.000   0.001   0.000  -0.000  -0.003   0.000   0.000   0.002   0.000   0.000  -0.001   0.001   0.005


------------------------ aborting loop because EDIFF is reached ----------------------------------------





 total charge     

# of ion       s       p       d       tot
------------------------------------------
    1        1.785   4.719   0.019   6.523
    2        1.785   4.719   0.019   6.523
    3        1.785   4.719   0.019   6.523
    4        1.785   4.719   0.019   6.523
    5        1.553   0.418   9.833  11.804
    6        1.553   0.418   9.833  11.804
    7        1.553   0.418   9.833  11.804
    8        1.553   0.418   9.833  11.804
    9        1.614   3.286   0.006   4.906
   10        1.614   3.286   0.006   4.906
   11        1.614   3.286   0.006   4.906
   12        1.614   3.286   0.006   4.906
   13        1.615   3.271   0.006   4.892
   14        1.613   3.294   0.006   4.913
   15        1.613   3.294   0.006   4.913
   16        1.615   3.271   0.006   4.892
   17        1.615   3.271   0.006   4.892
   18        1.613   3.294   0.006   4.913
   19        1.615   3.271   0.006   4.892
   20        1.613   3.294   0.006   4.913
--------------------------------------------------
tot         32.724  59.949  39.478 132.151

    CHARGE:  cpu time    0.1282: real time    0.1282
    FORLOC:  cpu time    0.0035: real time    0.0035
    FORNL :  cpu time    0.5452: real time    0.5452
    STRESS:  cpu time   12.3599: real time   12.3608
    FORCOR:  cpu time    0.1022: real time    0.1022
    FORHAR:  cpu time    0.0109: real time    0.0109
    MIXING:  cpu time    0.0011: real time    0.0011
    OFIELD:  cpu time    0.0000: real time    0.0000

  FORCE on cell =-STRESS in cart. coord.  units (eV):
  Direction    XX          YY          ZZ          XY          YZ          ZX
  --------------------------------------------------------------------------------------
  Alpha Z   450.41350   450.41350   450.41350
  Ewald   -3047.19569 -3016.11712 -3174.39172    -0.00000     0.00000    -0.00000
  Hartree  1246.96581  1249.26863  1164.62504    -0.00000    -0.00000    -0.00000
  E(xc)    -738.86668  -738.86587  -738.89714    -0.00000    -0.00000    -0.03172
  Local   -1468.38050 -1501.07914 -1260.24300     0.00000     0.00000    -0.00000
  n-local   899.78678   899.68756   898.95030     0.00000     0.00000     0.05301
  augment   406.77221   406.16323   406.06860     0.00000    -0.00003    -0.00001
  Kinetic  2249.22117  2249.36139  2252.75368    -0.00001    -0.00001    -1.56084
  Fock        0.00000     0.00000     0.00000     0.00000     0.00000     0.00000
  -------------------------------------------------------------------------------------
  Total      -1.28340    -1.16783    -0.72073     0.00000     0.00000    -0.00000
  in kB      -2.56688    -2.33574    -1.44151     0.00000     0.00000    -0.00000
  external pressure =       -2.11 kB  Pullay stress =        0.00 kB


 VOLUME and BASIS-vectors are now :
 -----------------------------------------------------------------------------
  energy-cutoff  :      300.00
  volume of cell :      801.06
      direct lattice vectors                 reciprocal lattice vectors
     8.504217774  0.000000000  0.000000000     0.117588710  0.000000000  0.000000000
     0.000000000 11.821445862  0.000000000     0.000000000  0.084592021  0.000000000
     0.000000000  0.000000000  7.968212569     0.000000000  0.000000000  0.125498660

  length of vectors
     8.504217774 11.821445862  7.968212569     0.117588710  0.084592021  0.125498660


 FORCES acting on ions
    electron-ion (+dipol)            ewald-force                    non-local-force                 convergence-correction
 -----------------------------------------------------------------------------------------------
   0.280E+02 0.103E-12 -.141E+02   -.279E+02 -.178E-13 0.142E+02   -.917E-01 -.132E-22 -.797E-01   0.494E-04 -.937E-14 -.453E-04
   -.280E+02 -.181E-12 -.141E+02   0.279E+02 -.213E-13 0.142E+02   0.917E-01 0.000E+00 -.797E-01   -.494E-04 0.636E-13 -.453E-04
   0.280E+02 -.379E-12 0.141E+02   -.279E+02 -.213E-13 -.142E+02   -.917E-01 0.000E+00 0.797E-01   0.494E-04 -.256E-13 0.453E-04
   -.280E+02 -.933E-12 0.141E+02   0.279E+02 -.284E-13 -.142E+02   0.917E-01 0.132E-22 0.797E-01   -.494E-04 0.393E-13 0.453E-04
   -.859E-11 -.421E-11 -.237E-10   0.194E-11 -.943E-12 0.000E+00   0.000E+00 0.000E+00 0.770E-23   -.738E-13 0.107E-12 -.676E-13
   0.770E-11 0.653E-11 -.323E-10   0.198E-11 -.803E-12 -.284E-13   0.000E+00 0.000E+00 -.171E-22   -.172E-12 0.117E-12 0.145E-12
   0.845E-11 -.900E-11 -.299E-10   0.205E-11 0.824E-12 -.142E-13   0.000E+00 0.000E+00 -.189E-23   -.133E-12 -.168E-12 0.828E-13
   -.857E-11 0.533E-11 -.238E-10   0.195E-11 0.931E-12 0.426E-13   0.000E+00 0.000E+00 0.601E-23   -.379E-13 -.164E-12 -.511E-13
   0.103E+02 -.906E-12 0.361E+02   -.104E+02 0.142E-13 -.364E+02   0.860E-01 -.529E-22 0.242E+00   0.146E-04 0.120E-14 0.310E-04
   -.103E+02 -.392E-12 0.361E+02   0.104E+02 -.142E-13 -.364E+02   -.860E-01 0.000E+00 0.242E+00   -.146E-04 -.790E-13 0.310E-04
   0.103E+02 -.268E-12 -.361E+02   -.104E+02 0.000E+00 0.364E+02   0.860E-01 0.000E+00 -.242E+00   0.146E-04 0.365E-13 -.310E-04
   -.103E+02 0.113E-11 -.361E+02   0.104E+02 0.000E+00 0.364E+02   -.860E-01 0.529E-22 -.242E+00   -.146E-04 -.529E-13 -.310E-04
   -.211E+02 0.169E+02 0.274E+02   0.212E+02 -.170E+02 -.277E+02   -.182E+00 0.147E+00 0.240E+00   0.777E-05 -.194E-04 -.284E-05
   0.211E+02 -.169E+02 0.274E+02   -.212E+02 0.170E+02 -.277E+02   0.182E+00 -.147E+00 0.240E+00   -.777E-05 0.194E-04 -.284E-05
   -.211E+02 -.169E+02 -.274E+02   0.212E+02 0.170E+02 0.277E+02   -.182E+00 -.147E+00 -.240E+00   0.777E-05 0.194E-04 0.284E-05
   0.211E+02 0.169E+02 -.274E+02   -.212E+02 -.170E+02 0.277E+02   0.182E+00 0.147E+00 -.240E+00   -.777E-05 -.194E-04 0.284E-05
   -.211E+02 -.169E+02 0.274E+02   0.212E+02 0.170E+02 -.277E+02   -.182E+00 -.147E+00 0.240E+00   0.777E-05 0.194E-04 -.284E-05
   0.211E+02 0.169E+02 0.274E+02   -.212E+02 -.170E+02 -.277E+02   0.182E+00 0.147E+00 0.240E+00   -.777E-05 -.194E-04 -.284E-05
   0.211E+02 -.169E+02 -.274E+02   -.212E+02 0.170E+02 0.277E+02   0.182E+00 -.147E+00 -.240E+00   -.777E-05 0.194E-04 0.284E-05
   -.211E+02 0.169E+02 -.274E+02   0.212E+02 -.170E+02 0.277E+02   -.182E+00 0.147E+00 -.240E+00   0.777E-05 -.194E-04 0.284E-05
 -----------------------------------------------------------------------------------------------
   -.538E-10 -.973E-12 -.299E-09   -.568E-13 -.426E-13 0.497E-13   0.000E+00 0.000E+00 -.278E-16   -.403E-12 -.168E-12 0.169E-12


 POSITION                                       TOTAL-FORCE (eV/Angst)
 -----------------------------------------------------------------------------------
      0.57610      2.95536      3.79734        -0.000704      0.000000      0.008365
      3.67601      8.86608      7.78145         0.000704      0.000000      0.008365
      4.82820      2.95536      0.18677        -0.000704      0.000000     -0.008365
      7.92812      8.86608      4.17087         0.000704     -0.000000     -0.008365
      0.00000      0.00000      0.00000         0.000000      0.000000      0.000000
      4.25211      0.00000      3.98411         0.000000      0.000000      0.000000
      4.25211      5.91072      3.98411         0.000000      0.000000      0.000000
      0.00000      5.91072      0.00000         0.000000      0.000000      0.000000
      4.30832      8.86608      3.47232         0.000602      0.000000     -0.008086
      8.44800      2.95536      7.45643        -0.000602      0.000000     -0.008086
      0.05621      8.86608      0.51178         0.000602     -0.000000      0.008086
      4.19590      2.95536      4.49589        -0.000602     -0.000000      0.008086
      2.55768      5.51079      1.53648         0.003704     -0.004628      0.003435
      1.69443      6.31065      5.52059        -0.003704      0.004628      0.003435
      6.80979      0.39993      2.44763         0.003704      0.004628     -0.003435
      5.94653     11.42152      6.43173        -0.003704     -0.004628     -0.003435
      2.55768      0.39993      1.53648         0.003704      0.004628      0.003435
      1.69443     11.42152      5.52059        -0.003704     -0.004628      0.003435
      5.94653      6.31065      6.43173        -0.003704      0.004628     -0.003435
      6.80979      5.51079      2.44763         0.003704     -0.004628     -0.003435
 -----------------------------------------------------------------------------------
    total drift:                               -0.000000     -0.000000     -0.000000


--------------------------------------------------------------------------------------------------------



  FREE ENERGIE OF THE ION-ELECTRON SYSTEM (eV)
  ---------------------------------------------------
  free  energy   TOTEN  =      -714.92084132 eV

  energy  without entropy=     -714.92084132  energy(sigma->0) =     -714.92084132



--------------------------------------------------------------------------------------------------------


    POTLOK:  cpu time    1.1893: real time    1.1893


--------------------------------------------------------------------------------------------------------


 stress matrix after NEB project (eV)
     -1.28340      0.00000     -0.00000
      0.00000     -1.16783      0.00000
      0.00000      0.00000     -0.72073
  FORCES: max atom, RMS     0.008394    0.006784
  FORCE total and by dimension    0.030337    0.008365
  Stress total and by dimension    1.878933    1.283397
     LOOP+:  cpu time  117.6123: real time  118.0893
    4ORBIT:  cpu time    0.0000: real time    0.0000



 total charge     

# of ion       s       p       d       tot
------------------------------------------
    1        1.785   4.719   0.019   6.523
    2        1.785   4.719   0.019   6.523
    3        1.785   4.719   0.019   6.523
    4        1.785   4.719   0.019   6.523
    5        1.553   0.418   9.833  11.804
    6        1.553   0.418   9.833  11.804
    7        1.553   0.418   9.833  11.804
    8        1.553   0.418   9.833  11.804
    9        1.614   3.286   0.006   4.906
   10        1.614   3.286   0.006   4.906
   11        1.614   3.286   0.006   4.906
   12        1.614   3.286   0.006   4.906
   13        1.615   3.271   0.006   4.892
   14        1.613   3.294   0.006   4.913
   15        1.613   3.294   0.006   4.913
   16        1.615   3.271   0.006   4.892
   17        1.615   3.271   0.006   4.892
   18        1.613   3.294   0.006   4.913
   19        1.615   3.271   0.006   4.892
   20        1.613   3.294   0.006   4.913
--------------------------------------------------
tot         32.724  59.949  39.478 132.151


 total amount of memory used by VASP MPI-rank0    42352. kBytes
=======================================================================

   base      :      30000. kBytes
   nonlr-proj:       2993. kBytes
   fftplans  :       3667. kBytes
   grid      :       3424. kBytes
   one-center:         46. kBytes
   wavefun   :       2222. kBytes

  
  
 General timing and accounting informations for this job:
 ========================================================
  
                  Total CPU time used (sec):      124.021
                            User time (sec):      123.162
                          System time (sec):        0.860
                         Elapsed time (sec):      124.754
  
                   Maximum memory used (kb):       78760.
                   Average memory used (kb):           0.
  
                          Minor page faults:        19158
                          Major page faults:            2
                 Voluntary context switches:         1561
