CsPbBr3 cubic bulk                      
           1
     8.504218    0.000000    0.000000
     0.000000   11.821446    0.000000
     0.000000    0.000000    7.968213
   Cs   Pb   Br
   4   4  12
Direct configuration=     1
   0.06774232  0.25000000  0.47656096
   0.43225768  0.75000000  0.97656096
   0.56774232  0.25000000  0.02343904
   0.93225768  0.75000000  0.52343904
   0.00000000  0.00000000  0.00000000
   0.50000000  0.00000000  0.50000000
   0.50000000  0.50000000  0.50000000
   0.00000000  0.50000000  0.00000000
   0.50661004  0.75000000  0.43577185
   0.99338996  0.25000000  0.93577185
   0.00661004  0.75000000  0.06422815
   0.49338996  0.25000000  0.56422815
   0.30075466  0.46616906  0.19282620
   0.19924534  0.53383094  0.69282620
   0.80075466  0.03383094  0.30717380
   0.69924534  0.96616906  0.80717380
   0.30075466  0.03383094  0.19282620
   0.19924534  0.96616906  0.69282620
   0.69924534  0.53383094  0.80717380
   0.80075466  0.46616906  0.30717380
