  20  20   1   0
  0.4053162E+02  0.1017399E-08  0.1017399E-08  0.1017399E-08  0.5000000E-15
   1.0000000000000000E-004
  CAR 
 CsPbBr3 cubic bulk                      
      8.67380866    -22.42433884  301      0.32913908      1.00000000
    -22.424  0.0000E+00  0.0000E+00
    -22.321  0.0000E+00  0.0000E+00
    -22.217  0.0000E+00  0.0000E+00
    -22.113  0.0000E+00  0.0000E+00
    -22.010  0.0000E+00  0.0000E+00
    -21.906  0.0000E+00  0.0000E+00
    -21.802  0.0000E+00  0.0000E+00
    -21.699  0.0000E+00  0.0000E+00
    -21.595  0.0000E+00  0.0000E+00
    -21.491  0.0000E+00  0.0000E+00
    -21.388  0.0000E+00  0.0000E+00
    -21.284  0.0000E+00  0.0000E+00
    -21.180  0.0000E+00  0.0000E+00
    -21.077  0.0000E+00  0.0000E+00
    -20.973  0.3859E+02  0.4000E+01
    -20.869  0.1928E+02  0.5999E+01
    -20.766  0.1929E+02  0.8000E+01
    -20.662  0.0000E+00  0.8000E+01
    -20.558  0.0000E+00  0.8000E+01
    -20.455  0.0000E+00  0.8000E+01
    -20.351  0.0000E+00  0.8000E+01
    -20.247  0.0000E+00  0.8000E+01
    -20.144  0.0000E+00  0.8000E+01
    -20.040  0.0000E+00  0.8000E+01
    -19.936  0.0000E+00  0.8000E+01
    -19.833  0.0000E+00  0.8000E+01
    -19.729  0.0000E+00  0.8000E+01
    -19.626  0.0000E+00  0.8000E+01
    -19.522  0.0000E+00  0.8000E+01
    -19.418  0.0000E+00  0.8000E+01
    -19.315  0.0000E+00  0.8000E+01
    -19.211  0.0000E+00  0.8000E+01
    -19.107  0.0000E+00  0.8000E+01
    -19.004  0.0000E+00  0.8000E+01
    -18.900  0.0000E+00  0.8000E+01
    -18.796  0.0000E+00  0.8000E+01
    -18.693  0.0000E+00  0.8000E+01
    -18.589  0.0000E+00  0.8000E+01
    -18.485  0.0000E+00  0.8000E+01
    -18.382  0.0000E+00  0.8000E+01
    -18.278  0.0000E+00  0.8000E+01
    -18.174  0.0000E+00  0.8000E+01
    -18.071  0.0000E+00  0.8000E+01
    -17.967  0.0000E+00  0.8000E+01
    -17.863  0.0000E+00  0.8000E+01
    -17.760  0.0000E+00  0.8000E+01
    -17.656  0.0000E+00  0.8000E+01
    -17.552  0.0000E+00  0.8000E+01
    -17.449  0.0000E+00  0.8000E+01
    -17.345  0.0000E+00  0.8000E+01
    -17.241  0.0000E+00  0.8000E+01
    -17.138  0.0000E+00  0.8000E+01
    -17.034  0.0000E+00  0.8000E+01
    -16.930  0.0000E+00  0.8000E+01
    -16.827  0.0000E+00  0.8000E+01
    -16.723  0.0000E+00  0.8000E+01
    -16.619  0.0000E+00  0.8000E+01
    -16.516  0.0000E+00  0.8000E+01
    -16.412  0.1575E+02  0.9632E+01
    -16.308  0.9493E+02  0.2399E+02
    -16.205  0.2315E+03  0.4800E+02
    -16.101  0.0000E+00  0.4800E+02
    -15.997  0.0000E+00  0.4800E+02
    -15.894  0.0000E+00  0.4800E+02
    -15.790  0.0000E+00  0.4800E+02
    -15.686  0.0000E+00  0.4800E+02
    -15.583  0.0000E+00  0.4800E+02
    -15.479  0.0000E+00  0.4800E+02
    -15.375  0.0000E+00  0.4800E+02
    -15.272  0.0000E+00  0.4800E+02
    -15.168  0.0000E+00  0.4800E+02
    -15.064  0.0000E+00  0.4800E+02
    -14.961  0.0000E+00  0.4800E+02
    -14.857  0.0000E+00  0.4800E+02
    -14.753  0.0000E+00  0.4800E+02
    -14.650  0.0000E+00  0.4800E+02
    -14.546  0.0000E+00  0.4800E+02
    -14.442  0.0000E+00  0.4800E+02
    -14.339  0.7272E+00  0.4808E+02
    -14.235  0.4929E+01  0.4947E+02
    -14.131  0.1723E+02  0.5297E+02
    -14.028  0.3038E+02  0.5670E+02
    -13.924  0.3029E+02  0.6262E+02
    -13.821  0.2559E+02  0.6695E+02
    -13.717  0.2748E+02  0.7189E+02
    -13.613  0.0000E+00  0.7200E+02
    -13.510  0.0000E+00  0.7200E+02
    -13.406  0.0000E+00  0.7200E+02
    -13.302  0.0000E+00  0.7200E+02
    -13.199  0.0000E+00  0.7200E+02
    -13.095  0.0000E+00  0.7200E+02
    -12.991  0.0000E+00  0.7200E+02
    -12.888  0.0000E+00  0.7200E+02
    -12.784  0.0000E+00  0.7200E+02
    -12.680  0.0000E+00  0.7200E+02
    -12.577  0.0000E+00  0.7200E+02
    -12.473  0.0000E+00  0.7200E+02
    -12.369  0.0000E+00  0.7200E+02
    -12.266  0.0000E+00  0.7200E+02
    -12.162  0.0000E+00  0.7200E+02
    -12.058  0.0000E+00  0.7200E+02
    -11.955  0.0000E+00  0.7200E+02
    -11.851  0.0000E+00  0.7200E+02
    -11.747  0.0000E+00  0.7200E+02
    -11.644  0.0000E+00  0.7200E+02
    -11.540  0.0000E+00  0.7200E+02
    -11.436  0.0000E+00  0.7200E+02
    -11.333  0.0000E+00  0.7200E+02
    -11.229  0.0000E+00  0.7200E+02
    -11.125  0.0000E+00  0.7200E+02
    -11.022  0.0000E+00  0.7200E+02
    -10.918  0.0000E+00  0.7200E+02
    -10.814  0.0000E+00  0.7200E+02
    -10.711  0.0000E+00  0.7200E+02
    -10.607  0.0000E+00  0.7200E+02
    -10.503  0.0000E+00  0.7200E+02
    -10.400  0.0000E+00  0.7200E+02
    -10.296  0.0000E+00  0.7200E+02
    -10.192  0.0000E+00  0.7200E+02
    -10.089  0.0000E+00  0.7200E+02
     -9.985  0.0000E+00  0.7200E+02
     -9.881  0.0000E+00  0.7200E+02
     -9.778  0.0000E+00  0.7200E+02
     -9.674  0.0000E+00  0.7200E+02
     -9.570  0.0000E+00  0.7200E+02
     -9.467  0.0000E+00  0.7200E+02
     -9.363  0.0000E+00  0.7200E+02
     -9.259  0.0000E+00  0.7200E+02
     -9.156  0.0000E+00  0.7200E+02
     -9.052  0.0000E+00  0.7200E+02
     -8.948  0.0000E+00  0.7200E+02
     -8.845  0.0000E+00  0.7200E+02
     -8.741  0.0000E+00  0.7200E+02
     -8.637  0.0000E+00  0.7200E+02
     -8.534  0.0000E+00  0.7200E+02
     -8.430  0.0000E+00  0.7200E+02
     -8.327  0.0000E+00  0.7200E+02
     -8.223  0.0000E+00  0.7200E+02
     -8.119  0.9793E-04  0.7200E+02
     -8.016  0.4287E+01  0.7244E+02
     -7.912  0.5760E-12  0.7244E+02
     -7.808  0.5717E+01  0.7304E+02
     -7.705  0.1498E+02  0.7459E+02
     -7.601  0.2144E+01  0.7504E+02
     -7.497  0.1328E-08  0.7504E+02
     -7.394  0.4640E+02  0.7985E+02
     -7.290  0.7683E+02  0.9219E+02
     -7.186  0.8555E+02  0.1022E+03
     -7.083  0.0000E+00  0.1026E+03
     -6.979  0.2329E-01  0.1026E+03
     -6.875  0.2608E-04  0.1030E+03
     -6.772  0.8575E+01  0.1039E+03
     -6.668  0.0000E+00  0.1039E+03
     -6.564  0.0000E+00  0.1039E+03
     -6.461  0.9128E-01  0.1039E+03
     -6.357  0.0000E+00  0.1040E+03
     -6.253  0.0000E+00  0.1040E+03
     -6.150  0.0000E+00  0.1040E+03
     -6.046  0.0000E+00  0.1040E+03
     -5.942  0.0000E+00  0.1040E+03
     -5.839  0.0000E+00  0.1040E+03
     -5.735  0.0000E+00  0.1040E+03
     -5.631  0.0000E+00  0.1040E+03
     -5.528  0.0000E+00  0.1040E+03
     -5.424  0.0000E+00  0.1040E+03
     -5.320  0.0000E+00  0.1040E+03
     -5.217  0.0000E+00  0.1040E+03
     -5.113  0.0000E+00  0.1040E+03
     -5.009  0.0000E+00  0.1040E+03
     -4.906  0.0000E+00  0.1040E+03
     -4.802  0.0000E+00  0.1040E+03
     -4.698  0.0000E+00  0.1040E+03
     -4.595  0.0000E+00  0.1040E+03
     -4.491  0.0000E+00  0.1040E+03
     -4.387  0.0000E+00  0.1040E+03
     -4.284  0.0000E+00  0.1040E+03
     -4.180  0.0000E+00  0.1040E+03
     -4.076  0.0000E+00  0.1040E+03
     -3.973  0.0000E+00  0.1040E+03
     -3.869  0.0000E+00  0.1040E+03
     -3.765  0.0000E+00  0.1040E+03
     -3.662  0.0000E+00  0.1040E+03
     -3.558  0.0000E+00  0.1040E+03
     -3.454  0.0000E+00  0.1040E+03
     -3.351  0.2750E-01  0.1040E+03
     -3.247  0.1881E+02  0.1062E+03
     -3.143  0.1356E+02  0.1079E+03
     -3.040  0.1432E+01  0.1080E+03
     -2.936  0.1298E+02  0.1099E+03
     -2.833  0.1352E+02  0.1115E+03
     -2.729  0.4151E+02  0.1159E+03
     -2.625  0.0000E+00  0.1160E+03
     -2.522  0.0000E+00  0.1160E+03
     -2.418  0.0000E+00  0.1160E+03
     -2.314  0.0000E+00  0.1160E+03
     -2.211  0.1003E+02  0.1170E+03
     -2.107  0.2145E+02  0.1196E+03
     -2.003  0.4152E+02  0.1257E+03
     -1.900  0.5906E+01  0.1271E+03
     -1.796  0.5800E+01  0.1282E+03
     -1.692  0.3356E+02  0.1320E+03
     -1.589  0.2607E+02  0.1348E+03
     -1.485  0.1590E+02  0.1379E+03
     -1.381  0.2790E+02  0.1424E+03
     -1.278  0.5832E+02  0.1507E+03
     -1.174  0.5774E+02  0.1583E+03
     -1.070  0.4264E+02  0.1643E+03
     -0.967  0.2662E+02  0.1672E+03
     -0.863  0.1526E+02  0.1695E+03
     -0.759  0.1424E+02  0.1712E+03
     -0.656  0.7417E+01  0.1720E+03
     -0.552  0.8191E+01  0.1729E+03
     -0.448  0.1135E-02  0.1730E+03
     -0.345  0.5716E+01  0.1736E+03
     -0.241  0.1715E+02  0.1753E+03
     -0.137  0.3967E-16  0.1753E+03
     -0.034  0.1549E+01  0.1755E+03
      0.070  0.0000E+00  0.1756E+03
      0.174  0.0000E+00  0.1756E+03
      0.277  0.4057E+01  0.1760E+03
      0.381  0.0000E+00  0.1760E+03
      0.485  0.0000E+00  0.1760E+03
      0.588  0.0000E+00  0.1760E+03
      0.692  0.0000E+00  0.1760E+03
      0.796  0.0000E+00  0.1760E+03
      0.899  0.0000E+00  0.1760E+03
      1.003  0.0000E+00  0.1760E+03
      1.107  0.0000E+00  0.1760E+03
      1.210  0.0000E+00  0.1760E+03
      1.314  0.0000E+00  0.1760E+03
      1.418  0.0000E+00  0.1760E+03
      1.521  0.0000E+00  0.1760E+03
      1.625  0.0000E+00  0.1760E+03
      1.729  0.0000E+00  0.1760E+03
      1.832  0.0000E+00  0.1760E+03
      1.936  0.0000E+00  0.1760E+03
      2.040  0.0000E+00  0.1760E+03
      2.143  0.0000E+00  0.1760E+03
      2.247  0.0000E+00  0.1760E+03
      2.351  0.0000E+00  0.1760E+03
      2.454  0.0000E+00  0.1760E+03
      2.558  0.0000E+00  0.1760E+03
      2.662  0.0000E+00  0.1760E+03
      2.765  0.0000E+00  0.1760E+03
      2.869  0.1651E+01  0.1762E+03
      2.972  0.2858E+01  0.1769E+03
      3.076  0.0000E+00  0.1769E+03
      3.180  0.7716E+00  0.1770E+03
      3.283  0.6405E+01  0.1791E+03
      3.387  0.1690E-13  0.1791E+03
      3.491  0.4440E+01  0.1796E+03
      3.594  0.1429E+01  0.1800E+03
      3.698  0.4287E+01  0.1804E+03
      3.802  0.1143E+02  0.1816E+03
      3.905  0.1150E+02  0.1828E+03
      4.009  0.5720E+01  0.1840E+03
      4.113  0.3446E+01  0.1849E+03
      4.216  0.1715E+02  0.1876E+03
      4.320  0.1103E+00  0.1876E+03
      4.424  0.2858E+01  0.1880E+03
      4.527  0.0000E+00  0.1880E+03
      4.631  0.6978E-08  0.1880E+03
      4.735  0.7146E+00  0.1881E+03
      4.838  0.0000E+00  0.1881E+03
      4.942  0.0000E+00  0.1881E+03
      5.046  0.5673E+01  0.1887E+03
      5.149  0.1232E+02  0.1902E+03
      5.253  0.3757E+01  0.1911E+03
      5.357  0.1144E+02  0.1925E+03
      5.460  0.2001E+02  0.1952E+03
      5.564  0.9025E-12  0.1952E+03
      5.668  0.8575E+01  0.1961E+03
      5.771  0.5717E+01  0.1967E+03
      5.875  0.8723E+01  0.1976E+03
      5.979  0.1716E+02  0.1995E+03
      6.082  0.2029E+02  0.2020E+03
      6.186  0.7103E+01  0.2034E+03
      6.290  0.1902E+02  0.2066E+03
      6.393  0.3774E+01  0.2079E+03
      6.497  0.1542E+02  0.2095E+03
      6.601  0.1890E+02  0.2121E+03
      6.704  0.3562E+02  0.2169E+03
      6.808  0.1123E+02  0.2192E+03
      6.912  0.1551E+02  0.2223E+03
      7.015  0.4995E+01  0.2236E+03
      7.119  0.2858E+01  0.2239E+03
      7.223  0.3493E-07  0.2239E+03
      7.326  0.7146E+00  0.2240E+03
      7.430  0.0000E+00  0.2240E+03
      7.534  0.0000E+00  0.2240E+03
      7.637  0.0000E+00  0.2240E+03
      7.741  0.0000E+00  0.2240E+03
      7.845  0.0000E+00  0.2240E+03
      7.948  0.0000E+00  0.2240E+03
      8.052  0.0000E+00  0.2240E+03
      8.156  0.0000E+00  0.2240E+03
      8.259  0.0000E+00  0.2240E+03
      8.363  0.0000E+00  0.2240E+03
      8.466  0.0000E+00  0.2240E+03
      8.570  0.0000E+00  0.2240E+03
      8.674  0.0000E+00  0.2240E+03
      8.67380866    -22.42433884  301      0.32913908      1.00000000
    -22.424  0.0000E+00  0.0000E+00  0.0000E+00
    -22.321  0.0000E+00  0.0000E+00  0.0000E+00
    -22.217  0.0000E+00  0.0000E+00  0.0000E+00
    -22.113  0.0000E+00  0.0000E+00  0.0000E+00
    -22.010  0.0000E+00  0.0000E+00  0.0000E+00
    -21.906  0.0000E+00  0.0000E+00  0.0000E+00
    -21.802  0.0000E+00  0.0000E+00  0.0000E+00
    -21.699  0.0000E+00  0.0000E+00  0.0000E+00
    -21.595  0.0000E+00  0.0000E+00  0.0000E+00
    -21.491  0.0000E+00  0.0000E+00  0.0000E+00
    -21.388  0.0000E+00  0.0000E+00  0.0000E+00
    -21.284  0.0000E+00  0.0000E+00  0.0000E+00
    -21.180  0.0000E+00  0.0000E+00  0.0000E+00
    -21.077  0.0000E+00  0.0000E+00  0.0000E+00
    -20.973  0.1713E+02  0.2943E-07  0.1201E-04
    -20.869  0.2674E-03  0.2889E-07  0.2676E-08
    -20.766  0.1315E-03  0.4656E-07  0.5344E-08
    -20.662  0.0000E+00  0.0000E+00  0.0000E+00
    -20.558  0.0000E+00  0.0000E+00  0.0000E+00
    -20.455  0.0000E+00  0.0000E+00  0.0000E+00
    -20.351  0.0000E+00  0.0000E+00  0.0000E+00
    -20.247  0.0000E+00  0.0000E+00  0.0000E+00
    -20.144  0.0000E+00  0.0000E+00  0.0000E+00
    -20.040  0.0000E+00  0.0000E+00  0.0000E+00
    -19.936  0.0000E+00  0.0000E+00  0.0000E+00
    -19.833  0.0000E+00  0.0000E+00  0.0000E+00
    -19.729  0.0000E+00  0.0000E+00  0.0000E+00
    -19.626  0.0000E+00  0.0000E+00  0.0000E+00
    -19.522  0.0000E+00  0.0000E+00  0.0000E+00
    -19.418  0.0000E+00  0.0000E+00  0.0000E+00
    -19.315  0.0000E+00  0.0000E+00  0.0000E+00
    -19.211  0.0000E+00  0.0000E+00  0.0000E+00
    -19.107  0.0000E+00  0.0000E+00  0.0000E+00
    -19.004  0.0000E+00  0.0000E+00  0.0000E+00
    -18.900  0.0000E+00  0.0000E+00  0.0000E+00
    -18.796  0.0000E+00  0.0000E+00  0.0000E+00
    -18.693  0.0000E+00  0.0000E+00  0.0000E+00
    -18.589  0.0000E+00  0.0000E+00  0.0000E+00
    -18.485  0.0000E+00  0.0000E+00  0.0000E+00
    -18.382  0.0000E+00  0.0000E+00  0.0000E+00
    -18.278  0.0000E+00  0.0000E+00  0.0000E+00
    -18.174  0.0000E+00  0.0000E+00  0.0000E+00
    -18.071  0.0000E+00  0.0000E+00  0.0000E+00
    -17.967  0.0000E+00  0.0000E+00  0.0000E+00
    -17.863  0.0000E+00  0.0000E+00  0.0000E+00
    -17.760  0.0000E+00  0.0000E+00  0.0000E+00
    -17.656  0.0000E+00  0.0000E+00  0.0000E+00
    -17.552  0.0000E+00  0.0000E+00  0.0000E+00
    -17.449  0.0000E+00  0.0000E+00  0.0000E+00
    -17.345  0.0000E+00  0.0000E+00  0.0000E+00
    -17.241  0.0000E+00  0.0000E+00  0.0000E+00
    -17.138  0.0000E+00  0.0000E+00  0.0000E+00
    -17.034  0.0000E+00  0.0000E+00  0.0000E+00
    -16.930  0.0000E+00  0.0000E+00  0.0000E+00
    -16.827  0.0000E+00  0.0000E+00  0.0000E+00
    -16.723  0.0000E+00  0.0000E+00  0.0000E+00
    -16.619  0.0000E+00  0.0000E+00  0.0000E+00
    -16.516  0.0000E+00  0.0000E+00  0.0000E+00
    -16.412  0.1735E-04  0.8541E-05  0.1692E-05
    -16.308  0.1531E-04  0.3914E-04  0.4902E-05
    -16.205  0.2797E-04  0.1815E-04  0.1926E-05
    -16.101  0.0000E+00  0.0000E+00  0.0000E+00
    -15.997  0.0000E+00  0.0000E+00  0.0000E+00
    -15.894  0.0000E+00  0.0000E+00  0.0000E+00
    -15.790  0.0000E+00  0.0000E+00  0.0000E+00
    -15.686  0.0000E+00  0.0000E+00  0.0000E+00
    -15.583  0.0000E+00  0.0000E+00  0.0000E+00
    -15.479  0.0000E+00  0.0000E+00  0.0000E+00
    -15.375  0.0000E+00  0.0000E+00  0.0000E+00
    -15.272  0.0000E+00  0.0000E+00  0.0000E+00
    -15.168  0.0000E+00  0.0000E+00  0.0000E+00
    -15.064  0.0000E+00  0.0000E+00  0.0000E+00
    -14.961  0.0000E+00  0.0000E+00  0.0000E+00
    -14.857  0.0000E+00  0.0000E+00  0.0000E+00
    -14.753  0.0000E+00  0.0000E+00  0.0000E+00
    -14.650  0.0000E+00  0.0000E+00  0.0000E+00
    -14.546  0.0000E+00  0.0000E+00  0.0000E+00
    -14.442  0.0000E+00  0.0000E+00  0.0000E+00
    -14.339  0.1771E-03  0.7431E-06  0.1108E-05
    -14.235  0.5795E-03  0.3254E-03  0.6612E-05
    -14.131  0.3516E-03  0.2751E-02  0.4605E-04
    -14.028  0.1850E-03  0.1679E-02  0.9818E-04
    -13.924  0.1780E-03  0.1462E-02  0.2558E-03
    -13.821  0.3358E-04  0.6105E-03  0.1755E-03
    -13.717  0.4235E-03  0.1419E-02  0.1284E-03
    -13.613  0.0000E+00  0.0000E+00  0.0000E+00
    -13.510  0.0000E+00  0.0000E+00  0.0000E+00
    -13.406  0.0000E+00  0.0000E+00  0.0000E+00
    -13.302  0.0000E+00  0.0000E+00  0.0000E+00
    -13.199  0.0000E+00  0.0000E+00  0.0000E+00
    -13.095  0.0000E+00  0.0000E+00  0.0000E+00
    -12.991  0.0000E+00  0.0000E+00  0.0000E+00
    -12.888  0.0000E+00  0.0000E+00  0.0000E+00
    -12.784  0.0000E+00  0.0000E+00  0.0000E+00
    -12.680  0.0000E+00  0.0000E+00  0.0000E+00
    -12.577  0.0000E+00  0.0000E+00  0.0000E+00
    -12.473  0.0000E+00  0.0000E+00  0.0000E+00
    -12.369  0.0000E+00  0.0000E+00  0.0000E+00
    -12.266  0.0000E+00  0.0000E+00  0.0000E+00
    -12.162  0.0000E+00  0.0000E+00  0.0000E+00
    -12.058  0.0000E+00  0.0000E+00  0.0000E+00
    -11.955  0.0000E+00  0.0000E+00  0.0000E+00
    -11.851  0.0000E+00  0.0000E+00  0.0000E+00
    -11.747  0.0000E+00  0.0000E+00  0.0000E+00
    -11.644  0.0000E+00  0.0000E+00  0.0000E+00
    -11.540  0.0000E+00  0.0000E+00  0.0000E+00
    -11.436  0.0000E+00  0.0000E+00  0.0000E+00
    -11.333  0.0000E+00  0.0000E+00  0.0000E+00
    -11.229  0.0000E+00  0.0000E+00  0.0000E+00
    -11.125  0.0000E+00  0.0000E+00  0.0000E+00
    -11.022  0.0000E+00  0.0000E+00  0.0000E+00
    -10.918  0.0000E+00  0.0000E+00  0.0000E+00
    -10.814  0.0000E+00  0.0000E+00  0.0000E+00
    -10.711  0.0000E+00  0.0000E+00  0.0000E+00
    -10.607  0.0000E+00  0.0000E+00  0.0000E+00
    -10.503  0.0000E+00  0.0000E+00  0.0000E+00
    -10.400  0.0000E+00  0.0000E+00  0.0000E+00
    -10.296  0.0000E+00  0.0000E+00  0.0000E+00
    -10.192  0.0000E+00  0.0000E+00  0.0000E+00
    -10.089  0.0000E+00  0.0000E+00  0.0000E+00
     -9.985  0.0000E+00  0.0000E+00  0.0000E+00
     -9.881  0.0000E+00  0.0000E+00  0.0000E+00
     -9.778  0.0000E+00  0.0000E+00  0.0000E+00
     -9.674  0.0000E+00  0.0000E+00  0.0000E+00
     -9.570  0.0000E+00  0.0000E+00  0.0000E+00
     -9.467  0.0000E+00  0.0000E+00  0.0000E+00
     -9.363  0.0000E+00  0.0000E+00  0.0000E+00
     -9.259  0.0000E+00  0.0000E+00  0.0000E+00
     -9.156  0.0000E+00  0.0000E+00  0.0000E+00
     -9.052  0.0000E+00  0.0000E+00  0.0000E+00
     -8.948  0.0000E+00  0.0000E+00  0.0000E+00
     -8.845  0.0000E+00  0.0000E+00  0.0000E+00
     -8.741  0.0000E+00  0.0000E+00  0.0000E+00
     -8.637  0.0000E+00  0.0000E+00  0.0000E+00
     -8.534  0.0000E+00  0.0000E+00  0.0000E+00
     -8.430  0.0000E+00  0.0000E+00  0.0000E+00
     -8.327  0.0000E+00  0.0000E+00  0.0000E+00
     -8.223  0.0000E+00  0.0000E+00  0.0000E+00
     -8.119  0.1331E-18  0.2824E-15  0.2859E-10
     -8.016  0.6729E-14  0.1234E-10  0.1499E-05
     -7.912  0.1410E-18  0.2083E-15  0.8680E-18
     -7.808  0.1399E-05  0.2067E-02  0.8615E-05
     -7.705  0.5688E-13  0.8319E-02  0.4570E-04
     -7.601  0.1667E-13  0.6387E-18  0.8091E-05
     -7.497  0.1179E-14  0.4038E-10  0.6637E-15
     -7.394  0.1085E-04  0.1402E+02  0.1499E-04
     -7.290  0.1931E-04  0.1521E+02  0.3332E-04
     -7.186  0.1367E-04  0.4867E+00  0.3224E-04
     -7.083  0.0000E+00  0.0000E+00  0.0000E+00
     -6.979  0.5599E-07  0.2027E-04  0.1585E-07
     -6.875  0.1422E-09  0.1480E-07  0.4615E-10
     -6.772  0.4512E-04  0.7002E-02  0.1639E-04
     -6.668  0.0000E+00  0.0000E+00  0.0000E+00
     -6.564  0.0000E+00  0.0000E+00  0.0000E+00
     -6.461  0.5836E-06  0.2323E-18  0.3131E-06
     -6.357  0.0000E+00  0.0000E+00  0.0000E+00
     -6.253  0.0000E+00  0.0000E+00  0.0000E+00
     -6.150  0.0000E+00  0.0000E+00  0.0000E+00
     -6.046  0.0000E+00  0.0000E+00  0.0000E+00
     -5.942  0.0000E+00  0.0000E+00  0.0000E+00
     -5.839  0.0000E+00  0.0000E+00  0.0000E+00
     -5.735  0.0000E+00  0.0000E+00  0.0000E+00
     -5.631  0.0000E+00  0.0000E+00  0.0000E+00
     -5.528  0.0000E+00  0.0000E+00  0.0000E+00
     -5.424  0.0000E+00  0.0000E+00  0.0000E+00
     -5.320  0.0000E+00  0.0000E+00  0.0000E+00
     -5.217  0.0000E+00  0.0000E+00  0.0000E+00
     -5.113  0.0000E+00  0.0000E+00  0.0000E+00
     -5.009  0.0000E+00  0.0000E+00  0.0000E+00
     -4.906  0.0000E+00  0.0000E+00  0.0000E+00
     -4.802  0.0000E+00  0.0000E+00  0.0000E+00
     -4.698  0.0000E+00  0.0000E+00  0.0000E+00
     -4.595  0.0000E+00  0.0000E+00  0.0000E+00
     -4.491  0.0000E+00  0.0000E+00  0.0000E+00
     -4.387  0.0000E+00  0.0000E+00  0.0000E+00
     -4.284  0.0000E+00  0.0000E+00  0.0000E+00
     -4.180  0.0000E+00  0.0000E+00  0.0000E+00
     -4.076  0.0000E+00  0.0000E+00  0.0000E+00
     -3.973  0.0000E+00  0.0000E+00  0.0000E+00
     -3.869  0.0000E+00  0.0000E+00  0.0000E+00
     -3.765  0.0000E+00  0.0000E+00  0.0000E+00
     -3.662  0.0000E+00  0.0000E+00  0.0000E+00
     -3.558  0.0000E+00  0.0000E+00  0.0000E+00
     -3.454  0.0000E+00  0.0000E+00  0.0000E+00
     -3.351  0.2208E-18  0.4893E-04  0.3253E-17
     -3.247  0.4728E-12  0.1635E-01  0.9523E-03
     -3.143  0.4217E-12  0.1583E-02  0.1421E-02
     -3.040  0.4385E-09  0.1118E-04  0.7101E-07
     -2.936  0.5251E-04  0.7991E-02  0.7289E-03
     -2.833  0.1921E-04  0.7633E-02  0.1670E-02
     -2.729  0.1194E-02  0.1916E-01  0.2615E-02
     -2.625  0.0000E+00  0.0000E+00  0.0000E+00
     -2.522  0.0000E+00  0.0000E+00  0.0000E+00
     -2.418  0.0000E+00  0.0000E+00  0.0000E+00
     -2.314  0.0000E+00  0.0000E+00  0.0000E+00
     -2.211  0.1020E-02  0.2089E-01  0.6831E-03
     -2.107  0.1090E-01  0.1427E-01  0.2624E-02
     -2.003  0.1436E-01  0.5869E-01  0.6105E-02
     -1.900  0.6903E-04  0.1156E-01  0.4058E-03
     -1.796  0.1874E-04  0.3755E-01  0.3508E-03
     -1.692  0.5871E-03  0.1323E+00  0.1024E-01
     -1.589  0.4353E-02  0.5678E-01  0.7460E-02
     -1.485  0.3195E-03  0.1295E-01  0.4370E-02
     -1.381  0.1184E-02  0.1001E-01  0.7431E-02
     -1.278  0.1908E-02  0.6705E-01  0.8324E-02
     -1.174  0.3368E-02  0.5790E-01  0.1499E-01
     -1.070  0.1865E-02  0.5619E-01  0.5580E-02
     -0.967  0.4710E-03  0.2157E-01  0.4346E-02
     -0.863  0.7191E-03  0.7122E-02  0.2262E-02
     -0.759  0.2596E-03  0.2566E-02  0.1260E-02
     -0.656  0.5064E-03  0.2313E-02  0.6127E-03
     -0.552  0.3068E-12  0.5888E-03  0.2832E-03
     -0.448  0.1335E-07  0.5435E-07  0.7103E-07
     -0.345  0.6721E-04  0.2737E-03  0.3577E-03
     -0.241  0.2495E-11  0.2557E-02  0.1547E-02
     -0.137  0.8747E-29  0.1772E-32  0.7353E-20
     -0.034  0.2614E-12  0.1126E-15  0.2515E-03
      0.070  0.0000E+00  0.0000E+00  0.0000E+00
      0.174  0.0000E+00  0.0000E+00  0.0000E+00
      0.277  0.1636E-12  0.2821E-11  0.4512E-04
      0.381  0.0000E+00  0.0000E+00  0.0000E+00
      0.485  0.0000E+00  0.0000E+00  0.0000E+00
      0.588  0.0000E+00  0.0000E+00  0.0000E+00
      0.692  0.0000E+00  0.0000E+00  0.0000E+00
      0.796  0.0000E+00  0.0000E+00  0.0000E+00
      0.899  0.0000E+00  0.0000E+00  0.0000E+00
      1.003  0.0000E+00  0.0000E+00  0.0000E+00
      1.107  0.0000E+00  0.0000E+00  0.0000E+00
      1.210  0.0000E+00  0.0000E+00  0.0000E+00
      1.314  0.0000E+00  0.0000E+00  0.0000E+00
      1.418  0.0000E+00  0.0000E+00  0.0000E+00
      1.521  0.0000E+00  0.0000E+00  0.0000E+00
      1.625  0.0000E+00  0.0000E+00  0.0000E+00
      1.729  0.0000E+00  0.0000E+00  0.0000E+00
      1.832  0.0000E+00  0.0000E+00  0.0000E+00
      1.936  0.0000E+00  0.0000E+00  0.0000E+00
      2.040  0.0000E+00  0.0000E+00  0.0000E+00
      2.143  0.0000E+00  0.0000E+00  0.0000E+00
      2.247  0.0000E+00  0.0000E+00  0.0000E+00
      2.351  0.0000E+00  0.0000E+00  0.0000E+00
      2.454  0.0000E+00  0.0000E+00  0.0000E+00
      2.558  0.0000E+00  0.0000E+00  0.0000E+00
      2.662  0.0000E+00  0.0000E+00  0.0000E+00
      2.765  0.0000E+00  0.0000E+00  0.0000E+00
      2.869  0.6526E-12  0.1074E-03  0.8284E-03
      2.972  0.7159E-12  0.2066E-03  0.1609E-02
      3.076  0.0000E+00  0.0000E+00  0.0000E+00
      3.180  0.9715E-05  0.1594E-03  0.1842E-04
      3.283  0.4380E-04  0.1057E-02  0.1938E-02
      3.387  0.4937E-17  0.2048E-18  0.1541E-18
      3.491  0.4789E-03  0.4533E-03  0.2040E-02
      3.594  0.6728E-06  0.3330E-04  0.9655E-04
      3.698  0.1987E-10  0.1056E-10  0.5035E-02
      3.802  0.1746E-03  0.1289E-02  0.6554E-02
      3.905  0.7626E-04  0.3637E-02  0.7683E-02
      4.009  0.1982E-06  0.1101E-02  0.1449E-02
      4.113  0.2261E-03  0.4365E-03  0.4884E-03
      4.216  0.1685E-02  0.1057E-02  0.3356E-02
      4.320  0.1876E-05  0.1104E-04  0.1268E-03
      4.424  0.1461E-02  0.1973E-03  0.1703E-04
      4.527  0.0000E+00  0.0000E+00  0.0000E+00
      4.631  0.8537E-10  0.1541E-23  0.3973E-11
      4.735  0.8742E-02  0.1578E-15  0.4068E-03
      4.838  0.0000E+00  0.0000E+00  0.0000E+00
      4.942  0.0000E+00  0.0000E+00  0.0000E+00
      5.046  0.2993E-09  0.2306E-02  0.1520E-01
      5.149  0.7652E-01  0.1532E-01  0.1927E-01
      5.253  0.1553E-02  0.4250E-02  0.6140E-02
      5.357  0.8516E-02  0.3955E-02  0.1674E-01
      5.460  0.3383E-02  0.1729E-01  0.1351E-01
      5.564  0.1011E-13  0.1368E-14  0.4031E-14
      5.668  0.3275E-01  0.5051E-02  0.1986E-01
      5.771  0.2124E-01  0.4985E-02  0.6698E-02
      5.875  0.1525E-01  0.1372E-02  0.3596E-01
      5.979  0.6443E-02  0.6082E-02  0.6644E-01
      6.082  0.1046E+00  0.1082E-01  0.2558E+00
      6.186  0.1096E-01  0.2077E-02  0.1075E+00
      6.290  0.1637E-01  0.1702E-01  0.2809E+00
      6.393  0.7980E-02  0.1243E-01  0.1181E+00
      6.497  0.1612E-01  0.2531E-01  0.5952E+00
      6.601  0.4094E-01  0.1485E-01  0.5374E+00
      6.704  0.2448E-01  0.6421E-01  0.8026E+00
      6.808  0.9835E-02  0.1416E-01  0.3247E+00
      6.912  0.7160E-02  0.1785E-01  0.5554E+00
      7.015  0.3030E-02  0.1072E-01  0.1990E+00
      7.119  0.5111E-02  0.3405E-02  0.8972E-01
      7.223  0.7821E-09  0.7562E-14  0.2298E-09
      7.326  0.1600E-01  0.1547E-06  0.4702E-02
      7.430  0.0000E+00  0.0000E+00  0.0000E+00
      7.534  0.0000E+00  0.0000E+00  0.0000E+00
      7.637  0.0000E+00  0.0000E+00  0.0000E+00
      7.741  0.0000E+00  0.0000E+00  0.0000E+00
      7.845  0.0000E+00  0.0000E+00  0.0000E+00
      7.948  0.0000E+00  0.0000E+00  0.0000E+00
      8.052  0.0000E+00  0.0000E+00  0.0000E+00
      8.156  0.0000E+00  0.0000E+00  0.0000E+00
      8.259  0.0000E+00  0.0000E+00  0.0000E+00
      8.363  0.0000E+00  0.0000E+00  0.0000E+00
      8.466  0.0000E+00  0.0000E+00  0.0000E+00
      8.570  0.0000E+00  0.0000E+00  0.0000E+00
      8.674  0.0000E+00  0.0000E+00  0.0000E+00
      8.67380866    -22.42433884  301      0.32913908      1.00000000
    -22.424  0.0000E+00  0.0000E+00  0.0000E+00
    -22.321  0.0000E+00  0.0000E+00  0.0000E+00
    -22.217  0.0000E+00  0.0000E+00  0.0000E+00
    -22.113  0.0000E+00  0.0000E+00  0.0000E+00
    -22.010  0.0000E+00  0.0000E+00  0.0000E+00
    -21.906  0.0000E+00  0.0000E+00  0.0000E+00
    -21.802  0.0000E+00  0.0000E+00  0.0000E+00
    -21.699  0.0000E+00  0.0000E+00  0.0000E+00
    -21.595  0.0000E+00  0.0000E+00  0.0000E+00
    -21.491  0.0000E+00  0.0000E+00  0.0000E+00
    -21.388  0.0000E+00  0.0000E+00  0.0000E+00
    -21.284  0.0000E+00  0.0000E+00  0.0000E+00
    -21.180  0.0000E+00  0.0000E+00  0.0000E+00
    -21.077  0.0000E+00  0.0000E+00  0.0000E+00
    -20.973  0.4568E-03  0.5410E-07  0.2728E-08
    -20.869  0.1711E+02  0.2224E-08  0.3231E-04
    -20.766  0.6136E-03  0.2675E-07  0.7239E-09
    -20.662  0.0000E+00  0.0000E+00  0.0000E+00
    -20.558  0.0000E+00  0.0000E+00  0.0000E+00
    -20.455  0.0000E+00  0.0000E+00  0.0000E+00
    -20.351  0.0000E+00  0.0000E+00  0.0000E+00
    -20.247  0.0000E+00  0.0000E+00  0.0000E+00
    -20.144  0.0000E+00  0.0000E+00  0.0000E+00
    -20.040  0.0000E+00  0.0000E+00  0.0000E+00
    -19.936  0.0000E+00  0.0000E+00  0.0000E+00
    -19.833  0.0000E+00  0.0000E+00  0.0000E+00
    -19.729  0.0000E+00  0.0000E+00  0.0000E+00
    -19.626  0.0000E+00  0.0000E+00  0.0000E+00
    -19.522  0.0000E+00  0.0000E+00  0.0000E+00
    -19.418  0.0000E+00  0.0000E+00  0.0000E+00
    -19.315  0.0000E+00  0.0000E+00  0.0000E+00
    -19.211  0.0000E+00  0.0000E+00  0.0000E+00
    -19.107  0.0000E+00  0.0000E+00  0.0000E+00
    -19.004  0.0000E+00  0.0000E+00  0.0000E+00
    -18.900  0.0000E+00  0.0000E+00  0.0000E+00
    -18.796  0.0000E+00  0.0000E+00  0.0000E+00
    -18.693  0.0000E+00  0.0000E+00  0.0000E+00
    -18.589  0.0000E+00  0.0000E+00  0.0000E+00
    -18.485  0.0000E+00  0.0000E+00  0.0000E+00
    -18.382  0.0000E+00  0.0000E+00  0.0000E+00
    -18.278  0.0000E+00  0.0000E+00  0.0000E+00
    -18.174  0.0000E+00  0.0000E+00  0.0000E+00
    -18.071  0.0000E+00  0.0000E+00  0.0000E+00
    -17.967  0.0000E+00  0.0000E+00  0.0000E+00
    -17.863  0.0000E+00  0.0000E+00  0.0000E+00
    -17.760  0.0000E+00  0.0000E+00  0.0000E+00
    -17.656  0.0000E+00  0.0000E+00  0.0000E+00
    -17.552  0.0000E+00  0.0000E+00  0.0000E+00
    -17.449  0.0000E+00  0.0000E+00  0.0000E+00
    -17.345  0.0000E+00  0.0000E+00  0.0000E+00
    -17.241  0.0000E+00  0.0000E+00  0.0000E+00
    -17.138  0.0000E+00  0.0000E+00  0.0000E+00
    -17.034  0.0000E+00  0.0000E+00  0.0000E+00
    -16.930  0.0000E+00  0.0000E+00  0.0000E+00
    -16.827  0.0000E+00  0.0000E+00  0.0000E+00
    -16.723  0.0000E+00  0.0000E+00  0.0000E+00
    -16.619  0.0000E+00  0.0000E+00  0.0000E+00
    -16.516  0.0000E+00  0.0000E+00  0.0000E+00
    -16.412  0.9467E-04  0.4053E-04  0.3964E-05
    -16.308  0.6367E-04  0.8970E-04  0.1415E-04
    -16.205  0.2394E-04  0.1503E-04  0.1706E-05
    -16.101  0.0000E+00  0.0000E+00  0.0000E+00
    -15.997  0.0000E+00  0.0000E+00  0.0000E+00
    -15.894  0.0000E+00  0.0000E+00  0.0000E+00
    -15.790  0.0000E+00  0.0000E+00  0.0000E+00
    -15.686  0.0000E+00  0.0000E+00  0.0000E+00
    -15.583  0.0000E+00  0.0000E+00  0.0000E+00
    -15.479  0.0000E+00  0.0000E+00  0.0000E+00
    -15.375  0.0000E+00  0.0000E+00  0.0000E+00
    -15.272  0.0000E+00  0.0000E+00  0.0000E+00
    -15.168  0.0000E+00  0.0000E+00  0.0000E+00
    -15.064  0.0000E+00  0.0000E+00  0.0000E+00
    -14.961  0.0000E+00  0.0000E+00  0.0000E+00
    -14.857  0.0000E+00  0.0000E+00  0.0000E+00
    -14.753  0.0000E+00  0.0000E+00  0.0000E+00
    -14.650  0.0000E+00  0.0000E+00  0.0000E+00
    -14.546  0.0000E+00  0.0000E+00  0.0000E+00
    -14.442  0.0000E+00  0.0000E+00  0.0000E+00
    -14.339  0.2921E-03  0.1304E-05  0.5137E-05
    -14.235  0.7498E-03  0.9541E-03  0.2122E-04
    -14.131  0.7018E-03  0.4390E-02  0.1102E-03
    -14.028  0.2134E-02  0.8354E-02  0.6266E-03
    -13.924  0.1713E-02  0.3669E-02  0.3880E-03
    -13.821  0.1706E-03  0.2409E-02  0.4558E-03
    -13.717  0.1340E-02  0.3213E-02  0.1649E-03
    -13.613  0.0000E+00  0.0000E+00  0.0000E+00
    -13.510  0.0000E+00  0.0000E+00  0.0000E+00
    -13.406  0.0000E+00  0.0000E+00  0.0000E+00
    -13.302  0.0000E+00  0.0000E+00  0.0000E+00
    -13.199  0.0000E+00  0.0000E+00  0.0000E+00