       N       E                     dE             d eps       ncg     rms          rms(c)
DAV:   1     0.658903328114E+03    0.65890E+03   -0.56143E+04  1368   0.921E+02
DAV:   2    -0.575615052916E+03   -0.12345E+04   -0.11780E+04  1640   0.286E+02
DAV:   3    -0.748897786686E+03   -0.17328E+03   -0.17216E+03  1832   0.128E+02
DAV:   4    -0.754290489421E+03   -0.53927E+01   -0.53747E+01  1616   0.295E+01
DAV:   5    -0.754540164984E+03   -0.24968E+00   -0.24948E+00  1792   0.504E+00    0.719E+00
DAV:   6    -0.714896764281E+03    0.39643E+02   -0.11598E+01  1816   0.283E+01    0.511E+00
DAV:   7    -0.714657681168E+03    0.23908E+00   -0.39201E+00  1704   0.490E+00    0.252E+00
DAV:   8    -0.714747767717E+03   -0.90087E-01   -0.18298E-01  1592   0.169E+00    0.148E+00
DAV:   9    -0.714788654103E+03   -0.40886E-01   -0.77792E-02  1528   0.118E+00    0.332E-01
DAV:  10    -0.714789316734E+03   -0.66263E-03   -0.43332E-03  1896   0.332E-01    0.192E-01
DAV:  11    -0.714791134401E+03   -0.18177E-02   -0.21891E-03  1544   0.199E-01    0.771E-02
DAV:  12    -0.714790965670E+03    0.16873E-03   -0.48212E-04  1680   0.110E-01    0.261E-02
DAV:  13    -0.714790959716E+03    0.59535E-05   -0.53329E-05  1672   0.252E-02    0.664E-03
DAV:  14    -0.714790969312E+03   -0.95955E-05   -0.36235E-06  1408   0.626E-03    0.254E-03
DAV:  15    -0.714790966675E+03    0.26366E-05   -0.45351E-07   944   0.272E-03    0.878E-04
DAV:  16    -0.714790964261E+03    0.24144E-05   -0.18184E-07   896   0.157E-03    0.665E-04
DAV:  17    -0.714790962486E+03    0.17754E-05   -0.72490E-08   872   0.124E-03    0.442E-04
DAV:  18    -0.714790963081E+03   -0.59576E-06   -0.32201E-08   840   0.795E-04
   1 F= -.71479096E+03 E0= -.71479096E+03  d E =-.233449E-19
