 vasp.5.4.4.18Apr17-6-g9f103f2a35 (build Jun 22 2020 09:27:21) complex           
 executed on tx2_gcc-7.3_libsci-1 date 2021.09.20  15:14:53
 running on   64 total cores
 distrk:  each k-point on   64 cores,    1 groups
 distr:  one band on NCORES_PER_BAND=   8 cores,    8 groups


--------------------------------------------------------------------------------------------------------


 INCAR:
 POTCAR:    PAW_PBE Cs_sv 08Apr2002               
 POTCAR:    PAW_PBE Pb_d 06Sep2000                
 POTCAR:    PAW_PBE Br 06Sep2000                  
 POTCAR:    PAW_PBE Cs_sv 08Apr2002               
   VRHFIN =Cs: 5s5p6s                                                           
   LEXCH  = PE                                                                  
   EATOM  =   555.6835 eV,   40.8416 Ry                                         
                                                                                
   TITEL  = PAW_PBE Cs_sv 08Apr2002                                             
   LULTRA =        F    use ultrasoft PP ?                                      
   IUNSCR =        1    unscreen: 0-lin 1-nonlin 2-no                           
   RPACOR =    2.200    partial core radius                                     
   POMASS =  132.900; ZVAL   =    9.000    mass and valenz                      
   RCORE  =    2.500    outmost cutoff radius                                   
   RWIGS  =    2.500; RWIGS  =    1.323    wigner-seitz radius (au A)           
   ENMAX  =  220.318; ENMIN  =  165.238 eV                                      
   RCLOC  =    2.207    cutoff for local pot                                    
   LCOR   =        T    correct aug charges                                     
   LPAW   =        T    paw PP                                                  
   EAUG   =  407.933                                                            
   DEXC   =    0.000                                                            
   RMAX   =    2.554    core radius for proj-oper                               
   RAUG   =    1.300    factor for augmentation sphere                          
   RDEP   =    2.590    radius for radial grids                                 
   RDEPT  =    2.117    core radius for aug-charge                              
                                                                                
   Atomic configuration                                                         
   13 entries                                                                   
     n  l   j            E        occ.                                          
     1  0  0.50    -35790.1377   2.0000                                         
     2  0  0.50     -5613.6201   2.0000                                         
     2  1  1.50     -5035.0101   6.0000                                         
     3  0  0.50     -1167.0767   2.0000                                         
     3  1  1.50      -980.9754   6.0000                                         
     3  2  2.50      -708.0703  10.0000                                         
     4  0  0.50      -220.2386   2.0000                                         
     4  1  1.50      -160.7596   6.0000                                         
     4  2  2.50       -74.2354  10.0000                                         
     5  0  0.50       -26.7287   2.0000                                         
     6  0  0.50        -2.0862   1.0000                                         
     5  1  1.50       -13.5159   6.0000                                         
     5  2  2.50        -0.4136   0.0000                                         
   Description                                                                  
     l       E           TYP  RCUT    TYP  RCUT                                 
     0    -26.7287425     23  1.900                                             
     0     -2.0862306     23  1.900                                             
     1    -13.5158719     23  2.500                                             
     1     -2.7211652     23  2.500                                             
     2     -0.4136171     23  2.500                                             
  local pseudopotential read in
  partial core-charges read in
  partial kinetic energy density read in
  atomic valenz-charges read in
  non local Contribution for L=           0  read in
    real space projection operators read in
  non local Contribution for L=           0  read in
    real space projection operators read in
  non local Contribution for L=           1  read in
    real space projection operators read in
  non local Contribution for L=           1  read in
    real space projection operators read in
  non local Contribution for L=           2  read in
    real space projection operators read in
    PAW grid and wavefunctions read in

   number of l-projection  operators is LMAX  =           5
   number of lm-projection operators is LMMAX =          13

 POTCAR:    PAW_PBE Pb_d 06Sep2000                
   VRHFIN =Pb:                                                                  
   LEXCH  = PE                                                                  
   EATOM  =  1661.6185 eV,  122.1255 Ry                                         
                                                                                
   TITEL  = PAW_PBE Pb_d 06Sep2000                                              
   LULTRA =        F    use ultrasoft PP ?                                      
   IUNSCR =        1    unscreen: 0-lin 1-nonlin 2-no                           
   RPACOR =    2.200    partial core radius                                     
   POMASS =  207.200; ZVAL   =   14.000    mass and valenz                      
   RCORE  =    2.500    outmost cutoff radius                                   
   RWIGS  =    3.260; RWIGS  =    1.725    wigner-seitz radius (au A)           
   ENMAX  =  237.835; ENMIN  =  178.376 eV                                      
   ICORE  =        3    local potential                                         
   LCOR   =        T    correct aug charges                                     
   LPAW   =        T    paw PP                                                  
   EAUG   =  391.914                                                            
   DEXC   =    0.000                                                            
   RMAX   =    2.565    core radius for proj-oper                               
   RAUG   =    1.300    factor for augmentation sphere                          
   RDEP   =    2.643    radius for radial grids                                 
   RDEPT  =    2.092    core radius for aug-charge                              
                                                                                
   Atomic configuration                                                         
   16 entries                                                                   
     n  l   j            E        occ.                                          
     1  0  0.50    -88091.8466   2.0000                                         
     2  0  0.50    -15753.4197   2.0000                                         
     2  1  1.50    -13508.1797   6.0000                                         
     3  0  0.50     -3781.7194   2.0000                                         
     3  1  1.50     -3138.2529   6.0000                                         
     3  2  2.50     -2483.2977  10.0000                                         
     4  0  0.50      -856.2895   2.0000                                         
     4  1  1.50      -645.4942   6.0000                                         
     4  2  2.50      -401.8768  10.0000                                         
     4  3  3.50      -132.9059  14.0000                                         
     5  0  0.50      -144.0950   2.0000                                         
     5  1  1.50       -85.7879   6.0000                                         
     5  2  2.50       -21.1769  10.0000                                         
     6  0  0.50       -12.0372   2.0000                                         
     6  1  1.50        -3.4971   2.0000                                         
     5  3  2.50        -2.7212   0.0000                                         
   Description                                                                  
     l       E           TYP  RCUT    TYP  RCUT                                 
     2    -21.1768523     23  2.500                                             
     2      1.3605826     23  2.500                                             
     0    -12.0371562     23  2.500                                             
     0     13.6058260     23  2.500                                             
     1     -3.4971339     23  2.500                                             
     1     13.6058260     23  2.500                                             
     3     -1.3605826      7  2.500                                             
  local pseudopotential read in
  partial core-charges read in
  partial kinetic energy density read in
  atomic valenz-charges read in
  non local Contribution for L=           2  read in
    real space projection operators read in
  non local Contribution for L=           2  read in
    real space projection operators read in
  non local Contribution for L=           0  read in
    real space projection operators read in
  non local Contribution for L=           0  read in
    real space projection operators read in
  non local Contribution for L=           1  read in
    real space projection operators read in
  non local Contribution for L=           1  read in
    real space projection operators read in
    PAW grid and wavefunctions read in

   number of l-projection  operators is LMAX  =           6
   number of lm-projection operators is LMMAX =          18

 POTCAR:    PAW_PBE Br 06Sep2000                  
   VRHFIN =Br: s2p5                                                             
   LEXCH  = PE                                                                  
   EATOM  =   368.4488 eV,   27.0802 Ry                                         
                                                                                
   TITEL  = PAW_PBE Br 06Sep2000                                                
   LULTRA =        F    use ultrasoft PP ?                                      
   IUNSCR =        1    unscreen: 0-lin 1-nonlin 2-no                           
   RPACOR =    1.900    partial core radius                                     
   POMASS =   79.904; ZVAL   =    7.000    mass and valenz                      
   RCORE  =    2.100    outmost cutoff radius                                   
   RWIGS  =    2.200; RWIGS  =    1.164    wigner-seitz radius (au A)           
   ENMAX  =  216.285; ENMIN  =  162.214 eV                                      
   ICORE  =        3    local potential                                         
   LCOR   =        T    correct aug charges                                     
   LPAW   =        T    paw PP                                                  
   EAUG   =  503.852                                                            
   DEXC   =    0.000                                                            
   RMAX   =    2.139    core radius for proj-oper                               
   RAUG   =    1.300    factor for augmentation sphere                          
   RDEP   =    2.186    radius for radial grids                                 
   RDEPT  =    1.890    core radius for aug-charge                              
                                                                                
   Atomic configuration                                                         
   10 entries                                                                   
     n  l   j            E        occ.                                          
     1  0  0.50    -13316.2796   2.0000                                         
     2  0  0.50     -1732.8239   2.0000                                         
     2  1  1.50     -1528.2193   6.0000                                         
     3  0  0.50      -238.0460   2.0000                                         
     3  1  1.50      -173.4609   6.0000                                         
     3  2  2.50       -66.7132  10.0000                                         
     4  0  0.50       -20.1334   2.0000                                         
     4  1  0.50        -7.8591   5.0000                                         
     4  2  2.50        -8.1635   0.0000                                         
     4  3  2.50        -8.1635   0.0000                                         
   Description                                                                  
     l       E           TYP  RCUT    TYP  RCUT                                 
     0    -20.1333652     23  2.100                                             
     0    -21.4939478     23  2.100                                             
     1     -7.8591052     23  2.100                                             
     1     -3.1608434     23  2.100                                             
     2     -8.1634956     23  2.100                                             
     3     -1.3605826      7  2.100                                             
  local pseudopotential read in
  partial core-charges read in
  partial kinetic energy density read in
  atomic valenz-charges read in
  non local Contribution for L=           0  read in
    real space projection operators read in
  non local Contribution for L=           0  read in
    real space projection operators read in
  non local Contribution for L=           1  read in
    real space projection operators read in
  non local Contribution for L=           1  read in
    real space projection operators read in
  non local Contribution for L=           2  read in
    real space projection operators read in
    PAW grid and wavefunctions read in

   number of l-projection  operators is LMAX  =           5
   number of lm-projection operators is LMMAX =          13

 Optimization of the real space projectors (new method)

 maximal supplied QI-value         = 15.12
 optimisation between [QCUT,QGAM] = [  8.77, 17.69] = [ 21.53, 87.61] Ry 
 Optimized for a Real-space Cutoff    1.85 Angstroem

   l    n(q)    QCUT    max X(q) W(low)/X(q) W(high)/X(q)  e(spline) 
   0     10     8.768    25.322    0.81E-04    0.51E-04    0.48E-06
   0     10     8.768    99.187    0.78E-04    0.50E-04    0.47E-06
   1      9     8.768    11.761    0.21E-03    0.20E-03    0.37E-06
   1      9     8.768     8.275    0.24E-03    0.22E-03    0.41E-06
   2      9     8.768     3.829    0.23E-04    0.15E-03    0.18E-06
 Optimization of the real space projectors (new method)

 maximal supplied QI-value         = 15.12
 optimisation between [QCUT,QGAM] = [  8.77, 17.69] = [ 21.53, 87.61] Ry 
 Optimized for a Real-space Cutoff    1.59 Angstroem

   l    n(q)    QCUT    max X(q) W(low)/X(q) W(high)/X(q)  e(spline) 
   2      7     8.768     3.846    0.48E-04    0.11E-03    0.11E-06
   2      7     8.768     8.593    0.20E-03    0.22E-04    0.24E-06
   0      8     8.768    20.082    0.68E-04    0.88E-04    0.41E-07
   0      8     8.768     8.597    0.89E-04    0.13E-03    0.59E-07
   1      8     8.768    33.223    0.15E-03    0.53E-04    0.87E-07
   1      8     8.768    15.899    0.14E-03    0.44E-04    0.78E-07
 Optimization of the real space projectors (new method)

 maximal supplied QI-value         = 17.95
 optimisation between [QCUT,QGAM] = [  8.80, 17.59] = [ 21.67, 86.68] Ry 
 Optimized for a Real-space Cutoff    1.59 Angstroem

   l    n(q)    QCUT    max X(q) W(low)/X(q) W(high)/X(q)  e(spline) 
   0      8     8.797   175.082    0.82E-04    0.14E-03    0.89E-07
   0      8     8.797   174.004    0.79E-04    0.14E-03    0.86E-07
   1      8     8.797    54.315    0.16E-03    0.14E-04    0.30E-06
   1      8     8.797    42.441    0.16E-03    0.14E-04    0.30E-06
   2      7     8.797     3.596    0.92E-04    0.15E-03    0.85E-07
  PAW_PBE Cs_sv 08Apr2002               :
 energy of atom  1       EATOM= -555.6835
 kinetic energy error for atom=    0.0069 (will be added to EATOM!!)
  PAW_PBE Pb_d 06Sep2000                :
 energy of atom  2       EATOM=-1661.6185
 kinetic energy error for atom=    0.0498 (will be added to EATOM!!)
  PAW_PBE Br 06Sep2000                  :
 energy of atom  3       EATOM= -368.4488
 kinetic energy error for atom=    0.0072 (will be added to EATOM!!)


 POSCAR: Cs4 Pb4 Br12                            
  positions in direct lattice
  velocities in cartesian coordinates

 METAGGA = SCAN     LMAXTAU =  6    LMIXTAU =  F

 exchange correlation table for  LEXCH =        8
   RHO(1)=    0.500       N(1)  =     2000
   RHO(2)=  100.500       N(2)  =     4000

 VTST: version 3.2, (02/03/18)

 CHAIN: initializing optimizer
 
 OPT: Using VASP Conjugate-Gradient optimizer
 CHAIN: Read ICHAIN            0

 POSCAR: Cs4 Pb4 Br12                            
  positions in direct lattice
  velocities in cartesian coordinates



--------------------------------------------------------------------------------------------------------


 ion  position               nearest neighbor table
   1  0.500  0.000  0.000-
   2  0.500  0.500  0.500-
   3  0.000  0.000  0.500-
   4  0.000  0.500  0.000-
   5  0.000  0.000  0.000-  17 2.98  20 2.98  13 2.99  14 2.99   9 2.99  11 2.99
   6  0.000  0.500  0.500-  18 2.98  19 2.98  13 2.99  14 2.99  10 2.99  12 2.99
   7  0.500  0.000  0.500-  18 2.98  19 2.98  15 2.99  16 2.99   9 2.99  11 2.99
   8  0.500  0.500  0.000-  17 2.98  20 2.98  15 2.99  16 2.99  10 2.99  12 2.99
   9  0.209  0.956  0.247-   5 2.99   7 2.99
  10  0.209  0.462  0.753-   6 2.99   8 2.99
  11  0.791  0.044  0.753-   5 2.99   7 2.99
  12  0.791  0.538  0.247-   6 2.99   8 2.99
  13  0.044  0.791  0.753-   5 2.99   6 2.99
  14  0.956  0.209  0.247-   5 2.99   6 2.99
  15  0.538  0.791  0.247-   7 2.99   8 2.99
  16  0.462  0.209  0.753-   7 2.99   8 2.99
  17  0.285  0.285  0.070-   5 2.98   8 2.98
  18  0.285  0.715  0.500-   6 2.98   7 2.98
  19  0.715  0.285  0.500-   6 2.98   7 2.98
  20  0.715  0.715  0.930-   5 2.98   8 2.98

  LATTYP: Found a body centered tetragonal cell.
 ALAT       =    11.7865850214
 C/A-ratio  =     0.9901249678
  
  Lattice vectors:
  
 A1 = (   5.8350960572,   5.8932925107,   5.8932925107)
 A2 = (   5.8350960572,  -5.8932925107,  -5.8932925107)
 A3 = (  -5.8350960572,   5.8932925107,  -5.8932925107)


Analysis of symmetry for initial positions (statically):
=====================================================================
 Subroutine PRICEL returns:
 Original cell was already a primitive cell.
 

 Routine SETGRP: Setting up the symmetry group for a 
 body centered tetragonal supercell.


 Subroutine GETGRP returns: Found 16 space group operations
 (whereof  4 operations were pure point group operations)
 out of a pool of 16 trial point group operations.


The static configuration has the point symmetry C_2h.
 The point group associated with its full space group is D_4h.


Analysis of symmetry for dynamics (positions and initial velocities):
=====================================================================
 Subroutine PRICEL returns:
 Original cell was already a primitive cell.
 

 Routine SETGRP: Setting up the symmetry group for a 
 body centered tetragonal supercell.


 Subroutine GETGRP returns: Found 16 space group operations
 (whereof  4 operations were pure point group operations)
 out of a pool of 16 trial point group operations.


The dynamic configuration has the point symmetry C_2h.
 The point group associated with its full space group is D_4h.


 Subroutine INISYM returns: Found 16 space group operations
 (whereof  4 operations are pure point group operations),
 and found     1 'primitive' translations



 KPOINTS: 1x1x1                                   

Automatic generation of k-mesh.
Space group operators:
 irot       det(A)        alpha          n_x          n_y          n_z        tau_x        tau_y        tau_z
    1     1.000000     0.000000     1.000000     0.000000     0.000000     0.000000     0.000000     0.000000
    2    -1.000000     0.000000     1.000000     0.000000     0.000000     0.000000     0.000000     0.000000
    3     1.000000   180.000000     0.000000     0.707107     0.707107     0.000000     0.000000     0.000000
    4    -1.000000   180.000000     0.000000     0.707107     0.707107     0.000000     0.000000     0.000000
    5     1.000000    90.000000    -1.000000    -0.000000    -0.000000     0.000000     0.500000     0.500000
    6    -1.000000    90.000000    -1.000000    -0.000000    -0.000000     0.000000     0.500000     0.500000
    7     1.000000   180.000000     1.000000     0.000000     0.000000     0.500000     0.500000    -0.000000
    8    -1.000000   180.000000     1.000000     0.000000     0.000000     0.500000     0.500000    -0.000000
    9     1.000000    90.000000     1.000000    -0.000000    -0.000000     0.500000    -0.000000     0.500000
   10    -1.000000    90.000000     1.000000    -0.000000    -0.000000     0.500000    -0.000000     0.500000
   11     1.000000   179.999999     0.000000    -1.000000     0.000000     0.500000    -0.000000     0.500000
   12    -1.000000   179.999999     0.000000    -1.000000     0.000000     0.500000    -0.000000     0.500000
   13     1.000000   180.000000     0.000000    -0.707107     0.707107     0.500000     0.500000    -0.000000
   14    -1.000000   180.000000     0.000000    -0.707107     0.707107     0.500000     0.500000    -0.000000
   15     1.000000   179.999999     0.000000     0.000000     1.000000     0.000000     0.500000     0.500000
   16    -1.000000   179.999999     0.000000     0.000000     1.000000     0.000000     0.500000     0.500000
 
 Subroutine IBZKPT returns following result:
 ===========================================
 
 Found      6 irreducible k-points:
 
 Following reciprocal coordinates:
            Coordinates               Weight
  0.000000  0.000000  0.000000      1.000000
  0.333333  0.000000  0.000000      8.000000
  0.333333  0.333333  0.000000      8.000000
 -0.333333  0.333333  0.000000      4.000000
 -0.333333  0.333333  0.333333      4.000000
 -0.333333 -0.333333  0.333333      2.000000
 
 Following cartesian coordinates:
            Coordinates               Weight
  0.000000  0.000000 -0.000000      1.000000
  0.028563  0.028281 -0.000000      8.000000
  0.057126  0.028281 -0.028281      8.000000
  0.000000 -0.028281 -0.028281      4.000000
  0.000000  0.000000 -0.056561      4.000000
 -0.057126  0.000000 -0.000000      2.000000
 


--------------------------------------------------------------------------------------------------------




 Dimension of arrays:
   k-points           NKPTS =      6   k-points in BZ     NKDIM =      6   number of bands    NBANDS=    112
   number of dos      NEDOS =    301   number of ions     NIONS =     20
   non local maximal  LDIM  =      6   non local SUM 2l+1 LMDIM =     18
   total plane-waves  NPLWV = 216000
   max r-space proj   IRMAX =   7094   max aug-charges    IRDMAX= 113362
   dimension x,y,z NGX =    60 NGY =   60 NGZ =   60
   dimension x,y,z NGXF=   120 NGYF=  120 NGZF=  120
   support grid    NGXF=   240 NGYF=  240 NGZF=  240
   ions per type =               4   4  12
   NGX,Y,Z   is equivalent  to a cutoff of   9.80,  9.80,  9.80 a.u.
   NGXF,Y,Z  is equivalent  to a cutoff of  19.61, 19.61, 19.61 a.u.

 SYSTEM =  CsPbBr3 cubic bulk                      
 POSCAR =  Cs4 Pb4 Br12                            

 Startparameter for this run:
   NWRITE =      2    write-flag & timer
   PREC   = accura    normal or accurate (medium, high low for compatibility)
   ISTART =      0    job   : 0-new  1-cont  2-samecut
   ICHARG =      2    charge: 1-file 2-atom 10-const
   ISPIN  =      1    spin polarized calculation?
   LNONCOLLINEAR =      F non collinear calculations
   LSORBIT =      F    spin-orbit coupling
   INIWAV =      1    electr: 0-lowe 1-rand  2-diag
   LASPH  =      T    aspherical Exc in radial PAW
   METAGGA=      F    non-selfconsistent MetaGGA calc.

 Electronic Relaxation 1
   ENCUT  =  300.0 eV  22.05 Ry    4.70 a.u.  14.37 14.37 14.37*2*pi/ulx,y,z
   ENINI  =  300.0     initial cutoff
   ENAUG  =  503.9 eV  augmentation charge cutoff
   NELM   =    200;   NELMIN=  2; NELMDL=  0     # of ELM steps 
   EDIFF  = 0.1E-05   stopping-criterion for ELM
   LREAL  =      T    real-space projection
   NLSPLINE    = F    spline interpolate recip. space projectors
   LCOMPAT=      F    compatible to vasp.4.4
   GGA_COMPAT  = T    GGA compatible to vasp.4.4-vasp.4.6
   LMAXPAW     = -100 max onsite density
   LMAXMIX     =    2 max onsite mixed and CHGCAR
   VOSKOWN=      0    Vosko Wilk Nusair interpolation
   ROPT   =   -0.00025  -0.00025  -0.00025
 Ionic relaxation
   EDIFFG = -.1E-01   stopping-criterion for IOM
   NSW    =      0    number of steps for IOM
   NBLOCK =      1;   KBLOCK =      1    inner block; outer block 
   IBRION =     -1    ionic relax: 0-MD 1-quasi-New 2-CG
   NFREE  =      1    steps in history (QN), initial steepest desc. (CG)
   ISIF   =      3    stress and relaxation
   IWAVPR =     10    prediction:  0-non 1-charg 2-wave 3-comb
   ISYM   =      2    0-nonsym 1-usesym 2-fastsym
   LCORR  =      T    Harris-Foulkes like correction to forces

   POTIM  = 0.5000    time-step for ionic-motion
   TEIN   =    0.0    initial temperature
   TEBEG  =    0.0;   TEEND  =   0.0 temperature during run
   SMASS  =  -3.00    Nose mass-parameter (am)
   estimated Nose-frequenzy (Omega)   =  0.10E-29 period in steps =****** mass=  -0.237E-26a.u.
   SCALEE = 1.0000    scale energy and forces
   NPACO  =    256;   APACO  = 16.0  distance and # of slots for P.C.
   PSTRESS=    0.0 pullay stress

  Mass of Ions in am
   POMASS = 132.90207.20 79.90
  Ionic Valenz
   ZVAL   =   9.00 14.00  7.00
  Atomic Wigner-Seitz radii
   RWIGS  =  -1.00 -1.00 -1.00
  virtual crystal weights 
   VCA    =   1.00  1.00  1.00
   NELECT =     176.0000    total number of electrons
   NUPDOWN=      -1.0000    fix difference up-down

 DOS related values:
   EMIN   =  10.00;   EMAX   =-10.00  energy-range for DOS
   EFERMI =   0.00
   ISMEAR =     0;   SIGMA  =   0.01  broadening in eV -4-tet -1-fermi 0-gaus

 Electronic relaxation 2 (details)
   IALGO  =     38    algorithm
   LDIAG  =      T    sub-space diagonalisation (order eigenvalues)
   LSUBROT=      F    optimize rotation matrix (better conditioning)
   TURBO    =      0    0=normal 1=particle mesh
   IRESTART =      0    0=no restart 2=restart with 2 vectors
   NREBOOT  =      0    no. of reboots
   NMIN     =      0    reboot dimension
   EREF     =   0.00    reference energy to select bands
   IMIX   =      4    mixing-type and parameters
     AMIX     =   0.40;   BMIX     =  1.00
     AMIX_MAG =   1.60;   BMIX_MAG =  1.00
     AMIN     =   0.10
     WC   =   100.;   INIMIX=   1;  MIXPRE=   1;  MAXMIX= -45

 Intra band minimization:
   WEIMIN = 0.0000     energy-eigenvalue tresh-hold
   EBREAK =  0.22E-08  absolut break condition
   DEPER  =   0.30     relativ break condition  

   TIME   =   0.40     timestep for ELM

  volume/ion in A,a.u.               =      40.53       273.52
  Fermi-wavevector in a.u.,A,eV,Ry     =   0.983946  1.859387 13.172464  0.968149
  Thomas-Fermi vector in A             =   2.115141

 Write flags
   LWAVE        =      F    write WAVECAR
   LDOWNSAMPLE  =      F    k-point downsampling of WAVECAR
   LCHARG       =      F    write CHGCAR
   LVTOT        =      F    write LOCPOT, total local potential
   LVHAR        =      T    write LOCPOT, Hartree potential only
   LELF         =      F    write electronic localiz. function (ELF)
   LORBIT       =     10    0 simple, 1 ext, 2 COOP (PROOUT), +10 PAW based schemes


 Dipole corrections
   LMONO  =      F    monopole corrections only (constant potential shift)
   LDIPOL =      F    correct potential (dipole corrections)
   IDIPOL =      0    1-x, 2-y, 3-z, 4-all directions 
   EPSILON=  1.0000000 bulk dielectric constant

 Exchange correlation treatment:
   GGA     =    --    GGA type
   LEXCH   =     8    internal setting for exchange type
   VOSKOWN=      0    Vosko Wilk Nusair interpolation
   LHFCALC =     F    Hartree Fock is set to
   LHFONE  =     F    Hartree Fock one center treatment
   AEXX    =    0.0000 exact exchange contribution

 Linear response parameters
   LEPSILON=     F    determine dielectric tensor
   LRPA    =     F    only Hartree local field effects (RPA)
   LNABLA  =     F    use nabla operator in PAW spheres
   LVEL    =     F    velocity operator in full k-point grid
   LINTERFAST=   F  fast interpolation
   KINTER  =     0    interpolate to denser k-point grid
   CSHIFT  =0.1000    complex shift for real part using Kramers Kronig
   OMEGAMAX=  -1.0    maximum frequency
   DEG_THRESHOLD= 0.2000000E-02 threshold for treating states as degnerate
   RTIME   =   -0.100 relaxation time in fs
  (WPLASMAI=    0.000 imaginary part of plasma frequency in eV, 0.658/RTIME)
   DFIELD  = 0.0000000 0.0000000 0.0000000 field for delta impulse in time

 Orbital magnetization related:
   ORBITALMAG=     F  switch on orbital magnetization
   LCHIMAG   =     F  perturbation theory with respect to B field
   DQ        =  0.001000  dq finite difference perturbation B field
   LLRAUG    =     F  two centre corrections for induced B field



--------------------------------------------------------------------------------------------------------


 Static calculation
 charge density and potential will be updated during run
 non-spin polarized calculation
 Variant of blocked Davidson
 Davidson routine will perform the subspace rotation
 perform sub-space diagonalisation
    after iterative eigenvector-optimisation
 modified Broyden-mixing scheme, WC =      100.0
 initial mixing is a Kerker type mixing with AMIX =  0.4000 and BMIX =      1.0000
 Hartree-type preconditioning will be used
 using additional bands           24
 real space projection scheme for non local part
 use partial core corrections
 calculate Harris-corrections to forces   (improved forces if not selfconsistent)
 use gradient corrections 
 use of overlap-Matrix (Vanderbilt PP)
 Gauss-broadening in eV      SIGMA  =   0.01


--------------------------------------------------------------------------------------------------------


  energy-cutoff  :      300.00
  volume of cell :      810.63
      direct lattice vectors                 reciprocal lattice vectors
     5.835096057  5.893292511  5.893292511     0.085688392  0.084842217  0.000000000
     5.835096057 -5.893292511 -5.893292511     0.085688392 -0.000000000 -0.084842217
    -5.835096057  5.893292511 -5.893292511    -0.000000000  0.084842217 -0.084842217

  length of vectors
    10.173993278 10.173993278 10.173993278     0.120584834  0.120584834  0.119985013



 k-points in units of 2pi/SCALE and weight: 1x1x1                                   
   0.00000000  0.00000000 -0.00000000       0.037
   0.02856280  0.02828074 -0.00000000       0.296
   0.05712559  0.02828074 -0.02828074       0.296
   0.00000000 -0.02828074 -0.02828074       0.148
   0.00000000  0.00000000 -0.05656148       0.148
  -0.05712559  0.00000000 -0.00000000       0.074

 k-points in reciprocal lattice and weights: 1x1x1                                   
   0.00000000  0.00000000  0.00000000       0.037
   0.33333333  0.00000000  0.00000000       0.296
   0.33333333  0.33333333  0.00000000       0.296
  -0.33333333  0.33333333  0.00000000       0.148
  -0.33333333  0.33333333  0.33333333       0.148
  -0.33333333 -0.33333333  0.33333333       0.074

 position of ions in fractional coordinates (direct lattice) 
   0.50000000  0.00000000  0.00000000
   0.50000000  0.50000000  0.50000000
   0.00000000  0.00000000  0.50000000
   0.00000000  0.50000000  0.00000000
   0.00000000  0.00000000  0.00000000
   0.00000000  0.50000000  0.50000000
   0.50000000  0.00000000  0.50000000
   0.50000000  0.50000000  0.00000000
   0.20910429  0.95634836  0.24724407
   0.20910429  0.46186021  0.75275593
   0.79089571  0.04365164  0.75275593
   0.79089571  0.53813979  0.24724407
   0.04365164  0.79089571  0.75275593
   0.95634836  0.20910429  0.24724407
   0.53813979  0.79089571  0.24724407
   0.46186021  0.20910429  0.75275593
   0.28520879  0.28520879  0.07041757
   0.28520879  0.71479121  0.50000000
   0.71479121  0.28520879  0.50000000
   0.71479121  0.71479121  0.92958243

 position of ions in cartesian coordinates  (Angst):
   2.91754803  2.94664626  2.94664626
   2.91754803  2.94664626 -2.94664626
  -2.91754803  2.94664626 -2.94664626
   2.91754803 -2.94664626 -2.94664626
   0.00000000  0.00000000  0.00000000
   0.00000000  0.00000000 -5.89329251
   0.00000000  5.89329251  0.00000000
   5.83509606  0.00000000  0.00000000
   5.35783522 -2.94664626 -5.86080954
  -0.47726084  2.94664626 -5.92577548
   0.47726084  8.83993877 -0.03248297
   6.31235689  2.94664626  0.03248297
   0.47726084  0.03248297 -8.83993877
   5.35783522  5.86080954  2.94664626
   6.31235689 -0.03248297 -2.94664626
  -0.47726084  5.92577548 -2.94664626
   2.91754803  0.41499136 -0.41499136
   2.91754803  0.41499136 -5.47830115
   2.91754803  5.47830115 -0.41499136
   2.91754803  5.47830115 -5.47830115



--------------------------------------------------------------------------------------------------------


 k-point  1 :   0.0000 0.0000 0.0000  plane waves:    9621
 k-point  2 :   0.3333 0.0000 0.0000  plane waves:    9563
 k-point  3 :   0.3333 0.3333 0.0000  plane waves:    9566
 k-point  4 :  -0.3333 0.3333 0.0000  plane waves:    9576
 k-point  5 :  -0.3333 0.3333 0.3333  plane waves:    9562
 k-point  6 :  -0.3333-0.3333 0.3333  plane waves:    9548

 maximum and minimum number of plane-waves per node :      1222     1162

 maximum number of plane-waves:      9621
 maximum index in each direction: 
   IXMAX=   14   IYMAX=   14   IZMAX=   14
   IXMIN=  -14   IYMIN=  -14   IZMIN=  -14


 real space projection operators:
  total allocation   :      10581.19 KBytes
  max/ min on nodes  :       1435.94       1214.23


 parallel 3D FFT for wavefunctions:
    minimum data exchange during FFTs selected (reduces bandwidth)
 parallel 3D FFT for charge:
    minimum data exchange during FFTs selected (reduces bandwidth)


 total amount of memory used by VASP MPI-rank0    45090. kBytes
=======================================================================

   base      :      30000. kBytes
   nonlr-proj:       4162. kBytes
   fftplans  :       5014. kBytes
   grid      :       4180. kBytes
   one-center:         46. kBytes
   wavefun   :       1688. kBytes

     INWAV:  cpu time    0.0000: real time    0.0000
 Broyden mixing: mesh for mixing (old mesh)
   NGX = 29   NGY = 29   NGZ = 29
  (NGX  =120   NGY  =120   NGZ  =120)
  gives a total of  24389 points

 initial charge density was supplied:
 charge density of overlapping atoms calculated
 number of electron     176.0000000 magnetization 
 keeping initial charge density in first step


--------------------------------------------------------------------------------------------------------


 Maximum index for non-local projection operator         1050
 Maximum index for augmentation-charges         2463 (set IRDMAX)


--------------------------------------------------------------------------------------------------------


 First call to EWALD:  gamma=   0.190
 Maximum number of real-space cells 3x 3x 3
 Maximum number of reciprocal cells 3x 3x 3

    FEWALD:  cpu time    0.0023: real time    0.0023


--------------------------------------- Iteration      1(   1)  ---------------------------------------


    POTLOK:  cpu time    0.1445: real time    0.1596
    SETDIJ:  cpu time    1.1732: real time    1.1732
     EDDAV:  cpu time    3.5370: real time    3.5420
       DOS:  cpu time    0.0006: real time    0.0006
    --------------------------------------------
      LOOP:  cpu time    4.8553: real time    4.8755

 eigenvalue-minimisations  :  1368
 total energy-change (2. order) : 0.6589033E+03  (-0.5614320E+04)
 number of electron     176.0000000 magnetization 
 augmentation part      176.0000000 magnetization 

 Free energy of the ion-electron system (eV)
  ---------------------------------------------------
  alpha Z        PSCENC =       445.09558448
  Ewald energy   TEWEN  =     -9169.93488841
  -Hartree energ DENC   =     -3700.26276156
  -exchange      EXHF   =         0.00000000
  -V(xc)+E(xc)   XCENC  =       461.88498847
  PAW double counting   =     10816.98087266   -11353.96092700
  entropy T*S    EENTRO =        -0.00228076
  eigenvalues    EBANDS =      -131.17735904
  atomic energy  EATOM  =     13290.28009929
  Solvation  Ediel_sol  =         0.00000000
  ---------------------------------------------------
  free energy    TOTEN  =       658.90332811 eV

  energy without entropy =      658.90560888  energy(sigma->0) =      658.90446850


--------------------------------------------------------------------------------------------------------




--------------------------------------- Iteration      1(   2)  ---------------------------------------


     EDDAV:  cpu time    3.9902: real time    4.0351
       DOS:  cpu time    0.0003: real time    0.0003
    --------------------------------------------
      LOOP:  cpu time    3.9905: real time    4.0354

 eigenvalue-minimisations  :  1640
 total energy-change (2. order) :-0.1234518E+04  (-0.1178046E+04)
 number of electron     176.0000000 magnetization 
 augmentation part      176.0000000 magnetization 

 Free energy of the ion-electron system (eV)
  ---------------------------------------------------
  alpha Z        PSCENC =       445.09558448
  Ewald energy   TEWEN  =     -9169.93488841
  -Hartree energ DENC   =     -3700.26276156
  -exchange      EXHF   =         0.00000000
  -V(xc)+E(xc)   XCENC  =       461.88498847
  PAW double counting   =     10816.98087266   -11353.96092700
  entropy T*S    EENTRO =        -0.00000000
  eigenvalues    EBANDS =     -1365.69802083
  atomic energy  EATOM  =     13290.28009929
  Solvation  Ediel_sol  =         0.00000000
  ---------------------------------------------------
  free energy    TOTEN  =      -575.61505292 eV

  energy without entropy =     -575.61505292  energy(sigma->0) =     -575.61505292


--------------------------------------------------------------------------------------------------------




--------------------------------------- Iteration      1(   3)  ---------------------------------------


     EDDAV:  cpu time    4.3191: real time    4.3314
       DOS:  cpu time    0.0006: real time    0.0006
    --------------------------------------------
      LOOP:  cpu time    4.3198: real time    4.3321

 eigenvalue-minimisations  :  1832
 total energy-change (2. order) :-0.1732827E+03  (-0.1721557E+03)
 number of electron     176.0000000 magnetization 
 augmentation part      176.0000000 magnetization 

 Free energy of the ion-electron system (eV)
  ---------------------------------------------------
  alpha Z        PSCENC =       445.09558448
  Ewald energy   TEWEN  =     -9169.93488841
  -Hartree energ DENC   =     -3700.26276156
  -exchange      EXHF   =         0.00000000
  -V(xc)+E(xc)   XCENC  =       461.88498847
  PAW double counting   =     10816.98087266   -11353.96092700
  entropy T*S    EENTRO =        -0.00000000
  eigenvalues    EBANDS =     -1538.98075460
  atomic energy  EATOM  =     13290.28009929
  Solvation  Ediel_sol  =         0.00000000
  ---------------------------------------------------
  free energy    TOTEN  =      -748.89778669 eV

  energy without entropy =     -748.89778669  energy(sigma->0) =     -748.89778669


--------------------------------------------------------------------------------------------------------




--------------------------------------- Iteration      1(   4)  ---------------------------------------


     EDDAV:  cpu time    3.9596: real time    3.9862
       DOS:  cpu time    0.0003: real time    0.0003
    --------------------------------------------
      LOOP:  cpu time    3.9599: real time    3.9864

 eigenvalue-minimisations  :  1616
 total energy-change (2. order) :-0.5392703E+01  (-0.5374728E+01)
 number of electron     176.0000000 magnetization 
 augmentation part      176.0000000 magnetization 

 Free energy of the ion-electron system (eV)
  ---------------------------------------------------
  alpha Z        PSCENC =       445.09558448
  Ewald energy   TEWEN  =     -9169.93488841
  -Hartree energ DENC   =     -3700.26276156
  -exchange      EXHF   =         0.00000000
  -V(xc)+E(xc)   XCENC  =       461.88498847
  PAW double counting   =     10816.98087266   -11353.96092700
  entropy T*S    EENTRO =        -0.00000000
  eigenvalues    EBANDS =     -1544.37345733
  atomic energy  EATOM  =     13290.28009929
  Solvation  Ediel_sol  =         0.00000000
  ---------------------------------------------------
  free energy    TOTEN  =      -754.29048942 eV

  energy without entropy =     -754.29048942  energy(sigma->0) =     -754.29048942


--------------------------------------------------------------------------------------------------------




--------------------------------------- Iteration      1(   5)  ---------------------------------------


     EDDAV:  cpu time    4.2261: real time    4.2448
       DOS:  cpu time    0.0007: real time    0.0008
    CHARGE:  cpu time    0.9512: real time    0.9512
    MIXING:  cpu time    0.0012: real time    0.0012
    --------------------------------------------
      LOOP:  cpu time    5.1792: real time    5.1979

 eigenvalue-minimisations  :  1792
 total energy-change (2. order) :-0.2496756E+00  (-0.2494848E+00)
 number of electron     176.0000002 magnetization 
 augmentation part       -3.2557998 magnetization 

 Broyden mixing:
  rms(total) = 0.71932E+00    rms(broyden)= 0.71909E+00
  rms(prec ) = 0.11819E+01
  weight for this iteration     100.00

 Free energy of the ion-electron system (eV)
  ---------------------------------------------------
  alpha Z        PSCENC =       445.09558448
  Ewald energy   TEWEN  =     -9169.93488841
  -Hartree energ DENC   =     -3700.26276156
  -exchange      EXHF   =         0.00000000
  -V(xc)+E(xc)   XCENC  =       461.88498847
  PAW double counting   =     10816.98087266   -11353.96092700
  entropy T*S    EENTRO =        -0.00000000
  eigenvalues    EBANDS =     -1544.62313290
  atomic energy  EATOM  =     13290.28009929
  Solvation  Ediel_sol  =         0.00000000
  ---------------------------------------------------
  free energy    TOTEN  =      -754.54016498 eV

  energy without entropy =     -754.54016498  energy(sigma->0) =     -754.54016498


--------------------------------------------------------------------------------------------------------




--------------------------------------- Iteration      1(   6)  ---------------------------------------


    POTLOK:  cpu time    0.1632: real time    0.1887
    SETDIJ:  cpu time    1.1715: real time    1.1715
     EDDAV:  cpu time    4.2289: real time    4.2291
       DOS:  cpu time    0.0004: real time    0.0004
    CHARGE:  cpu time    0.9186: real time    0.9187
    MIXING:  cpu time    0.0009: real time    0.0009
    --------------------------------------------
      LOOP:  cpu time    6.4835: real time    6.5093

 eigenvalue-minimisations  :  1816
 total energy-change (2. order) : 0.3964340E+02  (-0.1159810E+01)
 number of electron     176.0000002 magnetization 
 augmentation part       -2.5372657 magnetization 

 Broyden mixing:
  rms(total) = 0.51135E+00    rms(broyden)= 0.51129E+00
  rms(prec ) = 0.72629E+00
  weight for this iteration     100.00

 eigenvalues of (default mixing * dielectric matrix)
  average eigenvalue GAMMA=   1.1992
  1.1992

 Free energy of the ion-electron system (eV)
  ---------------------------------------------------
  alpha Z        PSCENC =       445.09558448
  Ewald energy   TEWEN  =     -9169.93488841
  -Hartree energ DENC   =     -3691.84456395
  -exchange      EXHF   =         0.00000000
  -V(xc)+E(xc)   XCENC  =       477.49189277
  PAW double counting   =     10980.65842763   -11516.99650919
  entropy T*S    EENTRO =        -0.00000000
  eigenvalues    EBANDS =     -1529.64680689
  atomic energy  EATOM  =     13290.28009929
  Solvation  Ediel_sol  =         0.00000000
  ---------------------------------------------------
  free energy    TOTEN  =      -714.89676428 eV

  energy without entropy =     -714.89676428  energy(sigma->0) =     -714.89676428


--------------------------------------------------------------------------------------------------------




--------------------------------------- Iteration      1(   7)  ---------------------------------------


    POTLOK:  cpu time    0.1835: real time    0.1911
    SETDIJ:  cpu time    1.1683: real time    1.1683
     EDDAV:  cpu time    4.0511: real time    4.0513
       DOS:  cpu time    0.0003: real time    0.0003
    CHARGE:  cpu time    0.9196: real time    0.9197
    MIXING:  cpu time    0.0009: real time    0.0009
    --------------------------------------------
      LOOP:  cpu time    6.3238: real time    6.3316

 eigenvalue-minimisations  :  1704
 total energy-change (2. order) : 0.2390831E+00  (-0.3920122E+00)
 number of electron     176.0000002 magnetization 
 augmentation part       -2.2677129 magnetization 

 Broyden mixing:
  rms(total) = 0.25164E+00    rms(broyden)= 0.25163E+00
  rms(prec ) = 0.29656E+00
  weight for this iteration     100.00

 eigenvalues of (default mixing * dielectric matrix)
  average eigenvalue GAMMA=   1.3297
  1.3297  1.3297

 Free energy of the ion-electron system (eV)
  ---------------------------------------------------
  alpha Z        PSCENC =       445.09558448
  Ewald energy   TEWEN  =     -9169.93488841
  -Hartree energ DENC   =     -3713.77655451
  -exchange      EXHF   =         0.00000000
  -V(xc)+E(xc)   XCENC  =       480.27898553
  PAW double counting   =     11315.43667791   -11851.04066580
  entropy T*S    EENTRO =        -0.00000000
  eigenvalues    EBANDS =     -1510.99691965
  atomic energy  EATOM  =     13290.28009929
  Solvation  Ediel_sol  =         0.00000000
  ---------------------------------------------------
  free energy    TOTEN  =      -714.65768117 eV

  energy without entropy =     -714.65768117  energy(sigma->0) =     -714.65768117


--------------------------------------------------------------------------------------------------------




--------------------------------------- Iteration      1(   8)  ---------------------------------------


    POTLOK:  cpu time    0.1534: real time    0.1866
    SETDIJ:  cpu time    1.1700: real time    1.1700
     EDDAV:  cpu time    3.8727: real time    3.8728
       DOS:  cpu time    0.0004: real time    0.0004
    CHARGE:  cpu time    0.9166: real time    0.9167
    MIXING:  cpu time    0.0009: real time    0.0009
    --------------------------------------------
      LOOP:  cpu time    6.1140: real time    6.1474

 eigenvalue-minimisations  :  1592
 total energy-change (2. order) :-0.9008655E-01  (-0.1829774E-01)
 number of electron     176.0000002 magnetization 
 augmentation part       -2.3115638 magnetization 

 Broyden mixing:
  rms(total) = 0.14782E+00    rms(broyden)= 0.14781E+00
  rms(prec ) = 0.17646E+00
  weight for this iteration     100.00

 eigenvalues of (default mixing * dielectric matrix)
  average eigenvalue GAMMA=   1.7272
  1.0739  1.3892  2.7185

 Free energy of the ion-electron system (eV)
  ---------------------------------------------------
  alpha Z        PSCENC =       445.09558448
  Ewald energy   TEWEN  =     -9169.93488841
  -Hartree energ DENC   =     -3715.73907134
  -exchange      EXHF   =         0.00000000
  -V(xc)+E(xc)   XCENC  =       480.60273149
  PAW double counting   =     11433.34350108   -11969.13941755
  entropy T*S    EENTRO =        -0.00000000
  eigenvalues    EBANDS =     -1509.25630675
  atomic energy  EATOM  =     13290.28009929
  Solvation  Ediel_sol  =         0.00000000
  ---------------------------------------------------
  free energy    TOTEN  =      -714.74776772 eV

  energy without entropy =     -714.74776772  energy(sigma->0) =     -714.74776772


--------------------------------------------------------------------------------------------------------




--------------------------------------- Iteration      1(   9)  ---------------------------------------


    POTLOK:  cpu time    0.1888: real time    0.1962
    SETDIJ:  cpu time    1.1692: real time    1.1692
     EDDAV:  cpu time    3.7771: real time    3.7772
       DOS:  cpu time    0.0004: real time    0.0004
    CHARGE:  cpu time    0.9174: real time    0.9175
    MIXING:  cpu time    0.0009: real time    0.0009
    --------------------------------------------
      LOOP:  cpu time    6.0539: real time    6.0614

 eigenvalue-minimisations  :  1528
 total energy-change (2. order) :-0.4088639E-01  (-0.7779199E-02)
 number of electron     176.0000002 magnetization 
 augmentation part       -2.3361220 magnetization 

 Broyden mixing:
  rms(total) = 0.33217E-01    rms(broyden)= 0.33215E-01
  rms(prec ) = 0.37601E-01
  weight for this iteration     100.00

 eigenvalues of (default mixing * dielectric matrix)
  average eigenvalue GAMMA=   1.4728
  2.5432  1.2566  1.2566  0.8347

 Free energy of the ion-electron system (eV)
  ---------------------------------------------------
  alpha Z        PSCENC =       445.09558448
  Ewald energy   TEWEN  =     -9169.93488841
  -Hartree energ DENC   =     -3718.59376320
  -exchange      EXHF   =         0.00000000
  -V(xc)+E(xc)   XCENC  =       481.59906614
  PAW double counting   =     11609.15731904   -12145.37193100
  entropy T*S    EENTRO =        -0.00000000
  eigenvalues    EBANDS =     -1507.02014043
  atomic energy  EATOM  =     13290.28009929
  Solvation  Ediel_sol  =         0.00000000
  ---------------------------------------------------
  free energy    TOTEN  =      -714.78865410 eV

  energy without entropy =     -714.78865410  energy(sigma->0) =     -714.78865410


--------------------------------------------------------------------------------------------------------




--------------------------------------- Iteration      1(  10)  ---------------------------------------


    POTLOK:  cpu time    0.1409: real time    0.1880
    SETDIJ:  cpu time    1.1692: real time    1.1692
     EDDAV:  cpu time    4.3510: real time    4.3512
       DOS:  cpu time    0.0004: real time    0.0004
    CHARGE:  cpu time    0.9218: real time    0.9219
    MIXING:  cpu time    0.0010: real time    0.0010
    --------------------------------------------
      LOOP:  cpu time    6.5843: real time    6.6317

 eigenvalue-minimisations  :  1896
 total energy-change (2. order) :-0.6626309E-03  (-0.4333215E-03)
 number of electron     176.0000002 magnetization 
 augmentation part       -2.3289237 magnetization 

 Broyden mixing:
  rms(total) = 0.19177E-01    rms(broyden)= 0.19177E-01
  rms(prec ) = 0.22871E-01
  weight for this iteration     100.00

 eigenvalues of (default mixing * dielectric matrix)
  average eigenvalue GAMMA=   1.6481
  2.5455  2.5455  1.1477  1.1477  0.8542

 Free energy of the ion-electron system (eV)
  ---------------------------------------------------
  alpha Z        PSCENC =       445.09558448
  Ewald energy   TEWEN  =     -9169.93488841
  -Hartree energ DENC   =     -3717.70869248
  -exchange      EXHF   =         0.00000000
  -V(xc)+E(xc)   XCENC  =       481.49710434
  PAW double counting   =     11589.51008465   -12125.74987083
  entropy T*S    EENTRO =        -0.00000000
  eigenvalues    EBANDS =     -1507.77873776
  atomic energy  EATOM  =     13290.28009929
  Solvation  Ediel_sol  =         0.00000000
  ---------------------------------------------------
  free energy    TOTEN  =      -714.78931673 eV

  energy without entropy =     -714.78931673  energy(sigma->0) =     -714.78931673


--------------------------------------------------------------------------------------------------------




--------------------------------------- Iteration      1(  11)  ---------------------------------------


    POTLOK:  cpu time    0.1471: real time    0.1779
    SETDIJ:  cpu time    1.1692: real time    1.1692
     EDDAV:  cpu time    3.8004: real time    3.8006
       DOS:  cpu time    0.0004: real time    0.0004
    CHARGE:  cpu time    0.9185: real time    0.9185
    MIXING:  cpu time    0.0010: real time    0.0010
    --------------------------------------------
      LOOP:  cpu time    6.0366: real time    6.0676

 eigenvalue-minimisations  :  1544
 total energy-change (2. order) :-0.1817667E-02  (-0.2189096E-03)
 number of electron     176.0000002 magnetization 
 augmentation part       -2.3271761 magnetization 

 Broyden mixing:
  rms(total) = 0.77124E-02    rms(broyden)= 0.77121E-02
  rms(prec ) = 0.10518E-01
  weight for this iteration     100.00

 eigenvalues of (default mixing * dielectric matrix)
  average eigenvalue GAMMA=   1.5964
  2.6187  2.6187  1.2527  1.2527  0.9178  0.9178

 Free energy of the ion-electron system (eV)
  ---------------------------------------------------
  alpha Z        PSCENC =       445.09558448
  Ewald energy   TEWEN  =     -9169.93488841
  -Hartree energ DENC   =     -3716.23801926
  -exchange      EXHF   =         0.00000000
  -V(xc)+E(xc)   XCENC  =       481.43934725
  PAW double counting   =     11568.90048138   -12105.27111818
  entropy T*S    EENTRO =        -0.00000000
  eigenvalues    EBANDS =     -1509.06262094
  atomic energy  EATOM  =     13290.28009929
  Solvation  Ediel_sol  =         0.00000000
  ---------------------------------------------------
  free energy    TOTEN  =      -714.79113440 eV

  energy without entropy =     -714.79113440  energy(sigma->0) =     -714.79113440


--------------------------------------------------------------------------------------------------------




--------------------------------------- Iteration      1(  12)  ---------------------------------------


    POTLOK:  cpu time    0.1442: real time    0.1891
    SETDIJ:  cpu time    1.1730: real time    1.1731
     EDDAV:  cpu time    4.0179: real time    4.0181
       DOS:  cpu time    0.0004: real time    0.0004
    CHARGE:  cpu time    0.9203: real time    0.9203
    MIXING:  cpu time    0.0011: real time    0.0011
    --------------------------------------------
      LOOP:  cpu time    6.2569: real time    6.3021

 eigenvalue-minimisations  :  1680
 total energy-change (2. order) : 0.1687310E-03  (-0.4821250E-04)
 number of electron     176.0000002 magnetization 
 augmentation part       -2.3296401 magnetization 

 Broyden mixing:
  rms(total) = 0.26106E-02    rms(broyden)= 0.26101E-02
  rms(prec ) = 0.32540E-02
  weight for this iteration     100.00

 eigenvalues of (default mixing * dielectric matrix)
  average eigenvalue GAMMA=   1.6458
  3.0487  2.4052  1.8565  1.1928  1.0319  0.9927  0.9927

 Free energy of the ion-electron system (eV)
  ---------------------------------------------------
  alpha Z        PSCENC =       445.09558448
  Ewald energy   TEWEN  =     -9169.93488841
  -Hartree energ DENC   =     -3716.60939972
  -exchange      EXHF   =         0.00000000
  -V(xc)+E(xc)   XCENC  =       481.50793425
  PAW double counting   =     11576.11760221   -12112.51386196
  entropy T*S    EENTRO =        -0.00000000
  eigenvalues    EBANDS =     -1508.73403580
  atomic energy  EATOM  =     13290.28009929
  Solvation  Ediel_sol  =         0.00000000
  ---------------------------------------------------
  free energy    TOTEN  =      -714.79096567 eV

  energy without entropy =     -714.79096567  energy(sigma->0) =     -714.79096567


--------------------------------------------------------------------------------------------------------




--------------------------------------- Iteration      1(  13)  ---------------------------------------


    POTLOK:  cpu time    0.1396: real time    0.1901
    SETDIJ:  cpu time    1.1731: real time    1.1731
     EDDAV:  cpu time    4.0018: real time    4.0020
       DOS:  cpu time    0.0003: real time    0.0003
    CHARGE:  cpu time    0.9215: real time    0.9215
    MIXING:  cpu time    0.0013: real time    0.0013
    --------------------------------------------
      LOOP:  cpu time    6.2376: real time    6.2883

 eigenvalue-minimisations  :  1672
 total energy-change (2. order) : 0.5953548E-05  (-0.5332923E-05)
 number of electron     176.0000002 magnetization 
 augmentation part       -2.3293647 magnetization 

 Broyden mixing:
  rms(total) = 0.66441E-03    rms(broyden)= 0.66320E-03
  rms(prec ) = 0.78087E-03
  weight for this iteration     100.00

 eigenvalues of (default mixing * dielectric matrix)
  average eigenvalue GAMMA=   1.6225
  3.0179  2.4871  1.8048  1.4662  1.1313  1.1313  0.9709  0.9709

 Free energy of the ion-electron system (eV)
  ---------------------------------------------------
  alpha Z        PSCENC =       445.09558448
  Ewald energy   TEWEN  =     -9169.93488841
  -Hartree energ DENC   =     -3716.78961420
  -exchange      EXHF   =         0.00000000
  -V(xc)+E(xc)   XCENC  =       481.52075381
  PAW double counting   =     11574.50616130   -12110.90195491
  entropy T*S    EENTRO =        -0.00000000
  eigenvalues    EBANDS =     -1508.56710108
  atomic energy  EATOM  =     13290.28009929
  Solvation  Ediel_sol  =         0.00000000
  ---------------------------------------------------
  free energy    TOTEN  =      -714.79095972 eV

  energy without entropy =     -714.79095972  energy(sigma->0) =     -714.79095972


--------------------------------------------------------------------------------------------------------




--------------------------------------- Iteration      1(  14)  ---------------------------------------


    POTLOK:  cpu time    0.1537: real time    0.1958
    SETDIJ:  cpu time    1.1708: real time    1.1708
     EDDAV:  cpu time    3.6138: real time    3.6139
       DOS:  cpu time    0.0003: real time    0.0003
    CHARGE:  cpu time    0.9197: real time    0.9197
    MIXING:  cpu time    0.0011: real time    0.0011
    --------------------------------------------
      LOOP:  cpu time    5.8594: real time    5.9017

 eigenvalue-minimisations  :  1408
 total energy-change (2. order) :-0.9595501E-05  (-0.3623514E-06)
 number of electron     176.0000002 magnetization 
 augmentation part       -2.3292566 magnetization 

 Broyden mixing:
  rms(total) = 0.25369E-03    rms(broyden)= 0.25058E-03
  rms(prec ) = 0.32135E-03
  weight for this iteration     100.00

 eigenvalues of (default mixing * dielectric matrix)
  average eigenvalue GAMMA=   1.6829
  2.8805  2.7905  2.1266  2.1266  1.1231  1.1231  1.0320  1.0320  0.9121

 Free energy of the ion-electron system (eV)
  ---------------------------------------------------
  alpha Z        PSCENC =       445.09558448
  Ewald energy   TEWEN  =     -9169.93488841
  -Hartree energ DENC   =     -3716.79052054
  -exchange      EXHF   =         0.00000000
  -V(xc)+E(xc)   XCENC  =       481.52000532
  PAW double counting   =     11574.34041449   -12110.73450913
  entropy T*S    EENTRO =        -0.00000000
  eigenvalues    EBANDS =     -1508.56715481
  atomic energy  EATOM  =     13290.28009929
  Solvation  Ediel_sol  =         0.00000000
  ---------------------------------------------------
  free energy    TOTEN  =      -714.79096931 eV

  energy without entropy =     -714.79096931  energy(sigma->0) =     -714.79096931


--------------------------------------------------------------------------------------------------------




--------------------------------------- Iteration      1(  15)  ---------------------------------------


    POTLOK:  cpu time    0.1642: real time    0.1853
    SETDIJ:  cpu time    1.1693: real time    1.1693
     EDDAV:  cpu time    2.9039: real time    2.9040
       DOS:  cpu time    0.0004: real time    0.0004
    CHARGE:  cpu time    0.9180: real time    0.9180
    MIXING:  cpu time    0.0012: real time    0.0012
    --------------------------------------------
      LOOP:  cpu time    5.1571: real time    5.1783

 eigenvalue-minimisations  :   944
 total energy-change (2. order) : 0.2636554E-05  (-0.4535057E-07)
 number of electron     176.0000002 magnetization 
 augmentation part       -2.3292835 magnetization 

 Broyden mixing:
  rms(total) = 0.87751E-04    rms(broyden)= 0.78376E-04
  rms(prec ) = 0.10895E-03
  weight for this iteration     100.00
  WARNING: grid for Broyden might be to small

 eigenvalues of (default mixing * dielectric matrix)
  average eigenvalue GAMMA=   1.6815
  3.2200  2.8001  2.5099  1.8038  1.3600  1.1291  1.1291  0.9697  0.9697  0.9234

 Free energy of the ion-electron system (eV)
  ---------------------------------------------------
  alpha Z        PSCENC =       445.09558448
  Ewald energy   TEWEN  =     -9169.93488841
  -Hartree energ DENC   =     -3716.79140022
  -exchange      EXHF   =         0.00000000
  -V(xc)+E(xc)   XCENC  =       481.52000262
  PAW double counting   =     11574.46747372   -12110.86013205
  entropy T*S    EENTRO =        -0.00000000
  eigenvalues    EBANDS =     -1508.56770610
  atomic energy  EATOM  =     13290.28009929
  Solvation  Ediel_sol  =         0.00000000
  ---------------------------------------------------
  free energy    TOTEN  =      -714.79096668 eV

  energy without entropy =     -714.79096668  energy(sigma->0) =     -714.79096668


--------------------------------------------------------------------------------------------------------




--------------------------------------- Iteration      1(  16)  ---------------------------------------


    POTLOK:  cpu time    0.1434: real time    0.1804
    SETDIJ:  cpu time    1.1703: real time    1.1704
     EDDAV:  cpu time    2.8338: real time    2.8339
       DOS:  cpu time    0.0004: real time    0.0004
    CHARGE:  cpu time    0.9185: real time    0.9185
    MIXING:  cpu time    0.0012: real time    0.0012
    --------------------------------------------
      LOOP:  cpu time    5.0676: real time    5.1048

 eigenvalue-minimisations  :   896
 total energy-change (2. order) : 0.2414449E-05  (-0.1818418E-07)
 number of electron     176.0000002 magnetization 
 augmentation part       -2.3292739 magnetization 

 Broyden mixing:
  rms(total) = 0.66529E-04    rms(broyden)= 0.53568E-04
  rms(prec ) = 0.62252E-04
  weight for this iteration     100.00
  WARNING: grid for Broyden might be to small

 eigenvalues of (default mixing * dielectric matrix)
  average eigenvalue GAMMA=   1.7064
  3.3657  2.8657  2.6482  1.8587  1.8587  1.0195  1.0195  1.1211  1.1211  0.9358
  0.9561

 Free energy of the ion-electron system (eV)
  ---------------------------------------------------
  alpha Z        PSCENC =       445.09558448
  Ewald energy   TEWEN  =     -9169.93488841
  -Hartree energ DENC   =     -3716.79656898
  -exchange      EXHF   =         0.00000000
  -V(xc)+E(xc)   XCENC  =       481.52039723
  PAW double counting   =     11574.46967465   -12110.86212644
  entropy T*S    EENTRO =        -0.00000000
  eigenvalues    EBANDS =     -1508.56313608
  atomic energy  EATOM  =     13290.28009929
  Solvation  Ediel_sol  =         0.00000000
  ---------------------------------------------------
  free energy    TOTEN  =      -714.79096426 eV

  energy without entropy =     -714.79096426  energy(sigma->0) =     -714.79096426


--------------------------------------------------------------------------------------------------------




--------------------------------------- Iteration      1(  17)  ---------------------------------------


    POTLOK:  cpu time    0.1572: real time    0.1838
    SETDIJ:  cpu time    1.1719: real time    1.1719
     EDDAV:  cpu time    2.7955: real time    2.7958
       DOS:  cpu time    0.0004: real time    0.0004
    CHARGE:  cpu time    0.9198: real time    0.9198
    MIXING:  cpu time    0.0012: real time    0.0012
    --------------------------------------------
      LOOP:  cpu time    5.0461: real time    5.0731

 eigenvalue-minimisations  :   872
 total energy-change (2. order) : 0.1775360E-05  (-0.7249040E-08)
 number of electron     176.0000002 magnetization 
 augmentation part       -2.3292838 magnetization 

 Broyden mixing:
  rms(total) = 0.44249E-04    rms(broyden)= 0.20039E-04
  rms(prec ) = 0.23588E-04
  weight for this iteration     100.00
  WARNING: grid for Broyden might be to small

 eigenvalues of (default mixing * dielectric matrix)
  average eigenvalue GAMMA=   1.7670
  3.9362  2.8347  2.8347  2.2479  1.8547  1.2990  1.2151  1.0862  1.0862  0.9451
  0.9451  0.9189

 Free energy of the ion-electron system (eV)
  ---------------------------------------------------
  alpha Z        PSCENC =       445.09558448
  Ewald energy   TEWEN  =     -9169.93488841
  -Hartree energ DENC   =     -3716.79813365
  -exchange      EXHF   =         0.00000000
  -V(xc)+E(xc)   XCENC  =       481.52037869
  PAW double counting   =     11574.49339553   -12110.88575829
  entropy T*S    EENTRO =        -0.00000000
  eigenvalues    EBANDS =     -1508.56164012
  atomic energy  EATOM  =     13290.28009929
  Solvation  Ediel_sol  =         0.00000000
  ---------------------------------------------------
  free energy    TOTEN  =      -714.79096249 eV

  energy without entropy =     -714.79096249  energy(sigma->0) =     -714.79096249


--------------------------------------------------------------------------------------------------------




--------------------------------------- Iteration      1(  18)  ---------------------------------------


    POTLOK:  cpu time    0.1420: real time    0.1925
    SETDIJ:  cpu time    1.1720: real time    1.1720
     EDDAV:  cpu time    2.7442: real time    2.7444
       DOS:  cpu time    0.0003: real time    0.0003
    --------------------------------------------
      LOOP:  cpu time    4.0584: real time    4.1091

 eigenvalue-minimisations  :   840
 total energy-change (2. order) :-0.5957590E-06  (-0.3220064E-08)
 number of electron     176.0000002 magnetization 
 augmentation part       -2.3292838 magnetization 

 Free energy of the ion-electron system (eV)
  ---------------------------------------------------
  alpha Z        PSCENC =       445.09558448
  Ewald energy   TEWEN  =     -9169.93488841
  -Hartree energ DENC   =     -3716.79705156
  -exchange      EXHF   =         0.00000000
  -V(xc)+E(xc)   XCENC  =       481.52033517
  PAW double counting   =     11574.49279040   -12110.88520789
  entropy T*S    EENTRO =        -0.00000000
  eigenvalues    EBANDS =     -1508.56262455
  atomic energy  EATOM  =     13290.28009929
  Solvation  Ediel_sol  =         0.00000000
  ---------------------------------------------------
  free energy    TOTEN  =      -714.79096308 eV

  energy without entropy =     -714.79096308  energy(sigma->0) =     -714.79096308


--------------------------------------------------------------------------------------------------------




 average (electrostatic) potential at core
  the test charge radii are     1.1312  1.1541  1.0178
  (the norm of the test charge is              1.0000)
       1 -55.5044       2 -55.3585       3 -55.3139       4 -55.5044       5-101.5857
       6-101.5857       7-101.5857       8-101.5857       9 -68.9894      10 -68.9894
      11 -68.9894      12 -68.9894      13 -68.9894      14 -68.9894      15 -68.9894
      16 -68.9894      17 -68.9969      18 -68.9969      19 -68.9969      20 -68.9969



 E-fermi :   0.3291     XC(G=0):  -8.0313     alpha+bet : -6.9828


 k-point     1 :       0.0000    0.0000    0.0000
  band No.  band energies     occupation 
      1     -21.0108      2.00000
      2     -21.0096      2.00000
      3     -20.8926      2.00000
      4     -20.8313      2.00000
      5     -16.4239      2.00000
      6     -16.4197      2.00000
      7     -16.3956      2.00000
      8     -16.3909      2.00000
      9     -16.3908      2.00000
     10     -16.3239      2.00000
     11     -16.3238      2.00000
     12     -16.3228      2.00000
     13     -16.2519      2.00000
     14     -16.2509      2.00000
     15     -16.2509      2.00000
     16     -16.2506      2.00000
     17     -16.2497      2.00000
     18     -16.2489      2.00000
     19     -16.2486      2.00000
     20     -16.2482      2.00000
     21     -16.2477      2.00000
     22     -16.2467      2.00000
     23     -16.2463      2.00000
     24     -16.2461      2.00000
     25     -14.3709      2.00000
     26     -14.0459      2.00000
     27     -14.0459      2.00000
     28     -14.0200      2.00000
     29     -14.0200      2.00000
     30     -14.0171      2.00000
     31     -14.0128      2.00000
     32     -13.9623      2.00000
     33     -13.9457      2.00000
     34     -13.9457      2.00000
     35     -13.7264      2.00000
     36     -13.7220      2.00000
     37      -7.6770      2.00000
     38      -7.6770      2.00000
     39      -7.6711      2.00000
     40      -7.3968      2.00000
     41      -7.3968      2.00000
     42      -7.3933      2.00000
     43      -7.3758      2.00000
     44      -7.3500      2.00000
     45      -7.3500      2.00000
     46      -7.3230      2.00000
     47      -7.2687      2.00000
     48      -7.2686      2.00000
     49      -7.2163      2.00000
     50      -7.2162      2.00000
     51      -7.2057      2.00000
     52      -6.4526      2.00000
     53      -3.3379      2.00000
     54      -3.3309      2.00000
     55      -3.3309      2.00000
     56      -3.1578      2.00000
     57      -3.0711      2.00000
     58      -3.0575      2.00000
     59      -2.1631      2.00000
     60      -2.1582      2.00000
     61      -2.1400      2.00000
     62      -1.6400      2.00000
     63      -1.6400      2.00000
     64      -1.6258      2.00000
     65      -1.5710      2.00000
     66      -1.5709      2.00000
     67      -1.5685      2.00000
     68      -1.5389      2.00000
     69      -1.5307      2.00000
     70      -1.5307      2.00000
     71      -1.5119      2.00000
     72      -1.4778      2.00000
     73      -1.4778      2.00000
     74      -1.3751      2.00000
     75      -1.3751      2.00000
     76      -1.2981      2.00000
     77      -1.2652      2.00000
     78      -1.2652      2.00000
     79      -1.2202      2.00000
     80      -1.1445      2.00000
     81      -1.1444      2.00000
     82      -1.1228      2.00000
     83      -0.9531      2.00000
     84      -0.9111      2.00000
     85      -0.8963      2.00000
     86      -0.0785      2.00000
     87      -0.0352      2.00000
     88      -0.0352      2.00000
     89       3.1699      0.00000
     90       3.2106      0.00000
     91       3.2107      0.00000
     92       3.2346      0.00000
     93       3.2347      0.00000
     94       3.2708      0.00000
     95       4.6708      0.00000
     96       5.6894      0.00000
     97       5.6971      0.00000
     98       5.7285      0.00000
     99       5.8808      0.00000
    100       5.9672      0.00000
    101       6.2771      0.00000
    102       6.5003      0.00000
    103       6.5004      0.00000
    104       6.5662      0.00000
    105       6.6388      0.00000
    106       6.6388      0.00000
    107       6.6696      0.00000
    108       6.6698      0.00000
    109       6.6770      0.00000
    110       6.7022      0.00000
    111       6.9827      0.00000
    112       7.2603      0.00000

 k-point     2 :       0.3333    0.0000    0.0000
  band No.  band energies     occupation 
      1     -21.0104      2.00000
      2     -21.0098      2.00000
      3     -20.8925      2.00000
      4     -20.8312      2.00000
      5     -16.4132      2.00000
      6     -16.3995      2.00000
      7     -16.3981      2.00000
      8     -16.3828      2.00000
      9     -16.3798      2.00000
     10     -16.3502      2.00000
     11     -16.3362      2.00000
     12     -16.3349      2.00000
     13     -16.2516      2.00000
     14     -16.2511      2.00000
     15     -16.2507      2.00000
     16     -16.2505      2.00000
     17     -16.2494      2.00000
     18     -16.2487      2.00000
     19     -16.2486      2.00000
     20     -16.2483      2.00000
     21     -16.2474      2.00000
     22     -16.2467      2.00000
     23     -16.2463      2.00000
     24     -16.2462      2.00000
     25     -14.3174      2.00000
     26     -14.1747      2.00000
     27     -14.0984      2.00000
     28     -14.0884      2.00000
     29     -14.0192      2.00000
     30     -14.0149      2.00000
     31     -13.9523      2.00000
     32     -13.8918      2.00000
     33     -13.8848      2.00000
     34     -13.8334      2.00000
     35     -13.8015      2.00000
     36     -13.7499      2.00000
     37      -7.7135      2.00000
     38      -7.7109      2.00000
     39      -7.4531      2.00000
     40      -7.3953      2.00000
     41      -7.3941      2.00000
     42      -7.3870      2.00000
     43      -7.3779      2.00000
     44      -7.3499      2.00000
     45      -7.3485      2.00000
     46      -7.3216      2.00000
     47      -7.2637      2.00000
     48      -7.2633      2.00000
     49      -7.2168      2.00000
     50      -7.2166      2.00000
     51      -7.2050      2.00000
     52      -6.8438      2.00000
     53      -3.2880      2.00000
     54      -3.1747      2.00000
     55      -3.0185      2.00000
     56      -2.7854      2.00000
     57      -2.7620      2.00000
     58      -2.7347      2.00000
     59      -2.2364      2.00000
     60      -2.0922      2.00000
     61      -2.0540      2.00000
     62      -2.0420      2.00000
     63      -2.0417      2.00000
     64      -2.0243      2.00000
     65      -1.7618      2.00000
     66      -1.7301      2.00000
     67      -1.7002      2.00000
     68      -1.5663      2.00000
     69      -1.4965      2.00000
     70      -1.4581      2.00000
     71      -1.4366      2.00000
     72      -1.3757      2.00000
     73      -1.3696      2.00000
     74      -1.3469      2.00000
     75      -1.3013      2.00000
     76      -1.2688      2.00000
     77      -1.2245      2.00000
     78      -1.2119      2.00000
     79      -1.1990      2.00000
     80      -1.1830      2.00000
     81      -1.1596      2.00000
     82      -1.1220      2.00000
     83      -1.0022      2.00000
     84      -0.9645      2.00000
     85      -0.8874      2.00000
     86      -0.6615      2.00000
     87      -0.3125      2.00000
     88      -0.2845      2.00000
     89       3.1952      0.00000
     90       3.1982      0.00000
     91       3.8902      0.00000
     92       3.9339      0.00000
     93       4.0320      0.00000
     94       4.1489      0.00000
     95       5.0311      0.00000
     96       5.1199      0.00000
     97       5.1565      0.00000
     98       5.6428      0.00000
     99       5.8074      0.00000
    100       5.9345      0.00000
    101       6.0531      0.00000
    102       6.1985      0.00000
    103       6.2124      0.00000
    104       6.2936      0.00000
    105       6.5050      0.00000
    106       6.5956      0.00000
    107       6.6244      0.00000
    108       6.7180      0.00000
    109       6.7927      0.00000
    110       6.8166      0.00000
    111       6.8897      0.00000
    112       6.9284      0.00000

 k-point     3 :       0.3333    0.3333    0.0000
  band No.  band energies     occupation 
      1     -21.0104      2.00000
      2     -21.0099      2.00000
      3     -20.8925      2.00000
      4     -20.8312      2.00000
      5     -16.3998      2.00000
      6     -16.3997      2.00000
      7     -16.3967      2.00000
      8     -16.3677      2.00000
      9     -16.3666      2.00000
     10     -16.3666      2.00000
     11     -16.3508      2.00000
     12     -16.3485      2.00000
     13     -16.2514      2.00000
     14     -16.2510      2.00000
     15     -16.2510      2.00000
     16     -16.2505      2.00000
     17     -16.2491      2.00000
     18     -16.2488      2.00000
     19     -16.2488      2.00000
     20     -16.2482      2.00000
     21     -16.2471      2.00000
     22     -16.2467      2.00000
     23     -16.2467      2.00000
     24     -16.2461      2.00000
     25     -14.2248      2.00000
     26     -14.2226      2.00000
     27     -14.2152      2.00000
     28     -14.1176      2.00000
     29     -13.9514      2.00000
     30     -13.9396      2.00000
     31     -13.9282      2.00000
     32     -13.9159      2.00000
     33     -13.9136      2.00000
     34     -13.8029      2.00000
     35     -13.8000      2.00000
     36     -13.7910      2.00000
     37      -7.8599      2.00000
     38      -7.4048      2.00000
     39      -7.4032      2.00000
     40      -7.3936      2.00000
     41      -7.3788      2.00000
     42      -7.3756      2.00000
     43      -7.3618      2.00000
     44      -7.3434      2.00000
     45      -7.3396      2.00000
     46      -7.3101      2.00000
     47      -7.2954      2.00000
     48      -7.2420      2.00000
     49      -7.2298      2.00000
     50      -7.2159      2.00000
     51      -7.2128      2.00000
     52      -7.1950      2.00000
     53      -2.9459      2.00000
     54      -2.9437      2.00000
     55      -2.9080      2.00000
     56      -2.8086      2.00000
     57      -2.7713      2.00000
     58      -2.7679      2.00000
     59      -2.1533      2.00000
     60      -2.1460      2.00000
     61      -2.1370      2.00000
     62      -2.1034      2.00000
     63      -2.0887      2.00000
     64      -2.0292      2.00000
     65      -1.7606      2.00000
     66      -1.7578      2.00000
     67      -1.6609      2.00000
     68      -1.6301      2.00000
     69      -1.6157      2.00000
     70      -1.5143      2.00000
     71      -1.4726      2.00000
     72      -1.4637      2.00000
     73      -1.3297      2.00000
     74      -1.3038      2.00000
     75      -1.2879      2.00000
     76      -1.2458      2.00000
     77      -1.2022      2.00000
     78      -1.1698      2.00000
     79      -1.1280      2.00000
     80      -1.1224      2.00000
     81      -1.0996      2.00000
     82      -1.0854      2.00000
     83      -1.0805      2.00000
     84      -1.0046      2.00000
     85      -0.8716      2.00000
     86      -0.8270      2.00000
     87      -0.7854      2.00000
     88      -0.4233      2.00000
     89       3.7406      0.00000
     90       3.7553      0.00000
     91       3.9037      0.00000
     92       4.1232      0.00000
     93       4.1814      0.00000
     94       4.1823      0.00000
     95       5.2501      0.00000
     96       5.2895      0.00000
     97       5.3029      0.00000
     98       5.3785      0.00000
     99       5.3844      0.00000
    100       5.4159      0.00000
    101       6.0068      0.00000
    102       6.0558      0.00000
    103       6.1018      0.00000
    104       6.2937      0.00000
    105       6.4687      0.00000
    106       6.4803      0.00000
    107       6.5315      0.00000
    108       6.6093      0.00000
    109       6.6687      0.00000
    110       6.6801      0.00000
    111       6.8122      0.00000
    112       6.8137      0.00000

 k-point     4 :      -0.3333    0.3333    0.0000
  band No.  band energies     occupation 
      1     -21.0107      2.00000
      2     -21.0096      2.00000
      3     -20.8926      2.00000
      4     -20.8312      2.00000
      5     -16.4167      2.00000
      6     -16.4026      2.00000
      7     -16.3969      2.00000
[...]
     60      -2.0220      2.00000
     61      -1.9895      2.00000
     62      -1.9506      2.00000
     63      -1.8888      2.00000
     64      -1.8818      2.00000
     65      -1.8575      2.00000
     66      -1.6202      2.00000
     67      -1.5962      2.00000
     68      -1.4352      2.00000
     69      -1.4322      2.00000
     70      -1.4186      2.00000
     71      -1.3703      2.00000
     72      -1.3703      2.00000
     73      -1.3685      2.00000
     74      -1.3132      2.00000
     75      -1.3079      2.00000
     76      -1.3021      2.00000
     77      -1.2725      2.00000
     78      -1.2468      2.00000
     79      -1.2317      2.00000
     80      -1.1932      2.00000
     81      -1.1637      2.00000
     82      -1.0775      2.00000
     83      -1.0173      2.00000
     84      -0.9678      2.00000
     85      -0.7739      2.00000
     86      -0.6303      2.00000
     87      -0.5711      2.00000
     88       0.2674      2.00000
     89       2.8755      0.00000
     90       2.9005      0.00000
     91       3.4699      0.00000
     92       3.5021      0.00000
     93       3.6209      0.00000
     94       4.3740      0.00000
     95       5.3986      0.00000
     96       5.4073      0.00000
     97       5.6149      0.00000
     98       5.9620      0.00000
     99       5.9634      0.00000
    100       6.0806      0.00000
    101       6.1852      0.00000
    102       6.1946      0.00000
    103       6.2145      0.00000
    104       6.3350      0.00000
    105       6.5737      0.00000
    106       6.5894      0.00000
    107       6.6257      0.00000
    108       6.6693      0.00000
    109       6.7237      0.00000
    110       6.8353      0.00000
    111       6.8889      0.00000
    112       6.9036      0.00000

 k-point     6 :      -0.3333   -0.3333    0.3333
  band No.  band energies     occupation 
      1     -21.0103      2.00000
      2     -21.0099      2.00000
      3     -20.8925      2.00000
      4     -20.8312      2.00000
      5     -16.4193      2.00000
      6     -16.4116      2.00000
      7     -16.4115      2.00000
      8     -16.3763      2.00000
      9     -16.3549      2.00000
     10     -16.3549      2.00000
     11     -16.3425      2.00000
     12     -16.3227      2.00000
     13     -16.2516      2.00000
     14     -16.2510      2.00000
     15     -16.2510      2.00000
     16     -16.2501      2.00000
     17     -16.2491      2.00000
     18     -16.2490      2.00000
     19     -16.2487      2.00000
     20     -16.2479      2.00000
     21     -16.2472      2.00000
     22     -16.2468      2.00000
     23     -16.2466      2.00000
     24     -16.2458      2.00000
     25     -14.2587      2.00000
     26     -14.1643      2.00000
     27     -14.1643      2.00000
     28     -14.0183      2.00000
     29     -14.0151      2.00000
     30     -14.0127      2.00000
     31     -14.0127      2.00000
     32     -14.0127      2.00000
     33     -13.9157      2.00000
     34     -13.7669      2.00000
     35     -13.7669      2.00000
     36     -13.7170      2.00000
     37      -8.0895      2.00000
     38      -7.4051      2.00000
     39      -7.4051      2.00000
     40      -7.3943      2.00000
     41      -7.3741      2.00000
     42      -7.3573      2.00000
     43      -7.3573      2.00000
     44      -7.3324      2.00000
     45      -7.3213      2.00000
     46      -7.3213      2.00000
     47      -7.2208      2.00000
     48      -7.2207      2.00000
     49      -7.2127      2.00000
     50      -7.1975      2.00000
     51      -7.1975      2.00000
     52      -6.9635      2.00000
     53      -3.2634      2.00000
     54      -3.2634      2.00000
     55      -3.2495      2.00000
     56      -3.1910      2.00000
     57      -2.8482      2.00000
     58      -2.8482      2.00000
     59      -2.2245      2.00000
     60      -1.9925      2.00000
     61      -1.9906      2.00000
     62      -1.9188      2.00000
     63      -1.9172      2.00000
     64      -1.8623      2.00000
     65      -1.8623      2.00000
     66      -1.6649      2.00000
     67      -1.5034      2.00000
     68      -1.4459      2.00000
     69      -1.4459      2.00000
     70      -1.4405      2.00000
     71      -1.3912      2.00000
     72      -1.3537      2.00000
     73      -1.3245      2.00000
     74      -1.3244      2.00000
     75      -1.3205      2.00000
     76      -1.3205      2.00000
     77      -1.2776      2.00000
     78      -1.2650      2.00000
     79      -1.2649      2.00000
     80      -1.2520      2.00000
     81      -1.1389      2.00000
     82      -1.0025      2.00000
     83      -1.0025      2.00000
     84      -0.9464      2.00000
     85      -0.8677      2.00000
     86      -0.5599      2.00000
     87      -0.5599      2.00000
     88       0.2526      2.00000
     89       2.8704      0.00000
     90       2.8706      0.00000
     91       3.4411      0.00000
     92       3.5522      0.00000
     93       3.6373      0.00000
     94       4.3301      0.00000
     95       5.4154      0.00000
     96       5.4155      0.00000
     97       5.7193      0.00000
     98       5.9854      0.00000
     99       6.0019      0.00000
    100       6.0607      0.00000
    101       6.1643      0.00000
    102       6.1644      0.00000
    103       6.2000      0.00000
    104       6.2494      0.00000
    105       6.3907      0.00000
    106       6.6381      0.00000
    107       6.6381      0.00000
    108       6.6426      0.00000
    109       6.6749      0.00000
    110       6.8784      0.00000
    111       6.9215      0.00000
    112       6.9964      0.00000


--------------------------------------------------------------------------------------------------------


 soft charge-density along one line, spin component           1
         0         1         2         3         4         5         6         7         8         9
 total charge-density along one line

 pseudopotential strength for first ion, spin component:           1
 18.068  -4.730   0.000   0.000   0.000  -0.000  -0.000  -0.000
 -4.730   1.247  -0.000  -0.000  -0.000   0.000   0.000   0.000
  0.000  -0.000   2.303  -0.000   0.000  -2.762   0.000  -0.000
  0.000  -0.000  -0.000   2.306  -0.000   0.000  -2.767   0.000
  0.000  -0.000   0.000  -0.000   2.305  -0.000   0.000  -2.765
 -0.000   0.000  -2.762   0.000  -0.000   3.284  -0.000   0.000
 -0.000   0.000   0.000  -2.767   0.000  -0.000   3.290  -0.000
 -0.000   0.000  -0.000   0.000  -2.765   0.000  -0.000   3.288
  0.000  -0.000   0.000   0.000   0.000  -0.000  -0.000  -0.000
 -0.000   0.000   0.000   0.000   0.000  -0.000  -0.000  -0.000
  0.002  -0.000  -0.000   0.000  -0.000   0.000  -0.000   0.000
 -0.000   0.000   0.000   0.000   0.000  -0.000  -0.000  -0.000
  0.001  -0.000  -0.000   0.000   0.000   0.000  -0.000  -0.000
 total augmentation occupancy for first ion, spin component:           1
  1.907  -0.147   0.000   0.000   0.000   0.000   0.000   0.000   0.000  -0.000   0.002  -0.000   0.002
 -0.147   0.091   0.000   0.000   0.000   0.000   0.000   0.000   0.000   0.000  -0.008  -0.000  -0.004
  0.000   0.000   2.008  -0.000  -0.000  -0.003   0.000   0.000   0.000   0.000   0.000   0.000   0.000
  0.000   0.000  -0.000   2.019   0.000   0.000   0.005  -0.000   0.000   0.000   0.000   0.000   0.000
  0.000   0.000  -0.000   0.000   2.014   0.000  -0.000   0.001   0.000   0.000   0.000   0.000   0.000
  0.000   0.000  -0.003   0.000   0.000   0.008   0.000   0.000   0.000   0.000   0.000   0.000   0.000
  0.000   0.000   0.000   0.005  -0.000   0.000   0.003  -0.000   0.000   0.000   0.000   0.000   0.000
  0.000   0.000   0.000  -0.000   0.001   0.000   0.000   0.006   0.000   0.000   0.000   0.000   0.000
  0.000   0.000   0.000   0.000   0.000   0.000   0.000   0.000   0.008   0.000  -0.000  -0.000   0.000
 -0.000   0.000   0.000   0.000   0.000   0.000   0.000   0.000  -0.000   0.003  -0.000  -0.000  -0.000
  0.002  -0.008   0.000   0.000   0.000   0.000   0.000   0.000  -0.000  -0.000   0.004  -0.000   0.000
 -0.000  -0.000   0.000   0.000   0.000   0.000   0.000   0.000  -0.000  -0.000   0.000   0.001  -0.000
  0.002  -0.004   0.000   0.000   0.000   0.000   0.000   0.000  -0.000   0.000   0.000  -0.000   0.002


------------------------ aborting loop because EDIFF is reached ----------------------------------------





 total charge     

# of ion       s       p       d       tot
------------------------------------------
    1        1.783   4.718   0.013   6.513
    2        1.786   4.720   0.019   6.525
    3        1.784   4.718   0.015   6.518
    4        1.783   4.718   0.013   6.513
    5        1.552   0.430   9.835  11.817
    6        1.552   0.430   9.835  11.817
    7        1.552   0.430   9.835  11.817
    8        1.552   0.430   9.835  11.817
    9        1.615   3.278   0.007   4.900
   10        1.615   3.278   0.007   4.900
   11        1.615   3.278   0.007   4.900
   12        1.615   3.278   0.007   4.900
   13        1.614   3.287   0.006   4.907
   14        1.614   3.287   0.006   4.907
   15        1.614   3.287   0.006   4.907
   16        1.614   3.287   0.006   4.907
   17        1.615   3.285   0.007   4.907
   18        1.615   3.286   0.007   4.907
   19        1.615   3.286   0.007   4.907
   20        1.615   3.285   0.007   4.907
--------------------------------------------------
tot         32.718  59.996  39.478 132.192

    CHARGE:  cpu time    0.1483: real time    0.1483
    FORLOC:  cpu time    0.0042: real time    0.0042
    FORNL :  cpu time    0.6232: real time    0.6232
    STRESS:  cpu time   11.4192: real time   11.4196
    FORCOR:  cpu time    0.1201: real time    0.1201
    FORHAR:  cpu time    0.0132: real time    0.0131
    MIXING:  cpu time    0.0015: real time    0.0015
    OFIELD:  cpu time    0.0000: real time    0.0000

  FORCE on cell =-STRESS in cart. coord.  units (eV):
  Direction    XX          YY          ZZ          XY          YZ          ZX
  --------------------------------------------------------------------------------------
  Alpha Z   445.09558   445.09558   445.09558
  Ewald   -3032.25247 -3068.85475 -3068.85475     0.00000     0.00000     0.00000
  Hartree  1271.20882  1222.79394  1222.79394    -0.00000     0.00000     0.00000
  E(xc)    -738.96246  -738.90011  -738.86992     0.00285    -0.00085    -0.00200
  Local   -1502.45094 -1418.42401 -1418.42401     0.00040    -0.00040    -0.00040
  n-local   900.85932   900.60485   900.39389    -0.04708    -0.06388     0.04169
  augment   406.29714   406.08321   406.08321    -0.00056     0.00016     0.00056
  Kinetic  2249.54193  2250.40289  2251.64829     0.06780     0.02543    -0.02296
  Fock        0.00000     0.00000     0.00000     0.00000     0.00000     0.00000
  -------------------------------------------------------------------------------------
  Total      -0.66306    -0.66608    -0.66608     0.00000     0.00000     0.00000
  in kB      -1.31051    -1.31647    -1.31647     0.00000     0.00000     0.00000
  external pressure =       -1.31 kB  Pullay stress =        0.00 kB


 VOLUME and BASIS-vectors are now :
 -----------------------------------------------------------------------------
  energy-cutoff  :      300.00
  volume of cell :      810.63
      direct lattice vectors                 reciprocal lattice vectors
     5.835096057  5.893292511  5.893292511     0.085688392  0.084842217  0.000000000
     5.835096057 -5.893292511 -5.893292511     0.085688392 -0.000000000 -0.084842217
    -5.835096057  5.893292511 -5.893292511    -0.000000000  0.084842217 -0.084842217

  length of vectors
    10.173993278 10.173993278 10.173993278     0.120584834  0.120584834  0.119985013


 FORCES acting on ions
    electron-ion (+dipol)            ewald-force                    non-local-force                 convergence-correction
 -----------------------------------------------------------------------------------------------
   -.148E-09 0.161E-09 0.227E-09   -.284E-13 -.107E-13 0.711E-14   0.517E-25 -.207E-24 -.207E-24   -.307E-13 -.159E-13 -.448E-13
   0.944E-10 0.118E-09 -.227E-09   0.223E-15 0.355E-13 -.213E-13   0.000E+00 0.103E-24 0.000E+00   -.233E-13 -.131E-13 0.780E-13
   -.383E-09 0.646E-11 0.483E-10   0.389E-13 0.284E-13 -.107E-13   0.000E+00 0.000E+00 0.000E+00   -.128E-13 -.941E-14 0.321E-13
   0.262E-09 0.935E-10 0.237E-10   -.316E-13 0.711E-14 0.107E-13   -.414E-24 0.853E-24 -.775E-25   0.451E-14 -.138E-13 0.153E-13
   -.108E-13 0.328E-15 -.113E-13   0.000E+00 0.817E-13 -.171E-12   -.414E-23 -.331E-23 -.331E-23   0.245E-12 0.164E-12 -.853E-13
   0.535E-13 0.491E-13 -.953E-12   -.292E-13 0.178E-13 0.568E-13   -.993E-23 0.000E+00 0.000E+00   0.910E-13 0.196E-13 -.972E-13
   0.178E-11 -.472E-12 0.199E-11   -.304E-13 -.524E-13 0.888E-15   0.132E-22 0.000E+00 0.132E-22   0.199E-12 -.135E-13 -.667E-13
   0.301E-11 -.296E-11 0.508E-11   0.284E-13 -.533E-13 -.604E-13   0.000E+00 0.000E+00 0.000E+00   0.564E-13 0.845E-13 -.681E-13
   0.192E+02 0.372E-05 -.258E+01   -.195E+02 0.230E-10 0.260E+01   0.221E+00 -.325E-18 -.153E-01   -.575E-04 -.420E-09 -.575E-04
   0.192E+02 0.440E-05 0.258E+01   -.195E+02 -.231E-10 -.260E+01   0.221E+00 0.163E-17 0.153E-01   -.575E-04 -.925E-09 0.575E-04
   -.192E+02 -.372E-05 0.258E+01   0.195E+02 -.231E-10 -.260E+01   -.221E+00 0.217E-18 0.153E-01   0.575E-04 0.420E-09 0.575E-04
   -.192E+02 -.440E-05 -.258E+01   0.195E+02 0.231E-10 0.260E+01   -.221E+00 -.146E-17 -.153E-01   0.575E-04 0.924E-09 -.575E-04
   -.192E+02 -.258E+01 0.372E-05   0.195E+02 0.260E+01 0.263E-10   -.221E+00 -.153E-01 -.515E-18   0.575E-04 -.575E-04 -.420E-09
   0.192E+02 0.258E+01 -.372E-05   -.195E+02 -.260E+01 -.262E-10   0.221E+00 0.153E-01 0.407E-18   -.575E-04 0.575E-04 0.420E-09
   -.192E+02 0.258E+01 0.440E-05   0.195E+02 -.260E+01 -.244E-10   -.221E+00 0.153E-01 -.108E-18   0.575E-04 0.575E-04 -.925E-09
   0.192E+02 -.258E+01 -.440E-05   -.195E+02 0.260E+01 0.245E-10   0.221E+00 -.153E-01 0.217E-18   -.575E-04 -.575E-04 0.925E-09
   -.342E-05 -.231E+02 0.231E+02   0.237E-11 0.233E+02 -.233E+02   0.173E-17 -.138E+00 0.138E+00   0.579E-09 -.480E-04 0.480E-04
   0.102E-11 -.231E+02 -.231E+02   0.231E-13 0.233E+02 0.233E+02   -.542E-19 -.138E+00 -.138E+00   -.696E-13 -.480E-04 -.480E-04
   0.967E-12 0.231E+02 0.231E+02   0.703E-14 -.233E+02 -.233E+02   0.271E-19 0.138E+00 0.138E+00   -.376E-13 0.480E-04 0.480E-04
   0.342E-05 0.231E+02 -.231E+02   -.242E-11 -.233E+02 0.233E+02   -.173E-17 0.138E+00 -.138E+00   -.579E-09 0.480E-04 -.480E-04
 -----------------------------------------------------------------------------------------------
   -.164E-09 0.390E-09 0.608E-10   0.700E-14 0.711E-14 -.711E-14   -.833E-16 -.278E-16 -.555E-16   0.528E-12 0.158E-12 -.238E-12


 POSITION                                       TOTAL-FORCE (eV/Angst)
 -----------------------------------------------------------------------------------
      2.91755      2.94665      2.94665        -0.000000     -0.000000     -0.000000
      2.91755      2.94665     -2.94665        -0.000000     -0.000000     -0.000000
     -2.91755      2.94665     -2.94665        -0.000000     -0.000000     -0.000000
      2.91755     -2.94665     -2.94665        -0.000000     -0.000000     -0.000000
      0.00000      0.00000      0.00000        -0.000000     -0.000000     -0.000000
      0.00000      0.00000     -5.89329        -0.000000     -0.000000     -0.000000
      0.00000      5.89329      0.00000        -0.000000     -0.000000     -0.000000
      5.83510      0.00000      0.00000        -0.000000     -0.000000     -0.000000
      5.35784     -2.94665     -5.86081         0.004177     -0.000000     -0.003772
     -0.47726      2.94665     -5.92578         0.004177     -0.000000      0.003772
      0.47726      8.83994     -0.03248        -0.004177      0.000000      0.003772
      6.31236      2.94665      0.03248        -0.004177     -0.000000     -0.003772
      0.47726      0.03248     -8.83994        -0.004177     -0.003772     -0.000000
      5.35784      5.86081      2.94665         0.004177      0.003772      0.000000
      6.31236     -0.03248     -2.94665        -0.004177      0.003772     -0.000000
     -0.47726      5.92578     -2.94665         0.004177     -0.003772     -0.000000
      2.91755      0.41499     -0.41499        -0.000000     -0.002673      0.002673
      2.91755      0.41499     -5.47830        -0.000000     -0.002673     -0.002673
      2.91755      5.47830     -0.41499        -0.000000      0.002673      0.002673
      2.91755      5.47830     -5.47830         0.000000      0.002673     -0.002673
 -----------------------------------------------------------------------------------
    total drift:                               -0.000000      0.000000      0.000000


--------------------------------------------------------------------------------------------------------



  FREE ENERGIE OF THE ION-ELECTRON SYSTEM (eV)
  ---------------------------------------------------
  free  energy   TOTEN  =      -714.79096308 eV

  energy  without entropy=     -714.79096308  energy(sigma->0) =     -714.79096308



--------------------------------------------------------------------------------------------------------


    POTLOK:  cpu time    1.2924: real time    1.2924


--------------------------------------------------------------------------------------------------------


 stress matrix after NEB project (eV)
     -0.66306      0.00000      0.00000
      0.00000     -0.66608      0.00000
      0.00000      0.00000     -0.66608
  FORCES: max atom, RMS     0.005628    0.003941
  FORCE total and by dimension    0.017623    0.004177
  Stress total and by dimension    1.151941    0.666077
     LOOP+:  cpu time  112.4468: real time  113.0477
    4ORBIT:  cpu time    0.0000: real time    0.0000



 total charge     

# of ion       s       p       d       tot
------------------------------------------
    1        1.783   4.718   0.013   6.513
    2        1.786   4.720   0.019   6.525
    3        1.784   4.718   0.015   6.518
    4        1.783   4.718   0.013   6.513
    5        1.552   0.430   9.835  11.817
    6        1.552   0.430   9.835  11.817
    7        1.552   0.430   9.835  11.817
    8        1.552   0.430   9.835  11.817
    9        1.615   3.278   0.007   4.900
   10        1.615   3.278   0.007   4.900
   11        1.615   3.278   0.007   4.900
   12        1.615   3.278   0.007   4.900
   13        1.614   3.287   0.006   4.907
   14        1.614   3.287   0.006   4.907
   15        1.614   3.287   0.006   4.907
   16        1.614   3.287   0.006   4.907
   17        1.615   3.285   0.007   4.907
   18        1.615   3.286   0.007   4.907
   19        1.615   3.286   0.007   4.907
   20        1.615   3.285   0.007   4.907
--------------------------------------------------
tot         32.718  59.996  39.478 132.192


 total amount of memory used by VASP MPI-rank0    45090. kBytes
=======================================================================

   base      :      30000. kBytes
   nonlr-proj:       4162. kBytes
   fftplans  :       5014. kBytes
   grid      :       4180. kBytes
   one-center:         46. kBytes
   wavefun   :       1688. kBytes

  
  
 General timing and accounting informations for this job:
 ========================================================
  
                  Total CPU time used (sec):      119.819
                            User time (sec):      118.855
                          System time (sec):        0.964
                         Elapsed time (sec):      120.902
  
                   Maximum memory used (kb):       88864.
                   Average memory used (kb):           0.
  
                          Minor page faults:        22367
                          Major page faults:            1
                 Voluntary context switches:         1751
