CsPbBr3 cubic bulk                      
           1
     5.835096    5.893293    5.893293
     5.835096   -5.893293   -5.893293
    -5.835096    5.893293   -5.893293
   Cs   Pb   Br
   4   4  12
Direct configuration=     1
   0.50000000  0.00000000  0.00000000
   0.50000000  0.50000000  0.50000000
   0.00000000  0.00000000  0.50000000
   0.00000000  0.50000000  0.00000000
   0.00000000  0.00000000  0.00000000
   0.00000000  0.50000000  0.50000000
   0.50000000  0.00000000  0.50000000
   0.50000000  0.50000000  0.00000000
   0.20910429  0.95634836  0.24724407
   0.20910429  0.46186021  0.75275593
   0.79089571  0.04365164  0.75275593
   0.79089571  0.53813979  0.24724407
   0.04365164  0.79089571  0.75275593
   0.95634836  0.20910429  0.24724407
   0.53813979  0.79089571  0.24724407
   0.46186021  0.20910429  0.75275593
   0.28520879  0.28520879  0.07041757
   0.28520879  0.71479121  0.50000000
   0.71479121  0.28520879  0.50000000
   0.71479121  0.71479121  0.92958243
