  12  12   1   0
  0.3666762E+02  0.4455734E-09  0.7722782E-09  0.1278707E-08  0.5000000E-15
   1.0000000000000000E-004
  CAR 
 CsPbBr3 cubic bulk                      
      9.95724335    -17.18270705  301      0.37910252      1.00000000
    -17.183  0.0000E+00  0.0000E+00
    -17.092  0.0000E+00  0.0000E+00
    -17.002  0.0000E+00  0.0000E+00
    -16.911  0.0000E+00  0.0000E+00
    -16.821  0.0000E+00  0.0000E+00
    -16.730  0.0000E+00  0.0000E+00
    -16.640  0.0000E+00  0.0000E+00
    -16.549  0.0000E+00  0.0000E+00
    -16.459  0.0000E+00  0.0000E+00
    -16.369  0.0000E+00  0.0000E+00
    -16.278  0.0000E+00  0.0000E+00
    -16.188  0.0000E+00  0.0000E+00
    -16.097  0.0000E+00  0.0000E+00
    -16.007  0.1023E-15  0.9252E-17
    -15.916  0.4023E+02  0.3639E+01
    -15.826  0.7503E+02  0.1186E+02
    -15.735  0.2693E+03  0.3999E+02
    -15.645  0.0000E+00  0.4000E+02
    -15.554  0.0000E+00  0.4000E+02
    -15.464  0.0000E+00  0.4000E+02
    -15.373  0.0000E+00  0.4000E+02
    -15.283  0.0000E+00  0.4000E+02
    -15.192  0.0000E+00  0.4000E+02
    -15.102  0.0000E+00  0.4000E+02
    -15.012  0.0000E+00  0.4000E+02
    -14.921  0.0000E+00  0.4000E+02
    -14.831  0.0000E+00  0.4000E+02
    -14.740  0.0000E+00  0.4000E+02
    -14.650  0.0000E+00  0.4000E+02
    -14.559  0.0000E+00  0.4000E+02
    -14.469  0.0000E+00  0.4000E+02
    -14.378  0.0000E+00  0.4000E+02
    -14.288  0.0000E+00  0.4000E+02
    -14.197  0.0000E+00  0.4000E+02
    -14.107  0.1754E-03  0.4000E+02
    -14.016  0.2792E+01  0.4025E+02
    -13.926  0.8739E+01  0.4110E+02
    -13.835  0.9965E+01  0.4216E+02
    -13.745  0.1253E+02  0.4335E+02
    -13.655  0.1887E+02  0.4517E+02
    -13.564  0.2544E+02  0.4763E+02
    -13.474  0.2374E+02  0.5015E+02
    -13.383  0.4515E+02  0.5455E+02
    -13.293  0.1033E+02  0.5600E+02
    -13.202  0.0000E+00  0.5600E+02
    -13.112  0.0000E+00  0.5600E+02
    -13.021  0.0000E+00  0.5600E+02
    -12.931  0.0000E+00  0.5600E+02
    -12.840  0.0000E+00  0.5600E+02
    -12.750  0.0000E+00  0.5600E+02
    -12.659  0.0000E+00  0.5600E+02
    -12.569  0.0000E+00  0.5600E+02
    -12.478  0.0000E+00  0.5600E+02
    -12.388  0.0000E+00  0.5600E+02
    -12.298  0.0000E+00  0.5600E+02
    -12.207  0.0000E+00  0.5600E+02
    -12.117  0.0000E+00  0.5600E+02
    -12.026  0.0000E+00  0.5600E+02
    -11.936  0.0000E+00  0.5600E+02
    -11.845  0.0000E+00  0.5600E+02
    -11.755  0.0000E+00  0.5600E+02
    -11.664  0.0000E+00  0.5600E+02
    -11.574  0.0000E+00  0.5600E+02
    -11.483  0.0000E+00  0.5600E+02
    -11.393  0.0000E+00  0.5600E+02
    -11.302  0.0000E+00  0.5600E+02
    -11.212  0.0000E+00  0.5600E+02
    -11.121  0.0000E+00  0.5600E+02
    -11.031  0.0000E+00  0.5600E+02
    -10.941  0.0000E+00  0.5600E+02
    -10.850  0.0000E+00  0.5600E+02
    -10.760  0.0000E+00  0.5600E+02
    -10.669  0.0000E+00  0.5600E+02
    -10.579  0.0000E+00  0.5600E+02
    -10.488  0.0000E+00  0.5600E+02
    -10.398  0.0000E+00  0.5600E+02
    -10.307  0.0000E+00  0.5600E+02
    -10.217  0.0000E+00  0.5600E+02
    -10.126  0.0000E+00  0.5600E+02
    -10.036  0.0000E+00  0.5600E+02
     -9.945  0.0000E+00  0.5600E+02
     -9.855  0.0000E+00  0.5600E+02
     -9.764  0.0000E+00  0.5600E+02
     -9.674  0.0000E+00  0.5600E+02
     -9.584  0.0000E+00  0.5600E+02
     -9.493  0.0000E+00  0.5600E+02
     -9.403  0.0000E+00  0.5600E+02
     -9.312  0.0000E+00  0.5600E+02
     -9.222  0.0000E+00  0.5600E+02
     -9.131  0.0000E+00  0.5600E+02
     -9.041  0.0000E+00  0.5600E+02
     -8.950  0.0000E+00  0.5600E+02
     -8.860  0.0000E+00  0.5600E+02
     -8.769  0.0000E+00  0.5600E+02
     -8.679  0.0000E+00  0.5600E+02
     -8.588  0.0000E+00  0.5600E+02
     -8.498  0.0000E+00  0.5600E+02
     -8.407  0.0000E+00  0.5600E+02
     -8.317  0.0000E+00  0.5600E+02
     -8.227  0.0000E+00  0.5600E+02
     -8.136  0.0000E+00  0.5600E+02
     -8.046  0.0000E+00  0.5600E+02
     -7.955  0.0000E+00  0.5600E+02
     -7.865  0.0000E+00  0.5600E+02
     -7.774  0.0000E+00  0.5600E+02
     -7.684  0.0000E+00  0.5600E+02
     -7.593  0.0000E+00  0.5600E+02
     -7.503  0.0000E+00  0.5600E+02
     -7.412  0.0000E+00  0.5600E+02
     -7.322  0.0000E+00  0.5600E+02
     -7.231  0.0000E+00  0.5600E+02
     -7.141  0.0000E+00  0.5600E+02
     -7.050  0.2902E+00  0.5603E+02
     -6.960  0.3114E+02  0.5893E+02
     -6.870  0.1325E+02  0.6037E+02
     -6.779  0.9554E+01  0.6141E+02
     -6.689  0.8373E+01  0.6227E+02
     -6.598  0.7043E+01  0.6295E+02
     -6.508  0.7032E+01  0.6365E+02
     -6.417  0.3033E+01  0.6400E+02
     -6.327  0.0000E+00  0.6400E+02
     -6.236  0.0000E+00  0.6400E+02
     -6.146  0.0000E+00  0.6400E+02
     -6.055  0.0000E+00  0.6400E+02
     -5.965  0.0000E+00  0.6400E+02
     -5.874  0.0000E+00  0.6400E+02
     -5.784  0.0000E+00  0.6400E+02
     -5.693  0.0000E+00  0.6400E+02
     -5.603  0.0000E+00  0.6400E+02
     -5.513  0.0000E+00  0.6400E+02
     -5.422  0.0000E+00  0.6400E+02
     -5.332  0.0000E+00  0.6400E+02
     -5.241  0.0000E+00  0.6400E+02
     -5.151  0.0000E+00  0.6400E+02
     -5.060  0.0000E+00  0.6400E+02
     -4.970  0.0000E+00  0.6400E+02
     -4.879  0.0000E+00  0.6400E+02
     -4.789  0.0000E+00  0.6400E+02
     -4.698  0.0000E+00  0.6400E+02
     -4.608  0.0000E+00  0.6400E+02
     -4.517  0.0000E+00  0.6400E+02
     -4.427  0.0000E+00  0.6400E+02
     -4.336  0.0000E+00  0.6400E+02
     -4.246  0.0000E+00  0.6400E+02
     -4.156  0.0000E+00  0.6400E+02
     -4.065  0.0000E+00  0.6400E+02
     -3.975  0.0000E+00  0.6400E+02
     -3.884  0.0000E+00  0.6400E+02
     -3.794  0.0000E+00  0.6400E+02
     -3.703  0.0000E+00  0.6400E+02
     -3.613  0.0000E+00  0.6400E+02
     -3.522  0.0000E+00  0.6400E+02
     -3.432  0.0000E+00  0.6400E+02
     -3.341  0.0000E+00  0.6400E+02
     -3.251  0.0000E+00  0.6400E+02
     -3.160  0.0000E+00  0.6400E+02
     -3.070  0.0000E+00  0.6400E+02
     -2.979  0.0000E+00  0.6400E+02
     -2.889  0.3547E-02  0.6400E+02
     -2.799  0.8629E+00  0.6408E+02
     -2.708  0.9427E+01  0.6496E+02
     -2.618  0.1450E+02  0.6633E+02
     -2.527  0.1351E+02  0.6771E+02
     -2.437  0.1076E+02  0.6884E+02
     -2.346  0.6435E+01  0.6951E+02
     -2.256  0.1080E+02  0.7058E+02
     -2.165  0.1015E+02  0.7164E+02
     -2.075  0.1019E+02  0.7282E+02
     -1.984  0.1188E+02  0.7407E+02
     -1.894  0.1425E+02  0.7552E+02
     -1.803  0.1951E+02  0.7737E+02
     -1.713  0.1545E+02  0.7899E+02
     -1.622  0.1656E+02  0.8066E+02
     -1.532  0.1393E+02  0.8219E+02
     -1.442  0.1517E+02  0.8372E+02
     -1.351  0.1368E+02  0.8509E+02
     -1.261  0.1015E+02  0.8620E+02
     -1.170  0.8752E+01  0.8717E+02
     -1.080  0.1844E+02  0.8907E+02
     -0.989  0.1518E+02  0.9063E+02
     -0.899  0.2168E+02  0.9278E+02
     -0.808  0.2554E+02  0.9536E+02
     -0.718  0.2969E+02  0.9825E+02
     -0.627  0.2341E+02  0.1007E+03
     -0.537  0.1817E+02  0.1026E+03
     -0.446  0.1377E+02  0.1040E+03
     -0.356  0.9237E+00  0.1041E+03
     -0.265  0.2143E+01  0.1043E+03
     -0.175  0.5281E+01  0.1048E+03
     -0.085  0.1175E+02  0.1060E+03
      0.006  0.1825E+02  0.1078E+03
      0.096  0.2510E+02  0.1103E+03
      0.187  0.1364E+02  0.1117E+03
      0.277  0.2454E+01  0.1120E+03
      0.368  0.0000E+00  0.1120E+03
      0.458  0.0000E+00  0.1120E+03
      0.549  0.0000E+00  0.1120E+03
      0.639  0.0000E+00  0.1120E+03
      0.730  0.0000E+00  0.1120E+03
      0.820  0.0000E+00  0.1120E+03
      0.911  0.0000E+00  0.1120E+03
      1.001  0.0000E+00  0.1120E+03
      1.092  0.0000E+00  0.1120E+03
      1.182  0.0000E+00  0.1120E+03
      1.272  0.0000E+00  0.1120E+03
      1.363  0.0000E+00  0.1120E+03
      1.453  0.0000E+00  0.1120E+03
      1.544  0.0000E+00  0.1120E+03
      1.634  0.0000E+00  0.1120E+03
      1.725  0.0000E+00  0.1120E+03
      1.815  0.0000E+00  0.1120E+03
      1.906  0.0000E+00  0.1120E+03
      1.996  0.0000E+00  0.1120E+03
      2.087  0.0000E+00  0.1120E+03
      2.177  0.0000E+00  0.1120E+03
      2.268  0.0000E+00  0.1120E+03
      2.358  0.0000E+00  0.1120E+03
      2.449  0.0000E+00  0.1120E+03
      2.539  0.0000E+00  0.1120E+03
      2.629  0.0000E+00  0.1120E+03
      2.720  0.0000E+00  0.1120E+03
      2.810  0.0000E+00  0.1120E+03
      2.901  0.0000E+00  0.1120E+03
      2.991  0.0000E+00  0.1120E+03
      3.082  0.7636E-08  0.1120E+03
      3.172  0.2303E+00  0.1120E+03
      3.263  0.2693E+00  0.1120E+03
      3.353  0.1185E+01  0.1122E+03
      3.444  0.1694E+01  0.1123E+03
      3.534  0.1138E+01  0.1125E+03
      3.625  0.7763E+00  0.1125E+03
      3.715  0.2772E+01  0.1128E+03
      3.806  0.3517E+01  0.1131E+03
      3.896  0.3974E+01  0.1135E+03
      3.986  0.4328E+01  0.1140E+03
      4.077  0.7359E+01  0.1147E+03
      4.167  0.6985E+01  0.1154E+03
      4.258  0.7586E+01  0.1162E+03
      4.348  0.5857E+01  0.1169E+03
      4.439  0.7950E+01  0.1176E+03
      4.529  0.8021E+01  0.1186E+03
      4.620  0.8967E+01  0.1194E+03
      4.710  0.1071E+02  0.1205E+03
      4.801  0.1241E+02  0.1217E+03
      4.891  0.8146E+01  0.1226E+03
      4.982  0.1162E+02  0.1239E+03
      5.072  0.1248E+02  0.1250E+03
      5.163  0.1417E+02  0.1265E+03
      5.253  0.1705E+02  0.1283E+03
      5.343  0.1831E+02  0.1301E+03
      5.434  0.1422E+02  0.1316E+03
      5.524  0.1432E+02  0.1331E+03
      5.615  0.1610E+02  0.1348E+03
      5.705  0.1077E+02  0.1359E+03
      5.796  0.2906E+00  0.1360E+03
      5.886  0.0000E+00  0.1360E+03
      5.977  0.0000E+00  0.1360E+03
      6.067  0.0000E+00  0.1360E+03
      6.158  0.0000E+00  0.1360E+03
      6.248  0.0000E+00  0.1360E+03
      6.339  0.0000E+00  0.1360E+03
      6.429  0.0000E+00  0.1360E+03
      6.520  0.0000E+00  0.1360E+03
      6.610  0.0000E+00  0.1360E+03
      6.700  0.0000E+00  0.1360E+03
      6.791  0.0000E+00  0.1360E+03
      6.881  0.0000E+00  0.1360E+03
      6.972  0.0000E+00  0.1360E+03
      7.062  0.0000E+00  0.1360E+03
      7.153  0.0000E+00  0.1360E+03
      7.243  0.0000E+00  0.1360E+03
      7.334  0.0000E+00  0.1360E+03
      7.424  0.2071E-14  0.1360E+03
      7.515  0.1233E+00  0.1360E+03
      7.605  0.9616E+00  0.1361E+03
      7.696  0.1281E+01  0.1362E+03
      7.786  0.3992E+01  0.1366E+03
      7.877  0.7367E+01  0.1373E+03
      7.967  0.9008E+01  0.1382E+03
      8.057  0.1015E+02  0.1393E+03
      8.148  0.6744E+01  0.1401E+03
      8.238  0.5771E+01  0.1407E+03
      8.329  0.6922E+01  0.1414E+03
      8.419  0.9197E+01  0.1422E+03
      8.510  0.8781E+01  0.1431E+03
      8.600  0.3089E+01  0.1435E+03
      8.691  0.3898E+01  0.1439E+03
      8.781  0.6130E+00  0.1440E+03
      8.872  0.0000E+00  0.1440E+03
      8.962  0.0000E+00  0.1440E+03
      9.053  0.0000E+00  0.1440E+03
      9.143  0.0000E+00  0.1440E+03
      9.234  0.0000E+00  0.1440E+03
      9.324  0.0000E+00  0.1440E+03
      9.414  0.0000E+00  0.1440E+03
      9.505  0.0000E+00  0.1440E+03
      9.595  0.0000E+00  0.1440E+03
      9.686  0.0000E+00  0.1440E+03
      9.776  0.0000E+00  0.1440E+03
      9.867  0.0000E+00  0.1440E+03
      9.957  0.0000E+00  0.1440E+03
      9.95724335    -17.18270705  301      0.37910252      1.00000000
    -17.183  0.0000E+00  0.0000E+00  0.0000E+00
    -17.092  0.0000E+00  0.0000E+00  0.0000E+00
    -17.002  0.0000E+00  0.0000E+00  0.0000E+00
    -16.911  0.0000E+00  0.0000E+00  0.0000E+00
    -16.821  0.0000E+00  0.0000E+00  0.0000E+00
    -16.730  0.0000E+00  0.0000E+00  0.0000E+00
    -16.640  0.0000E+00  0.0000E+00  0.0000E+00
    -16.549  0.0000E+00  0.0000E+00  0.0000E+00
    -16.459  0.0000E+00  0.0000E+00  0.0000E+00
    -16.369  0.0000E+00  0.0000E+00  0.0000E+00
    -16.278  0.0000E+00  0.0000E+00  0.0000E+00
    -16.188  0.0000E+00  0.0000E+00  0.0000E+00
    -16.097  0.0000E+00  0.0000E+00  0.0000E+00
    -16.007  0.3685E-20  0.1749E-21  0.2331E-16
    -15.916  0.7886E-03  0.3172E-03  0.9251E+01
    -15.826  0.4075E-03  0.6380E-03  0.1791E+02
    -15.735  0.5544E-03  0.4936E-03  0.6579E+02
    -15.645  0.0000E+00  0.0000E+00  0.0000E+00
    -15.554  0.0000E+00  0.0000E+00  0.0000E+00
    -15.464  0.0000E+00  0.0000E+00  0.0000E+00
    -15.373  0.0000E+00  0.0000E+00  0.0000E+00
    -15.283  0.0000E+00  0.0000E+00  0.0000E+00
    -15.192  0.0000E+00  0.0000E+00  0.0000E+00
    -15.102  0.0000E+00  0.0000E+00  0.0000E+00
    -15.012  0.0000E+00  0.0000E+00  0.0000E+00
    -14.921  0.0000E+00  0.0000E+00  0.0000E+00
    -14.831  0.0000E+00  0.0000E+00  0.0000E+00
    -14.740  0.0000E+00  0.0000E+00  0.0000E+00
    -14.650  0.0000E+00  0.0000E+00  0.0000E+00
    -14.559  0.0000E+00  0.0000E+00  0.0000E+00
    -14.469  0.0000E+00  0.0000E+00  0.0000E+00
    -14.378  0.0000E+00  0.0000E+00  0.0000E+00
    -14.288  0.0000E+00  0.0000E+00  0.0000E+00
    -14.197  0.0000E+00  0.0000E+00  0.0000E+00
    -14.107  0.1568E-05  0.9310E-08  0.8503E-07
    -14.016  0.2351E-01  0.4022E-03  0.1383E-02
    -13.926  0.6482E-01  0.2801E-02  0.5469E-02
    -13.835  0.5870E-01  0.5637E-02  0.8616E-02
    -13.745  0.4792E-01  0.9874E-02  0.1632E-01
    -13.655  0.3580E-01  0.1839E-01  0.4220E-01
    -13.564  0.1503E-01  0.2642E-01  0.9302E-01
    -13.474  0.4959E-02  0.1737E-01  0.1880E+00
    -13.383  0.1854E-01  0.1664E-01  0.5785E+00
    -13.293  0.4853E-02  0.2735E-02  0.1402E+00
    -13.202  0.0000E+00  0.0000E+00  0.0000E+00
    -13.112  0.0000E+00  0.0000E+00  0.0000E+00
    -13.021  0.0000E+00  0.0000E+00  0.0000E+00
    -12.931  0.0000E+00  0.0000E+00  0.0000E+00
    -12.840  0.0000E+00  0.0000E+00  0.0000E+00
    -12.750  0.0000E+00  0.0000E+00  0.0000E+00
    -12.659  0.0000E+00  0.0000E+00  0.0000E+00
    -12.569  0.0000E+00  0.0000E+00  0.0000E+00
    -12.478  0.0000E+00  0.0000E+00  0.0000E+00
    -12.388  0.0000E+00  0.0000E+00  0.0000E+00
    -12.298  0.0000E+00  0.0000E+00  0.0000E+00
    -12.207  0.0000E+00  0.0000E+00  0.0000E+00
    -12.117  0.0000E+00  0.0000E+00  0.0000E+00
    -12.026  0.0000E+00  0.0000E+00  0.0000E+00
    -11.936  0.0000E+00  0.0000E+00  0.0000E+00
    -11.845  0.0000E+00  0.0000E+00  0.0000E+00
    -11.755  0.0000E+00  0.0000E+00  0.0000E+00
    -11.664  0.0000E+00  0.0000E+00  0.0000E+00
    -11.574  0.0000E+00  0.0000E+00  0.0000E+00
    -11.483  0.0000E+00  0.0000E+00  0.0000E+00
    -11.393  0.0000E+00  0.0000E+00  0.0000E+00
    -11.302  0.0000E+00  0.0000E+00  0.0000E+00
    -11.212  0.0000E+00  0.0000E+00  0.0000E+00
    -11.121  0.0000E+00  0.0000E+00  0.0000E+00
    -11.031  0.0000E+00  0.0000E+00  0.0000E+00
    -10.941  0.0000E+00  0.0000E+00  0.0000E+00
    -10.850  0.0000E+00  0.0000E+00  0.0000E+00
    -10.760  0.0000E+00  0.0000E+00  0.0000E+00
    -10.669  0.0000E+00  0.0000E+00  0.0000E+00
    -10.579  0.0000E+00  0.0000E+00  0.0000E+00
    -10.488  0.0000E+00  0.0000E+00  0.0000E+00
    -10.398  0.0000E+00  0.0000E+00  0.0000E+00
    -10.307  0.0000E+00  0.0000E+00  0.0000E+00
    -10.217  0.0000E+00  0.0000E+00  0.0000E+00
    -10.126  0.0000E+00  0.0000E+00  0.0000E+00
    -10.036  0.0000E+00  0.0000E+00  0.0000E+00
     -9.945  0.0000E+00  0.0000E+00  0.0000E+00
     -9.855  0.0000E+00  0.0000E+00  0.0000E+00
     -9.764  0.0000E+00  0.0000E+00  0.0000E+00
     -9.674  0.0000E+00  0.0000E+00  0.0000E+00
     -9.584  0.0000E+00  0.0000E+00  0.0000E+00
     -9.493  0.0000E+00  0.0000E+00  0.0000E+00
     -9.403  0.0000E+00  0.0000E+00  0.0000E+00
     -9.312  0.0000E+00  0.0000E+00  0.0000E+00
     -9.222  0.0000E+00  0.0000E+00  0.0000E+00
     -9.131  0.0000E+00  0.0000E+00  0.0000E+00
     -9.041  0.0000E+00  0.0000E+00  0.0000E+00
     -8.950  0.0000E+00  0.0000E+00  0.0000E+00
     -8.860  0.0000E+00  0.0000E+00  0.0000E+00
     -8.769  0.0000E+00  0.0000E+00  0.0000E+00
     -8.679  0.0000E+00  0.0000E+00  0.0000E+00
     -8.588  0.0000E+00  0.0000E+00  0.0000E+00
     -8.498  0.0000E+00  0.0000E+00  0.0000E+00
     -8.407  0.0000E+00  0.0000E+00  0.0000E+00
     -8.317  0.0000E+00  0.0000E+00  0.0000E+00
     -8.227  0.0000E+00  0.0000E+00  0.0000E+00
     -8.136  0.0000E+00  0.0000E+00  0.0000E+00
     -8.046  0.0000E+00  0.0000E+00  0.0000E+00
     -7.955  0.0000E+00  0.0000E+00  0.0000E+00
     -7.865  0.0000E+00  0.0000E+00  0.0000E+00
     -7.774  0.0000E+00  0.0000E+00  0.0000E+00
     -7.684  0.0000E+00  0.0000E+00  0.0000E+00
     -7.593  0.0000E+00  0.0000E+00  0.0000E+00
     -7.503  0.0000E+00  0.0000E+00  0.0000E+00
     -7.412  0.0000E+00  0.0000E+00  0.0000E+00
     -7.322  0.0000E+00  0.0000E+00  0.0000E+00
     -7.231  0.0000E+00  0.0000E+00  0.0000E+00
     -7.141  0.0000E+00  0.0000E+00  0.0000E+00
     -7.050  0.4609E-01  0.2890E-05  0.5342E-05
     -6.960  0.4896E+01  0.3676E-03  0.2623E-02
     -6.870  0.2066E+01  0.2508E-03  0.1037E-02
     -6.779  0.1481E+01  0.2066E-03  0.6809E-03
     -6.689  0.1289E+01  0.1570E-03  0.4972E-03
     -6.598  0.1076E+01  0.1118E-03  0.4345E-03
     -6.508  0.1064E+01  0.7740E-04  0.5954E-03
     -6.417  0.4574E+00  0.2198E-04  0.3272E-03
     -6.327  0.0000E+00  0.0000E+00  0.0000E+00
     -6.236  0.0000E+00  0.0000E+00  0.0000E+00
     -6.146  0.0000E+00  0.0000E+00  0.0000E+00
     -6.055  0.0000E+00  0.0000E+00  0.0000E+00
     -5.965  0.0000E+00  0.0000E+00  0.0000E+00
     -5.874  0.0000E+00  0.0000E+00  0.0000E+00
     -5.784  0.0000E+00  0.0000E+00  0.0000E+00
     -5.693  0.0000E+00  0.0000E+00  0.0000E+00
     -5.603  0.0000E+00  0.0000E+00  0.0000E+00
     -5.513  0.0000E+00  0.0000E+00  0.0000E+00
     -5.422  0.0000E+00  0.0000E+00  0.0000E+00
     -5.332  0.0000E+00  0.0000E+00  0.0000E+00
     -5.241  0.0000E+00  0.0000E+00  0.0000E+00
     -5.151  0.0000E+00  0.0000E+00  0.0000E+00
     -5.060  0.0000E+00  0.0000E+00  0.0000E+00
     -4.970  0.0000E+00  0.0000E+00  0.0000E+00
     -4.879  0.0000E+00  0.0000E+00  0.0000E+00
     -4.789  0.0000E+00  0.0000E+00  0.0000E+00
     -4.698  0.0000E+00  0.0000E+00  0.0000E+00
     -4.608  0.0000E+00  0.0000E+00  0.0000E+00
     -4.517  0.0000E+00  0.0000E+00  0.0000E+00
     -4.427  0.0000E+00  0.0000E+00  0.0000E+00
     -4.336  0.0000E+00  0.0000E+00  0.0000E+00
     -4.246  0.0000E+00  0.0000E+00  0.0000E+00
     -4.156  0.0000E+00  0.0000E+00  0.0000E+00
     -4.065  0.0000E+00  0.0000E+00  0.0000E+00
     -3.975  0.0000E+00  0.0000E+00  0.0000E+00
     -3.884  0.0000E+00  0.0000E+00  0.0000E+00
     -3.794  0.0000E+00  0.0000E+00  0.0000E+00
     -3.703  0.0000E+00  0.0000E+00  0.0000E+00
     -3.613  0.0000E+00  0.0000E+00  0.0000E+00
     -3.522  0.0000E+00  0.0000E+00  0.0000E+00
     -3.432  0.0000E+00  0.0000E+00  0.0000E+00
     -3.341  0.0000E+00  0.0000E+00  0.0000E+00
     -3.251  0.0000E+00  0.0000E+00  0.0000E+00
     -3.160  0.0000E+00  0.0000E+00  0.0000E+00
     -3.070  0.0000E+00  0.0000E+00  0.0000E+00
     -2.979  0.0000E+00  0.0000E+00  0.0000E+00
     -2.889  0.7256E-08  0.7028E-04  0.5065E-06
     -2.799  0.2585E-04  0.1704E-01  0.1613E-03
     -2.708  0.1536E-02  0.1848E+00  0.1981E-02
     -2.618  0.2046E-02  0.2687E+00  0.6142E-02
     -2.527  0.2674E-02  0.2551E+00  0.7910E-02
     -2.437  0.2456E-02  0.1886E+00  0.7404E-02
     -2.346  0.2004E-02  0.1159E+00  0.5224E-02
     -2.256  0.3962E-02  0.1887E+00  0.8306E-02
     -2.165  0.3558E-02  0.1657E+00  0.7879E-02
     -2.075  0.6277E-02  0.1853E+00  0.7164E-02
     -1.984  0.5746E-02  0.1963E+00  0.7291E-02
     -1.894  0.9186E-02  0.2258E+00  0.8458E-02
     -1.803  0.1568E-01  0.3158E+00  0.1193E-01
     -1.713  0.9469E-02  0.2174E+00  0.9735E-02
     -1.622  0.1203E-01  0.2485E+00  0.1077E-01
     -1.532  0.1143E-01  0.1732E+00  0.9521E-02
     -1.442  0.9361E-02  0.2101E+00  0.1194E-01
     -1.351  0.1064E-01  0.1483E+00  0.1140E-01
     -1.261  0.8552E-02  0.1062E+00  0.1188E-01
     -1.170  0.6175E-02  0.5163E-01  0.1581E-01
     -1.080  0.1657E-01  0.8121E-01  0.3548E-01
     -0.989  0.1251E-01  0.6012E-01  0.2859E-01
     -0.899  0.2987E-01  0.5723E-01  0.4707E-01
     -0.808  0.2801E-01  0.5787E-01  0.6203E-01
     -0.718  0.3472E-01  0.3681E-01  0.7535E-01
     -0.627  0.2329E-01  0.3358E-01  0.5485E-01
     -0.537  0.2454E-01  0.2288E-01  0.3943E-01
     -0.446  0.1915E-01  0.1827E-01  0.2716E-01
     -0.356  0.1910E-01  0.1681E-02  0.8232E-03
     -0.265  0.6487E-01  0.2905E-02  0.1908E-02
     -0.175  0.1527E+00  0.5861E-02  0.4819E-02
     -0.085  0.3932E+00  0.1309E-01  0.1060E-01
      0.006  0.6043E+00  0.1613E-01  0.1278E-01
      0.096  0.8124E+00  0.1601E-01  0.1344E-01
      0.187  0.4420E+00  0.8973E-02  0.6029E-02
      0.277  0.8351E-01  0.1386E-02  0.7692E-03
      0.368  0.0000E+00  0.0000E+00  0.0000E+00
      0.458  0.0000E+00  0.0000E+00  0.0000E+00
      0.549  0.0000E+00  0.0000E+00  0.0000E+00
      0.639  0.0000E+00  0.0000E+00  0.0000E+00
      0.730  0.0000E+00  0.0000E+00  0.0000E+00
      0.820  0.0000E+00  0.0000E+00  0.0000E+00
      0.911  0.0000E+00  0.0000E+00  0.0000E+00
      1.001  0.0000E+00  0.0000E+00  0.0000E+00
      1.092  0.0000E+00  0.0000E+00  0.0000E+00
      1.182  0.0000E+00  0.0000E+00  0.0000E+00
      1.272  0.0000E+00  0.0000E+00  0.0000E+00
      1.363  0.0000E+00  0.0000E+00  0.0000E+00
      1.453  0.0000E+00  0.0000E+00  0.0000E+00
      1.544  0.0000E+00  0.0000E+00  0.0000E+00
      1.634  0.0000E+00  0.0000E+00  0.0000E+00
      1.725  0.0000E+00  0.0000E+00  0.0000E+00
      1.815  0.0000E+00  0.0000E+00  0.0000E+00
      1.906  0.0000E+00  0.0000E+00  0.0000E+00
      1.996  0.0000E+00  0.0000E+00  0.0000E+00
      2.087  0.0000E+00  0.0000E+00  0.0000E+00
      2.177  0.0000E+00  0.0000E+00  0.0000E+00
      2.268  0.0000E+00  0.0000E+00  0.0000E+00
      2.358  0.0000E+00  0.0000E+00  0.0000E+00
      2.449  0.0000E+00  0.0000E+00  0.0000E+00
      2.539  0.0000E+00  0.0000E+00  0.0000E+00
      2.629  0.0000E+00  0.0000E+00  0.0000E+00
      2.720  0.0000E+00  0.0000E+00  0.0000E+00
      2.810  0.0000E+00  0.0000E+00  0.0000E+00
      2.901  0.0000E+00  0.0000E+00  0.0000E+00
      2.991  0.0000E+00  0.0000E+00  0.0000E+00
      3.082  0.4248E-11  0.6206E-09  0.7003E-12
      3.172  0.1553E-03  0.1862E-01  0.2389E-04
      3.263  0.2051E-03  0.2141E-01  0.4035E-04
      3.353  0.7714E-03  0.9398E-01  0.2495E-03
      3.444  0.9267E-03  0.1316E+00  0.3672E-03
      3.534  0.7121E-03  0.9389E-01  0.2790E-03
      3.625  0.4316E-03  0.6144E-01  0.2238E-03
      3.715  0.1616E-02  0.2218E+00  0.7149E-03
      3.806  0.1309E-02  0.2929E+00  0.9197E-03
      3.896  0.1456E-02  0.2922E+00  0.5213E-03
      3.986  0.1470E-02  0.3395E+00  0.8898E-03
      4.077  0.2478E-02  0.5916E+00  0.1301E-02
      4.167  0.2178E-02  0.5323E+00  0.1075E-02
      4.258  0.2585E-02  0.5856E+00  0.1220E-02
      4.348  0.2290E-02  0.4733E+00  0.1142E-02
      4.439  0.2352E-02  0.6020E+00  0.1230E-02
      4.529  0.3379E-02  0.6261E+00  0.1441E-02
      4.620  0.2063E-02  0.7661E+00  0.1428E-02
      4.710  0.2126E-02  0.9312E+00  0.1667E-02
      4.801  0.1555E-02  0.1100E+01  0.1804E-02
      4.891  0.9925E-03  0.7175E+00  0.1380E-02
      4.982  0.7988E-03  0.9661E+00  0.1690E-02
      5.072  0.1290E-02  0.1133E+01  0.1764E-02
      5.163  0.1317E-02  0.1262E+01  0.1682E-02
      5.253  0.1636E-02  0.1676E+01  0.2299E-02
      5.343  0.2249E-02  0.1648E+01  0.2516E-02
      5.434  0.1722E-02  0.1315E+01  0.1961E-02
      5.524  0.3608E-02  0.1219E+01  0.2381E-02
      5.615  0.5331E-02  0.1432E+01  0.3160E-02
      5.705  0.3282E-02  0.9258E+00  0.1824E-02
      5.796  0.9464E-04  0.2534E-01  0.3647E-04
      5.886  0.0000E+00  0.0000E+00  0.0000E+00
      5.977  0.0000E+00  0.0000E+00  0.0000E+00
      6.067  0.0000E+00  0.0000E+00  0.0000E+00
      6.158  0.0000E+00  0.0000E+00  0.0000E+00
      6.248  0.0000E+00  0.0000E+00  0.0000E+00
      6.339  0.0000E+00  0.0000E+00  0.0000E+00
      6.429  0.0000E+00  0.0000E+00  0.0000E+00
      6.520  0.0000E+00  0.0000E+00  0.0000E+00
      6.610  0.0000E+00  0.0000E+00  0.0000E+00
      6.700  0.0000E+00  0.0000E+00  0.0000E+00
      6.791  0.0000E+00  0.0000E+00  0.0000E+00
      6.881  0.0000E+00  0.0000E+00  0.0000E+00
      6.972  0.0000E+00  0.0000E+00  0.0000E+00
      7.062  0.0000E+00  0.0000E+00  0.0000E+00
      7.153  0.0000E+00  0.0000E+00  0.0000E+00
      7.243  0.0000E+00  0.0000E+00  0.0000E+00
      7.334  0.0000E+00  0.0000E+00  0.0000E+00
      7.424  0.1836E-17  0.1531E-17  0.2408E-16
      7.515  0.1209E-03  0.8264E-04  0.1412E-02
      7.605  0.6397E-03  0.1063E-02  0.1124E-01
      7.696  0.2164E-02  0.1808E-02  0.1452E-01
      7.786  0.3394E-02  0.1250E-01  0.4264E-01
      7.877  0.2783E-02  0.3022E-01  0.7644E-01
      7.967  0.6510E-02  0.3113E-01  0.9100E-01
      8.057  0.7858E-02  0.4866E-01  0.9356E-01
      8.148  0.2418E-02  0.2729E-01  0.6399E-01
      8.238  0.1484E-01  0.3494E-01  0.4446E-01
      8.329  0.9344E-02  0.2714E-01  0.6930E-01
      8.419  0.1916E-01  0.5465E-01  0.7249E-01
      8.510  0.1448E-01  0.3720E-01  0.6605E-01
      8.600  0.3753E-02  0.1722E-01  0.2672E-01
      8.691  0.8260E-03  0.1126E-01  0.3141E-01
      8.781  0.1329E-03  0.1280E-02  0.4785E-02
      8.872  0.0000E+00  0.0000E+00  0.0000E+00
      8.962  0.0000E+00  0.0000E+00  0.0000E+00
      9.053  0.0000E+00  0.0000E+00  0.0000E+00
      9.143  0.0000E+00  0.0000E+00  0.0000E+00
      9.234  0.0000E+00  0.0000E+00  0.0000E+00
      9.324  0.0000E+00  0.0000E+00  0.0000E+00
      9.414  0.0000E+00  0.0000E+00  0.0000E+00
      9.505  0.0000E+00  0.0000E+00  0.0000E+00
      9.595  0.0000E+00  0.0000E+00  0.0000E+00
      9.686  0.0000E+00  0.0000E+00  0.0000E+00
      9.776  0.0000E+00  0.0000E+00  0.0000E+00
      9.867  0.0000E+00  0.0000E+00  0.0000E+00
      9.957  0.0000E+00  0.0000E+00  0.0000E+00
      9.95724335    -17.18270705  301      0.37910252      1.00000000
    -17.183  0.0000E+00  0.0000E+00  0.0000E+00
    -17.092  0.0000E+00  0.0000E+00  0.0000E+00
    -17.002  0.0000E+00  0.0000E+00  0.0000E+00
    -16.911  0.0000E+00  0.0000E+00  0.0000E+00
    -16.821  0.0000E+00  0.0000E+00  0.0000E+00
    -16.730  0.0000E+00  0.0000E+00  0.0000E+00
    -16.640  0.0000E+00  0.0000E+00  0.0000E+00
    -16.549  0.0000E+00  0.0000E+00  0.0000E+00
    -16.459  0.0000E+00  0.0000E+00  0.0000E+00
    -16.369  0.0000E+00  0.0000E+00  0.0000E+00
    -16.278  0.0000E+00  0.0000E+00  0.0000E+00
    -16.188  0.0000E+00  0.0000E+00  0.0000E+00
    -16.097  0.0000E+00  0.0000E+00  0.0000E+00
    -16.007  0.3685E-20  0.1749E-21  0.2331E-16
    -15.916  0.7886E-03  0.3172E-03  0.9251E+01
    -15.826  0.4075E-03  0.6380E-03  0.1791E+02
    -15.735  0.5544E-03  0.4936E-03  0.6579E+02
    -15.645  0.0000E+00  0.0000E+00  0.0000E+00
    -15.554  0.0000E+00  0.0000E+00  0.0000E+00
    -15.464  0.0000E+00  0.0000E+00  0.0000E+00
    -15.373  0.0000E+00  0.0000E+00  0.0000E+00
    -15.283  0.0000E+00  0.0000E+00  0.0000E+00
    -15.192  0.0000E+00  0.0000E+00  0.0000E+00
    -15.102  0.0000E+00  0.0000E+00  0.0000E+00
    -15.012  0.0000E+00  0.0000E+00  0.0000E+00
    -14.921  0.0000E+00  0.0000E+00  0.0000E+00
    -14.831  0.0000E+00  0.0000E+00  0.0000E+00
    -14.740  0.0000E+00  0.0000E+00  0.0000E+00
    -14.650  0.0000E+00  0.0000E+00  0.0000E+00
    -14.559  0.0000E+00  0.0000E+00  0.0000E+00
    -14.469  0.0000E+00  0.0000E+00  0.0000E+00
    -14.378  0.0000E+00  0.0000E+00  0.0000E+00
    -14.288  0.0000E+00  0.0000E+00  0.0000E+00
    -14.197  0.0000E+00  0.0000E+00  0.0000E+00
    -14.107  0.1568E-05  0.9310E-08  0.8503E-07
    -14.016  0.2351E-01  0.4022E-03  0.1383E-02
    -13.926  0.6482E-01  0.2801E-02  0.5469E-02
    -13.835  0.5870E-01  0.5637E-02  0.8616E-02
    -13.745  0.4792E-01  0.9874E-02  0.1632E-01
    -13.655  0.3580E-01  0.1839E-01  0.4220E-01
    -13.564  0.1503E-01  0.2642E-01  0.9302E-01
    -13.474  0.4959E-02  0.1737E-01  0.1880E+00
    -13.383  0.1854E-01  0.1664E-01  0.5785E+00
    -13.293  0.4853E-02  0.2735E-02  0.1402E+00
    -13.202  0.0000E+00  0.0000E+00  0.0000E+00
    -13.112  0.0000E+00  0.0000E+00  0.0000E+00
    -13.021  0.0000E+00  0.0000E+00  0.0000E+00
    -12.931  0.0000E+00  0.0000E+00  0.0000E+00
    -12.840  0.0000E+00  0.0000E+00  0.0000E+00
    -12.750  0.0000E+00  0.0000E+00  0.0000E+00
    -12.659  0.0000E+00  0.0000E+00  0.0000E+00
    -12.569  0.0000E+00  0.0000E+00  0.0000E+00
    -12.478  0.0000E+00  0.0000E+00  0.0000E+00
    -12.388  0.0000E+00  0.0000E+00  0.0000E+00
    -12.298  0.0000E+00  0.0000E+00  0.0000E+00
    -12.207  0.0000E+00  0.0000E+00  0.0000E+00
    -12.117  0.0000E+00  0.0000E+00  0.0000E+00
    -12.026  0.0000E+00  0.0000E+00  0.0000E+00
    -11.936  0.0000E+00  0.0000E+00  0.0000E+00
    -11.845  0.0000E+00  0.0000E+00  0.0000E+00
    -11.755  0.0000E+00  0.0000E+00  0.0000E+00
    -11.664  0.0000E+00  0.0000E+00  0.0000E+00
    -11.574  0.0000E+00  0.0000E+00  0.0000E+00
    -11.483  0.0000E+00  0.0000E+00  0.0000E+00
    -11.393  0.0000E+00  0.0000E+00  0.0000E+00
    -11.302  0.0000E+00  0.0000E+00  0.0000E+00
    -11.212  0.0000E+00  0.0000E+00  0.0000E+00
    -11.121  0.0000E+00  0.0000E+00  0.0000E+00
    -11.031  0.0000E+00  0.0000E+00  0.0000E+00
    -10.941  0.0000E+00  0.0000E+00  0.0000E+00
    -10.850  0.0000E+00  0.0000E+00  0.0000E+00
    -10.760  0.0000E+00  0.0000E+00  0.0000E+00
    -10.669  0.0000E+00  0.0000E+00  0.0000E+00
    -10.579  0.0000E+00  0.0000E+00  0.0000E+00
    -10.488  0.0000E+00  0.0000E+00  0.0000E+00
    -10.398  0.0000E+00  0.0000E+00  0.0000E+00
    -10.307  0.0000E+00  0.0000E+00  0.0000E+00
    -10.217  0.0000E+00  0.0000E+00  0.0000E+00
    -10.126  0.0000E+00  0.0000E+00  0.0000E+00
    -10.036  0.0000E+00  0.0000E+00  0.0000E+00
     -9.945  0.0000E+00  0.0000E+00  0.0000E+00
     -9.855  0.0000E+00  0.0000E+00  0.0000E+00
     -9.764  0.0000E+00  0.0000E+00  0.0000E+00
     -9.674  0.0000E+00  0.0000E+00  0.0000E+00
     -9.584  0.0000E+00  0.0000E+00  0.0000E+00
     -9.493  0.0000E+00  0.0000E+00  0.0000E+00
     -9.403  0.0000E+00  0.0000E+00  0.0000E+00
     -9.312  0.0000E+00  0.0000E+00  0.0000E+00
     -9.222  0.0000E+00  0.0000E+00  0.0000E+00
     -9.131  0.0000E+00  0.0000E+00  0.0000E+00