 vasp.5.4.4.18Apr17-6-g9f103f2a35 (build Jun 22 2020 09:27:21) complex           
 executed on tx2_gcc-7.3_libsci-1 date 2021.09.09  19:56:06
 running on   64 total cores
 distrk:  each k-point on   64 cores,    1 groups
 distr:  one band on NCORES_PER_BAND=   8 cores,    8 groups


--------------------------------------------------------------------------------------------------------


 INCAR:
 POTCAR:    PAW_PBE Pb_d 06Sep2000                
 POTCAR:    PAW_PBE Br 06Sep2000                  
 POTCAR:    PAW_PBE Pb_d 06Sep2000                
   SHA256 =  fb885b08f0fba73a15f6a6b0e39bd200c13ec96ef97cf3ecd8e63bade5137abd Pb
   COPYR  = (c) Copyright 06Sep2000 Georg Kresse                                
   COPYR  = This file is part of the software VASP. Any use, copying, and all ot
   COPYR  = If you do not have a valid VASP license, you may not use, copy or di
   VRHFIN =Pb:                                                                  
   LEXCH  = PE                                                                  
   EATOM  =  1661.6185 eV,  122.1255 Ry                                         
                                                                                
   TITEL  = PAW_PBE Pb_d 06Sep2000                                              
   LULTRA =        F    use ultrasoft PP ?                                      
   IUNSCR =        1    unscreen: 0-lin 1-nonlin 2-no                           
   RPACOR =    2.200    partial core radius                                     
   POMASS =  207.200; ZVAL   =   14.000    mass and valenz                      
   RCORE  =    2.500    outmost cutoff radius                                   
   RWIGS  =    3.260; RWIGS  =    1.725    wigner-seitz radius (au A)           
   ENMAX  =  237.835; ENMIN  =  178.376 eV                                      
   ICORE  =        3    local potential                                         
   LCOR   =        T    correct aug charges                                     
   LPAW   =        T    paw PP                                                  
   EAUG   =  391.914                                                            
   DEXC   =    0.000                                                            
   RMAX   =    2.565    core radius for proj-oper                               
   RAUG   =    1.300    factor for augmentation sphere                          
   RDEP   =    2.643    radius for radial grids                                 
   RDEPT  =    2.092    core radius for aug-charge                              
                                                                                
   Atomic configuration                                                         
   16 entries                                                                   
     n  l   j            E        occ.                                          
     1  0  0.50    -88091.8466   2.0000                                         
     2  0  0.50    -15753.4197   2.0000                                         
     2  1  1.50    -13508.1797   6.0000                                         
     3  0  0.50     -3781.7194   2.0000                                         
     3  1  1.50     -3138.2529   6.0000                                         
     3  2  2.50     -2483.2977  10.0000                                         
     4  0  0.50      -856.2895   2.0000                                         
     4  1  1.50      -645.4942   6.0000                                         
     4  2  2.50      -401.8768  10.0000                                         
     4  3  3.50      -132.9059  14.0000                                         
     5  0  0.50      -144.0950   2.0000                                         
     5  1  1.50       -85.7879   6.0000                                         
     5  2  2.50       -21.1769  10.0000                                         
     6  0  0.50       -12.0372   2.0000                                         
     6  1  1.50        -3.4971   2.0000                                         
     5  3  2.50        -2.7212   0.0000                                         
   Description                                                                  
     l       E           TYP  RCUT    TYP  RCUT                                 
     2    -21.1768523     23  2.500                                             
     2      1.3605826     23  2.500                                             
     0    -12.0371562     23  2.500                                             
     0     13.6058260     23  2.500                                             
     1     -3.4971339     23  2.500                                             
     1     13.6058260     23  2.500                                             
     3     -1.3605826      7  2.500                                             
  local pseudopotential read in
  partial core-charges read in
  partial kinetic energy density read in
  atomic valenz-charges read in
  non local Contribution for L=           2  read in
    real space projection operators read in
  non local Contribution for L=           2  read in
    real space projection operators read in
  non local Contribution for L=           0  read in
    real space projection operators read in
  non local Contribution for L=           0  read in
    real space projection operators read in
  non local Contribution for L=           1  read in
    real space projection operators read in
  non local Contribution for L=           1  read in
    real space projection operators read in
    PAW grid and wavefunctions read in

   number of l-projection  operators is LMAX  =           6
   number of lm-projection operators is LMMAX =          18

 POTCAR:    PAW_PBE Br 06Sep2000                  
   SHA256 =  96a73d2954943bbee26f4990d676cc6c3bf44b8dd2c75cd4b3b825d8403f0103 Br
   COPYR  = (c) Copyright 06Sep2000 Georg Kresse                                
   COPYR  = This file is part of the software VASP. Any use, copying, and all ot
   COPYR  = If you do not have a valid VASP license, you may not use, copy or di
   VRHFIN =Br: s2p5                                                             
   LEXCH  = PE                                                                  
   EATOM  =   368.4488 eV,   27.0802 Ry                                         
                                                                                
   TITEL  = PAW_PBE Br 06Sep2000                                                
   LULTRA =        F    use ultrasoft PP ?                                      
   IUNSCR =        1    unscreen: 0-lin 1-nonlin 2-no                           
   RPACOR =    1.900    partial core radius                                     
   POMASS =   79.904; ZVAL   =    7.000    mass and valenz                      
   RCORE  =    2.100    outmost cutoff radius                                   
   RWIGS  =    2.200; RWIGS  =    1.164    wigner-seitz radius (au A)           
   ENMAX  =  216.285; ENMIN  =  162.214 eV                                      
   ICORE  =        3    local potential                                         
   LCOR   =        T    correct aug charges                                     
   LPAW   =        T    paw PP                                                  
   EAUG   =  503.852                                                            
   DEXC   =    0.000                                                            
   RMAX   =    2.139    core radius for proj-oper                               
   RAUG   =    1.300    factor for augmentation sphere                          
   RDEP   =    2.186    radius for radial grids                                 
   RDEPT  =    1.890    core radius for aug-charge                              
                                                                                
   Atomic configuration                                                         
   10 entries                                                                   
     n  l   j            E        occ.                                          
     1  0  0.50    -13316.2796   2.0000                                         
     2  0  0.50     -1732.8239   2.0000                                         
     2  1  1.50     -1528.2193   6.0000                                         
     3  0  0.50      -238.0460   2.0000                                         
     3  1  1.50      -173.4609   6.0000                                         
     3  2  2.50       -66.7132  10.0000                                         
     4  0  0.50       -20.1334   2.0000                                         
     4  1  0.50        -7.8591   5.0000                                         
     4  2  2.50        -8.1635   0.0000                                         
     4  3  2.50        -8.1635   0.0000                                         
   Description                                                                  
     l       E           TYP  RCUT    TYP  RCUT                                 
     0    -20.1333652     23  2.100                                             
     0    -21.4939478     23  2.100                                             
     1     -7.8591052     23  2.100                                             
     1     -3.1608434     23  2.100                                             
     2     -8.1634956     23  2.100                                             
     3     -1.3605826      7  2.100                                             
  local pseudopotential read in
  partial core-charges read in
  partial kinetic energy density read in
  atomic valenz-charges read in
  non local Contribution for L=           0  read in
    real space projection operators read in
  non local Contribution for L=           0  read in
    real space projection operators read in
  non local Contribution for L=           1  read in
    real space projection operators read in
  non local Contribution for L=           1  read in
    real space projection operators read in
  non local Contribution for L=           2  read in
    real space projection operators read in
    PAW grid and wavefunctions read in

   number of l-projection  operators is LMAX  =           5
   number of lm-projection operators is LMMAX =          13

 Optimization of the real space projectors (new method)

 maximal supplied QI-value         = 15.12
 optimisation between [QCUT,QGAM] = [  8.77, 17.69] = [ 21.53, 87.61] Ry 
 Optimized for a Real-space Cutoff    1.59 Angstroem

   l    n(q)    QCUT    max X(q) W(low)/X(q) W(high)/X(q)  e(spline) 
   2      7     8.768     3.846    0.48E-04    0.11E-03    0.11E-06
   2      7     8.768     8.593    0.20E-03    0.22E-04    0.24E-06
   0      8     8.768    20.082    0.68E-04    0.88E-04    0.41E-07
   0      8     8.768     8.597    0.89E-04    0.13E-03    0.59E-07
   1      8     8.768    33.223    0.15E-03    0.53E-04    0.87E-07
   1      8     8.768    15.899    0.14E-03    0.44E-04    0.78E-07
 Optimization of the real space projectors (new method)

 maximal supplied QI-value         = 17.95
 optimisation between [QCUT,QGAM] = [  8.80, 17.59] = [ 21.67, 86.68] Ry 
 Optimized for a Real-space Cutoff    1.59 Angstroem

   l    n(q)    QCUT    max X(q) W(low)/X(q) W(high)/X(q)  e(spline) 
   0      8     8.797   175.082    0.82E-04    0.14E-03    0.89E-07
   0      8     8.797   174.004    0.79E-04    0.14E-03    0.86E-07
   1      8     8.797    54.315    0.16E-03    0.14E-04    0.30E-06
   1      8     8.797    42.441    0.16E-03    0.14E-04    0.30E-06
   2      7     8.797     3.596    0.92E-04    0.15E-03    0.85E-07
  PAW_PBE Pb_d 06Sep2000                :
 energy of atom  1       EATOM=-1661.6185
 kinetic energy error for atom=    0.0498 (will be added to EATOM!!)
  PAW_PBE Br 06Sep2000                  :
 energy of atom  2       EATOM= -368.4488
 kinetic energy error for atom=    0.0072 (will be added to EATOM!!)


 POSCAR: Pb4 Br8                                 
  positions in direct lattice
  velocities in cartesian coordinates

 METAGGA = SCAN     LMAXTAU =  6    LMIXTAU =  F

 exchange correlation table for  LEXCH =        8
   RHO(1)=    0.500       N(1)  =     2000
   RHO(2)=  100.500       N(2)  =     4000

 VTST: version 3.2, (02/03/18)

 CHAIN: initializing optimizer
 
 OPT: Using VASP Conjugate-Gradient optimizer
 CHAIN: Read ICHAIN            0

 POSCAR: Pb4 Br8                                 
  positions in direct lattice
  velocities in cartesian coordinates



--------------------------------------------------------------------------------------------------------


 ion  position               nearest neighbor table
   1  0.250  0.246  0.486-   5 2.97  11 3.02  11 3.02   6 3.08   6 3.08  12 3.13
   2  0.750  0.754  0.514-   6 2.97  12 3.02  12 3.02   5 3.08   5 3.08  11 3.13
   3  0.250  0.746  0.014-   7 2.97   9 3.02   9 3.02   8 3.08   8 3.08  10 3.13
   4  0.750  0.254  0.986-   8 2.97  10 3.02  10 3.02   7 3.08   7 3.08   9 3.13
   5  0.250  0.947  0.633-   1 2.97   2 3.08   2 3.08
   6  0.750  0.053  0.367-   2 2.97   1 3.08   1 3.08
   7  0.250  0.447  0.867-   3 2.97   4 3.08   4 3.08
   8  0.750  0.553  0.133-   4 2.97   3 3.08   3 3.08
   9  0.750  0.890  0.880-   3 3.02   3 3.02   4 3.13
  10  0.250  0.110  0.120-   4 3.02   4 3.02   3 3.13
  11  0.750  0.390  0.620-   1 3.02   1 3.02   2 3.13
  12  0.250  0.610  0.380-   2 3.02   2 3.02   1 3.13

  LATTYP: Found a simple orthorhombic cell.
 ALAT       =     4.4557334469
 B/A-ratio  =     1.7332234028
 C/A-ratio  =     2.8698012294
  
  Lattice vectors:
  
 A1 = (   4.4557334469,   0.0000000000,   0.0000000000)
 A2 = (   0.0000000000,   7.7227814870,   0.0000000000)
 A3 = (   0.0000000000,   0.0000000000,  12.7870693238)


Analysis of symmetry for initial positions (statically):
=====================================================================
 Subroutine PRICEL returns:
 Original cell was already a primitive cell.
 

 Routine SETGRP: Setting up the symmetry group for a 
 simple orthorhombic supercell.


 Subroutine GETGRP returns: Found  8 space group operations
 (whereof  2 operations were pure point group operations)
 out of a pool of  8 trial point group operations.


The static configuration has the point symmetry S_2 .
 The point group associated with its full space group is D_2h.


Analysis of symmetry for dynamics (positions and initial velocities):
=====================================================================
 Subroutine PRICEL returns:
 Original cell was already a primitive cell.
 

 Routine SETGRP: Setting up the symmetry group for a 
 simple orthorhombic supercell.


 Subroutine GETGRP returns: Found  8 space group operations
 (whereof  2 operations were pure point group operations)
 out of a pool of  8 trial point group operations.


The dynamic configuration has the point symmetry S_2 .
 The point group associated with its full space group is D_2h.


 Subroutine INISYM returns: Found  8 space group operations
 (whereof  2 operations are pure point group operations),
 and found     1 'primitive' translations



 KPOINTS: 1x1x1                                   

Automatic generation of k-mesh.
Space group operators:
 irot       det(A)        alpha          n_x          n_y          n_z        tau_x        tau_y        tau_z
    1     1.000000     0.000000     1.000000     0.000000     0.000000     0.000000     0.000000     0.000000
    2    -1.000000     0.000000     1.000000     0.000000     0.000000     0.000000     0.000000     0.000000
    3     1.000000   179.999999     0.000000     0.000000     1.000000    -0.000000     0.500000     0.500000
    4    -1.000000   179.999999     0.000000     0.000000     1.000000    -0.000000     0.500000     0.500000
    5     1.000000   179.999999    -0.000000     1.000000     0.000000     0.500000     0.500000     0.500000
    6    -1.000000   179.999999    -0.000000     1.000000     0.000000     0.500000     0.500000     0.500000
    7     1.000000   180.000000     1.000000     0.000000     0.000000     0.500000     0.000000     0.000000
    8    -1.000000   180.000000     1.000000     0.000000     0.000000     0.500000     0.000000     0.000000
 
 Subroutine IBZKPT returns following result:
 ===========================================
 
 Found     84 irreducible k-points:
 
 Following reciprocal coordinates:
            Coordinates               Weight
  0.000000  0.000000  0.000000      1.000000
  0.083333  0.000000  0.000000      2.000000
  0.166667  0.000000  0.000000      2.000000
  0.250000  0.000000  0.000000      2.000000
  0.333333  0.000000  0.000000      2.000000
  0.416667  0.000000  0.000000      2.000000
  0.500000  0.000000  0.000000      1.000000
  0.000000  0.166667  0.000000      2.000000
  0.083333  0.166667  0.000000      4.000000
  0.166667  0.166667  0.000000      4.000000
  0.250000  0.166667  0.000000      4.000000
  0.333333  0.166667  0.000000      4.000000
  0.416667  0.166667  0.000000      4.000000
  0.500000  0.166667  0.000000      2.000000
  0.000000  0.333333  0.000000      2.000000
  0.083333  0.333333  0.000000      4.000000
  0.166667  0.333333  0.000000      4.000000
  0.250000  0.333333  0.000000      4.000000
  0.333333  0.333333  0.000000      4.000000
  0.416667  0.333333  0.000000      4.000000
  0.500000  0.333333  0.000000      2.000000
  0.000000  0.500000  0.000000      1.000000
  0.083333  0.500000  0.000000      2.000000
  0.166667  0.500000  0.000000      2.000000
  0.250000  0.500000  0.000000      2.000000
  0.333333  0.500000  0.000000      2.000000
  0.416667  0.500000  0.000000      2.000000
  0.500000  0.500000  0.000000      1.000000
  0.000000  0.000000  0.250000      2.000000
  0.083333  0.000000  0.250000      4.000000
  0.166667  0.000000  0.250000      4.000000
  0.250000  0.000000  0.250000      4.000000
  0.333333  0.000000  0.250000      4.000000
  0.416667  0.000000  0.250000      4.000000
  0.500000  0.000000  0.250000      2.000000
  0.000000  0.166667  0.250000      4.000000
  0.083333  0.166667  0.250000      8.000000
  0.166667  0.166667  0.250000      8.000000
  0.250000  0.166667  0.250000      8.000000
  0.333333  0.166667  0.250000      8.000000
  0.416667  0.166667  0.250000      8.000000
  0.500000  0.166667  0.250000      4.000000
  0.000000  0.333333  0.250000      4.000000
  0.083333  0.333333  0.250000      8.000000
  0.166667  0.333333  0.250000      8.000000
  0.250000  0.333333  0.250000      8.000000
  0.333333  0.333333  0.250000      8.000000
  0.416667  0.333333  0.250000      8.000000
  0.500000  0.333333  0.250000      4.000000
  0.000000  0.500000  0.250000      2.000000
  0.083333  0.500000  0.250000      4.000000
  0.166667  0.500000  0.250000      4.000000
  0.250000  0.500000  0.250000      4.000000
  0.333333  0.500000  0.250000      4.000000
  0.416667  0.500000  0.250000      4.000000
  0.500000  0.500000  0.250000      2.000000
  0.000000  0.000000  0.500000      1.000000
  0.083333  0.000000  0.500000      2.000000
  0.166667  0.000000  0.500000      2.000000
  0.250000  0.000000  0.500000      2.000000
  0.333333  0.000000  0.500000      2.000000
  0.416667  0.000000  0.500000      2.000000
  0.500000  0.000000  0.500000      1.000000
  0.000000  0.166667  0.500000      2.000000
  0.083333  0.166667  0.500000      4.000000
  0.166667  0.166667  0.500000      4.000000
  0.250000  0.166667  0.500000      4.000000
  0.333333  0.166667  0.500000      4.000000
  0.416667  0.166667  0.500000      4.000000
  0.500000  0.166667  0.500000      2.000000
  0.000000  0.333333  0.500000      2.000000
  0.083333  0.333333  0.500000      4.000000
  0.166667  0.333333  0.500000      4.000000
  0.250000  0.333333  0.500000      4.000000
  0.333333  0.333333  0.500000      4.000000
  0.416667  0.333333  0.500000      4.000000
  0.500000  0.333333  0.500000      2.000000
  0.000000  0.500000  0.500000      1.000000
  0.083333  0.500000  0.500000      2.000000
  0.166667  0.500000  0.500000      2.000000
  0.250000  0.500000  0.500000      2.000000
  0.333333  0.500000  0.500000      2.000000
  0.416667  0.500000  0.500000      2.000000
  0.500000  0.500000  0.500000      1.000000
 
 Following cartesian coordinates:
            Coordinates               Weight
  0.000000  0.000000  0.000000      1.000000
  0.018702  0.000000  0.000000      2.000000
  0.037405  0.000000  0.000000      2.000000
  0.056107  0.000000  0.000000      2.000000
  0.074810  0.000000  0.000000      2.000000
  0.093512  0.000000  0.000000      2.000000
  0.112215  0.000000  0.000000      1.000000
  0.000000  0.021581  0.000000      2.000000
  0.018702  0.021581  0.000000      4.000000
  0.037405  0.021581  0.000000      4.000000
  0.056107  0.021581  0.000000      4.000000
  0.074810  0.021581  0.000000      4.000000
  0.093512  0.021581  0.000000      4.000000
  0.112215  0.021581  0.000000      2.000000
  0.000000  0.043162  0.000000      2.000000
  0.018702  0.043162  0.000000      4.000000
  0.037405  0.043162  0.000000      4.000000
  0.056107  0.043162  0.000000      4.000000
  0.074810  0.043162  0.000000      4.000000
  0.093512  0.043162  0.000000      4.000000
  0.112215  0.043162  0.000000      2.000000
  0.000000  0.064744  0.000000      1.000000
  0.018702  0.064744  0.000000      2.000000
  0.037405  0.064744  0.000000      2.000000
  0.056107  0.064744  0.000000      2.000000
  0.074810  0.064744  0.000000      2.000000
  0.093512  0.064744  0.000000      2.000000
  0.112215  0.064744  0.000000      1.000000
  0.000000  0.000000  0.019551      2.000000
  0.018702  0.000000  0.019551      4.000000
  0.037405  0.000000  0.019551      4.000000
  0.056107  0.000000  0.019551      4.000000
  0.074810  0.000000  0.019551      4.000000
  0.093512  0.000000  0.019551      4.000000
  0.112215  0.000000  0.019551      2.000000
  0.000000  0.021581  0.019551      4.000000
  0.018702  0.021581  0.019551      8.000000
  0.037405  0.021581  0.019551      8.000000
  0.056107  0.021581  0.019551      8.000000
  0.074810  0.021581  0.019551      8.000000
  0.093512  0.021581  0.019551      8.000000
  0.112215  0.021581  0.019551      4.000000
  0.000000  0.043162  0.019551      4.000000
  0.018702  0.043162  0.019551      8.000000
  0.037405  0.043162  0.019551      8.000000
  0.056107  0.043162  0.019551      8.000000
  0.074810  0.043162  0.019551      8.000000
  0.093512  0.043162  0.019551      8.000000
  0.112215  0.043162  0.019551      4.000000
  0.000000  0.064744  0.019551      2.000000
  0.018702  0.064744  0.019551      4.000000
  0.037405  0.064744  0.019551      4.000000
  0.056107  0.064744  0.019551      4.000000
  0.074810  0.064744  0.019551      4.000000
  0.093512  0.064744  0.019551      4.000000
  0.112215  0.064744  0.019551      2.000000
  0.000000  0.000000  0.039102      1.000000
  0.018702  0.000000  0.039102      2.000000
  0.037405  0.000000  0.039102      2.000000
  0.056107  0.000000  0.039102      2.000000
  0.074810  0.000000  0.039102      2.000000
  0.093512  0.000000  0.039102      2.000000
  0.112215  0.000000  0.039102      1.000000
  0.000000  0.021581  0.039102      2.000000
  0.018702  0.021581  0.039102      4.000000
  0.037405  0.021581  0.039102      4.000000
  0.056107  0.021581  0.039102      4.000000
  0.074810  0.021581  0.039102      4.000000
  0.093512  0.021581  0.039102      4.000000
  0.112215  0.021581  0.039102      2.000000
  0.000000  0.043162  0.039102      2.000000
  0.018702  0.043162  0.039102      4.000000
  0.037405  0.043162  0.039102      4.000000
  0.056107  0.043162  0.039102      4.000000
  0.074810  0.043162  0.039102      4.000000
  0.093512  0.043162  0.039102      4.000000
  0.112215  0.043162  0.039102      2.000000
  0.000000  0.064744  0.039102      1.000000
  0.018702  0.064744  0.039102      2.000000
  0.037405  0.064744  0.039102      2.000000
  0.056107  0.064744  0.039102      2.000000
  0.074810  0.064744  0.039102      2.000000
  0.093512  0.064744  0.039102      2.000000
  0.112215  0.064744  0.039102      1.000000
 


--------------------------------------------------------------------------------------------------------




 Dimension of arrays:
   k-points           NKPTS =     84   k-points in BZ     NKDIM =     84   number of bands    NBANDS=     72
   number of dos      NEDOS =    301   number of ions     NIONS =     12
   non local maximal  LDIM  =      6   non local SUM 2l+1 LMDIM =     18
   total plane-waves  NPLWV =  96768
   max r-space proj   IRMAX =   3781   max aug-charges    IRDMAX=  93598
   dimension x,y,z NGX =    28 NGY =   48 NGZ =   72
   dimension x,y,z NGXF=    56 NGYF=   96 NGZF=  144
   support grid    NGXF=   112 NGYF=  192 NGZF=  288
   ions per type =               4   8
   NGX,Y,Z   is equivalent  to a cutoff of  10.45, 10.33,  9.36 a.u.
   NGXF,Y,Z  is equivalent  to a cutoff of  20.89, 20.67, 18.72 a.u.

 SYSTEM =  CsPbBr3 cubic bulk                      
 POSCAR =  Pb4 Br8                                 

 Startparameter for this run:
   NWRITE =      2    write-flag & timer
   PREC   = accura    normal or accurate (medium, high low for compatibility)
   ISTART =      0    job   : 0-new  1-cont  2-samecut
   ICHARG =      2    charge: 1-file 2-atom 10-const
   ISPIN  =      1    spin polarized calculation?
   LNONCOLLINEAR =      F non collinear calculations
   LSORBIT =      F    spin-orbit coupling
   INIWAV =      1    electr: 0-lowe 1-rand  2-diag
   LASPH  =      T    aspherical Exc in radial PAW
   METAGGA=      F    non-selfconsistent MetaGGA calc.

 Electronic Relaxation 1
   ENCUT  =  300.0 eV  22.05 Ry    4.70 a.u.   6.29 10.91 18.06*2*pi/ulx,y,z
   ENINI  =  300.0     initial cutoff
   ENAUG  =  503.9 eV  augmentation charge cutoff
   NELM   =    200;   NELMIN=  2; NELMDL= -5     # of ELM steps 
   EDIFF  = 0.1E-05   stopping-criterion for ELM
   LREAL  =      T    real-space projection
   NLSPLINE    = F    spline interpolate recip. space projectors
   LCOMPAT=      F    compatible to vasp.4.4
   GGA_COMPAT  = T    GGA compatible to vasp.4.4-vasp.4.6
   LMAXPAW     = -100 max onsite density
   LMAXMIX     =    2 max onsite mixed and CHGCAR
   VOSKOWN=      0    Vosko Wilk Nusair interpolation
   ROPT   =   -0.00025  -0.00025
 Ionic relaxation
   EDIFFG = -.1E-01   stopping-criterion for IOM
   NSW    =      0    number of steps for IOM
   NBLOCK =      1;   KBLOCK =      1    inner block; outer block 
   IBRION =     -1    ionic relax: 0-MD 1-quasi-New 2-CG
   NFREE  =      1    steps in history (QN), initial steepest desc. (CG)
   ISIF   =      3    stress and relaxation
   IWAVPR =     10    prediction:  0-non 1-charg 2-wave 3-comb
   ISYM   =      2    0-nonsym 1-usesym 2-fastsym
   LCORR  =      T    Harris-Foulkes like correction to forces

   POTIM  = 0.5000    time-step for ionic-motion
   TEIN   =    0.0    initial temperature
   TEBEG  =    0.0;   TEEND  =   0.0 temperature during run
   SMASS  =  -3.00    Nose mass-parameter (am)
   estimated Nose-frequenzy (Omega)   =  0.10E-29 period in steps =****** mass=  -0.454E-27a.u.
   SCALEE = 1.0000    scale energy and forces
   NPACO  =    256;   APACO  = 16.0  distance and # of slots for P.C.
   PSTRESS=    0.0 pullay stress

  Mass of Ions in am
   POMASS = 207.20 79.90
  Ionic Valenz
   ZVAL   =  14.00  7.00
  Atomic Wigner-Seitz radii
   RWIGS  =  -1.00 -1.00
  virtual crystal weights 
   VCA    =   1.00  1.00
   NELECT =     112.0000    total number of electrons
   NUPDOWN=      -1.0000    fix difference up-down

 DOS related values:
   EMIN   =  10.00;   EMAX   =-10.00  energy-range for DOS
   EFERMI =   0.00
   ISMEAR =     0;   SIGMA  =   0.01  broadening in eV -4-tet -1-fermi 0-gaus

 Electronic relaxation 2 (details)
   IALGO  =     38    algorithm
   LDIAG  =      T    sub-space diagonalisation (order eigenvalues)
   LSUBROT=      F    optimize rotation matrix (better conditioning)
   TURBO    =      0    0=normal 1=particle mesh
   IRESTART =      0    0=no restart 2=restart with 2 vectors
   NREBOOT  =      0    no. of reboots
   NMIN     =      0    reboot dimension
   EREF     =   0.00    reference energy to select bands
   IMIX   =      4    mixing-type and parameters
     AMIX     =   0.40;   BMIX     =  1.00
     AMIX_MAG =   1.60;   BMIX_MAG =  1.00
     AMIN     =   0.10
     WC   =   100.;   INIMIX=   1;  MIXPRE=   1;  MAXMIX= -45

 Intra band minimization:
   WEIMIN = 0.0000     energy-eigenvalue tresh-hold
   EBREAK =  0.35E-08  absolut break condition
   DEPER  =   0.30     relativ break condition  

   TIME   =   0.40     timestep for ELM

  volume/ion in A,a.u.               =      36.67       247.45
  Fermi-wavevector in a.u.,A,eV,Ry     =   1.037511  1.960612 14.645716  1.076430
  Thomas-Fermi vector in A             =   2.171952

 Write flags
   LWAVE        =      F    write WAVECAR
   LDOWNSAMPLE  =      F    k-point downsampling of WAVECAR
   LCHARG       =      F    write CHGCAR
   LVTOT        =      F    write LOCPOT, total local potential
   LVHAR        =      T    write LOCPOT, Hartree potential only
   LELF         =      F    write electronic localiz. function (ELF)
   LORBIT       =     10    0 simple, 1 ext, 2 COOP (PROOUT), +10 PAW based schemes


 Dipole corrections
   LMONO  =      F    monopole corrections only (constant potential shift)
   LDIPOL =      F    correct potential (dipole corrections)
   IDIPOL =      0    1-x, 2-y, 3-z, 4-all directions 
   EPSILON=  1.0000000 bulk dielectric constant

 Exchange correlation treatment:
   GGA     =    --    GGA type
   LEXCH   =     8    internal setting for exchange type
   VOSKOWN=      0    Vosko Wilk Nusair interpolation
   LHFCALC =     F    Hartree Fock is set to
   LHFONE  =     F    Hartree Fock one center treatment
   AEXX    =    0.0000 exact exchange contribution

 Linear response parameters
   LEPSILON=     F    determine dielectric tensor
   LRPA    =     F    only Hartree local field effects (RPA)
   LNABLA  =     F    use nabla operator in PAW spheres
   LVEL    =     F    velocity operator in full k-point grid
   LINTERFAST=   F  fast interpolation
   KINTER  =     0    interpolate to denser k-point grid
   CSHIFT  =0.1000    complex shift for real part using Kramers Kronig
   OMEGAMAX=  -1.0    maximum frequency
   DEG_THRESHOLD= 0.2000000E-02 threshold for treating states as degnerate
   RTIME   =   -0.100 relaxation time in fs
  (WPLASMAI=    0.000 imaginary part of plasma frequency in eV, 0.658/RTIME)
   DFIELD  = 0.0000000 0.0000000 0.0000000 field for delta impulse in time

 Orbital magnetization related:
   ORBITALMAG=     F  switch on orbital magnetization
   LCHIMAG   =     F  perturbation theory with respect to B field
   DQ        =  0.001000  dq finite difference perturbation B field
   LLRAUG    =     F  two centre corrections for induced B field



--------------------------------------------------------------------------------------------------------


 Static calculation
 charge density and potential will be updated during run
 non-spin polarized calculation
 Variant of blocked Davidson
 Davidson routine will perform the subspace rotation
 perform sub-space diagonalisation
    after iterative eigenvector-optimisation
 modified Broyden-mixing scheme, WC =      100.0
 initial mixing is a Kerker type mixing with AMIX =  0.4000 and BMIX =      1.0000
 Hartree-type preconditioning will be used
 using additional bands           16
 real space projection scheme for non local part
 use partial core corrections
 calculate Harris-corrections to forces   (improved forces if not selfconsistent)
 use gradient corrections 
 use of overlap-Matrix (Vanderbilt PP)
 Gauss-broadening in eV      SIGMA  =   0.01


--------------------------------------------------------------------------------------------------------


  energy-cutoff  :      300.00
  volume of cell :      440.01
      direct lattice vectors                 reciprocal lattice vectors
     4.455733447  0.000000000  0.000000000     0.224429942 -0.000000000  0.000000000
     0.000000000  7.722781487  0.000000000    -0.000000000  0.129487025  0.000000000
     0.000000000  0.000000000 12.787069324     0.000000000  0.000000000  0.078204002

  length of vectors
     4.455733447  7.722781487 12.787069324     0.224429942  0.129487025  0.078204002



 k-points in units of 2pi/SCALE and weight: 1x1x1                                   
   0.00000000  0.00000000  0.00000000       0.003
   0.01870250  0.00000000  0.00000000       0.007
   0.03740499  0.00000000  0.00000000       0.007
   0.05610749  0.00000000  0.00000000       0.007
   0.07480998  0.00000000  0.00000000       0.007
   0.09351248  0.00000000  0.00000000       0.007
   0.11221497  0.00000000  0.00000000       0.003
   0.00000000  0.02158117  0.00000000       0.007
   0.01870250  0.02158117  0.00000000       0.014
   0.03740499  0.02158117  0.00000000       0.014
   0.05610749  0.02158117  0.00000000       0.014
   0.07480998  0.02158117  0.00000000       0.014
   0.09351248  0.02158117  0.00000000       0.014
   0.11221497  0.02158117  0.00000000       0.007
   0.00000000  0.04316234  0.00000000       0.007
   0.01870250  0.04316234  0.00000000       0.014
   0.03740499  0.04316234  0.00000000       0.014
   0.05610749  0.04316234  0.00000000       0.014
   0.07480998  0.04316234  0.00000000       0.014
   0.09351248  0.04316234  0.00000000       0.014
   0.11221497  0.04316234  0.00000000       0.007
   0.00000000  0.06474351  0.00000000       0.003
   0.01870250  0.06474351  0.00000000       0.007
   0.03740499  0.06474351  0.00000000       0.007
   0.05610749  0.06474351  0.00000000       0.007
   0.07480998  0.06474351  0.00000000       0.007
   0.09351248  0.06474351  0.00000000       0.007
   0.11221497  0.06474351  0.00000000       0.003
   0.00000000  0.00000000  0.01955100       0.007
   0.01870250  0.00000000  0.01955100       0.014
   0.03740499  0.00000000  0.01955100       0.014
   0.05610749  0.00000000  0.01955100       0.014
   0.07480998  0.00000000  0.01955100       0.014
   0.09351248  0.00000000  0.01955100       0.014
   0.11221497  0.00000000  0.01955100       0.007
   0.00000000  0.02158117  0.01955100       0.014
   0.01870250  0.02158117  0.01955100       0.028
   0.03740499  0.02158117  0.01955100       0.028
   0.05610749  0.02158117  0.01955100       0.028
   0.07480998  0.02158117  0.01955100       0.028
   0.09351248  0.02158117  0.01955100       0.028
   0.11221497  0.02158117  0.01955100       0.014
   0.00000000  0.04316234  0.01955100       0.014
   0.01870250  0.04316234  0.01955100       0.028
   0.03740499  0.04316234  0.01955100       0.028
   0.05610749  0.04316234  0.01955100       0.028
   0.07480998  0.04316234  0.01955100       0.028
   0.09351248  0.04316234  0.01955100       0.028
   0.11221497  0.04316234  0.01955100       0.014
   0.00000000  0.06474351  0.01955100       0.007
   0.01870250  0.06474351  0.01955100       0.014
   0.03740499  0.06474351  0.01955100       0.014
   0.05610749  0.06474351  0.01955100       0.014
   0.07480998  0.06474351  0.01955100       0.014
   0.09351248  0.06474351  0.01955100       0.014
   0.11221497  0.06474351  0.01955100       0.007
   0.00000000  0.00000000  0.03910200       0.003
   0.01870250  0.00000000  0.03910200       0.007
   0.03740499  0.00000000  0.03910200       0.007
   0.05610749  0.00000000  0.03910200       0.007
   0.07480998  0.00000000  0.03910200       0.007
   0.09351248  0.00000000  0.03910200       0.007
   0.11221497  0.00000000  0.03910200       0.003
   0.00000000  0.02158117  0.03910200       0.007
   0.01870250  0.02158117  0.03910200       0.014
   0.03740499  0.02158117  0.03910200       0.014
   0.05610749  0.02158117  0.03910200       0.014
   0.07480998  0.02158117  0.03910200       0.014
   0.09351248  0.02158117  0.03910200       0.014
   0.11221497  0.02158117  0.03910200       0.007
   0.00000000  0.04316234  0.03910200       0.007
   0.01870250  0.04316234  0.03910200       0.014
   0.03740499  0.04316234  0.03910200       0.014
   0.05610749  0.04316234  0.03910200       0.014
   0.07480998  0.04316234  0.03910200       0.014
   0.09351248  0.04316234  0.03910200       0.014
   0.11221497  0.04316234  0.03910200       0.007
   0.00000000  0.06474351  0.03910200       0.003
   0.01870250  0.06474351  0.03910200       0.007
   0.03740499  0.06474351  0.03910200       0.007
   0.05610749  0.06474351  0.03910200       0.007
   0.07480998  0.06474351  0.03910200       0.007
   0.09351248  0.06474351  0.03910200       0.007
   0.11221497  0.06474351  0.03910200       0.003

 k-points in reciprocal lattice and weights: 1x1x1                                   
   0.00000000  0.00000000  0.00000000       0.003
   0.08333333  0.00000000  0.00000000       0.007
   0.16666667  0.00000000  0.00000000       0.007
   0.25000000  0.00000000  0.00000000       0.007
   0.33333333  0.00000000  0.00000000       0.007
   0.41666667  0.00000000  0.00000000       0.007
   0.50000000  0.00000000  0.00000000       0.003
   0.00000000  0.16666667  0.00000000       0.007
   0.08333333  0.16666667  0.00000000       0.014
   0.16666667  0.16666667  0.00000000       0.014
   0.25000000  0.16666667  0.00000000       0.014
   0.33333333  0.16666667  0.00000000       0.014
   0.41666667  0.16666667  0.00000000       0.014
   0.50000000  0.16666667  0.00000000       0.007
   0.00000000  0.33333333  0.00000000       0.007
   0.08333333  0.33333333  0.00000000       0.014
   0.16666667  0.33333333  0.00000000       0.014
   0.25000000  0.33333333  0.00000000       0.014
   0.33333333  0.33333333  0.00000000       0.014
   0.41666667  0.33333333  0.00000000       0.014
   0.50000000  0.33333333  0.00000000       0.007
   0.00000000  0.50000000  0.00000000       0.003
   0.08333333  0.50000000  0.00000000       0.007
   0.16666667  0.50000000  0.00000000       0.007
   0.25000000  0.50000000  0.00000000       0.007
   0.33333333  0.50000000  0.00000000       0.007
   0.41666667  0.50000000  0.00000000       0.007
   0.50000000  0.50000000  0.00000000       0.003
   0.00000000  0.00000000  0.25000000       0.007
   0.08333333  0.00000000  0.25000000       0.014
   0.16666667  0.00000000  0.25000000       0.014
   0.25000000  0.00000000  0.25000000       0.014
   0.33333333  0.00000000  0.25000000       0.014
   0.41666667  0.00000000  0.25000000       0.014
   0.50000000  0.00000000  0.25000000       0.007
   0.00000000  0.16666667  0.25000000       0.014
   0.08333333  0.16666667  0.25000000       0.028
   0.16666667  0.16666667  0.25000000       0.028
   0.25000000  0.16666667  0.25000000       0.028
   0.33333333  0.16666667  0.25000000       0.028
   0.41666667  0.16666667  0.25000000       0.028
   0.50000000  0.16666667  0.25000000       0.014
   0.00000000  0.33333333  0.25000000       0.014
   0.08333333  0.33333333  0.25000000       0.028
   0.16666667  0.33333333  0.25000000       0.028
   0.25000000  0.33333333  0.25000000       0.028
   0.33333333  0.33333333  0.25000000       0.028
   0.41666667  0.33333333  0.25000000       0.028
   0.50000000  0.33333333  0.25000000       0.014
   0.00000000  0.50000000  0.25000000       0.007
   0.08333333  0.50000000  0.25000000       0.014
   0.16666667  0.50000000  0.25000000       0.014
   0.25000000  0.50000000  0.25000000       0.014
   0.33333333  0.50000000  0.25000000       0.014
   0.41666667  0.50000000  0.25000000       0.014
   0.50000000  0.50000000  0.25000000       0.007
   0.00000000  0.00000000  0.50000000       0.003
   0.08333333  0.00000000  0.50000000       0.007
   0.16666667  0.00000000  0.50000000       0.007
   0.25000000  0.00000000  0.50000000       0.007
   0.33333333  0.00000000  0.50000000       0.007
   0.41666667  0.00000000  0.50000000       0.007
   0.50000000  0.00000000  0.50000000       0.003
   0.00000000  0.16666667  0.50000000       0.007
   0.08333333  0.16666667  0.50000000       0.014
   0.16666667  0.16666667  0.50000000       0.014
   0.25000000  0.16666667  0.50000000       0.014
   0.33333333  0.16666667  0.50000000       0.014
   0.41666667  0.16666667  0.50000000       0.014
   0.50000000  0.16666667  0.50000000       0.007
   0.00000000  0.33333333  0.50000000       0.007
   0.08333333  0.33333333  0.50000000       0.014
   0.16666667  0.33333333  0.50000000       0.014
   0.25000000  0.33333333  0.50000000       0.014
   0.33333333  0.33333333  0.50000000       0.014
   0.41666667  0.33333333  0.50000000       0.014
   0.50000000  0.33333333  0.50000000       0.007
   0.00000000  0.50000000  0.50000000       0.003
   0.08333333  0.50000000  0.50000000       0.007
   0.16666667  0.50000000  0.50000000       0.007
   0.25000000  0.50000000  0.50000000       0.007
   0.33333333  0.50000000  0.50000000       0.007
   0.41666667  0.50000000  0.50000000       0.007
   0.50000000  0.50000000  0.50000000       0.003

 position of ions in fractional coordinates (direct lattice) 
   0.25000000  0.24560717  0.48601373
   0.75000000  0.75439283  0.51398627
   0.25000000  0.74560717  0.01398627
   0.75000000  0.25439283  0.98601373
   0.25000000  0.94698871  0.63254296
   0.75000000  0.05301129  0.36745704
   0.25000000  0.44698871  0.86745704
   0.75000000  0.55301129  0.13254296
   0.75000000  0.88962007  0.88022388
   0.25000000  0.11037993  0.11977612
   0.75000000  0.38962007  0.61977612
   0.25000000  0.61037993  0.38022388

 position of ions in cartesian coordinates  (Angst):
   1.11393336  1.89677051  6.21469131
   3.34180009  5.82601097  6.57237801
   1.11393336  5.75816126  0.17884335
   3.34180009  1.96462023 12.60822598
   1.11393336  7.31338690  8.08837071
   3.34180009  0.40939459  4.69869862
   1.11393336  3.45199615 11.09223328
   3.34180009  4.27078533  1.69483605
   3.34180009  6.87034140 11.25548378
   1.11393336  0.85244009  1.53158555
   3.34180009  3.00895065  7.92512021
   1.11393336  4.71383083  4.86194911



--------------------------------------------------------------------------------------------------------


 k-point  1 :   0.0000 0.0000 0.0000  plane waves:    5185
 k-point  2 :   0.0833 0.0000 0.0000  plane waves:    5193
 k-point  3 :   0.1667 0.0000 0.0000  plane waves:    5191
 k-point  4 :   0.2500 0.0000 0.0000  plane waves:    5173
 k-point  5 :   0.3333 0.0000 0.0000  plane waves:    5184
 k-point  6 :   0.4167 0.0000 0.0000  plane waves:    5186
 k-point  7 :   0.5000 0.0000 0.0000  plane waves:    5192
 k-point  8 :   0.0000 0.1667 0.0000  plane waves:    5200
 k-point  9 :   0.0833 0.1667 0.0000  plane waves:    5190
 k-point 10 :   0.1667 0.1667 0.0000  plane waves:    5184
 k-point 11 :   0.2500 0.1667 0.0000  plane waves:    5183
 k-point 12 :   0.3333 0.1667 0.0000  plane waves:    5176
 k-point 13 :   0.4167 0.1667 0.0000  plane waves:    5179
 k-point 14 :   0.5000 0.1667 0.0000  plane waves:    5190
 k-point 15 :   0.0000 0.3333 0.0000  plane waves:    5184
 k-point 16 :   0.0833 0.3333 0.0000  plane waves:    5209
 k-point 17 :   0.1667 0.3333 0.0000  plane waves:    5197
 k-point 18 :   0.2500 0.3333 0.0000  plane waves:    5189
 k-point 19 :   0.3333 0.3333 0.0000  plane waves:    5188
 k-point 20 :   0.4167 0.3333 0.0000  plane waves:    5198
 k-point 21 :   0.5000 0.3333 0.0000  plane waves:    5188
 k-point 22 :   0.0000 0.5000 0.0000  plane waves:    5186
 k-point 23 :   0.0833 0.5000 0.0000  plane waves:    5192
 k-point 24 :   0.1667 0.5000 0.0000  plane waves:    5228
 k-point 25 :   0.2500 0.5000 0.0000  plane waves:    5210
 k-point 26 :   0.3333 0.5000 0.0000  plane waves:    5196
 k-point 27 :   0.4167 0.5000 0.0000  plane waves:    5192
 k-point 28 :   0.5000 0.5000 0.0000  plane waves:    5184
 k-point 29 :   0.0000 0.0000 0.2500  plane waves:    5222
 k-point 30 :   0.0833 0.0000 0.2500  plane waves:    5193
 k-point 31 :   0.1667 0.0000 0.2500  plane waves:    5188
 k-point 32 :   0.2500 0.0000 0.2500  plane waves:    5184
 k-point 33 :   0.3333 0.0000 0.2500  plane waves:    5168
 k-point 34 :   0.4167 0.0000 0.2500  plane waves:    5180
 k-point 35 :   0.5000 0.0000 0.2500  plane waves:    5174
 k-point 36 :   0.0000 0.1667 0.2500  plane waves:    5209
 k-point 37 :   0.0833 0.1667 0.2500  plane waves:    5197
 k-point 38 :   0.1667 0.1667 0.2500  plane waves:    5194
 k-point 39 :   0.2500 0.1667 0.2500  plane waves:    5182
 k-point 40 :   0.3333 0.1667 0.2500  plane waves:    5181
 k-point 41 :   0.4167 0.1667 0.2500  plane waves:    5183
 k-point 42 :   0.5000 0.1667 0.2500  plane waves:    5190
 k-point 43 :   0.0000 0.3333 0.2500  plane waves:    5201
 k-point 44 :   0.0833 0.3333 0.2500  plane waves:    5197
 k-point 45 :   0.1667 0.3333 0.2500  plane waves:    5199
 k-point 46 :   0.2500 0.3333 0.2500  plane waves:    5200
 k-point 47 :   0.3333 0.3333 0.2500  plane waves:    5196
 k-point 48 :   0.4167 0.3333 0.2500  plane waves:    5195
 k-point 49 :   0.5000 0.3333 0.2500  plane waves:    5194
 k-point 50 :   0.0000 0.5000 0.2500  plane waves:    5210
 k-point 51 :   0.0833 0.5000 0.2500  plane waves:    5198
 k-point 52 :   0.1667 0.5000 0.2500  plane waves:    5202
 k-point 53 :   0.2500 0.5000 0.2500  plane waves:    5192
 k-point 54 :   0.3333 0.5000 0.2500  plane waves:    5202
 k-point 55 :   0.4167 0.5000 0.2500  plane waves:    5194
 k-point 56 :   0.5000 0.5000 0.2500  plane waves:    5208
 k-point 57 :   0.0000 0.0000 0.5000  plane waves:    5224
 k-point 58 :   0.0833 0.0000 0.5000  plane waves:    5214
 k-point 59 :   0.1667 0.0000 0.5000  plane waves:    5198
 k-point 60 :   0.2500 0.0000 0.5000  plane waves:    5180
 k-point 61 :   0.3333 0.0000 0.5000  plane waves:    5182
 k-point 62 :   0.4167 0.0000 0.5000  plane waves:    5160
 k-point 63 :   0.5000 0.0000 0.5000  plane waves:    5184
 k-point 64 :   0.0000 0.1667 0.5000  plane waves:    5206
 k-point 65 :   0.0833 0.1667 0.5000  plane waves:    5208
 k-point 66 :   0.1667 0.1667 0.5000  plane waves:    5198
 k-point 67 :   0.2500 0.1667 0.5000  plane waves:    5182
 k-point 68 :   0.3333 0.1667 0.5000  plane waves:    5180
 k-point 69 :   0.4167 0.1667 0.5000  plane waves:    5188
 k-point 70 :   0.5000 0.1667 0.5000  plane waves:    5200
 k-point 71 :   0.0000 0.3333 0.5000  plane waves:    5202
 k-point 72 :   0.0833 0.3333 0.5000  plane waves:    5198
 k-point 73 :   0.1667 0.3333 0.5000  plane waves:    5198
 k-point 74 :   0.2500 0.3333 0.5000  plane waves:    5190
 k-point 75 :   0.3333 0.3333 0.5000  plane waves:    5196
 k-point 76 :   0.4167 0.3333 0.5000  plane waves:    5204
 k-point 77 :   0.5000 0.3333 0.5000  plane waves:    5192
 k-point 78 :   0.0000 0.5000 0.5000  plane waves:    5200
 k-point 79 :   0.0833 0.5000 0.5000  plane waves:    5216
 k-point 80 :   0.1667 0.5000 0.5000  plane waves:    5188
 k-point 81 :   0.2500 0.5000 0.5000  plane waves:    5164
 k-point 82 :   0.3333 0.5000 0.5000  plane waves:    5188
 k-point 83 :   0.4167 0.5000 0.5000  plane waves:    5200
 k-point 84 :   0.5000 0.5000 0.5000  plane waves:    5216

 maximum and minimum number of plane-waves per node :       671      627

 maximum number of plane-waves:      5228
 maximum index in each direction: 
   IXMAX=    6   IYMAX=   10   IZMAX=   18
   IXMIN=   -6   IYMIN=  -11   IZMIN=  -18


 real space projection operators:
  total allocation   :       4981.53 KBytes
  max/ min on nodes  :        722.77        532.30


 parallel 3D FFT for wavefunctions:
    minimum data exchange during FFTs selected (reduces bandwidth)
 parallel 3D FFT for charge:
    minimum data exchange during FFTs selected (reduces bandwidth)


 total amount of memory used by VASP MPI-rank0    44474. kBytes
=======================================================================

   base      :      30000. kBytes
   nonlr-proj:       1655. kBytes
   fftplans  :       2382. kBytes
   grid      :       1891. kBytes
   one-center:         31. kBytes
   wavefun   :       8515. kBytes

     INWAV:  cpu time    0.0000: real time    0.0000
 Broyden mixing: mesh for mixing (old mesh)
   NGX = 13   NGY = 21   NGZ = 37
  (NGX  = 56   NGY  = 96   NGZ  =144)
  gives a total of  10101 points

 initial charge density was supplied:
 charge density of overlapping atoms calculated
 number of electron     112.0000000 magnetization 
 keeping initial charge density in first step


--------------------------------------------------------------------------------------------------------


 Maximum index for non-local projection operator          598
 Maximum index for augmentation-charges         1385 (set IRDMAX)


--------------------------------------------------------------------------------------------------------


 First call to EWALD:  gamma=   0.233
 Maximum number of real-space cells 4x 3x 2
 Maximum number of reciprocal cells 2x 3x 4

    FEWALD:  cpu time    0.0019: real time    0.0019


--------------------------------------- Iteration      1(   1)  ---------------------------------------


    POTLOK:  cpu time    0.0792: real time    0.0936
    SETDIJ:  cpu time    1.1445: real time    1.1446
     EDDAV:  cpu time   17.9151: real time   17.9211
       DOS:  cpu time    0.0025: real time    0.0025
    --------------------------------------------
      LOOP:  cpu time   19.1413: real time   19.1618

 eigenvalue-minimisations  : 12272
 total energy-change (2. order) : 0.5278265E+03  (-0.3708800E+04)
 number of electron     112.0000000 magnetization 
 augmentation part      112.0000000 magnetization 

 Free energy of the ion-electron system (eV)
  ---------------------------------------------------
  alpha Z        PSCENC =       252.07583680
  Ewald energy   TEWEN  =     -6350.48804996
  -Hartree energ DENC   =     -2992.97264080
  -exchange      EXHF   =         0.00000000
  -V(xc)+E(xc)   XCENC  =       323.43019107
  PAW double counting   =      7994.70333898    -8344.36159301
  entropy T*S    EENTRO =        -0.00030584
  eigenvalues    EBANDS =        51.63221794
  atomic energy  EATOM  =      9593.80746854
  Solvation  Ediel_sol  =         0.00000000
  ---------------------------------------------------
  free energy    TOTEN  =       527.82646375 eV

  energy without entropy =      527.82676958  energy(sigma->0) =      527.82661666


--------------------------------------------------------------------------------------------------------




--------------------------------------- Iteration      1(   2)  ---------------------------------------


     EDDAV:  cpu time   19.1225: real time   19.1755
       DOS:  cpu time    0.0017: real time    0.0017
    --------------------------------------------
      LOOP:  cpu time   19.1242: real time   19.1772

 eigenvalue-minimisations  : 13568
 total energy-change (2. order) :-0.8942346E+03  (-0.8496338E+03)
 number of electron     112.0000000 magnetization 
 augmentation part      112.0000000 magnetization 

 Free energy of the ion-electron system (eV)
  ---------------------------------------------------
  alpha Z        PSCENC =       252.07583680
  Ewald energy   TEWEN  =     -6350.48804996
  -Hartree energ DENC   =     -2992.97264080
  -exchange      EXHF   =         0.00000000
  -V(xc)+E(xc)   XCENC  =       323.43019107
  PAW double counting   =      7994.70333898    -8344.36159301
  entropy T*S    EENTRO =        -0.00000190
  eigenvalues    EBANDS =      -842.60271581
  atomic energy  EATOM  =      9593.80746854
  Solvation  Ediel_sol  =         0.00000000
  ---------------------------------------------------
  free energy    TOTEN  =      -366.40816608 eV

  energy without entropy =     -366.40816417  energy(sigma->0) =     -366.40816512


--------------------------------------------------------------------------------------------------------




--------------------------------------- Iteration      1(   3)  ---------------------------------------


     EDDAV:  cpu time   21.7649: real time   21.8227
       DOS:  cpu time    0.0011: real time    0.0011
    --------------------------------------------
      LOOP:  cpu time   21.7660: real time   21.8238

 eigenvalue-minimisations  : 16392
 total energy-change (2. order) :-0.1244794E+03  (-0.1224619E+03)
 number of electron     112.0000000 magnetization 
 augmentation part      112.0000000 magnetization 

 Free energy of the ion-electron system (eV)
  ---------------------------------------------------
  alpha Z        PSCENC =       252.07583680
  Ewald energy   TEWEN  =     -6350.48804996
  -Hartree energ DENC   =     -2992.97264080
  -exchange      EXHF   =         0.00000000
  -V(xc)+E(xc)   XCENC  =       323.43019107
  PAW double counting   =      7994.70333898    -8344.36159301
  entropy T*S    EENTRO =        -0.00000000
  eigenvalues    EBANDS =      -967.08211800
  atomic energy  EATOM  =      9593.80746854
  Solvation  Ediel_sol  =         0.00000000
  ---------------------------------------------------
  free energy    TOTEN  =      -490.88756636 eV

  energy without entropy =     -490.88756636  energy(sigma->0) =     -490.88756636


--------------------------------------------------------------------------------------------------------




--------------------------------------- Iteration      1(   4)  ---------------------------------------


     EDDAV:  cpu time   19.3611: real time   19.3727
       DOS:  cpu time    0.0009: real time    0.0009
    --------------------------------------------
      LOOP:  cpu time   19.3620: real time   19.3737

 eigenvalue-minimisations  : 13792
 total energy-change (2. order) :-0.4124715E+01  (-0.4110246E+01)
 number of electron     112.0000000 magnetization 
 augmentation part      112.0000000 magnetization 

 Free energy of the ion-electron system (eV)
  ---------------------------------------------------
  alpha Z        PSCENC =       252.07583680
  Ewald energy   TEWEN  =     -6350.48804996
  -Hartree energ DENC   =     -2992.97264080
  -exchange      EXHF   =         0.00000000
  -V(xc)+E(xc)   XCENC  =       323.43019107
  PAW double counting   =      7994.70333898    -8344.36159301
  entropy T*S    EENTRO =        -0.00000000
  eigenvalues    EBANDS =      -971.20683292
  atomic energy  EATOM  =      9593.80746854
  Solvation  Ediel_sol  =         0.00000000
  ---------------------------------------------------
  free energy    TOTEN  =      -495.01228128 eV

  energy without entropy =     -495.01228128  energy(sigma->0) =     -495.01228128


--------------------------------------------------------------------------------------------------------




--------------------------------------- Iteration      1(   5)  ---------------------------------------


     EDDAV:  cpu time   21.1094: real time   21.1270
       DOS:  cpu time    0.0009: real time    0.0009
    CHARGE:  cpu time    2.8365: real time    2.8366
    MIXING:  cpu time    0.0005: real time    0.0005
    --------------------------------------------
      LOOP:  cpu time   23.9473: real time   23.9649

 eigenvalue-minimisations  : 15728
 total energy-change (2. order) :-0.1677099E+00  (-0.1676605E+00)
 number of electron     112.0000000 magnetization 
 augmentation part       10.3735369 magnetization 

 Broyden mixing:
  rms(total) = 0.66420E+00    rms(broyden)= 0.66403E+00
  rms(prec ) = 0.83753E+00
  weight for this iteration     100.00

 Free energy of the ion-electron system (eV)
  ---------------------------------------------------
  alpha Z        PSCENC =       252.07583680
  Ewald energy   TEWEN  =     -6350.48804996
  -Hartree energ DENC   =     -2992.97264080
  -exchange      EXHF   =         0.00000000
  -V(xc)+E(xc)   XCENC  =       323.43019107
  PAW double counting   =      7994.70333898    -8344.36159301
  entropy T*S    EENTRO =        -0.00000000
  eigenvalues    EBANDS =      -971.37454278
  atomic energy  EATOM  =      9593.80746854
  Solvation  Ediel_sol  =         0.00000000
  ---------------------------------------------------
  free energy    TOTEN  =      -495.17999114 eV

  energy without entropy =     -495.17999114  energy(sigma->0) =     -495.17999114


--------------------------------------------------------------------------------------------------------




--------------------------------------- Iteration      1(   6)  ---------------------------------------


    POTLOK:  cpu time    0.0930: real time    0.1381
    SETDIJ:  cpu time    1.1489: real time    1.1489
     EDDAV:  cpu time   20.6024: real time   20.6030
       DOS:  cpu time    0.0012: real time    0.0012
    CHARGE:  cpu time    2.8202: real time    2.8203
    MIXING:  cpu time    0.0006: real time    0.0006
    --------------------------------------------
      LOOP:  cpu time   24.6662: real time   24.7121

 eigenvalue-minimisations  : 15224
 total energy-change (2. order) : 0.2609139E+02  (-0.9243820E+00)
 number of electron     112.0000000 magnetization 
 augmentation part       11.0621992 magnetization 

 Broyden mixing:
  rms(total) = 0.49830E+00    rms(broyden)= 0.49824E+00
  rms(prec ) = 0.56633E+00
  weight for this iteration     100.00

 eigenvalues of (default mixing * dielectric matrix)
  average eigenvalue GAMMA=   1.1585
  1.1585

 Free energy of the ion-electron system (eV)
  ---------------------------------------------------
  alpha Z        PSCENC =       252.07583680
  Ewald energy   TEWEN  =     -6350.48804996
  -Hartree energ DENC   =     -2977.17691100
  -exchange      EXHF   =         0.00000000
  -V(xc)+E(xc)   XCENC  =       338.06457882
  PAW double counting   =      8090.21427159    -8438.45600890
  entropy T*S    EENTRO =        -0.00000000
  eigenvalues    EBANDS =      -977.12978341
  atomic energy  EATOM  =      9593.80746854
  Solvation  Ediel_sol  =         0.00000000
  ---------------------------------------------------
  free energy    TOTEN  =      -469.08859752 eV

  energy without entropy =     -469.08859752  energy(sigma->0) =     -469.08859752


--------------------------------------------------------------------------------------------------------




--------------------------------------- Iteration      1(   7)  ---------------------------------------


    POTLOK:  cpu time    0.0839: real time    0.1300
    SETDIJ:  cpu time    1.1457: real time    1.1457
     EDDAV:  cpu time   19.6007: real time   19.6013
       DOS:  cpu time    0.0009: real time    0.0009
    CHARGE:  cpu time    2.8190: real time    2.8190
    MIXING:  cpu time    0.0006: real time    0.0006
    --------------------------------------------
      LOOP:  cpu time   23.6506: real time   23.6975

 eigenvalue-minimisations  : 14112
 total energy-change (2. order) : 0.6298427E-01  (-0.2459335E+00)
 number of electron     112.0000000 magnetization 
 augmentation part       11.2348888 magnetization 

 Broyden mixing:
  rms(total) = 0.25738E+00    rms(broyden)= 0.25738E+00
  rms(prec ) = 0.27239E+00
  weight for this iteration     100.00

 eigenvalues of (default mixing * dielectric matrix)
  average eigenvalue GAMMA=   1.3298
  1.1998  1.4599

 Free energy of the ion-electron system (eV)
  ---------------------------------------------------
  alpha Z        PSCENC =       252.07583680
  Ewald energy   TEWEN  =     -6350.48804996
  -Hartree energ DENC   =     -2989.42883881
  -exchange      EXHF   =         0.00000000
  -V(xc)+E(xc)   XCENC  =       339.11417588
  PAW double counting   =      8302.33689439    -8649.13391045
  entropy T*S    EENTRO =        -0.00000000
  eigenvalues    EBANDS =      -967.30918964
  atomic energy  EATOM  =      9593.80746854
  Solvation  Ediel_sol  =         0.00000000
  ---------------------------------------------------
  free energy    TOTEN  =      -469.02561326 eV

  energy without entropy =     -469.02561326  energy(sigma->0) =     -469.02561326


--------------------------------------------------------------------------------------------------------




--------------------------------------- Iteration      1(   8)  ---------------------------------------


    POTLOK:  cpu time    0.1095: real time    0.1372
    SETDIJ:  cpu time    1.1446: real time    1.1446
     EDDAV:  cpu time   19.0818: real time   19.0825
       DOS:  cpu time    0.0010: real time    0.0010
    CHARGE:  cpu time    2.8202: real time    2.8202
    MIXING:  cpu time    0.0006: real time    0.0006
    --------------------------------------------
      LOOP:  cpu time   23.1576: real time   23.1862

 eigenvalue-minimisations  : 13592
 total energy-change (2. order) :-0.6188029E-01  (-0.1012639E-01)
 number of electron     112.0000000 magnetization 
 augmentation part       11.2004286 magnetization 

 Broyden mixing:
  rms(total) = 0.13519E+00    rms(broyden)= 0.13519E+00
  rms(prec ) = 0.14434E+00
  weight for this iteration     100.00

 eigenvalues of (default mixing * dielectric matrix)
  average eigenvalue GAMMA=   1.6566
  2.6622  1.1538  1.1538

 Free energy of the ion-electron system (eV)
  ---------------------------------------------------
  alpha Z        PSCENC =       252.07583680
  Ewald energy   TEWEN  =     -6350.48804996
  -Hartree energ DENC   =     -2993.00369132
  -exchange      EXHF   =         0.00000000
  -V(xc)+E(xc)   XCENC  =       339.32217206
  PAW double counting   =      8412.03316653    -8758.80453438
  entropy T*S    EENTRO =        -0.00000000
  eigenvalues    EBANDS =      -964.02986183
  atomic energy  EATOM  =      9593.80746854
  Solvation  Ediel_sol  =         0.00000000
  ---------------------------------------------------
  free energy    TOTEN  =      -469.08749355 eV

  energy without entropy =     -469.08749355  energy(sigma->0) =     -469.08749355


--------------------------------------------------------------------------------------------------------




--------------------------------------- Iteration      1(   9)  ---------------------------------------


    POTLOK:  cpu time    0.1010: real time    0.1378
    SETDIJ:  cpu time    1.1451: real time    1.1452
     EDDAV:  cpu time   18.7051: real time   18.7057
       DOS:  cpu time    0.0009: real time    0.0009
    CHARGE:  cpu time    2.8199: real time    2.8200
    MIXING:  cpu time    0.0006: real time    0.0006
    --------------------------------------------
      LOOP:  cpu time   22.7726: real time   22.8101

 eigenvalue-minimisations  : 13144
 total energy-change (2. order) :-0.1876870E-01  (-0.5322263E-02)
 number of electron     112.0000000 magnetization 
 augmentation part       11.1849409 magnetization 

 Broyden mixing:
  rms(total) = 0.23162E-01    rms(broyden)= 0.23159E-01
  rms(prec ) = 0.25640E-01
  weight for this iteration     100.00

 eigenvalues of (default mixing * dielectric matrix)
  average eigenvalue GAMMA=   1.4530
  2.7057  1.1706  1.1706  0.7651

 Free energy of the ion-electron system (eV)
  ---------------------------------------------------
  alpha Z        PSCENC =       252.07583680
  Ewald energy   TEWEN  =     -6350.48804996
  -Hartree energ DENC   =     -2995.64474819
  -exchange      EXHF   =         0.00000000
  -V(xc)+E(xc)   XCENC  =       339.77012710
  PAW double counting   =      8541.29427656    -8888.08773595
  entropy T*S    EENTRO =        -0.00000000
  eigenvalues    EBANDS =      -961.83343715
  atomic energy  EATOM  =      9593.80746854
  Solvation  Ediel_sol  =         0.00000000
  ---------------------------------------------------
  free energy    TOTEN  =      -469.10626225 eV

  energy without entropy =     -469.10626225  energy(sigma->0) =     -469.10626225


--------------------------------------------------------------------------------------------------------




--------------------------------------- Iteration      1(  10)  ---------------------------------------


    POTLOK:  cpu time    0.1141: real time    0.1384
    SETDIJ:  cpu time    1.1443: real time    1.1444
     EDDAV:  cpu time   22.9061: real time   22.9068
       DOS:  cpu time    0.0010: real time    0.0010
    CHARGE:  cpu time    2.8191: real time    2.8192
    MIXING:  cpu time    0.0006: real time    0.0006
    --------------------------------------------
      LOOP:  cpu time   26.9852: real time   27.0103

 eigenvalue-minimisations  : 17848
 total energy-change (2. order) :-0.9801292E-03  (-0.3149542E-03)
 number of electron     112.0000000 magnetization 
 augmentation part       11.1890138 magnetization 

 Broyden mixing:
  rms(total) = 0.16544E-01    rms(broyden)= 0.16543E-01
  rms(prec ) = 0.18400E-01
  weight for this iteration     100.00

 eigenvalues of (default mixing * dielectric matrix)
  average eigenvalue GAMMA=   1.4731
  2.7114  1.3424  1.3424  0.9845  0.9845

 Free energy of the ion-electron system (eV)
  ---------------------------------------------------
  alpha Z        PSCENC =       252.07583680
  Ewald energy   TEWEN  =     -6350.48804996
  -Hartree energ DENC   =     -2994.80045890
  -exchange      EXHF   =         0.00000000
  -V(xc)+E(xc)   XCENC  =       339.73283899
  PAW double counting   =      8538.10061119    -8884.95816799
  entropy T*S    EENTRO =        -0.00000000
  eigenvalues    EBANDS =      -962.57732105
  atomic energy  EATOM  =      9593.80746854
  Solvation  Ediel_sol  =         0.00000000
  ---------------------------------------------------
  free energy    TOTEN  =      -469.10724238 eV

  energy without entropy =     -469.10724238  energy(sigma->0) =     -469.10724238


--------------------------------------------------------------------------------------------------------




--------------------------------------- Iteration      1(  11)  ---------------------------------------


    POTLOK:  cpu time    0.1065: real time    0.1371
    SETDIJ:  cpu time    1.1453: real time    1.1453
     EDDAV:  cpu time   18.8037: real time   18.8044
       DOS:  cpu time    0.0010: real time    0.0010
    CHARGE:  cpu time    2.8173: real time    2.8174
    MIXING:  cpu time    0.0006: real time    0.0006
    --------------------------------------------
      LOOP:  cpu time   22.8745: real time   22.9058

 eigenvalue-minimisations  : 13264
 total energy-change (2. order) :-0.7360038E-03  (-0.7961390E-04)
 number of electron     112.0000000 magnetization 
 augmentation part       11.1897753 magnetization 

 Broyden mixing:
  rms(total) = 0.57332E-02    rms(broyden)= 0.57329E-02
  rms(prec ) = 0.61760E-02
  weight for this iteration     100.00

 eigenvalues of (default mixing * dielectric matrix)
  average eigenvalue GAMMA=   1.5732
  2.6448  2.6448  1.1777  1.1777  0.8972  0.8972

 Free energy of the ion-electron system (eV)
  ---------------------------------------------------
  alpha Z        PSCENC =       252.07583680
  Ewald energy   TEWEN  =     -6350.48804996
  -Hartree energ DENC   =     -2993.89889478
  -exchange      EXHF   =         0.00000000
  -V(xc)+E(xc)   XCENC  =       339.68941780
  PAW double counting   =      8538.44706438    -8885.43004184
  entropy T*S    EENTRO =        -0.00000000
  eigenvalues    EBANDS =      -963.31077932
  atomic energy  EATOM  =      9593.80746854
  Solvation  Ediel_sol  =         0.00000000
  ---------------------------------------------------
  free energy    TOTEN  =      -469.10797838 eV

  energy without entropy =     -469.10797838  energy(sigma->0) =     -469.10797838


--------------------------------------------------------------------------------------------------------




--------------------------------------- Iteration      1(  12)  ---------------------------------------


    POTLOK:  cpu time    0.1102: real time    0.1259
    SETDIJ:  cpu time    1.1455: real time    1.1455
     EDDAV:  cpu time   19.4586: real time   19.4592
       DOS:  cpu time    0.0011: real time    0.0011
    CHARGE:  cpu time    2.8171: real time    2.8171
    MIXING:  cpu time    0.0007: real time    0.0007
    --------------------------------------------
      LOOP:  cpu time   23.5332: real time   23.5495

 eigenvalue-minimisations  : 14016
 total energy-change (2. order) :-0.4635922E-03  (-0.2657194E-04)
 number of electron     112.0000000 magnetization 
 augmentation part       11.1894231 magnetization 

 Broyden mixing:
  rms(total) = 0.25060E-02    rms(broyden)= 0.25053E-02
  rms(prec ) = 0.30414E-02
  weight for this iteration     100.00

 eigenvalues of (default mixing * dielectric matrix)
  average eigenvalue GAMMA=   1.7155
  3.0225  2.4128  2.4128  1.1321  1.1321  0.9481  0.9481

 Free energy of the ion-electron system (eV)
  ---------------------------------------------------
  alpha Z        PSCENC =       252.07583680
  Ewald energy   TEWEN  =     -6350.48804996
  -Hartree energ DENC   =     -2993.52572555
  -exchange      EXHF   =         0.00000000
  -V(xc)+E(xc)   XCENC  =       339.66745936
  PAW double counting   =      8536.15198313    -8883.20276590
  entropy T*S    EENTRO =        -0.00000000
  eigenvalues    EBANDS =      -963.59464839
  atomic energy  EATOM  =      9593.80746854
  Solvation  Ediel_sol  =         0.00000000
  ---------------------------------------------------
  free energy    TOTEN  =      -469.10844197 eV

  energy without entropy =     -469.10844197  energy(sigma->0) =     -469.10844197


--------------------------------------------------------------------------------------------------------




--------------------------------------- Iteration      1(  13)  ---------------------------------------


    POTLOK:  cpu time    0.0868: real time    0.1156
    SETDIJ:  cpu time    1.1449: real time    1.1449
     EDDAV:  cpu time   19.4672: real time   19.4678
       DOS:  cpu time    0.0010: real time    0.0010
    CHARGE:  cpu time    2.8225: real time    2.8225
    MIXING:  cpu time    0.0008: real time    0.0008
    --------------------------------------------
      LOOP:  cpu time   23.5232: real time   23.5528

 eigenvalue-minimisations  : 13968
 total energy-change (2. order) : 0.1739881E-03  (-0.1157285E-04)
 number of electron     112.0000000 magnetization 
 augmentation part       11.1894111 magnetization 

 Broyden mixing:
  rms(total) = 0.81050E-03    rms(broyden)= 0.81007E-03
  rms(prec ) = 0.94597E-03
  weight for this iteration     100.00

 eigenvalues of (default mixing * dielectric matrix)
  average eigenvalue GAMMA=   1.5860
  3.0089  2.6075  1.4743  1.4743  1.1494  1.1494  0.9121  0.9121

 Free energy of the ion-electron system (eV)
  ---------------------------------------------------
  alpha Z        PSCENC =       252.07583680
  Ewald energy   TEWEN  =     -6350.48804996
  -Hartree energ DENC   =     -2993.83613292
  -exchange      EXHF   =         0.00000000
  -V(xc)+E(xc)   XCENC  =       339.68816797
  PAW double counting   =      8535.13502852    -8882.16464507
  entropy T*S    EENTRO =        -0.00000000
  eigenvalues    EBANDS =      -963.32594186
  atomic energy  EATOM  =      9593.80746854
  Solvation  Ediel_sol  =         0.00000000
  ---------------------------------------------------
  free energy    TOTEN  =      -469.10826798 eV

  energy without entropy =     -469.10826798  energy(sigma->0) =     -469.10826798


--------------------------------------------------------------------------------------------------------




--------------------------------------- Iteration      1(  14)  ---------------------------------------


    POTLOK:  cpu time    0.1084: real time    0.1257
    SETDIJ:  cpu time    1.1443: real time    1.1444
     EDDAV:  cpu time   19.0962: real time   19.0971
       DOS:  cpu time    0.0010: real time    0.0010
    CHARGE:  cpu time    2.8211: real time    2.8212
    MIXING:  cpu time    0.0007: real time    0.0007
    --------------------------------------------
      LOOP:  cpu time   23.1718: real time   23.1901

 eigenvalue-minimisations  : 13616
 total energy-change (2. order) :-0.5272197E-04  (-0.1172442E-05)
 number of electron     112.0000000 magnetization 
 augmentation part       11.1895718 magnetization 

 Broyden mixing:
  rms(total) = 0.49790E-03    rms(broyden)= 0.49740E-03
  rms(prec ) = 0.53752E-03
  weight for this iteration     100.00

 eigenvalues of (default mixing * dielectric matrix)
  average eigenvalue GAMMA=   1.5601
  3.0497  2.4699  2.0196  1.1557  1.1557  1.1186  1.1186  0.9765  0.9765

 Free energy of the ion-electron system (eV)
  ---------------------------------------------------
  alpha Z        PSCENC =       252.07583680
  Ewald energy   TEWEN  =     -6350.48804996
  -Hartree energ DENC   =     -2993.73029469
  -exchange      EXHF   =         0.00000000
  -V(xc)+E(xc)   XCENC  =       339.68138863
  PAW double counting   =      8535.58648314    -8882.62273478
  entropy T*S    EENTRO =        -0.00000000
  eigenvalues    EBANDS =      -963.41841839
  atomic energy  EATOM  =      9593.80746854
  Solvation  Ediel_sol  =         0.00000000
  ---------------------------------------------------
  free energy    TOTEN  =      -469.10832071 eV

  energy without entropy =     -469.10832071  energy(sigma->0) =     -469.10832071


--------------------------------------------------------------------------------------------------------




--------------------------------------- Iteration      1(  15)  ---------------------------------------


    POTLOK:  cpu time    0.0860: real time    0.1351
    SETDIJ:  cpu time    1.1454: real time    1.1454
     EDDAV:  cpu time   14.2190: real time   14.2195
       DOS:  cpu time    0.0010: real time    0.0010
    CHARGE:  cpu time    2.8197: real time    2.8198
    MIXING:  cpu time    0.0008: real time    0.0008
    --------------------------------------------
      LOOP:  cpu time   18.2718: real time   18.3215

 eigenvalue-minimisations  :  7792
 total energy-change (2. order) : 0.1826619E-04  (-0.8414551E-07)
 number of electron     112.0000000 magnetization 
 augmentation part       11.1894586 magnetization 

 Broyden mixing:
  rms(total) = 0.18278E-03    rms(broyden)= 0.18146E-03
  rms(prec ) = 0.18817E-03
  weight for this iteration     100.00

 eigenvalues of (default mixing * dielectric matrix)
  average eigenvalue GAMMA=   1.6350
  3.1512  2.6439  2.6439  1.4480  1.4480  1.1291  1.1291  0.8707  0.9428  0.9428

 Free energy of the ion-electron system (eV)
  ---------------------------------------------------
  alpha Z        PSCENC =       252.07583680
  Ewald energy   TEWEN  =     -6350.48804996
  -Hartree energ DENC   =     -2993.76053063
  -exchange      EXHF   =         0.00000000
  -V(xc)+E(xc)   XCENC  =       339.68326432
  PAW double counting   =      8535.45552055    -8882.48662515
  entropy T*S    EENTRO =        -0.00000000
  eigenvalues    EBANDS =      -963.39518691
  atomic energy  EATOM  =      9593.80746854
  Solvation  Ediel_sol  =         0.00000000
  ---------------------------------------------------
  free energy    TOTEN  =      -469.10830244 eV

  energy without entropy =     -469.10830244  energy(sigma->0) =     -469.10830244


--------------------------------------------------------------------------------------------------------




--------------------------------------- Iteration      1(  16)  ---------------------------------------


    POTLOK:  cpu time    0.1180: real time    0.1221
    SETDIJ:  cpu time    1.1454: real time    1.1455
     EDDAV:  cpu time   13.6814: real time   13.6819
       DOS:  cpu time    0.0011: real time    0.0011
    CHARGE:  cpu time    2.8165: real time    2.8166
    MIXING:  cpu time    0.0008: real time    0.0008
    --------------------------------------------
      LOOP:  cpu time   17.7632: real time   17.7680

 eigenvalue-minimisations  :  7192
 total energy-change (2. order) : 0.1720450E-05  (-0.4652881E-07)
 number of electron     112.0000000 magnetization 
 augmentation part       11.1895817 magnetization 

 Broyden mixing:
  rms(total) = 0.59777E-04    rms(broyden)= 0.55615E-04
  rms(prec ) = 0.69263E-04
  weight for this iteration     100.00

 eigenvalues of (default mixing * dielectric matrix)
  average eigenvalue GAMMA=   1.5916
  3.1693  2.8292  2.3794  1.8327  1.2130  1.2130  1.0577  1.0577  0.8818  0.9370
  0.9370

 Free energy of the ion-electron system (eV)
  ---------------------------------------------------
  alpha Z        PSCENC =       252.07583680
  Ewald energy   TEWEN  =     -6350.48804996
  -Hartree energ DENC   =     -2993.76322461
  -exchange      EXHF   =         0.00000000
  -V(xc)+E(xc)   XCENC  =       339.68349015
  PAW double counting   =      8535.40232440    -8882.43135909
  entropy T*S    EENTRO =        -0.00000000
  eigenvalues    EBANDS =      -963.39478695
  atomic energy  EATOM  =      9593.80746854
  Solvation  Ediel_sol  =         0.00000000
  ---------------------------------------------------
  free energy    TOTEN  =      -469.10830072 eV

  energy without entropy =     -469.10830072  energy(sigma->0) =     -469.10830072


--------------------------------------------------------------------------------------------------------




--------------------------------------- Iteration      1(  17)  ---------------------------------------


    POTLOK:  cpu time    0.0753: real time    0.1355
    SETDIJ:  cpu time    1.1461: real time    1.1461
     EDDAV:  cpu time   13.7503: real time   13.7508
       DOS:  cpu time    0.0010: real time    0.0010
    CHARGE:  cpu time    2.8185: real time    2.8186
    MIXING:  cpu time    0.0009: real time    0.0009
    --------------------------------------------
      LOOP:  cpu time   17.7921: real time   17.8529

 eigenvalue-minimisations  :  7264
 total energy-change (2. order) :-0.2225661E-05  (-0.1479559E-07)
 number of electron     112.0000000 magnetization 
 augmentation part       11.1895045 magnetization 

 Broyden mixing:
  rms(total) = 0.38861E-04    rms(broyden)= 0.32112E-04
  rms(prec ) = 0.35933E-04
  weight for this iteration     100.00
  WARNING: grid for Broyden might be to small

 eigenvalues of (default mixing * dielectric matrix)
  average eigenvalue GAMMA=   1.6420
  3.3635  2.5806  2.5079  2.5079  1.3559  1.3559  1.2124  1.0670  1.0670  0.8985
  0.8934  0.8934

 Free energy of the ion-electron system (eV)
  ---------------------------------------------------
  alpha Z        PSCENC =       252.07583680
  Ewald energy   TEWEN  =     -6350.48804996
  -Hartree energ DENC   =     -2993.75877071
  -exchange      EXHF   =         0.00000000
  -V(xc)+E(xc)   XCENC  =       339.68303214
  PAW double counting   =      8535.42231741    -8882.45178459
  entropy T*S    EENTRO =        -0.00000000
  eigenvalues    EBANDS =      -963.39835259
  atomic energy  EATOM  =      9593.80746854
  Solvation  Ediel_sol  =         0.00000000
  ---------------------------------------------------
  free energy    TOTEN  =      -469.10830294 eV

  energy without entropy =     -469.10830294  energy(sigma->0) =     -469.10830294


--------------------------------------------------------------------------------------------------------




--------------------------------------- Iteration      1(  18)  ---------------------------------------


    POTLOK:  cpu time    0.1232: real time    0.1259
    SETDIJ:  cpu time    1.1470: real time    1.1470
     EDDAV:  cpu time   13.5741: real time   13.5746
       DOS:  cpu time    0.0011: real time    0.0011
    --------------------------------------------
      LOOP:  cpu time   14.8454: real time   14.8487

 eigenvalue-minimisations  :  7072
 total energy-change (2. order) :-0.8901022E-06  (-0.9550692E-08)
 number of electron     112.0000000 magnetization 
 augmentation part       11.1895045 magnetization 

 Free energy of the ion-electron system (eV)
  ---------------------------------------------------
  alpha Z        PSCENC =       252.07583680
  Ewald energy   TEWEN  =     -6350.48804996
  -Hartree energ DENC   =     -2993.75364001
  -exchange      EXHF   =         0.00000000
  -V(xc)+E(xc)   XCENC  =       339.68290606
  PAW double counting   =      8535.45371658    -8882.48340170
  entropy T*S    EENTRO =        -0.00000000
  eigenvalues    EBANDS =      -963.40314015
  atomic energy  EATOM  =      9593.80746854
[...]
     21     -13.7440      2.00000
     22     -13.7440      2.00000
     23     -13.6512      2.00000
     24     -13.6512      2.00000
     25     -13.4415      2.00000
     26     -13.4415      2.00000
     27     -13.3769      2.00000
     28     -13.3769      2.00000
     29      -6.9254      2.00000
     30      -6.9254      2.00000
     31      -6.9037      2.00000
     32      -6.9037      2.00000
     33      -2.6544      2.00000
     34      -2.6544      2.00000
     35      -2.5487      2.00000
     36      -2.5487      2.00000
     37      -1.9533      2.00000
     38      -1.9533      2.00000
     39      -1.8203      2.00000
     40      -1.8203      2.00000
     41      -1.6082      2.00000
     42      -1.6082      2.00000
     43      -1.5609      2.00000
     44      -1.5609      2.00000
     45      -0.9314      2.00000
     46      -0.9314      2.00000
     47      -0.8374      2.00000
     48      -0.8374      2.00000
     49      -0.7298      2.00000
     50      -0.7298      2.00000
     51      -0.6489      2.00000
     52      -0.6489      2.00000
     53      -0.0929      2.00000
     54      -0.0929      2.00000
     55      -0.0770      2.00000
     56      -0.0770      2.00000
     57       4.1381      0.00000
     58       4.1381      0.00000
     59       4.3048      0.00000
     60       4.3048      0.00000
     61       5.2060      0.00000
     62       5.2060      0.00000
     63       5.2586      0.00000
     64       5.2586      0.00000
     65       5.4859      0.00000
     66       5.4859      0.00000
     67       5.5295      0.00000
     68       5.5295      0.00000
     69       7.8314      0.00000
     70       7.8314      0.00000
     71       8.1482      0.00000
     72       8.1482      0.00000

 k-point    83 :       0.4167    0.5000    0.5000
  band No.  band energies     occupation 
      1     -15.9436      2.00000
      2     -15.9436      2.00000
      3     -15.9411      2.00000
      4     -15.9411      2.00000
      5     -15.8227      2.00000
      6     -15.8227      2.00000
      7     -15.8150      2.00000
      8     -15.8150      2.00000
      9     -15.7830      2.00000
     10     -15.7830      2.00000
     11     -15.7818      2.00000
     12     -15.7818      2.00000
     13     -15.7681      2.00000
     14     -15.7681      2.00000
     15     -15.7672      2.00000
     16     -15.7672      2.00000
     17     -15.7562      2.00000
     18     -15.7561      2.00000
     19     -15.7559      2.00000
     20     -15.7559      2.00000
     21     -13.6851      2.00000
     22     -13.6851      2.00000
     23     -13.6273      2.00000
     24     -13.6273      2.00000
     25     -13.4175      2.00000
     26     -13.4175      2.00000
     27     -13.3748      2.00000
     28     -13.3748      2.00000
     29      -6.9776      2.00000
     30      -6.9776      2.00000
     31      -6.9647      2.00000
     32      -6.9647      2.00000
     33      -2.7700      2.00000
     34      -2.7700      2.00000
     35      -2.7094      2.00000
     36      -2.7094      2.00000
     37      -1.9074      2.00000
     38      -1.9074      2.00000
     39      -1.8280      2.00000
     40      -1.8280      2.00000
     41      -1.5820      2.00000
     42      -1.5820      2.00000
     43      -1.5220      2.00000
     44      -1.5220      2.00000
     45      -0.9570      2.00000
     46      -0.9570      2.00000
     47      -0.8894      2.00000
     48      -0.8894      2.00000
     49      -0.7712      2.00000
     50      -0.7712      2.00000
     51      -0.7293      2.00000
     52      -0.7293      2.00000
     53      -0.1500      2.00000
     54      -0.1500      2.00000
     55      -0.1376      2.00000
     56      -0.1376      2.00000
     57       4.0996      0.00000
     58       4.0997      0.00000
     59       4.1993      0.00000
     60       4.1993      0.00000
     61       5.3535      0.00000
     62       5.3535      0.00000
     63       5.3719      0.00000
     64       5.3719      0.00000
     65       5.6231      0.00000
     66       5.6231      0.00000
     67       5.6593      0.00000
     68       5.6593      0.00000
     69       7.7778      0.00000
     70       7.7778      0.00000
     71       7.9365      0.00000
     72       7.9365      0.00000

 k-point    84 :       0.5000    0.5000    0.5000
  band No.  band energies     occupation 
      1     -15.9479      2.00000
      2     -15.9479      2.00000
      3     -15.9479      2.00000
      4     -15.9479      2.00000
      5     -15.8171      2.00000
      6     -15.8171      2.00000
      7     -15.8171      2.00000
      8     -15.8171      2.00000
      9     -15.7829      2.00000
     10     -15.7829      2.00000
     11     -15.7829      2.00000
     12     -15.7829      2.00000
     13     -15.7671      2.00000
     14     -15.7671      2.00000
     15     -15.7671      2.00000
     16     -15.7671      2.00000
     17     -15.7549      2.00000
     18     -15.7549      2.00000
     19     -15.7549      2.00000
     20     -15.7549      2.00000
     21     -13.6417      2.00000
     22     -13.6417      2.00000
     23     -13.6417      2.00000
     24     -13.6417      2.00000
     25     -13.3906      2.00000
     26     -13.3906      2.00000
     27     -13.3906      2.00000
     28     -13.3906      2.00000
     29      -6.9924      2.00000
     30      -6.9924      2.00000
     31      -6.9924      2.00000
     32      -6.9924      2.00000
     33      -2.7900      2.00000
     34      -2.7900      2.00000
     35      -2.7900      2.00000
     36      -2.7900      2.00000
     37      -1.8585      2.00000
     38      -1.8585      2.00000
     39      -1.8585      2.00000
     40      -1.8585      2.00000
     41      -1.5164      2.00000
     42      -1.5164      2.00000
     43      -1.5164      2.00000
     44      -1.5164      2.00000
     45      -0.9905      2.00000
     46      -0.9905      2.00000
     47      -0.9905      2.00000
     48      -0.9905      2.00000
     49      -0.7457      2.00000
     50      -0.7457      2.00000
     51      -0.7457      2.00000
     52      -0.7457      2.00000
     53      -0.1625      2.00000
     54      -0.1625      2.00000
     55      -0.1625      2.00000
     56      -0.1625      2.00000
     57       4.1210      0.00000
     58       4.1210      0.00000
     59       4.1210      0.00000
     60       4.1210      0.00000
     61       5.3949      0.00000
     62       5.3949      0.00000
     63       5.3949      0.00000
     64       5.3949      0.00000
     65       5.6973      0.00000
     66       5.6973      0.00000
     67       5.6973      0.00000
     68       5.6973      0.00000
     69       7.8132      0.00000
     70       7.8132      0.00000
     71       7.8132      0.00000
     72       7.8132      0.00000


--------------------------------------------------------------------------------------------------------


 soft charge-density along one line, spin component           1
         0         1         2         3         4         5         6         7         8         9
 total charge-density along one line

 pseudopotential strength for first ion, spin component:           1
-16.793  -0.000   0.000  -0.008  -0.000   5.315   0.000  -0.000
 -0.000 -16.805  -0.001  -0.000  -0.005   0.000   5.327  -0.001
  0.000  -0.001 -16.799   0.000   0.000  -0.000  -0.001   5.323
 -0.008  -0.000   0.000 -16.805  -0.000   0.004   0.000  -0.000
 -0.000  -0.005   0.000  -0.000 -16.793  -0.000   0.005   0.000
  5.315   0.000  -0.000   0.004  -0.000   5.321  -0.000   0.000
  0.000   5.327  -0.001   0.000   0.005  -0.000   5.309   0.004
 -0.000  -0.001   5.323  -0.000   0.000   0.000   0.004   5.309
  0.004   0.000  -0.000   5.326   0.000   0.001   0.000   0.000
 -0.000   0.005   0.000   0.000   5.315   0.000  -0.006  -0.001
 -0.000  -0.003   0.004   0.000  -0.000   0.000  -0.000   0.002
 -0.000   0.002  -0.002  -0.000   0.000   0.000   0.009  -0.012
 -0.000   0.007   0.003   0.000   0.004   0.000   0.003  -0.000
  0.000  -0.000   0.006   0.000  -0.001   0.000  -0.003   0.004
 -0.001   0.000   0.000   0.005   0.000  -0.002   0.000  -0.000
 -0.000   0.005   0.004   0.000   0.004   0.000   0.031   0.005
  0.000   0.003   0.003   0.000  -0.001   0.000  -0.016   0.033
  0.000   0.000   0.000   0.003   0.000  -0.011   0.000   0.000
 total augmentation occupancy for first ion, spin component:           1
  1.995  -0.000  -0.000  -0.000   0.000  -0.007  -0.000   0.000  -0.002   0.000   0.000   0.000   0.000   0.000   0.014  -0.000
 -0.000   1.994   0.000   0.000  -0.001  -0.000  -0.008   0.000  -0.000  -0.002   0.003   0.001  -0.042   0.020  -0.000   0.021
 -0.000   0.000   1.994   0.000  -0.000   0.000   0.000  -0.006   0.000  -0.000  -0.003  -0.002  -0.007  -0.044  -0.000   0.004
 -0.000   0.000   0.000   1.994   0.000  -0.002  -0.000   0.000  -0.008   0.000   0.000   0.000  -0.000   0.000  -0.042   0.000
  0.000  -0.001  -0.000   0.000   1.995   0.000  -0.002  -0.000   0.000  -0.006   0.000   0.000  -0.018  -0.000  -0.000   0.009
 -0.007  -0.000   0.000  -0.002   0.000   0.012   0.000  -0.000   0.009  -0.000  -0.000   0.000   0.000  -0.000  -0.001  -0.000
 -0.000  -0.008   0.000  -0.000  -0.002   0.000   0.016  -0.001   0.000   0.009  -0.000  -0.000   0.012  -0.012   0.000  -0.001
  0.000   0.000  -0.006   0.000  -0.000  -0.000  -0.001   0.004  -0.000  -0.000   0.004  -0.001  -0.003   0.009   0.000   0.000
 -0.002  -0.000   0.000  -0.008   0.000   0.009   0.000  -0.000   0.016  -0.000   0.000  -0.000   0.000  -0.000   0.012  -0.000
  0.000  -0.002  -0.000   0.000  -0.006  -0.000   0.009  -0.000  -0.000   0.012   0.000  -0.000   0.005   0.001   0.000  -0.001
  0.000   0.003  -0.003   0.000   0.000  -0.000  -0.000   0.004   0.000   0.000   2.251   0.023   0.042  -0.102   0.000  -0.009
  0.000   0.001  -0.002   0.000   0.000   0.000  -0.000  -0.001  -0.000  -0.000   0.023   0.007  -0.004   0.010  -0.000   0.000
  0.000  -0.042  -0.007  -0.000  -0.018   0.000   0.012  -0.003   0.000   0.005   0.042  -0.004   0.454  -0.011   0.000  -0.009
  0.000   0.020  -0.044   0.000  -0.000  -0.000  -0.012   0.009  -0.000   0.001  -0.102   0.010  -0.011   0.420  -0.000   0.002
  0.014  -0.000  -0.000  -0.042  -0.000  -0.001   0.000   0.000   0.012   0.000   0.000  -0.000   0.000  -0.000   0.453  -0.000
 -0.000   0.021   0.004   0.000   0.009  -0.000  -0.001   0.000  -0.000  -0.001  -0.009   0.000  -0.009   0.002  -0.000   0.001
 -0.000  -0.009   0.022  -0.000  -0.000   0.000   0.001  -0.000   0.000   0.000   0.022  -0.000   0.002  -0.009   0.000  -0.000
 -0.007   0.000   0.000   0.020   0.000  -0.000  -0.000   0.000  -0.001  -0.000  -0.000   0.000  -0.000   0.000  -0.008   0.000


------------------------ aborting loop because EDIFF is reached ----------------------------------------





 total charge     

# of ion       s       p       d       tot
------------------------------------------
    1        1.560   0.410   9.830  11.800
    2        1.560   0.410   9.830  11.800
    3        1.560   0.410   9.830  11.800
    4        1.560   0.410   9.830  11.800
    5        1.621   3.254   0.010   4.885
    6        1.621   3.254   0.010   4.885
    7        1.621   3.254   0.010   4.885
    8        1.621   3.254   0.010   4.885
    9        1.621   3.255   0.009   4.885
   10        1.621   3.255   0.009   4.885
   11        1.621   3.255   0.009   4.885
   12        1.621   3.255   0.009   4.885
--------------------------------------------------
tot         19.208  27.676  39.395  86.279

    CHARGE:  cpu time    0.3445: real time    0.3445
    FORLOC:  cpu time    0.0018: real time    0.0018
    FORNL :  cpu time    1.8044: real time    1.8045
    STRESS:  cpu time   50.7433: real time   50.7447
    FORCOR:  cpu time    0.0555: real time    0.0555
    FORHAR:  cpu time    0.0055: real time    0.0055
    MIXING:  cpu time    0.0009: real time    0.0009
    OFIELD:  cpu time    0.0000: real time    0.0000

  FORCE on cell =-STRESS in cart. coord.  units (eV):
  Direction    XX          YY          ZZ          XY          YZ          ZX
  --------------------------------------------------------------------------------------
  Alpha Z   252.07584   252.07584   252.07584
  Ewald   -1465.38835 -1535.74380 -3349.36421     0.00000     0.00000     0.00000
  Hartree  1500.70422  1453.40391    39.65266    -0.00000    -0.00000    -0.00000
  E(xc)    -499.60114  -499.62033  -499.72599    -0.02240     0.00006    -0.00021
  Local   -2290.31593 -2173.06798  1049.98666    -0.00000     0.00000    -0.00000
  n-local   672.16855   672.24985   668.37455    -0.22877     0.00061    -0.00038
  augment   471.54954   471.61496   470.98351    -0.00000     0.00000    -0.00002
  Kinetic  1358.36416  1358.68889  1367.78471    -0.65718    -0.00015    -0.01231
  Fock        0.00000     0.00000     0.00000     0.00000     0.00000     0.00000
  -------------------------------------------------------------------------------------
  Total      -0.44311    -0.39866    -0.23227    -0.00000     0.00000     0.00000
  in kB      -1.61347    -1.45160    -0.84573    -0.00000     0.00000     0.00000
  external pressure =       -1.30 kB  Pullay stress =        0.00 kB


 VOLUME and BASIS-vectors are now :
 -----------------------------------------------------------------------------
  energy-cutoff  :      300.00
  volume of cell :      440.01
      direct lattice vectors                 reciprocal lattice vectors
     4.455733447  0.000000000  0.000000000     0.224429942 -0.000000000  0.000000000
     0.000000000  7.722781487  0.000000000    -0.000000000  0.129487025  0.000000000
     0.000000000  0.000000000 12.787069324     0.000000000  0.000000000  0.078204002

  length of vectors
     4.455733447  7.722781487 12.787069324     0.224429942  0.129487025  0.078204002


 FORCES acting on ions
    electron-ion (+dipol)            ewald-force                    non-local-force                 convergence-correction
 -----------------------------------------------------------------------------------------------
   0.319E-12 -.351E+02 0.547E+02   0.461E-13 0.362E+02 -.576E+02   -.173E-16 -.117E+01 0.287E+01   0.179E-13 0.124E-03 -.264E-03
   0.874E-12 0.351E+02 -.547E+02   -.521E-13 -.362E+02 0.576E+02   0.104E-16 0.117E+01 -.287E+01   -.254E-13 -.124E-03 0.264E-03
   0.398E-12 -.351E+02 -.547E+02   0.423E-13 0.362E+02 0.576E+02   -.139E-16 -.117E+01 -.287E+01   -.586E-13 0.124E-03 0.264E-03
   0.985E-12 0.351E+02 0.547E+02   -.299E-13 -.362E+02 -.576E+02   0.694E-17 0.117E+01 0.287E+01   0.423E-13 -.124E-03 -.264E-03
   -.572E-13 0.261E+01 -.167E+03   -.160E-13 -.256E+01 0.168E+03   0.000E+00 -.453E-01 -.146E+01   -.963E-15 -.568E-04 0.153E-04
   -.498E-13 -.261E+01 0.167E+03   0.805E-14 0.256E+01 -.168E+03   0.000E+00 0.453E-01 0.146E+01   -.611E-14 0.568E-04 -.153E-04
   0.370E-13 0.261E+01 0.167E+03   -.124E-13 -.256E+01 -.168E+03   0.347E-17 -.453E-01 0.146E+01   0.246E-14 -.568E-04 -.153E-04
   0.231E-13 -.261E+01 -.167E+03   0.457E-14 0.256E+01 0.168E+03   0.000E+00 0.453E-01 -.146E+01   -.874E-14 0.568E-04 0.153E-04
   0.512E-13 -.780E+01 0.153E+03   -.338E-13 0.776E+01 -.154E+03   0.173E-17 0.246E-01 0.136E+01   0.211E-13 0.570E-04 0.134E-04
   0.419E-13 0.780E+01 -.153E+03   0.242E-13 -.776E+01 0.154E+03   -.173E-17 -.246E-01 -.136E+01   -.273E-13 -.570E-04 -.134E-04
   -.270E-13 -.780E+01 -.153E+03   -.463E-13 0.776E+01 0.154E+03   0.173E-17 0.246E-01 -.136E+01   0.159E-13 0.570E-04 -.134E-04
   -.502E-13 0.780E+01 0.153E+03   0.544E-13 -.776E+01 -.154E+03   -.173E-17 -.246E-01 0.136E+01   -.237E-13 -.570E-04 0.134E-04
 -----------------------------------------------------------------------------------------------
   0.259E-11 -.433E-11 0.895E-11   -.109E-13 -.711E-14 0.114E-12   -.104E-16 0.444E-15 0.666E-15   -.513E-13 -.208E-12 0.717E-12


 POSITION                                       TOTAL-FORCE (eV/Angst)
 -----------------------------------------------------------------------------------
      1.11393      1.89677      6.21469        -0.000000     -0.010497     -0.001564
      3.34180      5.82601      6.57238         0.000000      0.010497      0.001564
      1.11393      5.75816      0.17884        -0.000000     -0.010497      0.001564
      3.34180      1.96462     12.60823         0.000000      0.010497     -0.001564
      1.11393      7.31339      8.08837         0.000000      0.003513     -0.009436
      3.34180      0.40939      4.69870        -0.000000     -0.003513      0.009436
      1.11393      3.45200     11.09223         0.000000      0.003513      0.009436
      3.34180      4.27079      1.69484        -0.000000     -0.003513     -0.009436
      3.34180      6.87034     11.25548        -0.000000     -0.007875      0.005153
      1.11393      0.85244      1.53159         0.000000      0.007875     -0.005153
      3.34180      3.00895      7.92512        -0.000000     -0.007875     -0.005153
      1.11393      4.71383      4.86195         0.000000      0.007875      0.005153
 -----------------------------------------------------------------------------------
    total drift:                                0.000000     -0.000000      0.000000


--------------------------------------------------------------------------------------------------------



  FREE ENERGIE OF THE ION-ELECTRON SYSTEM (eV)
  ---------------------------------------------------
  free  energy   TOTEN  =      -469.10830383 eV

  energy  without entropy=     -469.10830383  energy(sigma->0) =     -469.10830383



--------------------------------------------------------------------------------------------------------


    POTLOK:  cpu time    1.2026: real time    1.2027


--------------------------------------------------------------------------------------------------------


 stress matrix after NEB project (eV)
     -0.44311     -0.00000      0.00000
     -0.00000     -0.39866      0.00000
      0.00000      0.00000     -0.23227
  FORCES: max atom, RMS     0.010613    0.010043
  FORCE total and by dimension    0.034790    0.010497
  Stress total and by dimension    0.639707    0.443113
     LOOP+:  cpu time  441.7237: real time  442.3278
    4ORBIT:  cpu time    0.0000: real time    0.0000



 total charge     

# of ion       s       p       d       tot
------------------------------------------
    1        1.560   0.410   9.830  11.800
    2        1.560   0.410   9.830  11.800
    3        1.560   0.410   9.830  11.800
    4        1.560   0.410   9.830  11.800
    5        1.621   3.254   0.010   4.885
    6        1.621   3.254   0.010   4.885
    7        1.621   3.254   0.010   4.885
    8        1.621   3.254   0.010   4.885
    9        1.621   3.255   0.009   4.885
   10        1.621   3.255   0.009   4.885
   11        1.621   3.255   0.009   4.885
   12        1.621   3.255   0.009   4.885
--------------------------------------------------
tot         19.208  27.676  39.395  86.279


 total amount of memory used by VASP MPI-rank0    44474. kBytes
=======================================================================

   base      :      30000. kBytes
   nonlr-proj:       1655. kBytes
   fftplans  :       2382. kBytes
   grid      :       1891. kBytes
   one-center:         31. kBytes
   wavefun   :       8515. kBytes

  
  
 General timing and accounting informations for this job:
 ========================================================
  
                  Total CPU time used (sec):      449.325
                            User time (sec):      448.277
                          System time (sec):        1.048
                         Elapsed time (sec):      450.165
  
                   Maximum memory used (kb):       68768.
                   Average memory used (kb):           0.
  
                          Minor page faults:        16582
                          Major page faults:            0
                 Voluntary context switches:         1659
