PROCAR new format
# of k-points:   84         # of bands:   72         # of ions:   12

 k-point     1 :    0.00000000 0.00000000 0.00000000     weight = 0.00347222

band     1 # energy  -15.94907294 # occ.  2.00000000

ion      s      p      d    tot
    1  0.000  0.000  0.228  0.228
    2  0.000  0.000  0.228  0.228
    3  0.000  0.000  0.228  0.228
    4  0.000  0.000  0.228  0.228
    5  0.006  0.000  0.000  0.007
    6  0.006  0.000  0.000  0.007
    7  0.006  0.000  0.000  0.007
    8  0.006  0.000  0.000  0.007
    9  0.005  0.000  0.000  0.005
   10  0.005  0.000  0.000  0.005
   11  0.005  0.000  0.000  0.005
   12  0.005  0.000  0.000  0.005
tot    0.045  0.001  0.910  0.956

band     2 # energy  -15.94502466 # occ.  2.00000000

ion      s      p      d    tot
    1  0.000  0.000  0.229  0.229
    2  0.000  0.000  0.229  0.229
    3  0.000  0.000  0.229  0.229
    4  0.000  0.000  0.229  0.229
    5  0.006  0.000  0.000  0.006
    6  0.006  0.000  0.000  0.006
    7  0.006  0.000  0.000  0.006
    8  0.006  0.000  0.000  0.006
    9  0.004  0.000  0.000  0.005
   10  0.004  0.000  0.000  0.005
   11  0.004  0.000  0.000  0.005
   12  0.004  0.000  0.000  0.005
tot    0.042  0.001  0.914  0.958

band     3 # energy  -15.82341169 # occ.  2.00000000

ion      s      p      d    tot
    1  0.000  0.000  0.251  0.251
    2  0.000  0.000  0.251  0.251
    3  0.000  0.000  0.235  0.235
    4  0.000  0.000  0.235  0.235
    5  0.000  0.000  0.000  0.000
    6  0.000  0.000  0.000  0.000
    7  0.000  0.000  0.000  0.000
    8  0.000  0.000  0.000  0.000
    9  0.000  0.000  0.000  0.000
   10  0.000  0.000  0.000  0.000
   11  0.000  0.000  0.000  0.000
   12  0.000  0.000  0.000  0.000
tot    0.001  0.001  0.972  0.975

band     4 # energy  -15.82340503 # occ.  2.00000000

ion      s      p      d    tot
    1  0.000  0.000  0.235  0.235
    2  0.000  0.000  0.235  0.235
    3  0.000  0.000  0.251  0.251
    4  0.000  0.000  0.251  0.251
    5  0.000  0.000  0.000  0.000
    6  0.000  0.000  0.000  0.000
    7  0.000  0.000  0.000  0.000
    8  0.000  0.000  0.000  0.000
    9  0.000  0.000  0.000  0.000
   10  0.000  0.000  0.000  0.000
   11  0.000  0.000  0.000  0.000
   12  0.000  0.000  0.000  0.000
tot    0.001  0.001  0.972  0.975

band     5 # energy  -15.82094088 # occ.  2.00000000

ion      s      p      d    tot
    1  0.000  0.000  0.243  0.243
    2  0.000  0.000  0.243  0.243
    3  0.000  0.000  0.244  0.244
    4  0.000  0.000  0.244  0.244
    5  0.000  0.000  0.000  0.000
    6  0.000  0.000  0.000  0.000
    7  0.000  0.000  0.000  0.000
    8  0.000  0.000  0.000  0.000
    9  0.000  0.000  0.000  0.000
   10  0.000  0.000  0.000  0.000
   11  0.000  0.000  0.000  0.000
   12  0.000  0.000  0.000  0.000
tot    0.000  0.001  0.974  0.975

band     6 # energy  -15.82077166 # occ.  2.00000000

ion      s      p      d    tot
    1  0.000  0.000  0.244  0.244
    2  0.000  0.000  0.244  0.244
    3  0.000  0.000  0.243  0.243
    4  0.000  0.000  0.243  0.243
    5  0.000  0.000  0.000  0.000
    6  0.000  0.000  0.000  0.000
    7  0.000  0.000  0.000  0.000
    8  0.000  0.000  0.000  0.000
    9  0.000  0.000  0.000  0.000
   10  0.000  0.000  0.000  0.000
   11  0.000  0.000  0.000  0.000
   12  0.000  0.000  0.000  0.000
tot    0.000  0.001  0.974  0.975

band     7 # energy  -15.81446776 # occ.  2.00000000

ion      s      p      d    tot
    1  0.000  0.000  0.243  0.243
    2  0.000  0.000  0.243  0.243
    3  0.000  0.000  0.244  0.244
    4  0.000  0.000  0.244  0.244
    5  0.000  0.000  0.000  0.000
    6  0.000  0.000  0.000  0.000
    7  0.000  0.000  0.000  0.000
    8  0.000  0.000  0.000  0.000
    9  0.000  0.000  0.000  0.000
   10  0.000  0.000  0.000  0.000
   11  0.000  0.000  0.000  0.000
   12  0.000  0.000  0.000  0.000
tot    0.000  0.001  0.975  0.976

band     8 # energy  -15.81445472 # occ.  2.00000000

ion      s      p      d    tot
    1  0.000  0.000  0.244  0.244
    2  0.000  0.000  0.244  0.244
    3  0.000  0.000  0.243  0.243
    4  0.000  0.000  0.243  0.243
    5  0.000  0.000  0.000  0.000
    6  0.000  0.000  0.000  0.000
    7  0.000  0.000  0.000  0.000
    8  0.000  0.000  0.000  0.000
    9  0.000  0.000  0.000  0.000
   10  0.000  0.000  0.000  0.000
   11  0.000  0.000  0.000  0.000
   12  0.000  0.000  0.000  0.000
tot    0.000  0.001  0.975  0.976

band     9 # energy  -15.79182824 # occ.  2.00000000

ion      s      p      d    tot
    1  0.000  0.000  0.251  0.251
    2  0.000  0.000  0.251  0.251
    3  0.000  0.000  0.236  0.236
    4  0.000  0.000  0.236  0.236
    5  0.000  0.000  0.000  0.000
    6  0.000  0.000  0.000  0.000
    7  0.000  0.000  0.000  0.000
    8  0.000  0.000  0.000  0.000
    9  0.000  0.000  0.000  0.000
   10  0.000  0.000  0.000  0.000
   11  0.000  0.000  0.000  0.000
   12  0.000  0.000  0.000  0.000
tot    0.001  0.000  0.974  0.976

band    10 # energy  -15.79182504 # occ.  2.00000000

ion      s      p      d    tot
    1  0.000  0.000  0.236  0.236
    2  0.000  0.000  0.236  0.236
    3  0.000  0.000  0.251  0.251
    4  0.000  0.000  0.251  0.251
    5  0.000  0.000  0.000  0.000
    6  0.000  0.000  0.000  0.000
    7  0.000  0.000  0.000  0.000
    8  0.000  0.000  0.000  0.000
    9  0.000  0.000  0.000  0.000
   10  0.000  0.000  0.000  0.000
   11  0.000  0.000  0.000  0.000
   12  0.000  0.000  0.000  0.000
tot    0.001  0.000  0.974  0.976

band    11 # energy  -15.78593049 # occ.  2.00000000

ion      s      p      d    tot
    1  0.000  0.000  0.244  0.244
    2  0.000  0.000  0.244  0.244
    3  0.000  0.000  0.244  0.244
    4  0.000  0.000  0.244  0.244
    5  0.000  0.000  0.000  0.000
    6  0.000  0.000  0.000  0.000
    7  0.000  0.000  0.000  0.000
    8  0.000  0.000  0.000  0.000
    9  0.000  0.000  0.000  0.000
   10  0.000  0.000  0.000  0.000
   11  0.000  0.000  0.000  0.000
   12  0.000  0.000  0.000  0.000
tot    0.000  0.000  0.976  0.976

band    12 # energy  -15.78574956 # occ.  2.00000000

ion      s      p      d    tot
    1  0.000  0.000  0.244  0.244
    2  0.000  0.000  0.244  0.244
    3  0.000  0.000  0.244  0.244
    4  0.000  0.000  0.244  0.244
    5  0.000  0.000  0.000  0.000
    6  0.000  0.000  0.000  0.000
    7  0.000  0.000  0.000  0.000
    8  0.000  0.000  0.000  0.000
    9  0.000  0.000  0.000  0.000
   10  0.000  0.000  0.000  0.000
   11  0.000  0.000  0.000  0.000
   12  0.000  0.000  0.000  0.000
tot    0.000  0.000  0.976  0.976

band    13 # energy  -15.77344565 # occ.  2.00000000

ion      s      p      d    tot
    1  0.000  0.000  0.242  0.242
    2  0.000  0.000  0.242  0.242
    3  0.000  0.000  0.247  0.247
    4  0.000  0.000  0.247  0.247
    5  0.000  0.000  0.000  0.000
    6  0.000  0.000  0.000  0.000
    7  0.000  0.000  0.000  0.000
    8  0.000  0.000  0.000  0.000
    9  0.000  0.000  0.000  0.000
   10  0.000  0.000  0.000  0.000
   11  0.000  0.000  0.000  0.000
   12  0.000  0.000  0.000  0.000
tot    0.000  0.000  0.977  0.978

band    14 # energy  -15.77341355 # occ.  2.00000000

ion      s      p      d    tot
    1  0.000  0.000  0.247  0.247
    2  0.000  0.000  0.247  0.247
    3  0.000  0.000  0.242  0.242
    4  0.000  0.000  0.242  0.242
    5  0.000  0.000  0.000  0.000
    6  0.000  0.000  0.000  0.000
    7  0.000  0.000  0.000  0.000
    8  0.000  0.000  0.000  0.000
    9  0.000  0.000  0.000  0.000
   10  0.000  0.000  0.000  0.000
   11  0.000  0.000  0.000  0.000
   12  0.000  0.000  0.000  0.000
tot    0.000  0.000  0.977  0.978

band    15 # energy  -15.77010434 # occ.  2.00000000

ion      s      p      d    tot
    1  0.000  0.000  0.244  0.244
    2  0.000  0.000  0.244  0.244
    3  0.000  0.000  0.244  0.244
    4  0.000  0.000  0.244  0.244
    5  0.000  0.000  0.000  0.000
    6  0.000  0.000  0.000  0.000
    7  0.000  0.000  0.000  0.000
    8  0.000  0.000  0.000  0.000
    9  0.000  0.000  0.000  0.000
   10  0.000  0.000  0.000  0.000
   11  0.000  0.000  0.000  0.000
   12  0.000  0.000  0.000  0.000
tot    0.000  0.000  0.978  0.978

band    16 # energy  -15.76991562 # occ.  2.00000000

ion      s      p      d    tot
    1  0.000  0.000  0.244  0.244
    2  0.000  0.000  0.244  0.244
    3  0.000  0.000  0.244  0.244
    4  0.000  0.000  0.244  0.244
    5  0.000  0.000  0.000  0.000
    6  0.000  0.000  0.000  0.000
    7  0.000  0.000  0.000  0.000
    8  0.000  0.000  0.000  0.000
    9  0.000  0.000  0.000  0.000
   10  0.000  0.000  0.000  0.000
   11  0.000  0.000  0.000  0.000
   12  0.000  0.000  0.000  0.000
tot    0.002  0.000  0.976  0.978

band    17 # energy  -15.76989372 # occ.  2.00000000

ion      s      p      d    tot
    1  0.000  0.000  0.244  0.244
    2  0.000  0.000  0.244  0.244
    3  0.000  0.000  0.244  0.244
    4  0.000  0.000  0.244  0.244
    5  0.000  0.000  0.000  0.000
    6  0.000  0.000  0.000  0.000
    7  0.000  0.000  0.000  0.000
    8  0.000  0.000  0.000  0.000
    9  0.000  0.000  0.000  0.000
   10  0.000  0.000  0.000  0.000
   11  0.000  0.000  0.000  0.000
   12  0.000  0.000  0.000  0.000
tot    0.000  0.000  0.977  0.978

band    18 # energy  -15.76947496 # occ.  2.00000000

ion      s      p      d    tot
    1  0.000  0.000  0.244  0.244
    2  0.000  0.000  0.244  0.244
    3  0.000  0.000  0.244  0.244
    4  0.000  0.000  0.244  0.244
    5  0.000  0.000  0.000  0.000
    6  0.000  0.000  0.000  0.000
    7  0.000  0.000  0.000  0.000
    8  0.000  0.000  0.000  0.000
    9  0.000  0.000  0.000  0.000
   10  0.000  0.000  0.000  0.000
   11  0.000  0.000  0.000  0.000
   12  0.000  0.000  0.000  0.000
tot    0.002  0.000  0.976  0.978

band    19 # energy  -15.75227962 # occ.  2.00000000

ion      s      p      d    tot
    1  0.000  0.000  0.245  0.245
    2  0.000  0.000  0.245  0.245
    3  0.000  0.000  0.245  0.245
    4  0.000  0.000  0.245  0.245
    5  0.000  0.000  0.000  0.000
    6  0.000  0.000  0.000  0.000
    7  0.000  0.000  0.000  0.000
    8  0.000  0.000  0.000  0.000
    9  0.000  0.000  0.000  0.000
   10  0.000  0.000  0.000  0.000
   11  0.000  0.000  0.000  0.000
   12  0.000  0.000  0.000  0.000
tot    0.000  0.000  0.979  0.979

band    20 # energy  -15.75221869 # occ.  2.00000000

ion      s      p      d    tot
    1  0.000  0.000  0.245  0.245
    2  0.000  0.000  0.245  0.245
    3  0.000  0.000  0.245  0.245
    4  0.000  0.000  0.245  0.245
    5  0.000  0.000  0.000  0.000
    6  0.000  0.000  0.000  0.000
    7  0.000  0.000  0.000  0.000
    8  0.000  0.000  0.000  0.000
    9  0.000  0.000  0.000  0.000
   10  0.000  0.000  0.000  0.000
   11  0.000  0.000  0.000  0.000
   12  0.000  0.000  0.000  0.000
tot    0.000  0.000  0.979  0.979

band    21 # energy  -14.08679158 # occ.  2.00000000

ion      s      p      d    tot
    1  0.009  0.000  0.000  0.009
    2  0.009  0.000  0.000  0.009
    3  0.009  0.000  0.000  0.009
    4  0.009  0.000  0.000  0.009
    5  0.098  0.000  0.000  0.098
    6  0.098  0.000  0.000  0.098
    7  0.098  0.000  0.000  0.098
    8  0.098  0.000  0.000  0.098
    9  0.082  0.000  0.000  0.083
   10  0.082  0.000  0.000  0.083
   11  0.082  0.000  0.000  0.083
   12  0.082  0.000  0.000  0.083
tot    0.757  0.002  0.002  0.761

band    22 # energy  -13.96423768 # occ.  2.00000000

ion      s      p      d    tot
    1  0.009  0.000  0.001  0.010
    2  0.009  0.000  0.001  0.010
    3  0.009  0.000  0.001  0.010
    4  0.009  0.000  0.001  0.010
    5  0.104  0.000  0.000  0.104
    6  0.104  0.000  0.000  0.104
    7  0.104  0.000  0.000  0.104
    8  0.104  0.000  0.000  0.104
    9  0.078  0.000  0.000  0.078
   10  0.078  0.000  0.000  0.078
   11  0.078  0.000  0.000  0.078
   12  0.078  0.000  0.000  0.078
tot    0.766  0.002  0.002  0.771

band    23 # energy  -13.69661383 # occ.  2.00000000

ion      s      p      d    tot
    1  0.000  0.001  0.001  0.002
    2  0.000  0.001  0.001  0.002
    3  0.000  0.001  0.001  0.002
    4  0.000  0.001  0.001  0.002
    5  0.095  0.000  0.000  0.095
    6  0.095  0.000  0.000  0.095
    7  0.095  0.000  0.000  0.095
    8  0.095  0.000  0.000  0.095
    9  0.101  0.000  0.000  0.101
   10  0.101  0.000  0.000  0.101
   11  0.101  0.000  0.000  0.101
   12  0.101  0.000  0.000  0.101
tot    0.786  0.004  0.003  0.793

band    24 # energy  -13.68074430 # occ.  2.00000000

ion      s      p      d    tot
    1  0.000  0.001  0.000  0.002
    2  0.000  0.001  0.000  0.002
    3  0.000  0.001  0.000  0.002
    4  0.000  0.001  0.000  0.002
    5  0.085  0.000  0.000  0.085
    6  0.085  0.000  0.000  0.085
    7  0.085  0.000  0.000  0.085
    8  0.085  0.000  0.000  0.085
    9  0.112  0.000  0.000  0.112
   10  0.112  0.000  0.000  0.112
   11  0.112  0.000  0.000  0.112
   12  0.112  0.000  0.000  0.112
tot    0.787  0.006  0.002  0.795

band    25 # energy  -13.56324960 # occ.  2.00000000

ion      s      p      d    tot
    1  0.000  0.001  0.000  0.002
    2  0.000  0.001  0.000  0.002
    3  0.000  0.001  0.000  0.002
    4  0.000  0.001  0.000  0.002
    5  0.092  0.000  0.000  0.092
    6  0.092  0.000  0.000  0.092
    7  0.092  0.000  0.000  0.092
    8  0.092  0.000  0.000  0.092
    9  0.108  0.000  0.000  0.108
   10  0.108  0.000  0.000  0.108
   11  0.108  0.000  0.000  0.108
   12  0.108  0.000  0.000  0.108
tot    0.796  0.007  0.002  0.805

band    26 # energy  -13.55431792 # occ.  2.00000000

ion      s      p      d    tot
    1  0.000  0.001  0.001  0.002
    2  0.000  0.001  0.001  0.002
    3  0.000  0.001  0.001  0.002
    4  0.000  0.001  0.001  0.002
    5  0.085  0.000  0.000  0.085
    6  0.085  0.000  0.000  0.085
    7  0.085  0.000  0.000  0.085
    8  0.085  0.000  0.000  0.085
    9  0.114  0.000  0.000  0.114
   10  0.114  0.000  0.000  0.114
   11  0.114  0.000  0.000  0.114
   12  0.114  0.000  0.000  0.114
tot    0.799  0.005  0.003  0.806

band    27 # energy  -13.43285008 # occ.  2.00000000

ion      s      p      d    tot
    1  0.001  0.000  0.017  0.018
    2  0.001  0.000  0.017  0.018
    3  0.001  0.000  0.017  0.018
    4  0.001  0.000  0.017  0.018
    5  0.109  0.000  0.000  0.109
    6  0.109  0.000  0.000  0.109
    7  0.109  0.000  0.000  0.109
    8  0.109  0.000  0.000  0.109
    9  0.080  0.000  0.000  0.080
   10  0.080  0.000  0.000  0.080
   11  0.080  0.000  0.000  0.080
   12  0.080  0.000  0.000  0.080
tot    0.757  0.000  0.068  0.825

band    28 # energy  -13.31456515 # occ.  2.00000000

ion      s      p      d    tot
    1  0.001  0.000  0.016  0.017
    2  0.001  0.000  0.016  0.017
    3  0.001  0.000  0.016  0.017
    4  0.001  0.000  0.016  0.017
    5  0.098  0.000  0.000  0.098
    6  0.098  0.000  0.000  0.098
    7  0.098  0.000  0.000  0.098
    8  0.098  0.000  0.000  0.098
    9  0.093  0.000  0.000  0.093
   10  0.093  0.000  0.000  0.093
   11  0.093  0.000  0.000  0.093
   12  0.093  0.000  0.000  0.093
tot    0.770  0.001  0.064  0.834

band    29 # energy   -7.00344946 # occ.  2.00000000

ion      s      p      d    tot
    1  0.156  0.000  0.000  0.156
    2  0.156  0.000  0.000  0.156
    3  0.156  0.000  0.000  0.156
    4  0.156  0.000  0.000  0.156
    5  0.001  0.008  0.000  0.010
    6  0.001  0.008  0.000  0.010
    7  0.001  0.008  0.000  0.010
    8  0.001  0.008  0.000  0.010
    9  0.002  0.008  0.000  0.010
   10  0.002  0.008  0.000  0.010
   11  0.002  0.008  0.000  0.010
   12  0.002  0.008  0.000  0.010
tot    0.635  0.064  0.003  0.703

band    30 # energy   -6.99124144 # occ.  2.00000000

ion      s      p      d    tot
    1  0.157  0.000  0.000  0.157
    2  0.157  0.000  0.000  0.157
    3  0.157  0.000  0.000  0.157
    4  0.157  0.000  0.000  0.157
    5  0.001  0.008  0.000  0.009
    6  0.001  0.008  0.000  0.009
    7  0.001  0.008  0.000  0.009
    8  0.001  0.008  0.000  0.009
    9  0.002  0.007  0.000  0.010
   10  0.002  0.007  0.000  0.010
   11  0.002  0.007  0.000  0.010
   12  0.002  0.007  0.000  0.010
tot    0.640  0.062  0.004  0.706

band    31 # energy   -6.49104491 # occ.  2.00000000

ion      s      p      d    tot
    1  0.148  0.000  0.000  0.148
    2  0.148  0.000  0.000  0.148
    3  0.148  0.000  0.000  0.148
    4  0.148  0.000  0.000  0.148
    5  0.011  0.008  0.000  0.019
    6  0.011  0.008  0.000  0.019
    7  0.011  0.008  0.000  0.019
    8  0.011  0.008  0.000  0.019
    9  0.010  0.007  0.000  0.017
   10  0.010  0.007  0.000  0.017
   11  0.010  0.007  0.000  0.017
   12  0.010  0.007  0.000  0.017
tot    0.678  0.060  0.001  0.738

band    32 # energy   -6.42024469 # occ.  2.00000000

ion      s      p      d    tot
    1  0.151  0.000  0.000  0.151
    2  0.151  0.000  0.000  0.151
    3  0.151  0.000  0.000  0.151
    4  0.151  0.000  0.000  0.151
    5  0.013  0.007  0.000  0.019
    6  0.013  0.007  0.000  0.019
    7  0.013  0.007  0.000  0.019
    8  0.013  0.007  0.000  0.019
    9  0.012  0.006  0.000  0.018
   10  0.012  0.006  0.000  0.018
   11  0.012  0.006  0.000  0.018
   12  0.012  0.006  0.000  0.018
tot    0.703  0.050  0.000  0.753

band    33 # energy   -2.87710039 # occ.  2.00000000

ion      s      p      d    tot
    1  0.000  0.020  0.000  0.020
    2  0.000  0.020  0.000  0.020
    3  0.000  0.020  0.000  0.020
    4  0.000  0.020  0.000  0.020
    5  0.001  0.053  0.000  0.055
    6  0.001  0.053  0.000  0.055
    7  0.001  0.053  0.000  0.055
    8  0.001  0.053  0.000  0.055
    9  0.000  0.047  0.000  0.047
   10  0.000  0.047  0.000  0.047
   11  0.000  0.047  0.000  0.047
   12  0.000  0.047  0.000  0.047
tot    0.005  0.481  0.001  0.488

band    34 # energy   -2.60787548 # occ.  2.00000000

ion      s      p      d    tot
    1  0.001  0.022  0.000  0.022
    2  0.001  0.022  0.000  0.022
    3  0.001  0.022  0.000  0.022
    4  0.001  0.022  0.000  0.022
    5  0.001  0.053  0.000  0.055
    6  0.001  0.053  0.000  0.055
    7  0.001  0.053  0.000  0.055
    8  0.001  0.053  0.000  0.055
    9  0.001  0.049  0.000  0.050
   10  0.001  0.049  0.000  0.050
   11  0.001  0.049  0.000  0.050
   12  0.001  0.049  0.000  0.050
tot    0.010  0.495  0.002  0.507

band    35 # energy   -1.98834480 # occ.  2.00000000

ion      s      p      d    tot
    1  0.000  0.018  0.000  0.018
    2  0.000  0.018  0.000  0.018
    3  0.000  0.018  0.000  0.018
    4  0.000  0.018  0.000  0.018
    5  0.000  0.058  0.000  0.058
    6  0.000  0.058  0.000  0.058
    7  0.000  0.058  0.000  0.058
    8  0.000  0.058  0.000  0.058
    9  0.000  0.064  0.000  0.064
   10  0.000  0.064  0.000  0.064
   11  0.000  0.064  0.000  0.064
   12  0.000  0.064  0.000  0.064
tot    0.000  0.556  0.002  0.558

band    36 # energy   -1.78768077 # occ.  2.00000000

ion      s      p      d    tot
    1  0.000  0.019  0.000  0.020
    2  0.000  0.019  0.000  0.020
    3  0.000  0.019  0.000  0.020
    4  0.000  0.019  0.000  0.020
    5  0.000  0.056  0.000  0.057
    6  0.000  0.056  0.000  0.057
    7  0.000  0.056  0.000  0.057
    8  0.000  0.056  0.000  0.057
    9  0.000  0.066  0.000  0.066
   10  0.000  0.066  0.000  0.066
   11  0.000  0.066  0.000  0.066
   12  0.000  0.066  0.000  0.066
tot    0.000  0.565  0.003  0.569

band    37 # energy   -1.77491675 # occ.  2.00000000

ion      s      p      d    tot
    1  0.000  0.013  0.000  0.013
    2  0.000  0.013  0.000  0.013
    3  0.000  0.013  0.000  0.013
    4  0.000  0.013  0.000  0.013
    5  0.000  0.068  0.000  0.068
    6  0.000  0.068  0.000  0.068
    7  0.000  0.068  0.000  0.068
    8  0.000  0.068  0.000  0.068
    9  0.001  0.058  0.000  0.058
   10  0.001  0.058  0.000  0.058
   11  0.001  0.058  0.000  0.058
   12  0.001  0.058  0.000  0.058
tot    0.004  0.551  0.001  0.555

band    38 # energy   -1.39180141 # occ.  2.00000000

ion      s      p      d    tot
    1  0.000  0.016  0.000  0.017
    2  0.000  0.016  0.000  0.017
    3  0.000  0.016  0.000  0.017
    4  0.000  0.016  0.000  0.017
    5  0.002  0.070  0.000  0.072
    6  0.002  0.070  0.000  0.072
    7  0.002  0.070  0.000  0.072
    8  0.002  0.070  0.000  0.072
    9  0.001  0.055  0.000  0.056
   10  0.001  0.055  0.000  0.056
   11  0.001  0.055  0.000  0.056
   12  0.001  0.055  0.000  0.056
tot    0.014  0.565  0.001  0.581

band    39 # energy   -1.32694868 # occ.  2.00000000

ion      s      p      d    tot
    1  0.000  0.005  0.002  0.007
    2  0.000  0.005  0.002  0.007
    3  0.000  0.005  0.002  0.007
    4  0.000  0.005  0.002  0.007
    5  0.000  0.080  0.000  0.080
    6  0.000  0.080  0.000  0.080
    7  0.000  0.080  0.000  0.080
    8  0.000  0.080  0.000  0.080
    9  0.000  0.060  0.000  0.060
   10  0.000  0.060  0.000  0.060
   11  0.000  0.060  0.000  0.060
   12  0.000  0.060  0.000  0.060
tot    0.001  0.580  0.008  0.589

band    40 # energy   -1.31426178 # occ.  2.00000000

ion      s      p      d    tot
    1  0.000  0.002  0.000  0.003
    2  0.000  0.002  0.000  0.003
    3  0.000  0.002  0.000  0.003
    4  0.000  0.002  0.000  0.003
    5  0.000  0.079  0.000  0.079
    6  0.000  0.079  0.000  0.079
    7  0.000  0.079  0.000  0.079
    8  0.000  0.079  0.000  0.079
    9  0.000  0.061  0.000  0.061
   10  0.000  0.061  0.000  0.061
   11  0.000  0.061  0.000  0.061
   12  0.000  0.061  0.000  0.061
tot    0.001  0.571  0.000  0.572

band    41 # energy   -1.16866237 # occ.  2.00000000

ion      s      p      d    tot
    1  0.000  0.011  0.000  0.011
    2  0.000  0.011  0.000  0.011
    3  0.000  0.011  0.000  0.011
    4  0.000  0.011  0.000  0.011
    5  0.000  0.051  0.000  0.051
    6  0.000  0.051  0.000  0.051
    7  0.000  0.051  0.000  0.051
    8  0.000  0.051  0.000  0.051
    9  0.000  0.092  0.000  0.092
   10  0.000  0.092  0.000  0.092
   11  0.000  0.092  0.000  0.092
   12  0.000  0.092  0.000  0.092
tot    0.000  0.614  0.002  0.616

band    42 # energy   -1.06452228 # occ.  2.00000000

ion      s      p      d    tot
    1  0.000  0.012  0.000  0.012
    2  0.000  0.012  0.000  0.012
    3  0.000  0.012  0.000  0.012
    4  0.000  0.012  0.000  0.012
    5  0.000  0.073  0.000  0.073
    6  0.000  0.073  0.000  0.073
    7  0.000  0.073  0.000  0.073
    8  0.000  0.073  0.000  0.073
    9  0.000  0.070  0.000  0.070
   10  0.000  0.070  0.000  0.070
   11  0.000  0.070  0.000  0.070
   12  0.000  0.070  0.000  0.070
tot    0.000  0.618  0.002  0.620

band    43 # energy   -1.03869392 # occ.  2.00000000

ion      s      p      d    tot
    1  0.000  0.004  0.003  0.006
    2  0.000  0.004  0.003  0.006
    3  0.000  0.004  0.003  0.006
    4  0.000  0.004  0.003  0.006
    5  0.000  0.014  0.000  0.014
    6  0.000  0.014  0.000  0.014
    7  0.000  0.014  0.000  0.014
    8  0.000  0.014  0.000  0.014
    9  0.000  0.134  0.000  0.134
   10  0.000  0.134  0.000  0.134
   11  0.000  0.134  0.000  0.134
   12  0.000  0.134  0.000  0.134
tot    0.000  0.607  0.011  0.619

band    44 # energy   -0.95038085 # occ.  2.00000000

ion      s      p      d    tot
    1  0.000  0.000  0.004  0.004
    2  0.000  0.000  0.004  0.004
    3  0.000  0.000  0.004  0.004
    4  0.000  0.000  0.004  0.004
    5  0.000  0.081  0.000  0.081
    6  0.000  0.081  0.000  0.081
    7  0.000  0.081  0.000  0.081
    8  0.000  0.081  0.000  0.081
    9  0.000  0.071  0.000  0.071
   10  0.000  0.071  0.000  0.071
   11  0.000  0.071  0.000  0.071
   12  0.000  0.071  0.000  0.071
tot    0.000  0.607  0.015  0.622

band    45 # energy   -0.89620124 # occ.  2.00000000

ion      s      p      d    tot
    1  0.000  0.009  0.001  0.009
    2  0.000  0.009  0.001  0.009
    3  0.000  0.009  0.001  0.009
    4  0.000  0.009  0.001  0.009
    5  0.000  0.135  0.000  0.135
    6  0.000  0.135  0.000  0.135
    7  0.000  0.135  0.000  0.135
    8  0.000  0.135  0.000  0.135
    9  0.000  0.013  0.000  0.013
   10  0.000  0.013  0.000  0.013
   11  0.000  0.013  0.000  0.013
   12  0.000  0.013  0.000  0.013
tot    0.000  0.624  0.004  0.628

band    46 # energy   -0.84964449 # occ.  2.00000000

ion      s      p      d    tot
    1  0.000  0.007  0.001  0.008
    2  0.000  0.007  0.001  0.008
    3  0.000  0.007  0.001  0.008
    4  0.000  0.007  0.001  0.008
    5  0.000  0.044  0.000  0.044
    6  0.000  0.044  0.000  0.044
    7  0.000  0.044  0.000  0.044
    8  0.000  0.044  0.000  0.044
    9  0.000  0.103  0.000  0.103
   10  0.000  0.103  0.000  0.103
   11  0.000  0.103  0.000  0.103
   12  0.000  0.103  0.000  0.103
tot    0.000  0.617  0.005  0.622

band    47 # energy   -0.83561780 # occ.  2.00000000

ion      s      p      d    tot
    1  0.000  0.001  0.004  0.004
    2  0.000  0.001  0.004  0.004
    3  0.000  0.001  0.004  0.004
    4  0.000  0.001  0.004  0.004
    5  0.000  0.070  0.000  0.070
    6  0.000  0.070  0.000  0.070
    7  0.000  0.070  0.000  0.070
    8  0.000  0.070  0.000  0.070
    9  0.000  0.082  0.000  0.082
   10  0.000  0.082  0.000  0.082
   11  0.000  0.082  0.000  0.082
   12  0.000  0.082  0.000  0.082
tot    0.002  0.609  0.016  0.626

band    48 # energy   -0.83093122 # occ.  2.00000000

ion      s      p      d    tot
    1  0.028  0.000  0.002  0.030
    2  0.028  0.000  0.002  0.030
    3  0.028  0.000  0.002  0.030
    4  0.028  0.000  0.002  0.030
    5  0.001  0.062  0.000  0.063
    6  0.001  0.062  0.000  0.063
    7  0.001  0.062  0.000  0.063
    8  0.001  0.062  0.000  0.063
    9  0.001  0.058  0.000  0.059
   10  0.001  0.058  0.000  0.059
   11  0.001  0.058  0.000  0.059
   12  0.001  0.058  0.000  0.059
tot    0.125  0.479  0.007  0.611

band    49 # energy   -0.79740195 # occ.  2.00000000

ion      s      p      d    tot
    1  0.002  0.001  0.004  0.006
    2  0.002  0.001  0.004  0.006
    3  0.002  0.001  0.004  0.006
    4  0.002  0.001  0.004  0.006
    5  0.000  0.061  0.000  0.061
    6  0.000  0.061  0.000  0.061
    7  0.000  0.061  0.000  0.061
    8  0.000  0.061  0.000  0.061
    9  0.000  0.090  0.000  0.091
   10  0.000  0.090  0.000  0.091
   11  0.000  0.090  0.000  0.091
   12  0.000  0.090  0.000  0.091
tot    0.008  0.608  0.015  0.631

band    50 # energy   -0.69485912 # occ.  2.00000000

ion      s      p      d    tot
    1  0.000  0.000  0.003  0.003
    2  0.000  0.000  0.003  0.003
    3  0.000  0.000  0.003  0.003
    4  0.000  0.000  0.003  0.003
    5  0.000  0.101  0.000  0.101
    6  0.000  0.101  0.000  0.101
    7  0.000  0.101  0.000  0.101
    8  0.000  0.101  0.000  0.101
    9  0.000  0.055  0.000  0.056
   10  0.000  0.055  0.000  0.056
   11  0.000  0.055  0.000  0.056
   12  0.000  0.055  0.000  0.056
tot    0.000  0.626  0.014  0.640

band    51 # energy   -0.69451750 # occ.  2.00000000

ion      s      p      d    tot
    1  0.000  0.000  0.004  0.004
    2  0.000  0.000  0.004  0.004
    3  0.000  0.000  0.004  0.004
    4  0.000  0.000  0.004  0.004
    5  0.000  0.081  0.000  0.081
    6  0.000  0.081  0.000  0.081
    7  0.000  0.081  0.000  0.081
    8  0.000  0.081  0.000  0.081
    9  0.000  0.075  0.000  0.075
   10  0.000  0.075  0.000  0.075
   11  0.000  0.075  0.000  0.075
   12  0.000  0.075  0.000  0.075
tot    0.000  0.623  0.017  0.640

band    52 # energy   -0.67982050 # occ.  2.00000000

ion      s      p      d    tot
    1  0.018  0.002  0.000  0.020
    2  0.018  0.002  0.000  0.020
    3  0.018  0.002  0.000  0.020
    4  0.018  0.002  0.000  0.020
    5  0.000  0.095  0.000  0.095
    6  0.000  0.095  0.000  0.095
    7  0.000  0.095  0.000  0.095
    8  0.000  0.095  0.000  0.095
    9  0.000  0.040  0.000  0.041
   10  0.000  0.040  0.000  0.041
   11  0.000  0.040  0.000  0.041
   12  0.000  0.040  0.000  0.041
tot    0.073  0.546  0.003  0.621

band    53 # energy   -0.45682806 # occ.  2.00000000

ion      s      p      d    tot
    1  0.003  0.000  0.002  0.006
    2  0.003  0.000  0.002  0.006
    3  0.003  0.000  0.002  0.006
    4  0.003  0.000  0.002  0.006
    5  0.001  0.065  0.000  0.066
    6  0.001  0.065  0.000  0.066
    7  0.001  0.065  0.000  0.066
    8  0.001  0.065  0.000  0.066
    9  0.000  0.091  0.000  0.091
   10  0.000  0.091  0.000  0.091
   11  0.000  0.091  0.000  0.091
   12  0.000  0.091  0.000  0.091
tot    0.015  0.625  0.010  0.649

band    54 # energy   -0.23744213 # occ.  2.00000000

ion      s      p      d    tot
    1  0.020  0.006  0.001  0.026
    2  0.020  0.006  0.001  0.026
    3  0.020  0.006  0.001  0.026
    4  0.020  0.006  0.001  0.026
    5  0.001  0.062  0.000  0.063
    6  0.001  0.062  0.000  0.063
    7  0.001  0.062  0.000  0.063
    8  0.001  0.062  0.000  0.063
    9  0.000  0.078  0.000  0.078
   10  0.000  0.078  0.000  0.078
   11  0.000  0.078  0.000  0.078
   12  0.000  0.078  0.000  0.078
tot    0.085  0.581  0.003  0.669

band    55 # energy   -0.10173897 # occ.  2.00000000

ion      s      p      d    tot
    1  0.034  0.001  0.001  0.036
    2  0.034  0.001  0.001  0.036
    3  0.034  0.001  0.001  0.036
    4  0.034  0.001  0.001  0.036
    5  0.000  0.068  0.000  0.069
    6  0.000  0.068  0.000  0.069
    7  0.000  0.068  0.000  0.069
    8  0.000  0.068  0.000  0.069
    9  0.000  0.064  0.000  0.064
   10  0.000  0.064  0.000  0.064
   11  0.000  0.064  0.000  0.064
   12  0.000  0.064  0.000  0.064
tot    0.137  0.531  0.007  0.675

band    56 # energy    0.08599934 # occ.  2.00000000

ion      s      p      d    tot
    1  0.032  0.001  0.001  0.034
    2  0.032  0.001  0.001  0.034
    3  0.032  0.001  0.001  0.034
    4  0.032  0.001  0.001  0.034
    5  0.000  0.063  0.000  0.064
    6  0.000  0.063  0.000  0.064
    7  0.000  0.063  0.000  0.064
    8  0.000  0.063  0.000  0.064
    9  0.000  0.075  0.000  0.075
   10  0.000  0.075  0.000  0.075
   11  0.000  0.075  0.000  0.075
   12  0.000  0.075  0.000  0.075
tot    0.127  0.559  0.007  0.693

band    57 # energy    3.11856108 # occ.  0.00000000

ion      s      p      d    tot
    1  0.001  0.081  0.000  0.082
    2  0.001  0.081  0.000  0.082
    3  0.001  0.081  0.000  0.082