CsPbBr3 cubic bulk                      
           1
     4.455733    0.000000    0.000000
     0.000000    7.722781    0.000000
     0.000000    0.000000   12.787069
   Pb   Br
   4   8
Direct configuration=     1
   0.25000000  0.24560717  0.48601373
   0.75000000  0.75439283  0.51398627
   0.25000000  0.74560717  0.01398627
   0.75000000  0.25439283  0.98601373
   0.25000000  0.94698871  0.63254296
   0.75000000  0.05301129  0.36745704
   0.25000000  0.44698871  0.86745704
   0.75000000  0.55301129  0.13254296
   0.75000000  0.88962007  0.88022388
   0.25000000  0.11037993  0.11977612
   0.75000000  0.38962007  0.61977612
   0.25000000  0.61037993  0.38022388
