  39  39   1   0
  0.4103261E+02  0.1166835E-08  0.1176381E-08  0.1166835E-08  0.5000000E-15
   1.0000000000000000E-004
  CAR 
 CsPbBr3 cubic bulk                      
      7.98034856    -22.48775772  301      0.31254182      1.00000000
    -22.488  0.0000E+00  0.0000E+00
    -22.386  0.0000E+00  0.0000E+00
    -22.285  0.0000E+00  0.0000E+00
    -22.183  0.0000E+00  0.0000E+00
    -22.082  0.0000E+00  0.0000E+00
    -21.980  0.0000E+00  0.0000E+00
    -21.878  0.0000E+00  0.0000E+00
    -21.777  0.0000E+00  0.0000E+00
    -21.675  0.0000E+00  0.0000E+00
    -21.574  0.0000E+00  0.0000E+00
    -21.472  0.0000E+00  0.0000E+00
    -21.371  0.0000E+00  0.0000E+00
    -21.269  0.0000E+00  0.0000E+00
    -21.167  0.0000E+00  0.0000E+00
    -21.066  0.1969E+02  0.2000E+01
    -20.964  0.7710E+02  0.9830E+01
    -20.863  0.3938E+02  0.1400E+02
    -20.761  0.0000E+00  0.1400E+02
    -20.660  0.0000E+00  0.1400E+02
    -20.558  0.0000E+00  0.1400E+02
    -20.457  0.0000E+00  0.1400E+02
    -20.355  0.0000E+00  0.1400E+02
    -20.253  0.0000E+00  0.1400E+02
    -20.152  0.0000E+00  0.1400E+02
    -20.050  0.0000E+00  0.1400E+02
    -19.949  0.0000E+00  0.1400E+02
    -19.847  0.0000E+00  0.1400E+02
    -19.746  0.0000E+00  0.1400E+02
    -19.644  0.0000E+00  0.1400E+02
    -19.543  0.0000E+00  0.1400E+02
    -19.441  0.0000E+00  0.1400E+02
    -19.339  0.0000E+00  0.1400E+02
    -19.238  0.0000E+00  0.1400E+02
    -19.136  0.0000E+00  0.1400E+02
    -19.035  0.0000E+00  0.1400E+02
    -18.933  0.0000E+00  0.1400E+02
    -18.832  0.0000E+00  0.1400E+02
    -18.730  0.0000E+00  0.1400E+02
    -18.628  0.0000E+00  0.1400E+02
    -18.527  0.0000E+00  0.1400E+02
    -18.425  0.0000E+00  0.1400E+02
    -18.324  0.0000E+00  0.1400E+02
    -18.222  0.0000E+00  0.1400E+02
    -18.121  0.0000E+00  0.1400E+02
    -18.019  0.0000E+00  0.1400E+02
    -17.918  0.0000E+00  0.1400E+02
    -17.816  0.0000E+00  0.1400E+02
    -17.714  0.0000E+00  0.1400E+02
    -17.613  0.0000E+00  0.1400E+02
    -17.511  0.0000E+00  0.1400E+02
    -17.410  0.0000E+00  0.1400E+02
    -17.308  0.0000E+00  0.1400E+02
    -17.207  0.0000E+00  0.1400E+02
    -17.105  0.0000E+00  0.1400E+02
    -17.003  0.0000E+00  0.1400E+02
    -16.902  0.3025E+01  0.1431E+02
    -16.800  0.1163E+03  0.2782E+02
    -16.699  0.2026E+03  0.5058E+02
    -16.597  0.2585E-09  0.5400E+02
    -16.496  0.1239E+03  0.6659E+02
    -16.394  0.2155E+03  0.9139E+02
    -16.293  0.0000E+00  0.9400E+02
    -16.191  0.0000E+00  0.9400E+02
    -16.089  0.0000E+00  0.9400E+02
    -15.988  0.0000E+00  0.9400E+02
    -15.886  0.0000E+00  0.9400E+02
    -15.785  0.0000E+00  0.9400E+02
    -15.683  0.0000E+00  0.9400E+02
    -15.582  0.0000E+00  0.9400E+02
    -15.480  0.0000E+00  0.9400E+02
    -15.379  0.0000E+00  0.9400E+02
    -15.277  0.0000E+00  0.9400E+02
    -15.175  0.2596E+01  0.9426E+02
    -15.074  0.0000E+00  0.9600E+02
    -14.972  0.0000E+00  0.9600E+02
    -14.871  0.0000E+00  0.9600E+02
    -14.769  0.1134E+01  0.9612E+02
    -14.668  0.9846E+01  0.9800E+02
    -14.566  0.9701E+01  0.9899E+02
    -14.464  0.3164E+02  0.1027E+03
    -14.363  0.2312E+02  0.1053E+03
    -14.261  0.3421E+02  0.1100E+03
    -14.160  0.6630E+02  0.1175E+03
    -14.058  0.4890E+02  0.1250E+03
    -13.957  0.3829E+02  0.1309E+03
    -13.855  0.4243E+02  0.1373E+03
    -13.754  0.3538E+01  0.1384E+03
    -13.652  0.1969E+02  0.1420E+03
    -13.550  0.0000E+00  0.1420E+03
    -13.449  0.0000E+00  0.1420E+03
    -13.347  0.0000E+00  0.1420E+03
    -13.246  0.0000E+00  0.1420E+03
    -13.144  0.0000E+00  0.1420E+03
    -13.043  0.0000E+00  0.1420E+03
    -12.941  0.0000E+00  0.1420E+03
    -12.840  0.0000E+00  0.1420E+03
    -12.738  0.0000E+00  0.1420E+03
    -12.636  0.0000E+00  0.1420E+03
    -12.535  0.0000E+00  0.1420E+03
    -12.433  0.0000E+00  0.1420E+03
    -12.332  0.0000E+00  0.1420E+03
    -12.230  0.0000E+00  0.1420E+03
    -12.129  0.0000E+00  0.1420E+03
    -12.027  0.0000E+00  0.1420E+03
    -11.925  0.0000E+00  0.1420E+03
    -11.824  0.0000E+00  0.1420E+03
    -11.722  0.0000E+00  0.1420E+03
    -11.621  0.0000E+00  0.1420E+03
    -11.519  0.0000E+00  0.1420E+03
    -11.418  0.0000E+00  0.1420E+03
    -11.316  0.0000E+00  0.1420E+03
    -11.215  0.0000E+00  0.1420E+03
    -11.113  0.0000E+00  0.1420E+03
    -11.011  0.0000E+00  0.1420E+03
    -10.910  0.0000E+00  0.1420E+03
    -10.808  0.0000E+00  0.1420E+03
    -10.707  0.0000E+00  0.1420E+03
    -10.605  0.0000E+00  0.1420E+03
    -10.504  0.0000E+00  0.1420E+03
    -10.402  0.0000E+00  0.1420E+03
    -10.301  0.0000E+00  0.1420E+03
    -10.199  0.0000E+00  0.1420E+03
    -10.097  0.0000E+00  0.1420E+03
     -9.996  0.0000E+00  0.1420E+03
     -9.894  0.0000E+00  0.1420E+03
     -9.793  0.0000E+00  0.1420E+03
     -9.691  0.0000E+00  0.1420E+03
     -9.590  0.0000E+00  0.1420E+03
     -9.488  0.0000E+00  0.1420E+03
     -9.386  0.0000E+00  0.1420E+03
     -9.285  0.0000E+00  0.1420E+03
     -9.183  0.0000E+00  0.1420E+03
     -9.082  0.0000E+00  0.1420E+03
     -8.980  0.0000E+00  0.1420E+03
     -8.879  0.0000E+00  0.1420E+03
     -8.777  0.0000E+00  0.1420E+03
     -8.676  0.0000E+00  0.1420E+03
     -8.574  0.0000E+00  0.1420E+03
     -8.472  0.2282E+01  0.1422E+03
     -8.371  0.2321E+01  0.1425E+03
     -8.269  0.7742E+01  0.1433E+03
     -8.168  0.7347E+01  0.1445E+03
     -8.066  0.1487E+02  0.1465E+03
     -7.965  0.9553E+01  0.1482E+03
     -7.863  0.1130E+02  0.1496E+03
     -7.762  0.1183E+02  0.1512E+03
     -7.660  0.1122E+02  0.1526E+03
     -7.558  0.1846E+02  0.1549E+03
     -7.457  0.3041E+02  0.1586E+03
     -7.355  0.2170E+03  0.1818E+03
     -7.254  0.8477E+02  0.1976E+03
     -7.152  0.2462E+01  0.1985E+03
     -7.051  0.5878E+01  0.1991E+03
     -6.949  0.2461E+01  0.1997E+03
     -6.847  0.0000E+00  0.1998E+03
     -6.746  0.1775E+01  0.1999E+03
     -6.644  0.0000E+00  0.2000E+03
     -6.543  0.0000E+00  0.2000E+03
     -6.441  0.0000E+00  0.2000E+03
     -6.340  0.0000E+00  0.2000E+03
     -6.238  0.0000E+00  0.2000E+03
     -6.137  0.0000E+00  0.2000E+03
     -6.035  0.0000E+00  0.2000E+03
     -5.933  0.0000E+00  0.2000E+03
     -5.832  0.0000E+00  0.2000E+03
     -5.730  0.0000E+00  0.2000E+03
     -5.629  0.0000E+00  0.2000E+03
     -5.527  0.0000E+00  0.2000E+03
     -5.426  0.0000E+00  0.2000E+03
     -5.324  0.0000E+00  0.2000E+03
     -5.222  0.0000E+00  0.2000E+03
     -5.121  0.0000E+00  0.2000E+03
     -5.019  0.0000E+00  0.2000E+03
     -4.918  0.0000E+00  0.2000E+03
     -4.816  0.0000E+00  0.2000E+03
     -4.715  0.0000E+00  0.2000E+03
     -4.613  0.0000E+00  0.2000E+03
     -4.512  0.0000E+00  0.2000E+03
     -4.410  0.0000E+00  0.2000E+03
     -4.308  0.0000E+00  0.2000E+03
     -4.207  0.0000E+00  0.2000E+03
     -4.105  0.0000E+00  0.2000E+03
     -4.004  0.0000E+00  0.2000E+03
     -3.902  0.0000E+00  0.2000E+03
     -3.801  0.4764E+01  0.2005E+03
     -3.699  0.4923E+01  0.2010E+03
     -3.598  0.1103E+02  0.2021E+03
     -3.496  0.1211E+02  0.2040E+03
     -3.394  0.1324E+02  0.2053E+03
     -3.293  0.1969E+02  0.2082E+03
     -3.191  0.1692E+02  0.2100E+03
     -3.090  0.1716E+02  0.2125E+03
     -2.988  0.1715E+02  0.2142E+03
     -2.887  0.2293E+02  0.2166E+03
     -2.785  0.1853E+02  0.2186E+03
     -2.683  0.3275E+02  0.2228E+03
     -2.582  0.1848E+02  0.2249E+03
     -2.480  0.3808E+02  0.2301E+03
     -2.379  0.4049E+02  0.2354E+03
     -2.277  0.3238E+02  0.2393E+03
     -2.176  0.4415E+02  0.2447E+03
     -2.074  0.2896E+02  0.2479E+03
     -1.973  0.2285E+02  0.2511E+03
     -1.871  0.6104E+02  0.2580E+03
     -1.769  0.4173E+02  0.2630E+03
     -1.668  0.5289E+02  0.2701E+03
     -1.566  0.7381E+02  0.2790E+03
     -1.465  0.8170E+02  0.2900E+03
     -1.363  0.9647E+02  0.3013E+03
     -1.262  0.6150E+02  0.3092E+03
     -1.160  0.5986E+02  0.3173E+03
     -1.059  0.5308E+02  0.3236E+03
     -0.957  0.4080E+02  0.3296E+03
     -0.855  0.1788E+02  0.3323E+03
     -0.754  0.2495E+02  0.3353E+03
     -0.652  0.1033E+02  0.3368E+03
     -0.551  0.9855E+01  0.3380E+03
     -0.449  0.1111E+02  0.3394E+03
     -0.348  0.4922E+01  0.3402E+03
     -0.246  0.4922E+01  0.3407E+03
     -0.144  0.1064E+02  0.3418E+03
     -0.043  0.7024E+01  0.3437E+03
      0.059  0.0000E+00  0.3438E+03
      0.160  0.0000E+00  0.3438E+03
      0.262  0.1608E+01  0.3439E+03
      0.363  0.0000E+00  0.3440E+03
      0.465  0.0000E+00  0.3440E+03
      0.566  0.0000E+00  0.3440E+03
      0.668  0.0000E+00  0.3440E+03
      0.770  0.0000E+00  0.3440E+03
      0.871  0.0000E+00  0.3440E+03
      0.973  0.0000E+00  0.3440E+03
      1.074  0.0000E+00  0.3440E+03
      1.176  0.0000E+00  0.3440E+03
      1.277  0.0000E+00  0.3440E+03
      1.379  0.0000E+00  0.3440E+03
      1.480  0.0000E+00  0.3440E+03
      1.582  0.0000E+00  0.3440E+03
      1.684  0.0000E+00  0.3440E+03
      1.785  0.0000E+00  0.3440E+03
      1.887  0.0000E+00  0.3440E+03
      1.988  0.0000E+00  0.3440E+03
      2.090  0.0000E+00  0.3440E+03
      2.191  0.0000E+00  0.3440E+03
      2.293  0.0000E+00  0.3440E+03
      2.395  0.4514E-09  0.3440E+03
      2.496  0.3333E+01  0.3443E+03
      2.598  0.4408E+01  0.3449E+03
      2.699  0.9411E+01  0.3462E+03
      2.801  0.1762E+02  0.3485E+03
      2.902  0.9243E+01  0.3497E+03
      3.004  0.9846E+01  0.3512E+03
      3.105  0.1246E+02  0.3525E+03
      3.207  0.1017E+02  0.3540E+03
      3.309  0.8729E+01  0.3551E+03
      3.410  0.5023E+01  0.3558E+03
      3.512  0.0000E+00  0.3560E+03
      3.613  0.0000E+00  0.3560E+03
      3.715  0.3493E+01  0.3564E+03
      3.816  0.2462E+01  0.3570E+03
      3.918  0.1330E+02  0.3584E+03
      4.019  0.1041E+02  0.3601E+03
      4.121  0.1696E+02  0.3622E+03
      4.223  0.1585E+02  0.3641E+03
      4.324  0.2818E+02  0.3681E+03
      4.426  0.2580E+02  0.3709E+03
      4.527  0.2555E+02  0.3741E+03
      4.629  0.1456E+02  0.3760E+03
      4.730  0.2176E+02  0.3790E+03
      4.832  0.5991E+01  0.3804E+03
      4.934  0.4957E-04  0.3805E+03
      5.035  0.4915E+01  0.3810E+03
      5.137  0.2462E+01  0.3812E+03
      5.238  0.2353E+01  0.3815E+03
      5.340  0.9846E+01  0.3825E+03
      5.441  0.1178E+02  0.3837E+03
      5.543  0.1348E+02  0.3856E+03
      5.644  0.1953E+02  0.3885E+03
      5.746  0.1756E+01  0.3894E+03
      5.848  0.1775E+02  0.3918E+03
      5.949  0.2259E+02  0.3945E+03
      6.051  0.1767E+02  0.3970E+03
      6.152  0.3339E+02  0.4009E+03
      6.254  0.3522E+02  0.4048E+03
      6.355  0.2823E+02  0.4089E+03
      6.457  0.3049E+02  0.4131E+03
      6.559  0.1728E+02  0.4155E+03
      6.660  0.2462E+01  0.4160E+03
      6.762  0.0000E+00  0.4160E+03
      6.863  0.0000E+00  0.4160E+03
      6.965  0.0000E+00  0.4160E+03
      7.066  0.0000E+00  0.4160E+03
      7.168  0.0000E+00  0.4160E+03
      7.269  0.0000E+00  0.4160E+03
      7.371  0.0000E+00  0.4160E+03
      7.473  0.0000E+00  0.4160E+03
      7.574  0.0000E+00  0.4160E+03
      7.676  0.0000E+00  0.4160E+03
      7.777  0.0000E+00  0.4160E+03
      7.879  0.0000E+00  0.4160E+03
      7.980  0.0000E+00  0.4160E+03
      7.98034856    -22.48775772  301      0.31254182      1.00000000
    -22.488  0.0000E+00  0.0000E+00  0.0000E+00
    -22.386  0.0000E+00  0.0000E+00  0.0000E+00
    -22.285  0.0000E+00  0.0000E+00  0.0000E+00
    -22.183  0.0000E+00  0.0000E+00  0.0000E+00
    -22.082  0.0000E+00  0.0000E+00  0.0000E+00
    -21.980  0.0000E+00  0.0000E+00  0.0000E+00
    -21.878  0.0000E+00  0.0000E+00  0.0000E+00
    -21.777  0.0000E+00  0.0000E+00  0.0000E+00
    -21.675  0.0000E+00  0.0000E+00  0.0000E+00
    -21.574  0.0000E+00  0.0000E+00  0.0000E+00
    -21.472  0.0000E+00  0.0000E+00  0.0000E+00
    -21.371  0.0000E+00  0.0000E+00  0.0000E+00
    -21.269  0.0000E+00  0.0000E+00  0.0000E+00
    -21.167  0.0000E+00  0.0000E+00  0.0000E+00
    -21.066  0.1490E-03  0.3993E-07  0.5424E-08
    -20.964  0.1746E+02  0.6826E-04  0.2386E-05
    -20.863  0.5714E-02  0.2617E-06  0.2148E-07
    -20.761  0.0000E+00  0.0000E+00  0.0000E+00
    -20.660  0.0000E+00  0.0000E+00  0.0000E+00
    -20.558  0.0000E+00  0.0000E+00  0.0000E+00
    -20.457  0.0000E+00  0.0000E+00  0.0000E+00
    -20.355  0.0000E+00  0.0000E+00  0.0000E+00
    -20.253  0.0000E+00  0.0000E+00  0.0000E+00
    -20.152  0.0000E+00  0.0000E+00  0.0000E+00
    -20.050  0.0000E+00  0.0000E+00  0.0000E+00
    -19.949  0.0000E+00  0.0000E+00  0.0000E+00
    -19.847  0.0000E+00  0.0000E+00  0.0000E+00
    -19.746  0.0000E+00  0.0000E+00  0.0000E+00
    -19.644  0.0000E+00  0.0000E+00  0.0000E+00
    -19.543  0.0000E+00  0.0000E+00  0.0000E+00
    -19.441  0.0000E+00  0.0000E+00  0.0000E+00
    -19.339  0.0000E+00  0.0000E+00  0.0000E+00
    -19.238  0.0000E+00  0.0000E+00  0.0000E+00
    -19.136  0.0000E+00  0.0000E+00  0.0000E+00
    -19.035  0.0000E+00  0.0000E+00  0.0000E+00
    -18.933  0.0000E+00  0.0000E+00  0.0000E+00
    -18.832  0.0000E+00  0.0000E+00  0.0000E+00
    -18.730  0.0000E+00  0.0000E+00  0.0000E+00
    -18.628  0.0000E+00  0.0000E+00  0.0000E+00
    -18.527  0.0000E+00  0.0000E+00  0.0000E+00
    -18.425  0.0000E+00  0.0000E+00  0.0000E+00
    -18.324  0.0000E+00  0.0000E+00  0.0000E+00
    -18.222  0.0000E+00  0.0000E+00  0.0000E+00
    -18.121  0.0000E+00  0.0000E+00  0.0000E+00
    -18.019  0.0000E+00  0.0000E+00  0.0000E+00
    -17.918  0.0000E+00  0.0000E+00  0.0000E+00
    -17.816  0.0000E+00  0.0000E+00  0.0000E+00
    -17.714  0.0000E+00  0.0000E+00  0.0000E+00
    -17.613  0.0000E+00  0.0000E+00  0.0000E+00
    -17.511  0.0000E+00  0.0000E+00  0.0000E+00
    -17.410  0.0000E+00  0.0000E+00  0.0000E+00
    -17.308  0.0000E+00  0.0000E+00  0.0000E+00
    -17.207  0.0000E+00  0.0000E+00  0.0000E+00
    -17.105  0.0000E+00  0.0000E+00  0.0000E+00
    -17.003  0.0000E+00  0.0000E+00  0.0000E+00
    -16.902  0.2016E-05  0.8900E-06  0.2302E-06
    -16.800  0.5074E-04  0.4697E-04  0.9209E-05
    -16.699  0.4100E-04  0.1994E-04  0.2533E-05
    -16.597  0.2137E-15  0.2999E-15  0.4002E-16
    -16.496  0.5575E-04  0.5902E-04  0.1161E-04
    -16.394  0.4191E-04  0.2458E-04  0.2794E-05
    -16.293  0.0000E+00  0.0000E+00  0.0000E+00
    -16.191  0.0000E+00  0.0000E+00  0.0000E+00
    -16.089  0.0000E+00  0.0000E+00  0.0000E+00
    -15.988  0.0000E+00  0.0000E+00  0.0000E+00
    -15.886  0.0000E+00  0.0000E+00  0.0000E+00
    -15.785  0.0000E+00  0.0000E+00  0.0000E+00
    -15.683  0.0000E+00  0.0000E+00  0.0000E+00
    -15.582  0.0000E+00  0.0000E+00  0.0000E+00
    -15.480  0.0000E+00  0.0000E+00  0.0000E+00
    -15.379  0.0000E+00  0.0000E+00  0.0000E+00
    -15.277  0.0000E+00  0.0000E+00  0.0000E+00
    -15.175  0.9104E-07  0.1222E-05  0.2180E-06
    -15.074  0.0000E+00  0.0000E+00  0.0000E+00
    -14.972  0.0000E+00  0.0000E+00  0.0000E+00
    -14.871  0.0000E+00  0.0000E+00  0.0000E+00
    -14.769  0.4215E-04  0.1802E-04  0.4771E-06
    -14.668  0.2647E-03  0.2323E-03  0.1116E-04
    -14.566  0.2735E-02  0.1517E-02  0.2971E-04
    -14.464  0.1288E-02  0.4186E-02  0.3245E-03
    -14.363  0.1521E-03  0.1078E-02  0.7630E-04
    -14.261  0.2361E-02  0.2388E-02  0.9806E-04
    -14.160  0.1613E-02  0.4595E-02  0.3138E-03
    -14.058  0.9629E-03  0.3436E-02  0.2789E-03
    -13.957  0.3324E-03  0.1617E-02  0.1990E-03
    -13.855  0.1189E-02  0.2971E-02  0.4659E-03
    -13.754  0.7238E-06  0.2373E-04  0.3202E-05
    -13.652  0.2187E-03  0.4720E-03  0.4145E-04
    -13.550  0.0000E+00  0.0000E+00  0.0000E+00
    -13.449  0.0000E+00  0.0000E+00  0.0000E+00
    -13.347  0.0000E+00  0.0000E+00  0.0000E+00
    -13.246  0.0000E+00  0.0000E+00  0.0000E+00
    -13.144  0.0000E+00  0.0000E+00  0.0000E+00
    -13.043  0.0000E+00  0.0000E+00  0.0000E+00
    -12.941  0.0000E+00  0.0000E+00  0.0000E+00
    -12.840  0.0000E+00  0.0000E+00  0.0000E+00
    -12.738  0.0000E+00  0.0000E+00  0.0000E+00
    -12.636  0.0000E+00  0.0000E+00  0.0000E+00
    -12.535  0.0000E+00  0.0000E+00  0.0000E+00
    -12.433  0.0000E+00  0.0000E+00  0.0000E+00
    -12.332  0.0000E+00  0.0000E+00  0.0000E+00
    -12.230  0.0000E+00  0.0000E+00  0.0000E+00
    -12.129  0.0000E+00  0.0000E+00  0.0000E+00
    -12.027  0.0000E+00  0.0000E+00  0.0000E+00
    -11.925  0.0000E+00  0.0000E+00  0.0000E+00
    -11.824  0.0000E+00  0.0000E+00  0.0000E+00
    -11.722  0.0000E+00  0.0000E+00  0.0000E+00
    -11.621  0.0000E+00  0.0000E+00  0.0000E+00
    -11.519  0.0000E+00  0.0000E+00  0.0000E+00
    -11.418  0.0000E+00  0.0000E+00  0.0000E+00
    -11.316  0.0000E+00  0.0000E+00  0.0000E+00
    -11.215  0.0000E+00  0.0000E+00  0.0000E+00
    -11.113  0.0000E+00  0.0000E+00  0.0000E+00
    -11.011  0.0000E+00  0.0000E+00  0.0000E+00
    -10.910  0.0000E+00  0.0000E+00  0.0000E+00
    -10.808  0.0000E+00  0.0000E+00  0.0000E+00
    -10.707  0.0000E+00  0.0000E+00  0.0000E+00
    -10.605  0.0000E+00  0.0000E+00  0.0000E+00
    -10.504  0.0000E+00  0.0000E+00  0.0000E+00
    -10.402  0.0000E+00  0.0000E+00  0.0000E+00
    -10.301  0.0000E+00  0.0000E+00  0.0000E+00
    -10.199  0.0000E+00  0.0000E+00  0.0000E+00
    -10.097  0.0000E+00  0.0000E+00  0.0000E+00
     -9.996  0.0000E+00  0.0000E+00  0.0000E+00
     -9.894  0.0000E+00  0.0000E+00  0.0000E+00
     -9.793  0.0000E+00  0.0000E+00  0.0000E+00
     -9.691  0.0000E+00  0.0000E+00  0.0000E+00
     -9.590  0.0000E+00  0.0000E+00  0.0000E+00
     -9.488  0.0000E+00  0.0000E+00  0.0000E+00
     -9.386  0.0000E+00  0.0000E+00  0.0000E+00
     -9.285  0.0000E+00  0.0000E+00  0.0000E+00
     -9.183  0.0000E+00  0.0000E+00  0.0000E+00
     -9.082  0.0000E+00  0.0000E+00  0.0000E+00
     -8.980  0.0000E+00  0.0000E+00  0.0000E+00
     -8.879  0.0000E+00  0.0000E+00  0.0000E+00
     -8.777  0.0000E+00  0.0000E+00  0.0000E+00
     -8.676  0.0000E+00  0.0000E+00  0.0000E+00
     -8.574  0.0000E+00  0.0000E+00  0.0000E+00
     -8.472  0.8383E-08  0.1696E-03  0.7556E-05
     -8.371  0.1831E-07  0.8895E-03  0.5913E-05
     -8.269  0.9618E-06  0.2998E-02  0.1590E-04
     -8.168  0.1117E-04  0.3686E-02  0.1448E-04
     -8.066  0.2702E-04  0.8957E-02  0.2248E-04
     -7.965  0.2262E-04  0.1165E-01  0.2835E-04
     -7.863  0.1283E-04  0.1597E-01  0.1519E-04
     -7.762  0.3892E-05  0.3136E-01  0.3261E-04
     -7.660  0.8238E-05  0.4747E-01  0.2641E-04
     -7.558  0.6837E-04  0.1859E+00  0.3975E-04
     -7.457  0.1416E-04  0.3851E+00  0.3539E-04
     -7.355  0.1619E-03  0.3751E+02  0.1520E-03
     -7.254  0.6074E-04  0.1943E+01  0.5626E-04
     -7.152  0.4151E-06  0.6948E-01  0.5489E-05
     -7.051  0.3987E-04  0.1907E-01  0.9819E-05
     -6.949  0.1394E-04  0.3744E-02  0.7650E-05
     -6.847  0.0000E+00  0.0000E+00  0.0000E+00
     -6.746  0.1598E-04  0.2694E-02  0.1078E-05
     -6.644  0.0000E+00  0.0000E+00  0.0000E+00
     -6.543  0.0000E+00  0.0000E+00  0.0000E+00
     -6.441  0.0000E+00  0.0000E+00  0.0000E+00
     -6.340  0.0000E+00  0.0000E+00  0.0000E+00
     -6.238  0.0000E+00  0.0000E+00  0.0000E+00
     -6.137  0.0000E+00  0.0000E+00  0.0000E+00
     -6.035  0.0000E+00  0.0000E+00  0.0000E+00
     -5.933  0.0000E+00  0.0000E+00  0.0000E+00
     -5.832  0.0000E+00  0.0000E+00  0.0000E+00
     -5.730  0.0000E+00  0.0000E+00  0.0000E+00
     -5.629  0.0000E+00  0.0000E+00  0.0000E+00
     -5.527  0.0000E+00  0.0000E+00  0.0000E+00
     -5.426  0.0000E+00  0.0000E+00  0.0000E+00
     -5.324  0.0000E+00  0.0000E+00  0.0000E+00
     -5.222  0.0000E+00  0.0000E+00  0.0000E+00
     -5.121  0.0000E+00  0.0000E+00  0.0000E+00
     -5.019  0.0000E+00  0.0000E+00  0.0000E+00
     -4.918  0.0000E+00  0.0000E+00  0.0000E+00
     -4.816  0.0000E+00  0.0000E+00  0.0000E+00
     -4.715  0.0000E+00  0.0000E+00  0.0000E+00
     -4.613  0.0000E+00  0.0000E+00  0.0000E+00
     -4.512  0.0000E+00  0.0000E+00  0.0000E+00
     -4.410  0.0000E+00  0.0000E+00  0.0000E+00
     -4.308  0.0000E+00  0.0000E+00  0.0000E+00
     -4.207  0.0000E+00  0.0000E+00  0.0000E+00
     -4.105  0.0000E+00  0.0000E+00  0.0000E+00
     -4.004  0.0000E+00  0.0000E+00  0.0000E+00
     -3.902  0.0000E+00  0.0000E+00  0.0000E+00
     -3.801  0.3525E-06  0.1332E-02  0.1269E-03
     -3.699  0.2056E-05  0.1772E-02  0.2009E-03
     -3.598  0.1779E-03  0.8555E-02  0.4312E-03
     -3.496  0.1125E-03  0.5164E-02  0.6345E-03
     -3.394  0.3825E-04  0.1287E-01  0.5699E-03
     -3.293  0.1508E-03  0.9911E-02  0.1256E-02
     -3.191  0.2385E-03  0.1380E-01  0.1078E-02
     -3.090  0.3647E-04  0.4089E-02  0.6888E-03
     -2.988  0.2346E-03  0.6380E-02  0.3077E-03
     -2.887  0.3850E-03  0.1203E-01  0.7052E-03
     -2.785  0.5717E-03  0.1850E-01  0.8793E-03
     -2.683  0.1427E-02  0.2707E-01  0.2180E-02
     -2.582  0.3681E-03  0.1044E-01  0.1466E-02
     -2.480  0.2428E-02  0.2444E-01  0.3247E-02
     -2.379  0.9442E-02  0.4180E-01  0.5218E-02
     -2.277  0.1049E-01  0.1803E-01  0.3365E-02
     -2.176  0.2116E-01  0.2956E-01  0.3092E-02
     -2.074  0.5115E-02  0.7151E-01  0.4946E-02
     -1.973  0.2014E-02  0.5143E-01  0.4628E-02
     -1.871  0.6457E-02  0.1029E+00  0.1222E-01
     -1.769  0.3506E-02  0.7958E-01  0.8307E-02
     -1.668  0.2077E-02  0.6499E-01  0.9182E-02
     -1.566  0.3007E-02  0.7166E-01  0.1548E-01
     -1.465  0.3764E-02  0.9693E-01  0.1807E-01
     -1.363  0.3100E-02  0.6938E-01  0.1714E-01
     -1.262  0.2556E-02  0.5085E-01  0.8686E-02
     -1.160  0.1583E-02  0.6013E-01  0.1549E-01
     -1.059  0.8200E-03  0.2946E-01  0.6178E-02
     -0.957  0.5360E-03  0.1472E-01  0.3032E-02
     -0.855  0.2484E-03  0.6091E-02  0.1562E-02
     -0.754  0.4418E-03  0.6604E-02  0.1915E-02
     -0.652  0.1201E-03  0.1823E-02  0.1040E-02
     -0.551  0.2042E-04  0.1267E-02  0.5622E-03
     -0.449  0.1025E-03  0.1159E-02  0.6565E-03
     -0.348  0.6256E-05  0.3800E-03  0.4385E-03
     -0.246  0.5786E-06  0.3223E-03  0.1427E-03
     -0.144  0.1143E-04  0.4598E-03  0.5353E-04
     -0.043  0.5693E-05  0.4321E-03  0.5999E-03
      0.059  0.0000E+00  0.0000E+00  0.0000E+00
      0.160  0.0000E+00  0.0000E+00  0.0000E+00
      0.262  0.3434E-06  0.4051E-04  0.9912E-04
      0.363  0.0000E+00  0.0000E+00  0.0000E+00
      0.465  0.0000E+00  0.0000E+00  0.0000E+00
      0.566  0.0000E+00  0.0000E+00  0.0000E+00
      0.668  0.0000E+00  0.0000E+00  0.0000E+00
      0.770  0.0000E+00  0.0000E+00  0.0000E+00
      0.871  0.0000E+00  0.0000E+00  0.0000E+00
      0.973  0.0000E+00  0.0000E+00  0.0000E+00
      1.074  0.0000E+00  0.0000E+00  0.0000E+00
      1.176  0.0000E+00  0.0000E+00  0.0000E+00
      1.277  0.0000E+00  0.0000E+00  0.0000E+00
      1.379  0.0000E+00  0.0000E+00  0.0000E+00
      1.480  0.0000E+00  0.0000E+00  0.0000E+00
      1.582  0.0000E+00  0.0000E+00  0.0000E+00
      1.684  0.0000E+00  0.0000E+00  0.0000E+00
      1.785  0.0000E+00  0.0000E+00  0.0000E+00
      1.887  0.0000E+00  0.0000E+00  0.0000E+00
      1.988  0.0000E+00  0.0000E+00  0.0000E+00
      2.090  0.0000E+00  0.0000E+00  0.0000E+00
      2.191  0.0000E+00  0.0000E+00  0.0000E+00
      2.293  0.0000E+00  0.0000E+00  0.0000E+00
      2.395  0.5199E-14  0.1264E-13  0.1032E-12
      2.496  0.5537E-04  0.8585E-04  0.6775E-03
      2.598  0.1271E-03  0.3524E-03  0.1019E-02
      2.699  0.2313E-03  0.6496E-03  0.1736E-02
      2.801  0.6710E-03  0.2630E-02  0.3809E-02
      2.902  0.1935E-03  0.1816E-02  0.1609E-02
      3.004  0.3624E-03  0.1564E-02  0.1448E-02
      3.105  0.3720E-03  0.1549E-02  0.1921E-02
      3.207  0.4955E-03  0.8997E-03  0.2558E-02
      3.309  0.2690E-03  0.7601E-03  0.1383E-02
      3.410  0.1545E-03  0.1137E-02  0.6818E-03
      3.512  0.0000E+00  0.0000E+00  0.0000E+00
      3.613  0.0000E+00  0.0000E+00  0.0000E+00
      3.715  0.4267E-04  0.1032E-02  0.1716E-02
      3.816  0.6187E-07  0.2581E-04  0.4620E-03
      3.918  0.9035E-04  0.1125E-02  0.3405E-02
      4.019  0.6127E-03  0.1824E-02  0.5726E-02
      4.121  0.4327E-03  0.3002E-02  0.7127E-02
      4.223  0.8944E-03  0.2299E-02  0.4656E-02
      4.324  0.8408E-03  0.6014E-02  0.1231E-01
      4.426  0.7325E-03  0.3909E-02  0.9467E-02
      4.527  0.2413E-02  0.4686E-02  0.9530E-02
      4.629  0.1449E-02  0.3765E-02  0.5839E-02
      4.730  0.6123E-02  0.5136E-02  0.9023E-02
      4.832  0.8189E-03  0.1221E-02  0.2324E-02
      4.934  0.1275E-09  0.3005E-11  0.7008E-08
      5.035  0.2895E-04  0.2083E-03  0.1121E-02
      5.137  0.2435E-04  0.9587E-04  0.6920E-03
      5.238  0.6615E-02  0.2102E-03  0.1116E-02
      5.340  0.6407E-02  0.4658E-02  0.7487E-02
      5.441  0.8632E-02  0.3541E-02  0.1020E-01
      5.543  0.1294E-01  0.2388E-02  0.1091E-01
      5.644  0.9353E-03  0.2664E-02  0.2762E-01
      5.746  0.3072E-04  0.8424E-04  0.4371E-02
      5.848  0.3480E-02  0.1793E-02  0.3423E-01
      5.949  0.5929E-01  0.9905E-02  0.7150E-01
      6.051  0.1867E-01  0.1901E-01  0.8039E-01
      6.152  0.4489E-01  0.1050E-01  0.3871E+00
      6.254  0.6443E-01  0.1297E-01  0.3734E+00
      6.355  0.1794E-01  0.2085E-01  0.4412E+00
      6.457  0.1622E-01  0.1436E-01  0.4962E+00
      6.559  0.7487E-02  0.1671E-01  0.2409E+00
      6.660  0.3559E-02  0.1743E-02  0.1525E-01
      6.762  0.0000E+00  0.0000E+00  0.0000E+00
      6.863  0.0000E+00  0.0000E+00  0.0000E+00
      6.965  0.0000E+00  0.0000E+00  0.0000E+00
      7.066  0.0000E+00  0.0000E+00  0.0000E+00
      7.168  0.0000E+00  0.0000E+00  0.0000E+00
      7.269  0.0000E+00  0.0000E+00  0.0000E+00
      7.371  0.0000E+00  0.0000E+00  0.0000E+00
      7.473  0.0000E+00  0.0000E+00  0.0000E+00
      7.574  0.0000E+00  0.0000E+00  0.0000E+00
      7.676  0.0000E+00  0.0000E+00  0.0000E+00
      7.777  0.0000E+00  0.0000E+00  0.0000E+00
      7.879  0.0000E+00  0.0000E+00  0.0000E+00
      7.980  0.0000E+00  0.0000E+00  0.0000E+00
      7.98034856    -22.48775772  301      0.31254182      1.00000000
    -22.488  0.0000E+00  0.0000E+00  0.0000E+00
    -22.386  0.0000E+00  0.0000E+00  0.0000E+00
    -22.285  0.0000E+00  0.0000E+00  0.0000E+00
    -22.183  0.0000E+00  0.0000E+00  0.0000E+00
    -22.082  0.0000E+00  0.0000E+00  0.0000E+00
    -21.980  0.0000E+00  0.0000E+00  0.0000E+00
    -21.878  0.0000E+00  0.0000E+00  0.0000E+00
    -21.777  0.0000E+00  0.0000E+00  0.0000E+00
    -21.675  0.0000E+00  0.0000E+00  0.0000E+00
    -21.574  0.0000E+00  0.0000E+00  0.0000E+00
    -21.472  0.0000E+00  0.0000E+00  0.0000E+00
    -21.371  0.0000E+00  0.0000E+00  0.0000E+00
    -21.269  0.0000E+00  0.0000E+00  0.0000E+00
    -21.167  0.0000E+00  0.0000E+00  0.0000E+00
    -21.066  0.3088E-02  0.7703E-06  0.1678E-06
    -20.964  0.1699E+02  0.4929E-04  0.8354E-06
    -20.863  0.5392E-02  0.1349E-06  0.2380E-07
    -20.761  0.0000E+00  0.0000E+00  0.0000E+00
    -20.660  0.0000E+00  0.0000E+00  0.0000E+00
    -20.558  0.0000E+00  0.0000E+00  0.0000E+00
    -20.457  0.0000E+00  0.0000E+00  0.0000E+00
    -20.355  0.0000E+00  0.0000E+00  0.0000E+00
    -20.253  0.0000E+00  0.0000E+00  0.0000E+00
    -20.152  0.0000E+00  0.0000E+00  0.0000E+00
    -20.050  0.0000E+00  0.0000E+00  0.0000E+00
    -19.949  0.0000E+00  0.0000E+00  0.0000E+00
    -19.847  0.0000E+00  0.0000E+00  0.0000E+00
    -19.746  0.0000E+00  0.0000E+00  0.0000E+00
    -19.644  0.0000E+00  0.0000E+00  0.0000E+00
    -19.543  0.0000E+00  0.0000E+00  0.0000E+00
    -19.441  0.0000E+00  0.0000E+00  0.0000E+00
    -19.339  0.0000E+00  0.0000E+00  0.0000E+00
    -19.238  0.0000E+00  0.0000E+00  0.0000E+00
    -19.136  0.0000E+00  0.0000E+00  0.0000E+00
    -19.035  0.0000E+00  0.0000E+00  0.0000E+00
    -18.933  0.0000E+00  0.0000E+00  0.0000E+00
    -18.832  0.0000E+00  0.0000E+00  0.0000E+00
    -18.730  0.0000E+00  0.0000E+00  0.0000E+00
    -18.628  0.0000E+00  0.0000E+00  0.0000E+00
    -18.527  0.0000E+00  0.0000E+00  0.0000E+00
    -18.425  0.0000E+00  0.0000E+00  0.0000E+00
    -18.324  0.0000E+00  0.0000E+00  0.0000E+00
    -18.222  0.0000E+00  0.0000E+00  0.0000E+00
    -18.121  0.0000E+00  0.0000E+00  0.0000E+00
    -18.019  0.0000E+00  0.0000E+00  0.0000E+00
    -17.918  0.0000E+00  0.0000E+00  0.0000E+00
    -17.816  0.0000E+00  0.0000E+00  0.0000E+00
    -17.714  0.0000E+00  0.0000E+00  0.0000E+00
    -17.613  0.0000E+00  0.0000E+00  0.0000E+00
    -17.511  0.0000E+00  0.0000E+00  0.0000E+00
    -17.410  0.0000E+00  0.0000E+00  0.0000E+00
    -17.308  0.0000E+00  0.0000E+00  0.0000E+00
    -17.207  0.0000E+00  0.0000E+00  0.0000E+00
    -17.105  0.0000E+00  0.0000E+00  0.0000E+00
    -17.003  0.0000E+00  0.0000E+00  0.0000E+00
    -16.902  0.7673E-06  0.1363E-05  0.4242E-06
    -16.800  0.5840E-04  0.4894E-04  0.8843E-05
    -16.699  0.3500E-04  0.1689E-04  0.2074E-05
    -16.597  0.1419E-15  0.2430E-15  0.3296E-16
    -16.496  0.5667E-04  0.5516E-04  0.1065E-04
    -16.394  0.3466E-04  0.2033E-04  0.2327E-05
    -16.293  0.0000E+00  0.0000E+00  0.0000E+00
    -16.191  0.0000E+00  0.0000E+00  0.0000E+00
    -16.089  0.0000E+00  0.0000E+00  0.0000E+00
    -15.988  0.0000E+00  0.0000E+00  0.0000E+00
    -15.886  0.0000E+00  0.0000E+00  0.0000E+00
    -15.785  0.0000E+00  0.0000E+00  0.0000E+00
    -15.683  0.0000E+00  0.0000E+00  0.0000E+00
    -15.582  0.0000E+00  0.0000E+00  0.0000E+00
    -15.480  0.0000E+00  0.0000E+00  0.0000E+00
    -15.379  0.0000E+00  0.0000E+00  0.0000E+00
    -15.277  0.0000E+00  0.0000E+00  0.0000E+00
    -15.175  0.2035E-03  0.1312E-03  0.7554E-05
    -15.074  0.0000E+00  0.0000E+00  0.0000E+00
    -14.972  0.0000E+00  0.0000E+00  0.0000E+00
    -14.871  0.0000E+00  0.0000E+00  0.0000E+00
    -14.769  0.1539E-03  0.8322E-04  0.2851E-05
    -14.668  0.2886E-03  0.7051E-03  0.4257E-04
    -14.566  0.6859E-05  0.1700E-03  0.7035E-05
    -14.464  0.6301E-03  0.9779E-03  0.5896E-04
    -14.363  0.6216E-03  0.2757E-02  0.1664E-03
    -14.261  0.2325E-02  0.2248E-02  0.1147E-03
    -14.160  0.1482E-02  0.5320E-02  0.3506E-03
    -14.058  0.9581E-03  0.3691E-02  0.3974E-03
    -13.957  0.1153E-02  0.2639E-02  0.2221E-03
    -13.855  0.3894E-03  0.1476E-02  0.1300E-03
    -13.754  0.9240E-04  0.1592E-03  0.2571E-04
    -13.652  0.1101E-03  0.8319E-03  0.1217E-03
    -13.550  0.0000E+00  0.0000E+00  0.0000E+00
    -13.449  0.0000E+00  0.0000E+00  0.0000E+00