<?xml version="1.0" encoding="ISO-8859-1"?>
<modeling>
 <generator>
  <i name="program" type="string">vasp </i>
  <i name="version" type="string">5.4.4.18Apr17-6-g9f103f2a35  </i>
  <i name="subversion" type="string">(build Jun 22 2020 09:27:21) complex            parallel </i>
  <i name="platform" type="string">tx2_gcc-7.3_libsci-18.07_cray-fftw-3.3.8 </i>
  <i name="date" type="string">2021 10 12 </i>
  <i name="time" type="string">05:09:12 </i>
 </generator>
 <incar>
  <i type="string" name="SYSTEM"> CsPbBr3 cubic bulk</i>
  <i type="string" name="PREC">accurate</i>
  <i type="string" name="ALGO"> NORMAL   ! Electronic minimisation algo</i>
  <i type="logical" name="ADDGRID"> T  </i>
  <i type="int" name="ISPIN">     1</i>
  <i type="int" name="NELM">   200</i>
  <i type="int" name="IBRION">     2</i>
  <i name="EDIFF">      0.00000100</i>
  <i name="EDIFFG">     -0.01000000</i>
  <i type="int" name="NSW">     0</i>
  <i type="int" name="ISIF">     2</i>
  <i type="int" name="ISYM">     0</i>
  <i name="ENCUT">    300.00000000</i>
  <i name="POTIM">      0.50000000</i>
  <i name="NUPDOWN">      0.00000000</i>
  <i name="NELECT">    344.00000000</i>
  <i type="string" name="LREAL"> AUTO</i>
  <i type="int" name="ISMEAR">     0</i>
  <i name="SIGMA">      0.01000000</i>
  <i type="logical" name="LWAVE"> F  </i>
  <i type="logical" name="LCHARG"> F  </i>
  <i type="logical" name="LVHAR"> T  </i>
  <i type="int" name="LORBIT">    10</i>
  <i type="logical" name="LASPH"> T  </i>
  <v type="int" name="KPOINT_BSE">    -1     0     0     0</v>
  <i type="int" name="NELM">   200</i>
  <i type="string" name="METAGGA"> SCAN       ! PBE exchange-correlation</i>
  <i type="logical" name="LASPH"> T  </i>
 </incar>
 <structure name="primitive_cell" >
  <crystal>
   <varray name="basis" >
    <v>       8.42001800       0.00000000       8.07798100 </v>
    <v>       0.00000000      11.76380800       0.00000000 </v>
    <v>      -8.42001800       0.00000000       8.07798100 </v>
   </varray>
   <i name="volume">   1600.27186790 </i>
   <varray name="rec_basis" >
    <v>       0.05938230      -0.00000000       0.06189665 </v>
    <v>       0.00000000       0.08500649      -0.00000000 </v>
    <v>      -0.05938230       0.00000000       0.06189665 </v>
   </varray>
  </crystal>
  <varray name="positions" >
   <v>       0.27046400       0.24931100       0.20183800 </v>
   <v>       0.05779900       0.03003900       0.25383700 </v>
   <v>       0.05691700       0.47020800       0.25377900 </v>
   <v>       0.44888400       0.25050000       0.46948800 </v>
   <v>      -0.47120400       0.25003000       0.02811100 </v>
   <v>       0.44209300      -0.02986200       0.24614800 </v>
   <v>       0.44308900      -0.47025400       0.24619500 </v>
   <v>       0.24957500       0.03117300      -0.04905900 </v>
   <v>       0.24843600       0.46539400      -0.05124500 </v>
   <v>      -0.02470100       0.24984300      -0.03037800 </v>
   <v>      -0.49682000      -0.00233500       0.00059400 </v>
   <v>      -0.49980200      -0.49804500      -0.00263700 </v>
   <v>       0.00008800      -0.49909300       0.00256800 </v>
   <v>      -0.00251300      -0.00199700       0.00512700 </v>
   <v>       0.03466900       0.25082800      -0.44871600 </v>
   <v>      -0.49742800       0.00201300       0.49485700 </v>
   <v>       0.49993100       0.49923700       0.49741400 </v>
   <v>       0.25043300      -0.03103200      -0.45099100 </v>
   <v>       0.25161100      -0.46530700      -0.44873300 </v>
   <v>       0.29237100       0.24582600      -0.26545700 </v>
   <v>      -0.00325500       0.00242300       0.49939600 </v>
   <v>      -0.00029200       0.49817200      -0.49735900 </v>
   <v>       0.22956200      -0.24930100       0.29826300 </v>
   <v>      -0.25011400       0.49933100       0.24991900 </v>
   <v>      -0.25277700       0.05069500       0.45926700 </v>
   <v>       0.05131500      -0.25038200       0.03054000 </v>
   <v>      -0.45797600       0.45850900      -0.25017700 </v>
   <v>      -0.25177700       0.45883800       0.47338800 </v>
   <v>      -0.45212800       0.03453000      -0.24964300 </v>
   <v>      -0.24815600      -0.45929500       0.02650900 </v>
   <v>      -0.24724800      -0.05078500       0.04071700 </v>
   <v>       0.46539100      -0.25071300      -0.05119700 </v>
   <v>      -0.04805800      -0.03462500      -0.25032300 </v>
   <v>      -0.04203700      -0.45818100      -0.24980900 </v>
   <v>      -0.47515300      -0.24972800      -0.46964100 </v>
   <v>      -0.02900100      -0.24994600       0.47169000 </v>
   <v>       0.20772800      -0.24563900      -0.23457900 </v>
   <v>      -0.22741600       0.24862600      -0.27872300 </v>
   <v>      -0.27255000      -0.24872200      -0.22095600 </v>
  </varray>
 </structure>
 <varray name="primitive_index" >
  <v type="int" >        1 </v>
  <v type="int" >       28 </v>
  <v type="int" >       38 </v>
  <v type="int" >       18 </v>
  <v type="int" >       21 </v>
  <v type="int" >       33 </v>
  <v type="int" >       25 </v>
  <v type="int" >       31 </v>
  <v type="int" >       23 </v>
  <v type="int" >       17 </v>
  <v type="int" >        9 </v>
  <v type="int" >       11 </v>
  <v type="int" >       13 </v>
  <v type="int" >        7 </v>
  <v type="int" >       22 </v>
  <v type="int" >        8 </v>
  <v type="int" >       14 </v>
  <v type="int" >       30 </v>
  <v type="int" >       36 </v>
  <v type="int" >        4 </v>
  <v type="int" >       10 </v>
  <v type="int" >       12 </v>
  <v type="int" >        6 </v>
  <v type="int" >       39 </v>
  <v type="int" >       32 </v>
  <v type="int" >       19 </v>
  <v type="int" >       37 </v>
  <v type="int" >       24 </v>
  <v type="int" >       27 </v>
  <v type="int" >       35 </v>
  <v type="int" >       29 </v>
  <v type="int" >       15 </v>
  <v type="int" >       34 </v>
  <v type="int" >       26 </v>
  <v type="int" >       20 </v>
  <v type="int" >       16 </v>
  <v type="int" >        3 </v>
  <v type="int" >        2 </v>
  <v type="int" >        5 </v>
 </varray>
 <kpoints>
  <generation param="Gamma">
   <v type="int" name="divisions">       2        2        2 </v>
   <v name="usershift">      0.00000000       0.00000000       0.00000000 </v>
   <v name="genvec1">      0.50000000       0.00000000       0.00000000 </v>
   <v name="genvec2">      0.00000000       0.50000000       0.00000000 </v>
   <v name="genvec3">      0.00000000       0.00000000       0.50000000 </v>
   <v name="shift">      0.00000000       0.00000000       0.00000000 </v>
  </generation>
  <varray name="kpointlist" >
   <v>       0.00000000       0.00000000       0.00000000 </v>
   <v>       0.50000000       0.00000000       0.00000000 </v>
   <v>       0.00000000       0.50000000       0.00000000 </v>
   <v>       0.50000000       0.50000000       0.00000000 </v>
   <v>       0.00000000       0.00000000       0.50000000 </v>
   <v>       0.50000000       0.00000000       0.50000000 </v>
   <v>       0.00000000       0.50000000       0.50000000 </v>
   <v>       0.50000000       0.50000000       0.50000000 </v>
  </varray>
  <varray name="weights" >
   <v>       0.12500000 </v>
   <v>       0.12500000 </v>
   <v>       0.12500000 </v>
   <v>       0.12500000 </v>
   <v>       0.12500000 </v>
   <v>       0.12500000 </v>
   <v>       0.12500000 </v>
   <v>       0.12500000 </v>
  </varray>
 </kpoints>
 <parameters>
  <separator name="general" >
   <i type="string" name="SYSTEM">CsPbBr3 cubic bulk</i>
   <i type="logical" name="LCOMPAT"> F  </i>
  </separator>
  <separator name="electronic" >
   <i type="string" name="PREC">accura</i>
   <i name="ENMAX">    300.00000000</i>
   <i name="ENAUG">    503.85200000</i>
   <i name="EDIFF">      0.00000100</i>
   <i type="int" name="IALGO">    38</i>
   <i type="int" name="IWAVPR">    10</i>
   <i type="int" name="NBANDS">   208</i>
   <i name="NELECT">    344.00000000</i>
   <i type="int" name="TURBO">     0</i>
   <i type="int" name="IRESTART">     0</i>
   <i type="int" name="NREBOOT">     0</i>
   <i type="int" name="NMIN">     0</i>
   <i name="EREF">      0.00000000</i>
   <separator name="electronic smearing" >
    <i type="int" name="ISMEAR">     0</i>
    <i name="SIGMA">      0.01000000</i>
    <i name="KSPACING">      0.50000000</i>
    <i type="logical" name="KGAMMA"> T  </i>
   </separator>
   <separator name="electronic projectors" >
    <i type="logical" name="LREAL"> T  </i>
    <v name="ROPT">     -0.00025000     -0.00025000     -0.00025000     -0.00025000</v>
    <i type="int" name="LMAXPAW">  -100</i>
    <i type="int" name="LMAXMIX">     2</i>
    <i type="logical" name="NLSPLINE"> F  </i>
   </separator>
   <separator name="electronic startup" >
    <i type="int" name="ISTART">     0</i>
    <i type="int" name="ICHARG">     2</i>
    <i type="int" name="INIWAV">     1</i>
   </separator>
   <separator name="electronic spin" >
    <i type="int" name="ISPIN">     1</i>
    <i type="logical" name="LNONCOLLINEAR"> F  </i>
    <v name="MAGMOM">      0.00000000      0.00000000      0.00000000      0.00000000      0.00000000      0.00000000      0.00000000      0.00000000      0.00000000      0.00000000      0.00000000      0.00000000      0.00000000      0.00000000      0.00000000      0.00000000      0.00000000      0.00000000      0.00000000      0.00000000
      0.00000000      0.00000000      0.00000000      0.00000000      0.00000000      0.00000000      0.00000000      0.00000000      0.00000000      0.00000000      0.00000000      0.00000000      0.00000000      0.00000000      0.00000000      0.00000000      0.00000000      0.00000000      0.00000000</v>
    <i name="NUPDOWN">      0.00000000</i>
    <i type="logical" name="LSORBIT"> F  </i>
    <v name="SAXIS">      0.00000000      0.00000000      1.00000000</v>
    <i type="logical" name="LSPIRAL"> F  </i>
    <v name="QSPIRAL">      0.00000000      0.00000000      0.00000000</v>
    <i type="logical" name="LZEROZ"> F  </i>
   </separator>
   <separator name="electronic exchange-correlation" >
    <i type="logical" name="LASPH"> T  </i>
    <i type="logical" name="LMETAGGA"> F  </i>
   </separator>
   <separator name="electronic convergence" >
    <i type="int" name="NELM">   200</i>
    <i type="int" name="NELMDL">    -5</i>
    <i type="int" name="NELMIN">     2</i>
    <i name="ENINI">    300.00000000</i>
    <separator name="electronic convergence detail" >
     <i type="logical" name="LDIAG"> T  </i>
     <i type="logical" name="LSUBROT"> F  </i>
     <i name="WEIMIN">      0.00000000</i>
     <i name="EBREAK">      0.00000000</i>
     <i name="DEPER">      0.30000000</i>
     <i type="int" name="NRMM">     4</i>
     <i name="TIME">      0.40000000</i>
    </separator>
   </separator>
   <separator name="electronic mixer" >
    <i name="AMIX">      0.40000000</i>
    <i name="BMIX">      1.00000000</i>
    <i name="AMIN">      0.10000000</i>
    <i name="AMIX_MAG">      1.60000000</i>
    <i name="BMIX_MAG">      1.00000000</i>
    <separator name="electronic mixer details" >
     <i type="int" name="IMIX">     4</i>
     <i type="logical" name="MIXFIRST"> F  </i>
     <i type="int" name="MAXMIX">   -45</i>
     <i name="WC">    100.00000000</i>
     <i type="int" name="INIMIX">     1</i>
     <i type="int" name="MIXPRE">     1</i>
     <i type="int" name="MREMOVE">     5</i>
    </separator>
   </separator>
   <separator name="electronic dipolcorrection" >
    <i type="logical" name="LDIPOL"> F  </i>
    <i type="logical" name="LMONO"> F  </i>
    <i type="int" name="IDIPOL">     0</i>
    <i name="EPSILON">      1.00000000</i>
    <v name="DIPOL">   -100.00000000   -100.00000000   -100.00000000</v>
    <i name="EFIELD">      0.00000000</i>
   </separator>
  </separator>
  <separator name="grids" >
   <i type="int" name="NGX">    70</i>
   <i type="int" name="NGY">    70</i>
   <i type="int" name="NGZ">    70</i>
   <i type="int" name="NGXF">   140</i>
   <i type="int" name="NGYF">   140</i>
   <i type="int" name="NGZF">   140</i>
   <i type="logical" name="ADDGRID"> T  </i>
  </separator>
  <separator name="ionic" >
   <i type="int" name="NSW">     0</i>
   <i type="int" name="IBRION">    -1</i>
   <i type="int" name="MDALGO">     0</i>
   <i type="int" name="ISIF">     2</i>
   <i name="PSTRESS">      0.00000000</i>
   <i name="EDIFFG">     -0.01000000</i>
   <i type="int" name="NFREE">     1</i>
   <i name="POTIM">      0.50000000</i>
   <i name="SMASS">     -3.00000000</i>
   <i name="SCALEE">      1.00000000</i>
  </separator>
  <separator name="ionic md" >
   <i name="TEBEG">      0.00010000</i>
   <i name="TEEND">      0.00010000</i>
   <i type="int" name="NBLOCK">     1</i>
   <i type="int" name="KBLOCK">     1</i>
   <i type="int" name="NPACO">   256</i>
   <i name="APACO">     16.00000000</i>
  </separator>
  <separator name="symmetry" >
   <i type="int" name="ISYM">     0</i>
   <i name="SYMPREC">      0.00001000</i>
  </separator>
  <separator name="dos" >
   <i type="int" name="LORBIT">    10</i>
   <v name="RWIGS">     -1.00000000     -1.00000000     -1.00000000     -1.00000000</v>
   <i type="int" name="NEDOS">   301</i>
   <i name="EMIN">     10.00000000</i>
   <i name="EMAX">    -10.00000000</i>
   <i name="EFERMI">      0.00000000</i>
  </separator>
  <separator name="writing" >
   <i type="int" name="NWRITE">     2</i>
   <i type="logical" name="LWAVE"> F  </i>
   <i type="logical" name="LDOWNSAMPLE"> F  </i>
   <i type="logical" name="LCHARG"> F  </i>
   <i type="logical" name="LPARD"> F  </i>
   <i type="logical" name="LVTOT"> F  </i>
   <i type="logical" name="LVHAR"> T  </i>
   <i type="logical" name="LELF"> F  </i>
   <i type="logical" name="LOPTICS"> F  </i>
   <v name="STM">      0.00000000      0.00000000      0.00000000      0.00000000      0.00000000      0.00000000      0.00000000</v>
  </separator>
  <separator name="performance" >
   <i type="int" name="NPAR">     8</i>
   <i type="int" name="NSIM">     4</i>
   <i type="int" name="NBLK">    -1</i>
   <i type="logical" name="LPLANE"> T  </i>
   <i type="logical" name="LSCALAPACK"> T  </i>
   <i type="logical" name="LSCAAWARE"> F  </i>
   <i type="logical" name="LSCALU"> F  </i>
   <i type="logical" name="LASYNC"> F  </i>
   <i type="logical" name="LORBITALREAL"> F  </i>
  </separator>
  <separator name="miscellaneous" >
   <i type="int" name="IDIOT">     3</i>
   <i type="int" name="ISPECIAL">     0</i>
   <i type="logical" name="LMUSIC"> F  </i>
   <v name="POMASS">    132.90000000    207.20000000     79.90400000    132.90000000</v>
   <v name="DARWINR">      0.00000000      0.00000000      0.00000000      0.00000000</v>
   <v name="DARWINV">      1.00000000      1.00000000      1.00000000      1.00000000</v>
   <i type="logical" name="LCORR"> T  </i>
  </separator>
  <i type="logical" name="GGA_COMPAT"> T  </i>
  <i type="logical" name="LBERRY"> F  </i>
  <i type="int" name="ICORELEVEL">     0</i>
  <i type="logical" name="LDAU"> F  </i>
  <i type="int" name="I_CONSTRAINED_M">     0</i>
  <separator name="electronic exchange-correlation" >
   <i type="string" name="GGA">--</i>
   <i type="int" name="VOSKOWN">     0</i>
   <i type="logical" name="LHFCALC"> F  </i>
   <i type="string" name="PRECFOCK"></i>
   <i type="logical" name="LSYMGRAD"> F  </i>
   <i type="logical" name="LHFONE"> F  </i>
   <i type="logical" name="LRHFCALC"> F  </i>
   <i type="logical" name="LTHOMAS"> F  </i>
   <i type="logical" name="LMODELHF"> F  </i>
   <i name="ENCUT4O">     -1.00000000</i>
   <i type="int" name="EXXOEP">     0</i>
   <i type="int" name="FOURORBIT">     0</i>
   <i name="AEXX">      0.00000000</i>
   <i name="HFALPHA">      0.00000000</i>
   <i name="MCALPHA">      0.00000000</i>
   <i name="ALDAX">      1.00000000</i>
   <i name="AGGAX">      1.00000000</i>
   <i name="ALDAC">      1.00000000</i>
   <i name="AGGAC">      1.00000000</i>
   <i type="int" name="NKREDX">     1</i>
   <i type="int" name="NKREDY">     1</i>
   <i type="int" name="NKREDZ">     1</i>
   <i type="logical" name="SHIFTRED"> F  </i>
   <i type="logical" name="ODDONLY"> F  </i>
   <i type="logical" name="EVENONLY"> F  </i>
   <i type="int" name="LMAXFOCK">     0</i>
   <i type="int" name="NMAXFOCKAE">     0</i>
   <i type="logical" name="LFOCKAEDFT"> F  </i>
   <i name="HFSCREEN">      0.00000000</i>
   <i name="HFSCREENC">      0.00000000</i>
   <i type="int" name="NBANDSGWLOW">     0</i>
  </separator>
  <separator name="vdW DFT" >
   <i type="logical" name="LUSE_VDW"> F  </i>
   <i name="Zab_VDW">     -0.84910000</i>
   <i name="PARAM1">      0.12340000</i>
   <i name="PARAM2">      1.00000000</i>
   <i name="PARAM3">      0.00000000</i>
  </separator>
  <separator name="model GW" >
   <i type="int" name="MODEL_GW">     0</i>
   <i name="MODEL_EPS0">     24.61956720</i>
   <i name="MODEL_ALPHA">      1.00000000</i>
  </separator>
  <separator name="linear response parameters" >
   <i type="logical" name="LEPSILON"> F  </i>
   <i type="logical" name="LRPA"> F  </i>
   <i type="logical" name="LNABLA"> F  </i>
   <i type="logical" name="LVEL"> F  </i>
   <i type="int" name="KINTER">     0</i>
   <i name="CSHIFT">      0.10000000</i>
   <i name="OMEGAMAX">     -1.00000000</i>
   <i name="DEG_THRESHOLD">      0.00200000</i>
   <i name="RTIME">     -0.10000000</i>
   <i name="WPLASMAI">      0.00000000</i>
   <v name="DFIELD">      0.00000000      0.00000000      0.00000000</v>
   <v name="WPLASMA">      0.00000000      0.00000000      0.00000000      0.00000000      0.00000000      0.00000000      0.00000000      0.00000000      0.00000000</v>
  </separator>
  <separator name="orbital magnetization" >
   <i type="logical" name="NUCIND"> F  </i>
   <v name="MAGPOS">      0.00000000      0.00000000      0.00000000</v>
   <i type="logical" name="LNICSALL"> T  </i>
   <i type="logical" name="ORBITALMAG"> F  </i>
   <i type="logical" name="LMAGBLOCH"> F  </i>
   <i type="logical" name="LCHIMAG"> F  </i>
   <i type="logical" name="LGAUGE"> T  </i>
   <i type="int" name="MAGATOM">     0</i>
   <v name="MAGDIPOL">      0.00000000      0.00000000      0.00000000</v>
   <v name="AVECCONST">      0.00000000      0.00000000      0.00000000</v>
  </separator>
  <separator name="response functions" >
   <i type="logical" name="LADDER"> F  </i>
   <i type="logical" name="LRPAFORCE"> F  </i>
   <i type="logical" name="LFXC"> F  </i>
   <i type="logical" name="LHARTREE"> T  </i>
   <i type="int" name="IBSE">     0</i>
   <v type="int" name="KPOINT">    -1     0     0     0</v>
   <i type="logical" name="LTCTE"> F  </i>
   <i type="logical" name="LTETE"> F  </i>
   <i type="logical" name="LTRIPLET"> F  </i>
   <i type="logical" name="LFXCEPS"> F  </i>
   <i type="logical" name="LFXHEG"> F  </i>
   <i type="int" name="NATURALO">     2</i>
   <i type="logical" name="L2ORDER"> F  </i>
   <i type="logical" name="LMP2LT"> F  </i>
   <i type="logical" name="LUSEW"> F  </i>
   <i name="ENCUTGW">     -2.00000000</i>
   <i name="ENCUTGWSOFT">     -2.00000000</i>
   <i name="ENCUTLF">     -1.00000000</i>
   <i type="int" name="LMAXMP2">    -1</i>
   <i name="SCISSOR">      0.00000000</i>
   <i type="int" name="NOMEGA">     0</i>
   <i type="int" name="NOMEGAR">     0</i>
   <i type="int" name="NBANDSGW">    -1</i>
   <i type="int" name="NBANDSO">    -1</i>
   <i type="int" name="NBANDSV">    -1</i>
   <i type="int" name="NELM">   200</i>
   <i type="int" name="NELMHF">     1</i>
   <i type="int" name="DIM">     3</i>
   <i type="int" name="ANTIRES">     0</i>
   <i name="OMEGAMAX">    -30.00000000</i>
   <i name="OMEGAMIN">    -30.00000000</i>
   <i name="OMEGATL">   -200.00000000</i>
   <i type="int" name="OMEGAGRID">   140</i>
   <i name="CSHIFT">     -0.10000000</i>
   <i type="logical" name="SELFENERGY"> F  </i>
   <i type="logical" name="LSPECTRAL"> F  </i>
   <i type="logical" name="LSPECTRALGW"> F  </i>
   <i type="logical" name="LSINGLES"> F  </i>
   <i type="logical" name="LFERMIGW"> F  </i>
   <i type="logical" name="ODDONLYGW"> F  </i>
   <i type="logical" name="EVENONLYGW"> F  </i>
   <i type="int" name="NKREDLFX">     1</i>
   <i type="int" name="NKREDLFY">     1</i>
   <i type="int" name="NKREDLFZ">     1</i>
   <i type="int" name="MAXMEM">  2800</i>
   <i type="int" name="TELESCOPE">     0</i>
   <i type="int" name="TAUPAR">     1</i>
   <i type="int" name="OMEGAPAR">    -1</i>
   <i name="LAMBDA">      1.00000000</i>
  </separator>
  <separator name="External order field" >
   <i name="OFIELD_KAPPA">      0.00000000</i>
   <v name="OFIELD_K">      0.00000000      0.00000000      0.00000000</v>
   <i name="OFIELD_Q6_NEAR">      0.00000000</i>
   <i name="OFIELD_Q6_FAR">      0.00000000</i>
   <i name="OFIELD_A">      0.00000000</i>
  </separator>
 </parameters>
 <atominfo>
  <atoms>      39 </atoms>
  <types>       4 </types>
  <array name="atoms" >
   <dimension dim="1">ion</dimension>
   <field type="string">element</field>
   <field type="int">atomtype</field>
   <set>
    <rc><c>Cs</c><c>   1</c></rc>
    <rc><c>Cs</c><c>   1</c></rc>
    <rc><c>Cs</c><c>   1</c></rc>
    <rc><c>Cs</c><c>   1</c></rc>
    <rc><c>Cs</c><c>   1</c></rc>
    <rc><c>Cs</c><c>   1</c></rc>
    <rc><c>Pb</c><c>   2</c></rc>
    <rc><c>Pb</c><c>   2</c></rc>
    <rc><c>Pb</c><c>   2</c></rc>
    <rc><c>Pb</c><c>   2</c></rc>
    <rc><c>Pb</c><c>   2</c></rc>
    <rc><c>Pb</c><c>   2</c></rc>
    <rc><c>Pb</c><c>   2</c></rc>
    <rc><c>Pb</c><c>   2</c></rc>
    <rc><c>Br</c><c>   3</c></rc>
    <rc><c>Br</c><c>   3</c></rc>
    <rc><c>Br</c><c>   3</c></rc>
    <rc><c>Br</c><c>   3</c></rc>
    <rc><c>Br</c><c>   3</c></rc>
    <rc><c>Br</c><c>   3</c></rc>
    <rc><c>Br</c><c>   3</c></rc>
    <rc><c>Br</c><c>   3</c></rc>
    <rc><c>Br</c><c>   3</c></rc>
    <rc><c>Br</c><c>   3</c></rc>
    <rc><c>Br</c><c>   3</c></rc>
    <rc><c>Br</c><c>   3</c></rc>
    <rc><c>Br</c><c>   3</c></rc>
    <rc><c>Br</c><c>   3</c></rc>
    <rc><c>Br</c><c>   3</c></rc>
    <rc><c>Br</c><c>   3</c></rc>
    <rc><c>Br</c><c>   3</c></rc>
    <rc><c>Br</c><c>   3</c></rc>
    <rc><c>Br</c><c>   3</c></rc>
    <rc><c>Br</c><c>   3</c></rc>
    <rc><c>Br</c><c>   3</c></rc>
    <rc><c>Br</c><c>   3</c></rc>
    <rc><c>Br</c><c>   3</c></rc>
    <rc><c>Br</c><c>   3</c></rc>
    <rc><c>Cs</c><c>   4</c></rc>
   </set>
  </array>
  <array name="atomtypes" >
   <dimension dim="1">type</dimension>
   <field type="int">atomspertype</field>
   <field type="string">element</field>
   <field>mass</field>
   <field>valence</field>
   <field type="string">pseudopotential</field>
   <set>
    <rc><c>   6</c><c>Cs</c><c>    132.90000000</c><c>      9.00000000</c><c>  PAW_PBE Cs_sv 08Apr2002               </c></rc>
    <rc><c>   8</c><c>Pb</c><c>    207.20000000</c><c>     14.00000000</c><c>  PAW_PBE Pb_d 06Sep2000                </c></rc>
    <rc><c>  24</c><c>Br</c><c>     79.90400000</c><c>      7.00000000</c><c>  PAW_PBE Br 06Sep2000                  </c></rc>
    <rc><c>   1</c><c>Cs</c><c>    132.90000000</c><c>      9.00000000</c><c>  PAW_PBE Cs_sv 08Apr2002               </c></rc>
   </set>
  </array>
 </atominfo>
 <structure name="initialpos" >
  <crystal>
   <varray name="basis" >
    <v>       8.42001800       0.00000000       8.07798100 </v>
    <v>       0.00000000      11.76380800       0.00000000 </v>
    <v>      -8.42001800       0.00000000       8.07798100 </v>
   </varray>
   <i name="volume">   1600.27186790 </i>
   <varray name="rec_basis" >
    <v>       0.05938230      -0.00000000       0.06189665 </v>
    <v>       0.00000000       0.08500649      -0.00000000 </v>
    <v>      -0.05938230       0.00000000       0.06189665 </v>
   </varray>
  </crystal>
  <varray name="positions" >
   <v>       0.27046400       0.24931100       0.20183800 </v>
   <v>       0.77258400       0.24862600       0.72127700 </v>
   <v>       0.20772800       0.75436100       0.76542100 </v>
   <v>       0.29237100       0.24582600       0.73454300 </v>
   <v>       0.72745000       0.75127800       0.77904400 </v>
   <v>       0.22956200       0.75069900       0.29826300 </v>
   <v>       0.99748700       0.99800300       0.00512700 </v>
   <v>       0.50257200       0.00201300       0.49485700 </v>
   <v>       0.50318000       0.99766500       0.00059400 </v>
   <v>       0.99674500       0.00242300       0.49939600 </v>
   <v>       0.50019800       0.50195500       0.99736300 </v>
   <v>       0.99970800       0.49817200       0.50264100 </v>
   <v>       0.00008800       0.50090700       0.00256800 </v>
   <v>       0.49993100       0.49923700       0.49741400 </v>
   <v>       0.46539100       0.74928700       0.94880300 </v>
   <v>       0.97099900       0.75005400       0.47169000 </v>
   <v>       0.97529900       0.24984300       0.96962200 </v>
   <v>       0.44888400       0.25050000       0.46948800 </v>
   <v>       0.05131500       0.74961800       0.03054000 </v>
   <v>       0.52484700       0.75027200       0.53035900 </v>
   <v>       0.52879600       0.25003000       0.02811100 </v>
   <v>       0.03466900       0.25082800       0.55128400 </v>
   <v>       0.24843600       0.46539400       0.94875500 </v>
   <v>       0.74822300       0.45883800       0.47338800 </v>
   <v>       0.44308900       0.52974600       0.24619500 </v>
   <v>       0.95796300       0.54181900       0.75019100 </v>
   <v>       0.54787200       0.03453000       0.75035700 </v>
   <v>       0.05779900       0.03003900       0.25383700 </v>
   <v>       0.75275200       0.94921500       0.04071700 </v>
   <v>       0.25043300       0.96896800       0.54900900 </v>
   <v>       0.24957500       0.03117300       0.95094100 </v>
   <v>       0.74722300       0.05069500       0.45926700 </v>
   <v>       0.44209300       0.97013800       0.24614800 </v>
   <v>       0.95194200       0.96537500       0.74967700 </v>
   <v>       0.75184400       0.54070500       0.02650900 </v>
   <v>       0.25161100       0.53469300       0.55126700 </v>
   <v>       0.54202400       0.45850900       0.74982300 </v>
   <v>       0.05691700       0.47020800       0.25377900 </v>
   <v>       0.74988600       0.49933100       0.24991900 </v>
  </varray>
 </structure>
 <calculation>
  <scstep>
   <time name="dav">   16.86   16.87</time>
   <time name="total">   18.34   18.35</time>
   <energy>
    <i name="alphaZ">    835.99855037 </i>
    <i name="ewald"> -17358.82666551 </i>
    <i name="hartreedc">  -7759.50554871 </i>
    <i name="XCdc">    906.18122088 </i>
    <i name="pawpsdc">  21217.07306836 </i>
    <i name="pawaedc"> -22257.58625956 </i>
    <i name="eentropy">     -0.00144293 </i>
    <i name="bandstr">   -240.86497567 </i>
    <i name="atom">  26024.88362379 </i>
    <i name="e_fr_energy">   1367.35157102 </i>
    <i name="e_wo_entrp">   1367.35301395 </i>
    <i name="e_0_energy">   1367.35229249 </i>
   </energy>
  </scstep>
  <scstep>
   <time name="dav">   18.81   18.86</time>
   <time name="total">   18.81   18.86</time>
   <energy>
    <i name="e_fr_energy">  -1087.59043109 </i>
    <i name="e_wo_entrp">  -1087.59043109 </i>
    <i name="e_0_energy">  -1087.59043109 </i>
   </energy>
  </scstep>
  <scstep>
   <time name="dav">   19.59   19.61</time>
   <time name="total">   19.59   19.61</time>
   <energy>
    <i name="e_fr_energy">  -1450.02862066 </i>
    <i name="e_wo_entrp">  -1450.02862066 </i>
    <i name="e_0_energy">  -1450.02862066 </i>
   </energy>
  </scstep>
  <scstep>
   <time name="dav">   18.35   18.38</time>
   <time name="total">   18.35   18.39</time>
   <energy>
    <i name="e_fr_energy">  -1462.47453991 </i>
    <i name="e_wo_entrp">  -1462.47453991 </i>
    <i name="e_0_energy">  -1462.47453991 </i>
   </energy>
  </scstep>
  <scstep>
   <time name="dav">   19.55   19.61</time>
   <time name="total">   22.29   22.34</time>
   <energy>
    <i name="e_fr_energy">  -1463.00647531 </i>
    <i name="e_wo_entrp">  -1463.00647531 </i>
    <i name="e_0_energy">  -1463.00647531 </i>
   </energy>
  </scstep>
  <scstep>
   <time name="dav">   19.48   19.48</time>
   <time name="total">   23.69   23.71</time>
   <energy>
    <i name="e_fr_energy">  -1383.82676051 </i>
    <i name="e_wo_entrp">  -1383.82676051 </i>
    <i name="e_0_energy">  -1383.82676051 </i>
   </energy>
  </scstep>
  <scstep>
   <time name="dav">   18.75   18.75</time>
   <time name="total">   22.95   23.00</time>
   <energy>
    <i name="e_fr_energy">  -1383.43398494 </i>
    <i name="e_wo_entrp">  -1383.43398494 </i>
    <i name="e_0_energy">  -1383.43398494 </i>
   </energy>
  </scstep>
  <scstep>
   <time name="dav">   18.16   18.16</time>
   <time name="total">   22.34   22.41</time>
   <energy>
    <i name="e_fr_energy">  -1383.61748741 </i>
    <i name="e_wo_entrp">  -1383.61748741 </i>
    <i name="e_0_energy">  -1383.61748741 </i>
   </energy>
  </scstep>
  <scstep>
   <time name="dav">   17.39   17.39</time>
   <time name="total">   21.58   21.64</time>
   <energy>
    <i name="e_fr_energy">  -1383.69923342 </i>
    <i name="e_wo_entrp">  -1383.69923342 </i>
    <i name="e_0_energy">  -1383.69923342 </i>
   </energy>
  </scstep>
  <scstep>
   <time name="dav">   20.53   20.53</time>
   <time name="total">   24.73   24.78</time>
   <energy>
    <i name="e_fr_energy">  -1383.70217581 </i>
    <i name="e_wo_entrp">  -1383.70217581 </i>
    <i name="e_0_energy">  -1383.70217581 </i>
   </energy>
  </scstep>
  <scstep>
   <time name="dav">   17.61   17.61</time>
   <time name="total">   21.82   21.85</time>
   <energy>
    <i name="e_fr_energy">  -1383.70566029 </i>
    <i name="e_wo_entrp">  -1383.70566029 </i>
    <i name="e_0_energy">  -1383.70566029 </i>
   </energy>
  </scstep>
  <scstep>
   <time name="dav">   17.46   17.46</time>
   <time name="total">   21.65   21.70</time>
   <energy>
    <i name="e_fr_energy">  -1383.70759714 </i>
    <i name="e_wo_entrp">  -1383.70759714 </i>
    <i name="e_0_energy">  -1383.70759714 </i>
   </energy>
  </scstep>
  <scstep>
   <time name="dav">   20.10   20.10</time>
   <time name="total">   24.31   24.35</time>
   <energy>
    <i name="e_fr_energy">  -1383.70743359 </i>
    <i name="e_wo_entrp">  -1383.70743359 </i>
    <i name="e_0_energy">  -1383.70743359 </i>
   </energy>
  </scstep>
  <scstep>
   <time name="dav">   17.91   17.91</time>
   <time name="total">   22.13   22.16</time>
   <energy>
    <i name="e_fr_energy">  -1383.70746765 </i>
    <i name="e_wo_entrp">  -1383.70746765 </i>
    <i name="e_0_energy">  -1383.70746765 </i>
   </energy>
  </scstep>
  <scstep>
   <time name="dav">   17.49   17.49</time>
   <time name="total">   21.69   21.74</time>
   <energy>
    <i name="e_fr_energy">  -1383.70746888 </i>
    <i name="e_wo_entrp">  -1383.70746888 </i>
    <i name="e_0_energy">  -1383.70746888 </i>
   </energy>
  </scstep>
  <scstep>
   <time name="dav">   17.54   17.54</time>
   <time name="total">   21.78   21.79</time>
   <energy>
    <i name="e_fr_energy">  -1383.70751113 </i>
    <i name="e_wo_entrp">  -1383.70751113 </i>
    <i name="e_0_energy">  -1383.70751113 </i>
   </energy>
  </scstep>
  <scstep>
   <time name="dav">   16.67   16.67</time>
   <time name="total">   20.89   20.91</time>
   <energy>
    <i name="e_fr_energy">  -1383.70751812 </i>
    <i name="e_wo_entrp">  -1383.70751812 </i>
    <i name="e_0_energy">  -1383.70751812 </i>
   </energy>
  </scstep>
  <scstep>
   <time name="dav">   13.51   13.51</time>
   <time name="total">   17.73   17.75</time>
   <energy>
    <i name="e_fr_energy">  -1383.70751652 </i>
    <i name="e_wo_entrp">  -1383.70751652 </i>
    <i name="e_0_energy">  -1383.70751652 </i>
   </energy>
  </scstep>
  <scstep>
   <time name="dav">   13.71   13.72</time>
   <time name="total">   17.93   18.09</time>
   <energy>
    <i name="e_fr_energy">  -1383.70752267 </i>
    <i name="e_wo_entrp">  -1383.70752267 </i>
    <i name="e_0_energy">  -1383.70752267 </i>
   </energy>
  </scstep>
  <scstep>
   <time name="dav">   13.72   13.72</time>
   <time name="total">   17.95   17.97</time>
   <energy>
    <i name="e_fr_energy">  -1383.70751913 </i>
    <i name="e_wo_entrp">  -1383.70751913 </i>
    <i name="e_0_energy">  -1383.70751913 </i>
   </energy>
  </scstep>
  <scstep>
   <time name="dav">   13.06   13.06</time>
   <time name="total">   14.57   14.60</time>
   <energy>
    <i name="alphaZ">    835.99855037 </i>
    <i name="ewald"> -17358.82666551 </i>
    <i name="hartreedc">  -7795.45302559 </i>
    <i name="XCdc">    948.18030490 </i>
    <i name="pawpsdc">  22909.62097267 </i>
    <i name="pawaedc"> -23949.17496181 </i>
    <i name="eentropy">     -0.00000000 </i>
    <i name="bandstr">  -2998.93631815 </i>
    <i name="atom">  26024.88362379 </i>
    <i name="e_fr_energy">  -1383.70751934 </i>
    <i name="e_wo_entrp">  -1383.70751934 </i>
    <i name="e_0_energy">  -1383.70751934 </i>
   </energy>
  </scstep>
  <structure>
   <crystal>
    <varray name="basis" >
     <v>       8.42001800       0.00000000       8.07798100 </v>
     <v>       0.00000000      11.76380800       0.00000000 </v>
     <v>      -8.42001800       0.00000000       8.07798100 </v>
    </varray>
    <i name="volume">   1600.27186790 </i>
    <varray name="rec_basis" >
     <v>       0.05938230      -0.00000000       0.06189665 </v>
     <v>       0.00000000       0.08500649      -0.00000000 </v>
     <v>      -0.05938230       0.00000000       0.06189665 </v>
    </varray>
   </crystal>
   <varray name="positions" >
    <v>       0.27046400       0.24931100       0.20183800 </v>
    <v>       0.77258400       0.24862600       0.72127700 </v>
    <v>       0.20772800       0.75436100       0.76542100 </v>
    <v>       0.29237100       0.24582600       0.73454300 </v>
    <v>       0.72745000       0.75127800       0.77904400 </v>
    <v>       0.22956200       0.75069900       0.29826300 </v>
    <v>       0.99748700       0.99800300       0.00512700 </v>
    <v>       0.50257200       0.00201300       0.49485700 </v>
    <v>       0.50318000       0.99766500       0.00059400 </v>
    <v>       0.99674500       0.00242300       0.49939600 </v>
    <v>       0.50019800       0.50195500       0.99736300 </v>
    <v>       0.99970800       0.49817200       0.50264100 </v>
    <v>       0.00008800       0.50090700       0.00256800 </v>
    <v>       0.49993100       0.49923700       0.49741400 </v>
    <v>       0.46539100       0.74928700       0.94880300 </v>
    <v>       0.97099900       0.75005400       0.47169000 </v>
    <v>       0.97529900       0.24984300       0.96962200 </v>
    <v>       0.44888400       0.25050000       0.46948800 </v>
    <v>       0.05131500       0.74961800       0.03054000 </v>
    <v>       0.52484700       0.75027200       0.53035900 </v>
    <v>       0.52879600       0.25003000       0.02811100 </v>
    <v>       0.03466900       0.25082800       0.55128400 </v>
    <v>       0.24843600       0.46539400       0.94875500 </v>
    <v>       0.74822300       0.45883800       0.47338800 </v>
    <v>       0.44308900       0.52974600       0.24619500 </v>
    <v>       0.95796300       0.54181900       0.75019100 </v>
    <v>       0.54787200       0.03453000       0.75035700 </v>
    <v>       0.05779900       0.03003900       0.25383700 </v>
    <v>       0.75275200       0.94921500       0.04071700 </v>
    <v>       0.25043300       0.96896800       0.54900900 </v>
    <v>       0.24957500       0.03117300       0.95094100 </v>
    <v>       0.74722300       0.05069500       0.45926700 </v>
    <v>       0.44209300       0.97013800       0.24614800 </v>
    <v>       0.95194200       0.96537500       0.74967700 </v>
    <v>       0.75184400       0.54070500       0.02650900 </v>
    <v>       0.25161100       0.53469300       0.55126700 </v>
    <v>       0.54202400       0.45850900       0.74982300 </v>
    <v>       0.05691700       0.47020800       0.25377900 </v>
    <v>       0.74988600       0.49933100       0.24991900 </v>
   </varray>
  </structure>
  <varray name="forces" >
   <v>       0.01737270      -0.08585102      -0.01711443 </v>
   <v>      -0.00042158      -0.05732547       0.01212575 </v>
   <v>      -0.00688439       0.04030488      -0.01611174 </v>
   <v>       0.00644836      -0.04026428       0.01619267 </v>
   <v>       0.00164303       0.05856131      -0.01616573 </v>
   <v>      -0.01746888       0.08593561       0.01671974 </v>
   <v>      -0.15131450       0.05301264       0.01030954 </v>
   <v>       0.14930464      -0.05253953      -0.01206746 </v>
   <v>       0.01216626      -0.01958672       0.14687824 </v>
   <v>      -0.01255452       0.01757287      -0.14479738 </v>
   <v>      -0.09710713      -0.05129424      -0.45163478 </v>
   <v>       0.09818095       0.05247474       0.45257146 </v>
   <v>       0.43855525      -0.07334229       0.04001839 </v>
   <v>      -0.43786741       0.07217944      -0.03892144 </v>
   <v>       0.00752984      -0.09222095      -0.00453801 </v>
   <v>       0.00522983      -0.13753647      -0.03262108 </v>
   <v>      -0.01329541       0.11838633       0.01257469 </v>
   <v>      -0.00015156       0.10249893      -0.00306614 </v>
   <v>       0.00014328      -0.10201038       0.00257835 </v>
   <v>       0.01309096      -0.11854076      -0.01184420 </v>
   <v>      -0.00430990       0.13874561       0.03368161 </v>
   <v>      -0.00910117       0.09151772       0.00346618 </v>
   <v>       0.00739789       0.01456711       0.02550262 </v>
   <v>      -3.74992592      -1.03283741       3.49880734 </v>
   <v>       0.00414970      -0.03237805      -0.00039165 </v>
   <v>       0.01552061      -0.02761272      -0.00854147 </v>
   <v>       0.00123309       0.01391845      -0.00724109 </v>
   <v>       0.04084132      -0.03593454       0.03590081 </v>
   <v>       0.04948178      -0.04622471      -0.02763809 </v>
   <v>      -0.01523659       0.00480448       0.01616246 </v>
   <v>       0.01434258      -0.00519235      -0.01719220 </v>
   <v>      -0.04773418       0.04832227       0.02852785 </v>
   <v>      -0.04209644       0.03406544      -0.03428712 </v>
   <v>       0.00057264      -0.01353044       0.00728444 </v>
   <v>       3.73653683       1.05384969      -3.47742996 </v>
   <v>      -0.00614028      -0.01518647      -0.02599581 </v>
   <v>      -0.01385763       0.02501135       0.00788536 </v>
   <v>      -0.00689680       0.03338419       0.00072323 </v>
   <v>       0.01262275      -0.01970425      -0.02031096 </v>
  </varray>
  <varray name="stress" >
   <v>      21.08928806       3.78500265     -13.35474820 </v>
   <v>       3.78482231       4.06196952      -3.92224310 </v>
   <v>     -13.35477272      -3.92243363      20.26285248 </v>
  </varray>
  <energy>
   <i name="e_fr_energy">  -1383.70751934 </i>
   <i name="e_wo_entrp">  -1383.70751934 </i>
   <i name="e_0_energy">     -0.00000000 </i>
  </energy>
  <time name="totalsc">  490.48  491.41</time>
  <eigenvalues>
   <array>
    <dimension dim="1">band</dimension>
    <dimension dim="2">kpoint</dimension>
    <dimension dim="3">spin</dimension>
    <field>eigene</field>
    <field>occ</field>
    <set>
     <set comment="spin 1">
      <set comment="kpoint 1">
       <r>  -21.1028    1.0000 </r>
       <r>  -20.9877    1.0000 </r>
       <r>  -20.9860    1.0000 </r>
       <r>  -20.9782    1.0000 </r>
       <r>  -20.9754    1.0000 </r>
       <r>  -20.9361    1.0000 </r>
       <r>  -20.9346    1.0000 </r>
       <r>  -16.8979    1.0000 </r>
       <r>  -16.8914    1.0000 </r>
       <r>  -16.8566    1.0000 </r>
       <r>  -16.8364    1.0000 </r>
       <r>  -16.8117    1.0000 </r>
       <r>  -16.8099    1.0000 </r>
       <r>  -16.7948    1.0000 </r>
       <r>  -16.7939    1.0000 </r>
       <r>  -16.7473    1.0000 </r>
       <r>  -16.7471    1.0000 </r>
       <r>  -16.7286    1.0000 </r>
       <r>  -16.7286    1.0000 </r>
       <r>  -16.7258    1.0000 </r>
       <r>  -16.7249    1.0000 </r>
       <r>  -16.7129    1.0000 </r>
       <r>  -16.7128    1.0000 </r>
       <r>  -16.7063    1.0000 </r>
       <r>  -16.7056    1.0000 </r>
       <r>  -16.6960    1.0000 </r>
       <r>  -16.6952    1.0000 </r>
       <r>  -16.5509    1.0000 </r>
       <r>  -16.5473    1.0000 </r>
       <r>  -16.5377    1.0000 </r>
       <r>  -16.5365    1.0000 </r>
       <r>  -16.5109    1.0000 </r>
       <r>  -16.4958    1.0000 </r>
       <r>  -16.4869    1.0000 </r>
       <r>  -16.4648    1.0000 </r>
       <r>  -16.4282    1.0000 </r>
       <r>  -16.4274    1.0000 </r>
       <r>  -16.4173    1.0000 </r>
       <r>  -16.4166    1.0000 </r>
       <r>  -16.4111    1.0000 </r>
       <r>  -16.4108    1.0000 </r>
       <r>  -16.4072    1.0000 </r>
       <r>  -16.4065    1.0000 </r>
       <r>  -16.4061    1.0000 </r>
       <r>  -16.4059    1.0000 </r>
       <r>  -16.3931    1.0000 </r>
       <r>  -16.3929    1.0000 </r>
       <r>  -15.1560    1.0000 </r>
       <r>  -14.7627    1.0000 </r>
       <r>  -14.5464    1.0000 </r>
       <r>  -14.5088    1.0000 </r>
       <r>  -14.4188    1.0000 </r>
       <r>  -14.3785    1.0000 </r>
       <r>  -14.3592    1.0000 </r>
       <r>  -14.2860    1.0000 </r>
       <r>  -14.1848    1.0000 </r>
       <r>  -14.1789    1.0000 </r>
       <r>  -14.1733    1.0000 </r>
       <r>  -14.1579    1.0000 </r>
       <r>  -14.1419    1.0000 </r>
       <r>  -14.1235    1.0000 </r>
       <r>  -14.1014    1.0000 </r>
       <r>  -14.0701    1.0000 </r>
       <r>  -14.0580    1.0000 </r>
       <r>  -14.0339    1.0000 </r>
       <r>  -13.9585    1.0000 </r>
       <r>  -13.9531    1.0000 </r>
       <r>  -13.8678    1.0000 </r>
       <r>  -13.8514    1.0000 </r>
       <r>  -13.7388    1.0000 </r>
       <r>  -13.6785    1.0000 </r>
       <r>   -8.4827    1.0000 </r>
       <r>   -8.1568    1.0000 </r>
       <r>   -8.1143    1.0000 </r>
       <r>   -7.8645    1.0000 </r>
       <r>   -7.8562    1.0000 </r>
       <r>   -7.5563    1.0000 </r>
       <r>   -7.4945    1.0000 </r>
       <r>   -7.4508    1.0000 </r>
       <r>   -7.4085    1.0000 </r>
       <r>   -7.4065    1.0000 </r>
       <r>   -7.4054    1.0000 </r>
       <r>   -7.3916    1.0000 </r>
       <r>   -7.3904    1.0000 </r>
       <r>   -7.3881    1.0000 </r>
       <r>   -7.3792    1.0000 </r>
       <r>   -7.3779    1.0000 </r>
       <r>   -7.3717    1.0000 </r>
       <r>   -7.3702    1.0000 </r>
       <r>   -7.3622    1.0000 </r>
       <r>   -7.3542    1.0000 </r>
       <r>   -7.3485    1.0000 </r>
       <r>   -7.3462    1.0000 </r>
       <r>   -7.3369    1.0000 </r>
       <r>   -7.3345    1.0000 </r>
       <r>   -7.3312    1.0000 </r>
       <r>   -7.3142    1.0000 </r>
       <r>   -7.2696    1.0000 </r>
       <r>   -7.2402    1.0000 </r>
       <r>   -6.7500    1.0000 </r>
       <r>   -3.7674    1.0000 </r>
       <r>   -3.6526    1.0000 </r>
       <r>   -3.5769    1.0000 </r>
       <r>   -3.5219    1.0000 </r>
       <r>   -3.4454    1.0000 </r>
       <r>   -3.3904    1.0000 </r>
       <r>   -3.3849    1.0000 </r>
       <r>   -3.2620    1.0000 </r>
       <r>   -3.2193    1.0000 </r>
       <r>   -3.1683    1.0000 </r>
       <r>   -3.1602    1.0000 </r>
       <r>   -3.0218    1.0000 </r>
       <r>   -2.6409    1.0000 </r>
       <r>   -2.4484    1.0000 </r>
       <r>   -2.3875    1.0000 </r>
       <r>   -2.3406    1.0000 </r>
       <r>   -2.2657    1.0000 </r>
       <r>   -2.2320    1.0000 </r>
       <r>   -2.1479    1.0000 </r>
       <r>   -2.0983    1.0000 </r>
       <r>   -2.0430    1.0000 </r>
       <r>   -1.9746    1.0000 </r>
       <r>   -1.9502    1.0000 </r>
       <r>   -1.9363    1.0000 </r>
       <r>   -1.9137    1.0000 </r>
       <r>   -1.9073    1.0000 </r>
       <r>   -1.8971    1.0000 </r>
       <r>   -1.7929    1.0000 </r>
       <r>   -1.7581    1.0000 </r>
       <r>   -1.7217    1.0000 </r>
       <r>   -1.6902    1.0000 </r>
       <r>   -1.6808    1.0000 </r>
       <r>   -1.6710    1.0000 </r>
       <r>   -1.6699    1.0000 </r>
       <r>   -1.6203    1.0000 </r>
       <r>   -1.6142    1.0000 </r>
       <r>   -1.5820    1.0000 </r>
       <r>   -1.5682    1.0000 </r>
       <r>   -1.5652    1.0000 </r>
       <r>   -1.5630    1.0000 </r>
       <r>   -1.5492    1.0000 </r>
       <r>   -1.5232    1.0000 </r>
       <r>   -1.5072    1.0000 </r>
       <r>   -1.5019    1.0000 </r>
       <r>   -1.5012    1.0000 </r>
       <r>   -1.4565    1.0000 </r>
       <r>   -1.4340    1.0000 </r>
       <r>   -1.4163    1.0000 </r>
       <r>   -1.4054    1.0000 </r>
       <r>   -1.3927    1.0000 </r>
       <r>   -1.3721    1.0000 </r>
       <r>   -1.3266    1.0000 </r>
       <r>   -1.3183    1.0000 </r>
       <r>   -1.3087    1.0000 </r>
       <r>   -1.2974    1.0000 </r>
       <r>   -1.2707    1.0000 </r>
       <r>   -1.2555    1.0000 </r>
       <r>   -1.1934    1.0000 </r>
       <r>   -1.1025    1.0000 </r>
       <r>   -1.0917    1.0000 </r>
       <r>   -1.0861    1.0000 </r>
       <r>   -1.0284    1.0000 </r>
       <r>   -1.0231    1.0000 </r>
       <r>   -0.9567    1.0000 </r>
       <r>   -0.8838    1.0000 </r>
       <r>   -0.8504    1.0000 </r>
       <r>   -0.7319    1.0000 </r>
       <r>   -0.4395    1.0000 </r>
       <r>   -0.3730    1.0000 </r>
       <r>   -0.2808    1.0000 </r>
       <r>   -0.1411    1.0000 </r>
       <r>    0.2590    1.0000 </r>
       <r>    2.4388    0.0000 </r>
       <r>    2.5867    0.0000 </r>
       <r>    2.6165    0.0000 </r>
       <r>    2.7534    0.0000 </r>
       <r>    2.8655    0.0000 </r>
       <r>    2.8855    0.0000 </r>
       <r>    2.9304    0.0000 </r>
       <r>    2.9692    0.0000 </r>
       <r>    3.1663    0.0000 </r>
       <r>    3.3078    0.0000 </r>
       <r>    3.3840    0.0000 </r>
       <r>    3.4224    0.0000 </r>
       <r>    4.7438    0.0000 </r>
       <r>    4.8329    0.0000 </r>
       <r>    5.3097    0.0000 </r>
       <r>    5.4146    0.0000 </r>
       <r>    5.5561    0.0000 </r>
       <r>    5.5590    0.0000 </r>
       <r>    5.6107    0.0000 </r>
       <r>    5.7556    0.0000 </r>
       <r>    5.7998    0.0000 </r>
       <r>    5.8609    0.0000 </r>
       <r>    5.9034    0.0000 </r>
       <r>    5.9531    0.0000 </r>
       <r>    6.0318    0.0000 </r>
       <r>    6.0822    0.0000 </r>
       <r>    6.0943    0.0000 </r>
       <r>    6.1227    0.0000 </r>
       <r>    6.2160    0.0000 </r>
       <r>    6.2328    0.0000 </r>
       <r>    6.2431    0.0000 </r>
       <r>    6.2703    0.0000 </r>
       <r>    6.3551    0.0000 </r>
       <r>    6.3600    0.0000 </r>
       <r>    6.4762    0.0000 </r>
       <r>    6.5210    0.0000 </r>
      </set>
      <set comment="kpoint 2">
       <r>  -21.1028    1.0000 </r>
       <r>  -20.9877    1.0000 </r>
       <r>  -20.9860    1.0000 </r>
       <r>  -20.9781    1.0000 </r>
       <r>  -20.9754    1.0000 </r>
       <r>  -20.9361    1.0000 </r>
       <r>  -20.9346    1.0000 </r>
       <r>  -16.8786    1.0000 </r>
       <r>  -16.8738    1.0000 </r>
       <r>  -16.8597    1.0000 </r>
       <r>  -16.8394    1.0000 </r>
       <r>  -16.8273    1.0000 </r>
       <r>  -16.8260    1.0000 </r>
       <r>  -16.7953    1.0000 </r>
       <r>  -16.7946    1.0000 </r>
       <r>  -16.7474    1.0000 </r>
       <r>  -16.7472    1.0000 </r>
       <r>  -16.7286    1.0000 </r>
       <r>  -16.7286    1.0000 </r>
       <r>  -16.7258    1.0000 </r>
       <r>  -16.7249    1.0000 </r>
       <r>  -16.7129    1.0000 </r>
       <r>  -16.7128    1.0000 </r>
       <r>  -16.7063    1.0000 </r>
       <r>  -16.7056    1.0000 </r>
       <r>  -16.6960    1.0000 </r>
       <r>  -16.6952    1.0000 </r>
       <r>  -16.5482    1.0000 </r>
       <r>  -16.5479    1.0000 </r>
       <r>  -16.5229    1.0000 </r>
       <r>  -16.5220    1.0000 </r>
       <r>  -16.5128    1.0000 </r>
       <r>  -16.5095    1.0000 </r>
       <r>  -16.4857    1.0000 </r>
       <r>  -16.4828    1.0000 </r>
       <r>  -16.4283    1.0000 </r>
       <r>  -16.4274    1.0000 </r>
       <r>  -16.4172    1.0000 </r>
       <r>  -16.4166    1.0000 </r>
       <r>  -16.4111    1.0000 </r>
       <r>  -16.4109    1.0000 </r>
       <r>  -16.4073    1.0000 </r>
       <r>  -16.4066    1.0000 </r>
       <r>  -16.4061    1.0000 </r>
       <r>  -16.4058    1.0000 </r>
       <r>  -16.3932    1.0000 </r>
       <r>  -16.3930    1.0000 </r>
       <r>  -15.1539    1.0000 </r>
       <r>  -14.7577    1.0000 </r>
       <r>  -14.5931    1.0000 </r>
       <r>  -14.4799    1.0000 </r>
       <r>  -14.4326    1.0000 </r>
       <r>  -14.3571    1.0000 </r>
       <r>  -14.3246    1.0000 </r>
       <r>  -14.2605    1.0000 </r>
       <r>  -14.2090    1.0000 </r>
       <r>  -14.1893    1.0000 </r>
       <r>  -14.1775    1.0000 </r>
       <r>  -14.1684    1.0000 </r>
       <r>  -14.1552    1.0000 </r>
       <r>  -14.1449    1.0000 </r>
       <r>  -14.1015    1.0000 </r>
       <r>  -14.0836    1.0000 </r>
       <r>  -14.0529    1.0000 </r>
       <r>  -14.0416    1.0000 </r>
       <r>  -13.9199    1.0000 </r>
       <r>  -13.9140    1.0000 </r>
       <r>  -13.8657    1.0000 </r>
       <r>  -13.8363    1.0000 </r>
       <r>  -13.7549    1.0000 </r>
       <r>  -13.7083    1.0000 </r>
       <r>   -8.2941    1.0000 </r>
       <r>   -8.2791    1.0000 </r>
       <r>   -8.0121    1.0000 </r>
       <r>   -7.9386    1.0000 </r>
       <r>   -7.7212    1.0000 </r>
       <r>   -7.6605    1.0000 </r>
       <r>   -7.6080    1.0000 </r>
       <r>   -7.4902    1.0000 </r>
       <r>   -7.4554    1.0000 </r>
       <r>   -7.4029    1.0000 </r>
       <r>   -7.4021    1.0000 </r>
       <r>   -7.3952    1.0000 </r>
       <r>   -7.3936    1.0000 </r>
       <r>   -7.3871    1.0000 </r>
       <r>   -7.3850    1.0000 </r>
       <r>   -7.3807    1.0000 </r>
       <r>   -7.3758    1.0000 </r>
       <r>   -7.3683    1.0000 </r>
       <r>   -7.3661    1.0000 </r>
       <r>   -7.3579    1.0000 </r>
       <r>   -7.3503    1.0000 </r>
       <r>   -7.3416    1.0000 </r>
       <r>   -7.3392    1.0000 </r>
       <r>   -7.3295    1.0000 </r>
       <r>   -7.3250    1.0000 </r>
       <r>   -7.3195    1.0000 </r>
       <r>   -7.3119    1.0000 </r>
       <r>   -7.0460    1.0000 </r>
       <r>   -7.0452    1.0000 </r>
       <r>   -3.6123    1.0000 </r>
       <r>   -3.5170    1.0000 </r>
       <r>   -3.4220    1.0000 </r>
       <r>   -3.4076    1.0000 </r>
       <r>   -3.3204    1.0000 </r>
       <r>   -3.3178    1.0000 </r>
       <r>   -3.2083    1.0000 </r>
       <r>   -3.1800    1.0000 </r>
       <r>   -3.1352    1.0000 </r>
       <r>   -2.9334    1.0000 </r>
       <r>   -2.9132    1.0000 </r>
       <r>   -2.7095    1.0000 </r>
       <r>   -2.5530    1.0000 </r>
       <r>   -2.4875    1.0000 </r>
       <r>   -2.4439    1.0000 </r>
       <r>   -2.3784    1.0000 </r>
       <r>   -2.3510    1.0000 </r>
       <r>   -2.3422    1.0000 </r>
       <r>   -2.3017    1.0000 </r>
       <r>   -2.2531    1.0000 </r>
       <r>   -2.2486    1.0000 </r>
       <r>   -2.1866    1.0000 </r>
       <r>   -2.1475    1.0000 </r>
       <r>   -2.0689    1.0000 </r>
       <r>   -1.9457    1.0000 </r>
       <r>   -1.9095    1.0000 </r>
       <r>   -1.8959    1.0000 </r>
       <r>   -1.8782    1.0000 </r>
       <r>   -1.8756    1.0000 </r>
       <r>   -1.8050    1.0000 </r>
       <r>   -1.7614    1.0000 </r>
       <r>   -1.6918    1.0000 </r>
       <r>   -1.6881    1.0000 </r>
       <r>   -1.6813    1.0000 </r>
       <r>   -1.6292    1.0000 </r>
       <r>   -1.6236    1.0000 </r>
       <r>   -1.6000    1.0000 </r>
       <r>   -1.5785    1.0000 </r>
       <r>   -1.5784    1.0000 </r>
       <r>   -1.5594    1.0000 </r>
       <r>   -1.5355    1.0000 </r>
       <r>   -1.5305    1.0000 </r>
       <r>   -1.5106    1.0000 </r>
       <r>   -1.5079    1.0000 </r>
       <r>   -1.4938    1.0000 </r>
       <r>   -1.4792    1.0000 </r>
       <r>   -1.4581    1.0000 </r>
       <r>   -1.4191    1.0000 </r>
       <r>   -1.4110    1.0000 </r>
       <r>   -1.3964    1.0000 </r>
       <r>   -1.3762    1.0000 </r>
       <r>   -1.3737    1.0000 </r>
       <r>   -1.3361    1.0000 </r>
       <r>   -1.3155    1.0000 </r>
       <r>   -1.2689    1.0000 </r>
       <r>   -1.2423    1.0000 </r>
       <r>   -1.1890    1.0000 </r>
       <r>   -1.1702    1.0000 </r>
       <r>   -1.1275    1.0000 </r>
       <r>   -1.1113    1.0000 </r>
       <r>   -1.0764    1.0000 </r>
       <r>   -1.0238    1.0000 </r>
       <r>   -1.0206    1.0000 </r>
       <r>   -0.9953    1.0000 </r>
       <r>   -0.9682    1.0000 </r>
       <r>   -0.8067    1.0000 </r>
       <r>   -0.8064    1.0000 </r>
       <r>   -0.6703    1.0000 </r>
       <r>   -0.6052    1.0000 </r>
       <r>   -0.2701    1.0000 </r>
       <r>   -0.1386    1.0000 </r>
       <r>   -0.1173    1.0000 </r>
       <r>    2.7111    0.0000 </r>
       <r>    2.7118    0.0000 </r>
       <r>    2.7451    0.0000 </r>
       <r>    2.7489    0.0000 </r>
       <r>    3.0566    0.0000 </r>
       <r>    3.0770    0.0000 </r>
       <r>    3.2063    0.0000 </r>
       <r>    3.2528    0.0000 </r>
       <r>    3.9160    0.0000 </r>
       <r>    3.9226    0.0000 </r>
       <r>    4.0686    0.0000 </r>
       <r>    4.3129    0.0000 </r>
       <r>    4.4157    0.0000 </r>
       <r>    4.5168    0.0000 </r>
       <r>    4.6121    0.0000 </r>
       <r>    4.8160    0.0000 </r>
       <r>    5.0160    0.0000 </r>
       <r>    5.2922    0.0000 </r>
       <r>    5.3992    0.0000 </r>
       <r>    5.4449    0.0000 </r>
       <r>    5.5310    0.0000 </r>
       <r>    5.6260    0.0000 </r>
       <r>    5.6597    0.0000 </r>
       <r>    5.8087    0.0000 </r>
       <r>    5.8953    0.0000 </r>
       <r>    6.0581    0.0000 </r>
       <r>    6.0635    0.0000 </r>
       <r>    6.1303    0.0000 </r>
       <r>    6.1828    0.0000 </r>
       <r>    6.2218    0.0000 </r>
       <r>    6.2290    0.0000 </r>
       <r>    6.3058    0.0000 </r>
       <r>    6.3865    0.0000 </r>
       <r>    6.3971    0.0000 </r>
       <r>    6.4946    0.0000 </r>
       <r>    6.5954    0.0000 </r>
      </set>
      <set comment="kpoint 3">
       <r>  -21.1028    1.0000 </r>
       <r>  -20.9872    1.0000 </r>
       <r>  -20.9864    1.0000 </r>
       <r>  -20.9780    1.0000 </r>
       <r>  -20.9756    1.0000 </r>
       <r>  -20.9356    1.0000 </r>
       <r>  -20.9350    1.0000 </r>
       <r>  -16.8979    1.0000 </r>
       <r>  -16.8910    1.0000 </r>
       <r>  -16.8562    1.0000 </r>
       <r>  -16.8343    1.0000 </r>
       <r>  -16.8098    1.0000 </r>
       <r>  -16.8088    1.0000 </r>
       <r>  -16.7930    1.0000 </r>
       <r>  -16.7924    1.0000 </r>
       <r>  -16.7472    1.0000 </r>
       <r>  -16.7471    1.0000 </r>
       <r>  -16.7286    1.0000 </r>
       <r>  -16.7285    1.0000 </r>
       <r>  -16.7258    1.0000 </r>
       <r>  -16.7249    1.0000 </r>
       <r>  -16.7129    1.0000 </r>
       <r>  -16.7128    1.0000 </r>
       <r>  -16.7063    1.0000 </r>
       <r>  -16.7056    1.0000 </r>
       <r>  -16.6959    1.0000 </r>
       <r>  -16.6951    1.0000 </r>
       <r>  -16.5515    1.0000 </r>
       <r>  -16.5493    1.0000 </r>
       <r>  -16.5395    1.0000 </r>
       <r>  -16.5383    1.0000 </r>
       <r>  -16.5141    1.0000 </r>
       <r>  -16.4969    1.0000 </r>
       <r>  -16.4877    1.0000 </r>
       <r>  -16.4649    1.0000 </r>
       <r>  -16.4282    1.0000 </r>
       <r>  -16.4274    1.0000 </r>
       <r>  -16.4173    1.0000 </r>
       <r>  -16.4166    1.0000 </r>
       <r>  -16.4110    1.0000 </r>
       <r>  -16.4108    1.0000 </r>
       <r>  -16.4072    1.0000 </r>
       <r>  -16.4065    1.0000 </r>
       <r>  -16.4061    1.0000 </r>
       <r>  -16.4058    1.0000 </r>
       <r>  -16.3931    1.0000 </r>
       <r>  -16.3929    1.0000 </r>
       <r>  -15.1563    1.0000 </r>
       <r>  -14.7624    1.0000 </r>
       <r>  -14.5448    1.0000 </r>
       <r>  -14.5085    1.0000 </r>
       <r>  -14.4147    1.0000 </r>
       <r>  -14.3754    1.0000 </r>
       <r>  -14.3629    1.0000 </r>
       <r>  -14.3315    1.0000 </r>
       <r>  -14.2373    1.0000 </r>
       <r>  -14.2150    1.0000 </r>
       <r>  -14.1429    1.0000 </r>
       <r>  -14.1395    1.0000 </r>
       <r>  -14.1165    1.0000 </r>
       <r>  -14.0731    1.0000 </r>
       <r>  -14.0558    1.0000 </r>
       <r>  -14.0488    1.0000 </r>
       <r>  -14.0334    1.0000 </r>
       <r>  -14.0238    1.0000 </r>
       <r>  -13.9750    1.0000 </r>
       <r>  -13.9658    1.0000 </r>
       <r>  -13.9021    1.0000 </r>
       <r>  -13.8737    1.0000 </r>
       <r>  -13.7454    1.0000 </r>
       <r>  -13.6794    1.0000 </r>
       <r>   -8.3820    1.0000 </r>
       <r>   -8.1319    1.0000 </r>
       <r>   -8.0526    1.0000 </r>
       <r>   -8.0009    1.0000 </r>
       <r>   -7.7588    1.0000 </r>
       <r>   -7.5410    1.0000 </r>
       <r>   -7.5213    1.0000 </r>
       <r>   -7.4847    1.0000 </r>
       <r>   -7.4335    1.0000 </r>
       <r>   -7.4116    1.0000 </r>
       <r>   -7.4044    1.0000 </r>
       <r>   -7.3922    1.0000 </r>
       <r>   -7.3878    1.0000 </r>
       <r>   -7.3851    1.0000 </r>
       <r>   -7.3795    1.0000 </r>
       <r>   -7.3747    1.0000 </r>
       <r>   -7.3737    1.0000 </r>
       <r>   -7.3702    1.0000 </r>
       <r>   -7.3615    1.0000 </r>
       <r>   -7.3525    1.0000 </r>
       <r>   -7.3486    1.0000 </r>
       <r>   -7.3434    1.0000 </r>
       <r>   -7.3350    1.0000 </r>
       <r>   -7.3323    1.0000 </r>
       <r>   -7.3319    1.0000 </r>
       <r>   -7.3232    1.0000 </r>
       <r>   -7.3208    1.0000 </r>
       <r>   -7.2836    1.0000 </r>
       <r>   -6.9727    1.0000 </r>
       <r>   -3.7688    1.0000 </r>
       <r>   -3.6540    1.0000 </r>
       <r>   -3.5682    1.0000 </r>
       <r>   -3.5115    1.0000 </r>
       <r>   -3.2603    1.0000 </r>
       <r>   -3.1944    1.0000 </r>
       <r>   -3.1813    1.0000 </r>
       <r>   -3.0553    1.0000 </r>
       <r>   -2.7779    1.0000 </r>
       <r>   -2.7458    1.0000 </r>
       <r>   -2.7134    1.0000 </r>
       <r>   -2.6134    1.0000 </r>
       <r>   -2.5692    1.0000 </r>
       <r>   -2.5675    1.0000 </r>
       <r>   -2.5625    1.0000 </r>
       <r>   -2.4898    1.0000 </r>
       <r>   -2.4839    1.0000 </r>
       <r>   -2.4079    1.0000 </r>
       <r>   -2.2515    1.0000 </r>
       <r>   -2.2473    1.0000 </r>
       <r>   -2.2027    1.0000 </r>
       <r>   -2.1948    1.0000 </r>
       <r>   -2.0668    1.0000 </r>
       <r>   -2.0462    1.0000 </r>
       <r>   -1.9988    1.0000 </r>
       <r>   -1.9787    1.0000 </r>
       <r>   -1.9357    1.0000 </r>
       <r>   -1.9144    1.0000 </r>
       <r>   -1.8729    1.0000 </r>
       <r>   -1.8370    1.0000 </r>
       <r>   -1.8003    1.0000 </r>
       <r>   -1.7785    1.0000 </r>
       <r>   -1.7733    1.0000 </r>
       <r>   -1.6739    1.0000 </r>
       <r>   -1.6640    1.0000 </r>
       <r>   -1.6274    1.0000 </r>
       <r>   -1.5787    1.0000 </r>
       <r>   -1.5610    1.0000 </r>
       <r>   -1.5532    1.0000 </r>
       <r>   -1.5286    1.0000 </r>
       <r>   -1.5072    1.0000 </r>
       <r>   -1.4971    1.0000 </r>
       <r>   -1.4828    1.0000 </r>
       <r>   -1.4618    1.0000 </r>
       <r>   -1.4488    1.0000 </r>
       <r>   -1.4380    1.0000 </r>
       <r>   -1.4230    1.0000 </r>
       <r>   -1.4091    1.0000 </r>
       <r>   -1.4043    1.0000 </r>
       <r>   -1.3677    1.0000 </r>
       <r>   -1.3667    1.0000 </r>
       <r>   -1.3244    1.0000 </r>
       <r>   -1.3230    1.0000 </r>
       <r>   -1.2953    1.0000 </r>
       <r>   -1.2720    1.0000 </r>
       <r>   -1.2510    1.0000 </r>
       <r>   -1.2318    1.0000 </r>
       <r>   -1.1940    1.0000 </r>
       <r>   -1.1860    1.0000 </r>
       <r>   -1.1379    1.0000 </r>
       <r>   -1.1092    1.0000 </r>
       <r>   -1.0600    1.0000 </r>
       <r>   -1.0573    1.0000 </r>
       <r>   -1.0277    1.0000 </r>
       <r>   -0.9280    1.0000 </r>
       <r>   -0.8734    1.0000 </r>
       <r>   -0.7952    1.0000 </r>
       <r>   -0.6476    1.0000 </r>
       <r>   -0.5885    1.0000 </r>
       <r>   -0.4480    1.0000 </r>
       <r>   -0.1482    1.0000 </r>
       <r>   -0.0504    1.0000 </r>
       <r>    2.4987    0.0000 </r>
       <r>    2.6947    0.0000 </r>
       <r>    2.7939    0.0000 </r>
       <r>    2.9043    0.0000 </r>
       <r>    2.9698    0.0000 </r>
       <r>    3.0733    0.0000 </r>
       <r>    3.2726    0.0000 </r>
       <r>    3.3307    0.0000 </r>
       <r>    3.9805    0.0000 </r>
       <r>    4.1126    0.0000 </r>
       <r>    4.1990    0.0000 </r>
       <r>    4.2817    0.0000 </r>
       <r>    4.4602    0.0000 </r>
       <r>    4.4626    0.0000 </r>
       <r>    4.5961    0.0000 </r>
       <r>    4.6998    0.0000 </r>
       <r>    4.9626    0.0000 </r>
       <r>    5.2767    0.0000 </r>
       <r>    5.4668    0.0000 </r>
       <r>    5.4981    0.0000 </r>
       <r>    5.5805    0.0000 </r>
       <r>    5.6547    0.0000 </r>
       <r>    5.6592    0.0000 </r>
       <r>    5.8048    0.0000 </r>
       <r>    5.9465    0.0000 </r>
       <r>    5.9629    0.0000 </r>
       <r>    6.0231    0.0000 </r>
       <r>    6.1204    0.0000 </r>
       <r>    6.1914    0.0000 </r>
       <r>    6.2702    0.0000 </r>
       <r>    6.2908    0.0000 </r>
       <r>    6.3413    0.0000 </r>
       <r>    6.4034    0.0000 </r>
       <r>    6.4250    0.0000 </r>
       <r>    6.4523    0.0000 </r>
       <r>    6.5384    0.0000 </r>
      </set>
      <set comment="kpoint 4">
       <r>  -21.1028    1.0000 </r>
       <r>  -20.9872    1.0000 </r>
       <r>  -20.9864    1.0000 </r>
       <r>  -20.9780    1.0000 </r>
       <r>  -20.9756    1.0000 </r>
       <r>  -20.9357    1.0000 </r>
       <r>  -20.9351    1.0000 </r>
       <r>  -16.8786    1.0000 </r>
       <r>  -16.8737    1.0000 </r>
       <r>  -16.8593    1.0000 </r>
       <r>  -16.8383    1.0000 </r>
       <r>  -16.8257    1.0000 </r>
       <r>  -16.8240    1.0000 </r>
       <r>  -16.7935    1.0000 </r>
       <r>  -16.7928    1.0000 </r>
       <r>  -16.7473    1.0000 </r>
       <r>  -16.7472    1.0000 </r>
       <r>  -16.7286    1.0000 </r>
       <r>  -16.7286    1.0000 </r>
       <r>  -16.7258    1.0000 </r>
       <r>  -16.7249    1.0000 </r>
       <r>  -16.7129    1.0000 </r>
       <r>  -16.7128    1.0000 </r>
       <r>  -16.7064    1.0000 </r>
       <r>  -16.7057    1.0000 </r>
       <r>  -16.6960    1.0000 </r>
       <r>  -16.6952    1.0000 </r>
       <r>  -16.5498    1.0000 </r>
       <r>  -16.5495    1.0000 </r>
       <r>  -16.5253    1.0000 </r>
       <r>  -16.5240    1.0000 </r>
       <r>  -16.5150    1.0000 </r>
       <r>  -16.5111    1.0000 </r>
       <r>  -16.4859    1.0000 </r>
       <r>  -16.4829    1.0000 </r>
       <r>  -16.4282    1.0000 </r>
       <r>  -16.4274    1.0000 </r>
       <r>  -16.4173    1.0000 </r>
       <r>  -16.4166    1.0000 </r>
       <r>  -16.4110    1.0000 </r>
       <r>  -16.4108    1.0000 </r>
       <r>  -16.4073    1.0000 </r>
       <r>  -16.4066    1.0000 </r>
       <r>  -16.4061    1.0000 </r>
       <r>  -16.4059    1.0000 </r>
       <r>  -16.3932    1.0000 </r>
       <r>  -16.3929    1.0000 </r>
       <r>  -15.1543    1.0000 </r>
       <r>  -14.7580    1.0000 </r>
       <r>  -14.5917    1.0000 </r>
       <r>  -14.4791    1.0000 </r>
       <r>  -14.4292    1.0000 </r>
       <r>  -14.3591    1.0000 </r>
       <r>  -14.3156    1.0000 </r>
       <r>  -14.3053    1.0000 </r>
       <r>  -14.2817    1.0000 </r>
       <r>  -14.2046    1.0000 </r>
       <r>  -14.1699    1.0000 </r>
       <r>  -14.1647    1.0000 </r>
       <r>  -14.1137    1.0000 </r>
       <r>  -14.0776    1.0000 </r>
       <r>  -14.0524    1.0000 </r>
       <r>  -14.0520    1.0000 </r>
       <r>  -14.0374    1.0000 </r>
       <r>  -14.0311    1.0000 </r>
       <r>  -13.9571    1.0000 </r>
       <r>  -13.9377    1.0000 </r>
       <r>  -13.8982    1.0000 </r>
       <r>  -13.8427    1.0000 </r>
       <r>  -13.7569    1.0000 </r>
       <r>  -13.7086    1.0000 </r>
       <r>   -8.2285    1.0000 </r>
       <r>   -8.1793    1.0000 </r>
       <r>   -7.9704    1.0000 </r>
       <r>   -7.8823    1.0000 </r>
       <r>   -7.8010    1.0000 </r>
       <r>   -7.7608    1.0000 </r>
       <r>   -7.5935    1.0000 </r>
       <r>   -7.4921    1.0000 </r>
       <r>   -7.4092    1.0000 </r>
       <r>   -7.4051    1.0000 </r>
       <r>   -7.4036    1.0000 </r>
       <r>   -7.4024    1.0000 </r>
       <r>   -7.3917    1.0000 </r>
       <r>   -7.3902    1.0000 </r>
       <r>   -7.3858    1.0000 </r>
       <r>   -7.3780    1.0000 </r>
       <r>   -7.3745    1.0000 </r>
       <r>   -7.3701    1.0000 </r>
       <r>   -7.3670    1.0000 </r>
       <r>   -7.3549    1.0000 </r>
       <r>   -7.3484    1.0000 </r>
       <r>   -7.3435    1.0000 </r>
       <r>   -7.3346    1.0000 </r>
       <r>   -7.3319    1.0000 </r>
       <r>   -7.3294    1.0000 </r>
       <r>   -7.3276    1.0000 </r>
       <r>   -7.2654    1.0000 </r>
       <r>   -7.2634    1.0000 </r>
       <r>   -7.2236    1.0000 </r>
       <r>   -3.6070    1.0000 </r>
       <r>   -3.5066    1.0000 </r>
       <r>   -3.2218    1.0000 </r>
       <r>   -3.1971    1.0000 </r>
       <r>   -3.1872    1.0000 </r>
       <r>   -3.0375    1.0000 </r>
       <r>   -2.9605    1.0000 </r>
       <r>   -2.8210    1.0000 </r>
       <r>   -2.7548    1.0000 </r>
       <r>   -2.7144    1.0000 </r>
       <r>   -2.7094    1.0000 </r>
       <r>   -2.6799    1.0000 </r>
       <r>   -2.6011    1.0000 </r>
       <r>   -2.5233    1.0000 </r>
       <r>   -2.4950    1.0000 </r>
       <r>   -2.4893    1.0000 </r>
       <r>   -2.4630    1.0000 </r>
       <r>   -2.4471    1.0000 </r>
       <r>   -2.3908    1.0000 </r>
       <r>   -2.3418    1.0000 </r>
       <r>   -2.3016    1.0000 </r>
       <r>   -2.2657    1.0000 </r>
       <r>   -2.2077    1.0000 </r>
       <r>   -2.1383    1.0000 </r>
       <r>   -2.0943    1.0000 </r>
       <r>   -2.0626    1.0000 </r>
       <r>   -1.9578    1.0000 </r>
       <r>   -1.9492    1.0000 </r>
       <r>   -1.9122    1.0000 </r>
       <r>   -1.8420    1.0000 </r>
       <r>   -1.8413    1.0000 </r>
       <r>   -1.8015    1.0000 </r>
       <r>   -1.7876    1.0000 </r>
       <r>   -1.7406    1.0000 </r>
       <r>   -1.7345    1.0000 </r>
       <r>   -1.7017    1.0000 </r>
       <r>   -1.6774    1.0000 </r>
       <r>   -1.6351    1.0000 </r>
       <r>   -1.6137    1.0000 </r>
       <r>   -1.5977    1.0000 </r>
       <r>   -1.5743    1.0000 </r>
       <r>   -1.5359    1.0000 </r>
       <r>   -1.5325    1.0000 </r>
       <r>   -1.4843    1.0000 </r>
       <r>   -1.4671    1.0000 </r>
       <r>   -1.4402    1.0000 </r>
       <r>   -1.4392    1.0000 </r>
       <r>   -1.4235    1.0000 </r>
       <r>   -1.3685    1.0000 </r>
       <r>   -1.3681    1.0000 </r>
       <r>   -1.3355    1.0000 </r>
       <r>   -1.3001    1.0000 </r>
       <r>   -1.2845    1.0000 </r>
       <r>   -1.2817    1.0000 </r>
       <r>   -1.2633    1.0000 </r>
       <r>   -1.2238    1.0000 </r>
       <r>   -1.2099    1.0000 </r>
       <r>   -1.1789    1.0000 </r>
       <r>   -1.1688    1.0000 </r>
       <r>   -1.1395    1.0000 </r>
       <r>   -1.1262    1.0000 </r>
       <r>   -1.0821    1.0000 </r>
       <r>   -1.0451    1.0000 </r>
       <r>   -1.0168    1.0000 </r>
       <r>   -1.0035    1.0000 </r>
       <r>   -0.9059    1.0000 </r>
       <r>   -0.8767    1.0000 </r>
       <r>   -0.7993    1.0000 </r>
       <r>   -0.7752    1.0000 </r>
       <r>   -0.5317    1.0000 </r>
       <r>   -0.4845    1.0000 </r>
       <r>   -0.1435    1.0000 </r>
       <r>    2.7836    0.0000 </r>
       <r>    2.8039    0.0000 </r>
       <r>    3.1166    0.0000 </r>
       <r>    3.1551    0.0000 </r>
       <r>    3.8524    0.0000 </r>
       <r>    3.8955    0.0000 </r>
       <r>    4.0247    0.0000 </r>
       <r>    4.0493    0.0000 </r>
       <r>    4.0735    0.0000 </r>
       <r>    4.2326    0.0000 </r>
       <r>    4.2606    0.0000 </r>
       <r>    4.2702    0.0000 </r>
       <r>    4.3896    0.0000 </r>
       <r>    4.4220    0.0000 </r>
       <r>    4.4480    0.0000 </r>
       <r>    4.5050    0.0000 </r>
       <r>    4.6155    0.0000 </r>
       <r>    4.6384    0.0000 </r>
       <r>    4.7485    0.0000 </r>
       <r>    4.7831    0.0000 </r>
       <r>    5.0901    0.0000 </r>
       <r>    5.4883    0.0000 </r>
       <r>    5.5587    0.0000 </r>
       <r>    5.7607    0.0000 </r>
       <r>    5.8042    0.0000 </r>
       <r>    5.9174    0.0000 </r>
       <r>    5.9541    0.0000 </r>
       <r>    6.0029    0.0000 </r>
       <r>    6.0958    0.0000 </r>
       <r>    6.1490    0.0000 </r>
       <r>    6.2722    0.0000 </r>
       <r>    6.3205    0.0000 </r>
       <r>    6.3524    0.0000 </r>
       <r>    6.3912    0.0000 </r>
       <r>    6.4098    0.0000 </r>
       <r>    6.4457    0.0000 </r>
      </set>
      <set comment="kpoint 5">
       <r>  -21.1028    1.0000 </r>
       <r>  -20.9877    1.0000 </r>
       <r>  -20.9859    1.0000 </r>
       <r>  -20.9782    1.0000 </r>
       <r>  -20.9754    1.0000 </r>
       <r>  -20.9361    1.0000 </r>
       <r>  -20.9346    1.0000 </r>
       <r>  -16.8974    1.0000 </r>
       <r>  -16.8861    1.0000 </r>
       <r>  -16.8314    1.0000 </r>
       <r>  -16.8301    1.0000 </r>
       <r>  -16.8189    1.0000 </r>
       <r>  -16.8184    1.0000 </r>
       <r>  -16.8062    1.0000 </r>
       <r>  -16.8053    1.0000 </r>
       <r>  -16.7473    1.0000 </r>
       <r>  -16.7471    1.0000 </r>
       <r>  -16.7286    1.0000 </r>
       <r>  -16.7286    1.0000 </r>
       <r>  -16.7258    1.0000 </r>
       <r>  -16.7250    1.0000 </r>
       <r>  -16.7129    1.0000 </r>
       <r>  -16.7128    1.0000 </r>
       <r>  -16.7064    1.0000 </r>
       <r>  -16.7056    1.0000 </r>
       <r>  -16.6960    1.0000 </r>
       <r>  -16.6952    1.0000 </r>
       <r>  -16.5379    1.0000 </r>
       <r>  -16.5375    1.0000 </r>
       <r>  -16.5303    1.0000 </r>
       <r>  -16.5298    1.0000 </r>
       <r>  -16.5187    1.0000 </r>
       <r>  -16.5178    1.0000 </r>
       <r>  -16.4807    1.0000 </r>
       <r>  -16.4794    1.0000 </r>
       <r>  -16.4282    1.0000 </r>
       <r>  -16.4274    1.0000 </r>
       <r>  -16.4174    1.0000 </r>
       <r>  -16.4167    1.0000 </r>
       <r>  -16.4111    1.0000 </r>
       <r>  -16.4108    1.0000 </r>
       <r>  -16.4072    1.0000 </r>
       <r>  -16.4064    1.0000 </r>
       <r>  -16.4062    1.0000 </r>
       <r>  -16.4059    1.0000 </r>
       <r>  -16.3932    1.0000 </r>
       <r>  -16.3930    1.0000 </r>
       <r>  -15.1711    1.0000 </r>
       <r>  -14.7258    1.0000 </r>
       <r>  -14.5433    1.0000 </r>
       <r>  -14.5077    1.0000 </r>
       <r>  -14.4804    1.0000 </r>
       <r>  -14.3786    1.0000 </r>
       <r>  -14.2869    1.0000 </r>
       <r>  -14.2601    1.0000 </r>
       <r>  -14.2062    1.0000 </r>
       <r>  -14.1947    1.0000 </r>
       <r>  -14.1818    1.0000 </r>
       <r>  -14.1784    1.0000 </r>
       <r>  -14.1578    1.0000 </r>
       <r>  -14.1472    1.0000 </r>
       <r>  -14.1255    1.0000 </r>
       <r>  -14.0950    1.0000 </r>
       <r>  -13.9839    1.0000 </r>
       <r>  -13.9540    1.0000 </r>
       <r>  -13.9484    1.0000 </r>
       <r>  -13.9376    1.0000 </r>
       <r>  -13.8981    1.0000 </r>
       <r>  -13.8951    1.0000 </r>
       <r>  -13.7146    1.0000 </r>
       <r>  -13.7127    1.0000 </r>
       <r>   -8.3336    1.0000 </r>
       <r>   -8.2613    1.0000 </r>
       <r>   -8.0689    1.0000 </r>
       <r>   -7.7305    1.0000 </r>
       <r>   -7.7277    1.0000 </r>
       <r>   -7.6929    1.0000 </r>
       <r>   -7.6462    1.0000 </r>
       <r>   -7.4857    1.0000 </r>
       <r>   -7.4576    1.0000 </r>
       <r>   -7.4056    1.0000 </r>
       <r>   -7.4029    1.0000 </r>
       <r>   -7.3961    1.0000 </r>
       <r>   -7.3951    1.0000 </r>
       <r>   -7.3862    1.0000 </r>
       <r>   -7.3854    1.0000 </r>
       <r>   -7.3762    1.0000 </r>
       <r>   -7.3755    1.0000 </r>
       <r>   -7.3701    1.0000 </r>
       <r>   -7.3627    1.0000 </r>
       <r>   -7.3600    1.0000 </r>
       <r>   -7.3536    1.0000 </r>
       <r>   -7.3400    1.0000 </r>
       <r>   -7.3374    1.0000 </r>
       <r>   -7.3356    1.0000 </r>
       <r>   -7.3243    1.0000 </r>
       <r>   -7.3193    1.0000 </r>
       <r>   -7.3137    1.0000 </r>
       <r>   -7.0773    1.0000 </r>
       <r>   -7.0600    1.0000 </r>
       <r>   -3.8127    1.0000 </r>
       <r>   -3.5937    1.0000 </r>
       <r>   -3.4270    1.0000 </r>
       <r>   -3.4157    1.0000 </r>
       <r>   -3.3263    1.0000 </r>
       <r>   -3.3130    1.0000 </r>
       <r>   -3.1276    1.0000 </r>
       <r>   -3.1031    1.0000 </r>
       <r>   -2.9652    1.0000 </r>
       <r>   -2.8506    1.0000 </r>
       <r>   -2.8198    1.0000 </r>
       <r>   -2.7287    1.0000 </r>
       <r>   -2.5413    1.0000 </r>
       <r>   -2.5168    1.0000 </r>
       <r>   -2.4682    1.0000 </r>
       <r>   -2.4223    1.0000 </r>
       <r>   -2.4164    1.0000 </r>
       <r>   -2.4145    1.0000 </r>
       <r>   -2.2492    1.0000 </r>
       <r>   -2.2393    1.0000 </r>
       <r>   -2.2175    1.0000 </r>
       <r>   -2.2027    1.0000 </r>
       <r>   -2.1324    1.0000 </r>
       <r>   -2.0388    1.0000 </r>
       <r>   -2.0006    1.0000 </r>
       <r>   -1.9925    1.0000 </r>
       <r>   -1.8929    1.0000 </r>
       <r>   -1.8803    1.0000 </r>
       <r>   -1.8726    1.0000 </r>
       <r>   -1.8312    1.0000 </r>
       <r>   -1.7654    1.0000 </r>
       <r>   -1.7416    1.0000 </r>
       <r>   -1.6913    1.0000 </r>
       <r>   -1.6314    1.0000 </r>
       <r>   -1.6239    1.0000 </r>
       <r>   -1.6030    1.0000 </r>
       <r>   -1.5873    1.0000 </r>
       <r>   -1.5708    1.0000 </r>
       <r>   -1.5542    1.0000 </r>
       <r>   -1.5540    1.0000 </r>
       <r>   -1.5445    1.0000 </r>
       <r>   -1.5184    1.0000 </r>
       <r>   -1.4999    1.0000 </r>
       <r>   -1.4985    1.0000 </r>
       <r>   -1.4963    1.0000 </r>
       <r>   -1.4844    1.0000 </r>
       <r>   -1.4417    1.0000 </r>
       <r>   -1.4264    1.0000 </r>
       <r>   -1.4023    1.0000 </r>
       <r>   -1.3977    1.0000 </r>
       <r>   -1.3706    1.0000 </r>
       <r>   -1.3600    1.0000 </r>
       <r>   -1.3061    1.0000 </r>
       <r>   -1.2953    1.0000 </r>
       <r>   -1.2604    1.0000 </r>
       <r>   -1.2507    1.0000 </r>
       <r>   -1.2331    1.0000 </r>
       <r>   -1.1696    1.0000 </r>
       <r>   -1.1680    1.0000 </r>
       <r>   -1.1383    1.0000 </r>
       <r>   -1.1318    1.0000 </r>
       <r>   -1.0548    1.0000 </r>
       <r>   -1.0299    1.0000 </r>
       <r>   -0.9480    1.0000 </r>
       <r>   -0.9461    1.0000 </r>
       <r>   -0.7895    1.0000 </r>
       <r>   -0.7595    1.0000 </r>
       <r>   -0.6735    1.0000 </r>
       <r>   -0.6639    1.0000 </r>
       <r>   -0.1694    1.0000 </r>
       <r>   -0.1347    1.0000 </r>
       <r>   -0.1131    1.0000 </r>
       <r>    2.5904    0.0000 </r>
       <r>    2.6252    0.0000 </r>
       <r>    2.7417    0.0000 </r>
       <r>    2.7443    0.0000 </r>
       <r>    3.0774    0.0000 </r>
       <r>    3.0783    0.0000 </r>
       <r>    3.2054    0.0000 </r>
       <r>    3.2312    0.0000 </r>
       <r>    3.7445    0.0000 </r>
       <r>    4.0398    0.0000 </r>
       <r>    4.2313    0.0000 </r>
       <r>    4.2673    0.0000 </r>
       <r>    4.3722    0.0000 </r>
       <r>    4.4617    0.0000 </r>
       <r>    4.6701    0.0000 </r>
       <r>    4.7213    0.0000 </r>
       <r>    5.2262    0.0000 </r>
       <r>    5.2856    0.0000 </r>
       <r>    5.4341    0.0000 </r>
       <r>    5.4415    0.0000 </r>
       <r>    5.5870    0.0000 </r>
       <r>    5.5887    0.0000 </r>
       <r>    5.8019    0.0000 </r>
       <r>    5.9090    0.0000 </r>
       <r>    5.9112    0.0000 </r>
       <r>    6.0196    0.0000 </r>
       <r>    6.0757    0.0000 </r>
       <r>    6.1005    0.0000 </r>
       <r>    6.1391    0.0000 </r>
       <r>    6.2401    0.0000 </r>
       <r>    6.2878    0.0000 </r>
       <r>    6.3537    0.0000 </r>
       <r>    6.4256    0.0000 </r>
       <r>    6.4391    0.0000 </r>
       <r>    6.4830    0.0000 </r>
       <r>    6.5276    0.0000 </r>
      </set>
      <set comment="kpoint 6">
       <r>  -21.1028    1.0000 </r>
       <r>  -20.9877    1.0000 </r>
       <r>  -20.9858    1.0000 </r>
       <r>  -20.9781    1.0000 </r>
       <r>  -20.9754    1.0000 </r>
       <r>  -20.9361    1.0000 </r>
       <r>  -20.9345    1.0000 </r>
       <r>  -16.8744    1.0000 </r>
       <r>  -16.8648    1.0000 </r>
       <r>  -16.8447    1.0000 </r>
       <r>  -16.8421    1.0000 </r>
       <r>  -16.8267    1.0000 </r>
       <r>  -16.8264    1.0000 </r>
       <r>  -16.8089    1.0000 </r>
       <r>  -16.8077    1.0000 </r>
       <r>  -16.7473    1.0000 </r>
       <r>  -16.7471    1.0000 </r>
       <r>  -16.7286    1.0000 </r>
       <r>  -16.7285    1.0000 </r>
       <r>  -16.7257    1.0000 </r>
       <r>  -16.7248    1.0000 </r>
       <r>  -16.7128    1.0000 </r>
       <r>  -16.7127    1.0000 </r>
       <r>  -16.7063    1.0000 </r>
       <r>  -16.7056    1.0000 </r>
       <r>  -16.6959    1.0000 </r>
       <r>  -16.6951    1.0000 </r>
       <r>  -16.5330    1.0000 </r>
       <r>  -16.5328    1.0000 </r>
       <r>  -16.5208    1.0000 </r>
       <r>  -16.5201    1.0000 </r>
       <r>  -16.5143    1.0000 </r>
       <r>  -16.5131    1.0000 </r>
       <r>  -16.4997    1.0000 </r>
       <r>  -16.4993    1.0000 </r>
       <r>  -16.4282    1.0000 </r>
       <r>  -16.4273    1.0000 </r>
       <r>  -16.4172    1.0000 </r>
       <r>  -16.4166    1.0000 </r>
       <r>  -16.4110    1.0000 </r>
       <r>  -16.4108    1.0000 </r>
       <r>  -16.4072    1.0000 </r>
       <r>  -16.4065    1.0000 </r>
       <r>  -16.4060    1.0000 </r>
       <r>  -16.4058    1.0000 </r>
       <r>  -16.3931    1.0000 </r>
       <r>  -16.3929    1.0000 </r>
       <r>  -15.1702    1.0000 </r>
       <r>  -14.7232    1.0000 </r>
       <r>  -14.5789    1.0000 </r>
       <r>  -14.4923    1.0000 </r>
       <r>  -14.4642    1.0000 </r>
       <r>  -14.3554    1.0000 </r>
       <r>  -14.2819    1.0000 </r>
       <r>  -14.2364    1.0000 </r>
       <r>  -14.2146    1.0000 </r>
       <r>  -14.2043    1.0000 </r>
       <r>  -14.2020    1.0000 </r>
       <r>  -14.1969    1.0000 </r>
       <r>  -14.1548    1.0000 </r>
       <r>  -14.1483    1.0000 </r>
       <r>  -14.1414    1.0000 </r>
       <r>  -14.1185    1.0000 </r>
       <r>  -13.9544    1.0000 </r>
       <r>  -13.9495    1.0000 </r>
       <r>  -13.9236    1.0000 </r>
       <r>  -13.9209    1.0000 </r>
       <r>  -13.8944    1.0000 </r>
       <r>  -13.8828    1.0000 </r>
       <r>  -13.7378    1.0000 </r>
       <r>  -13.7327    1.0000 </r>
       <r>   -8.1765    1.0000 </r>
       <r>   -8.1186    1.0000 </r>
       <r>   -8.0592    1.0000 </r>
       <r>   -7.9859    1.0000 </r>
       <r>   -7.9055    1.0000 </r>
       <r>   -7.5786    1.0000 </r>
       <r>   -7.4974    1.0000 </r>
       <r>   -7.4548    1.0000 </r>
       <r>   -7.4428    1.0000 </r>
       <r>   -7.4237    1.0000 </r>
       <r>   -7.4169    1.0000 </r>
       <r>   -7.3962    1.0000 </r>
       <r>   -7.3946    1.0000 </r>
       <r>   -7.3940    1.0000 </r>
       <r>   -7.3795    1.0000 </r>
[...]
        <r>  0.0010  0.0006  0.0006 </r>
        <r>  0.0001  0.0002  0.0001 </r>
        <r>  0.0000  0.0009  0.0001 </r>
        <r>  0.0000  0.0003  0.0002 </r>
        <r>  0.0003  0.0007  0.0019 </r>
        <r>  0.0009  0.0016  0.0017 </r>
        <r>  0.0000  0.0001  0.0008 </r>
        <r>  0.0006  0.0043  0.0053 </r>
        <r>  0.0006  0.0000  0.0600 </r>
       </set>
       <set comment="band 199">
        <r>  0.0047  0.0004  0.0127 </r>
        <r>  0.0029  0.0004  0.0083 </r>
        <r>  0.0020  0.0006  0.0119 </r>
        <r>  0.0023  0.0006  0.0124 </r>
        <r>  0.0025  0.0004  0.0081 </r>
        <r>  0.0045  0.0004  0.0125 </r>
        <r>  0.0000  0.0011  0.0002 </r>
        <r>  0.0000  0.0011  0.0002 </r>
        <r>  0.0000  0.0059  0.0001 </r>
        <r>  0.0000  0.0056  0.0001 </r>
        <r>  0.0000  0.0005  0.0002 </r>
        <r>  0.0000  0.0006  0.0002 </r>
        <r>  0.0000  0.0062  0.0000 </r>
        <r>  0.0000  0.0063  0.0000 </r>
        <r>  0.0006  0.0038  0.0019 </r>
        <r>  0.0005  0.0019  0.0011 </r>
        <r>  0.0003  0.0014  0.0005 </r>
        <r>  0.0000  0.0035  0.0015 </r>
        <r>  0.0000  0.0034  0.0014 </r>
        <r>  0.0003  0.0012  0.0004 </r>
        <r>  0.0006  0.0019  0.0012 </r>
        <r>  0.0006  0.0038  0.0020 </r>
        <r>  0.0019  0.0007  0.0011 </r>
        <r>  0.0005  0.0016  0.0008 </r>
        <r>  0.0010  0.0047  0.0011 </r>
        <r>  0.0008  0.0035  0.0014 </r>
        <r>  0.0012  0.0005  0.0010 </r>
        <r>  0.0005  0.0007  0.0006 </r>
        <r>  0.0001  0.0016  0.0003 </r>
        <r>  0.0006  0.0026  0.0016 </r>
        <r>  0.0007  0.0026  0.0016 </r>
        <r>  0.0001  0.0015  0.0003 </r>
        <r>  0.0005  0.0007  0.0005 </r>
        <r>  0.0011  0.0005  0.0010 </r>
        <r>  0.0005  0.0016  0.0008 </r>
        <r>  0.0017  0.0008  0.0010 </r>
        <r>  0.0009  0.0036  0.0014 </r>
        <r>  0.0010  0.0046  0.0011 </r>
        <r>  0.0000  0.0016  0.0000 </r>
       </set>
       <set comment="band 200">
        <r>  0.0012  0.0001  0.0059 </r>
        <r>  0.0038  0.0008  0.0091 </r>
        <r>  0.0051  0.0008  0.0137 </r>
        <r>  0.0048  0.0008  0.0133 </r>
        <r>  0.0038  0.0008  0.0092 </r>
        <r>  0.0015  0.0001  0.0064 </r>
        <r>  0.0000  0.0052  0.0001 </r>
        <r>  0.0000  0.0053  0.0001 </r>
        <r>  0.0000  0.0017  0.0001 </r>
        <r>  0.0000  0.0019  0.0001 </r>
        <r>  0.0001  0.0027  0.0003 </r>
        <r>  0.0001  0.0026  0.0003 </r>
        <r>  0.0001  0.0025  0.0003 </r>
        <r>  0.0001  0.0025  0.0003 </r>
        <r>  0.0000  0.0069  0.0015 </r>
        <r>  0.0009  0.0001  0.0012 </r>
        <r>  0.0001  0.0020  0.0009 </r>
        <r>  0.0001  0.0024  0.0006 </r>
        <r>  0.0001  0.0025  0.0007 </r>
        <r>  0.0002  0.0021  0.0010 </r>
        <r>  0.0009  0.0001  0.0011 </r>
        <r>  0.0000  0.0067  0.0013 </r>
        <r>  0.0019  0.0036  0.0020 </r>
        <r>  0.0000  0.0012  0.0021 </r>
        <r>  0.0001  0.0014  0.0002 </r>
        <r>  0.0033  0.0010  0.0020 </r>
        <r>  0.0007  0.0023  0.0021 </r>
        <r>  0.0002  0.0032  0.0002 </r>
        <r>  0.0003  0.0013  0.0003 </r>
        <r>  0.0005  0.0003  0.0007 </r>
        <r>  0.0005  0.0003  0.0007 </r>
        <r>  0.0003  0.0015  0.0002 </r>
        <r>  0.0003  0.0032  0.0002 </r>
        <r>  0.0008  0.0022  0.0022 </r>
        <r>  0.0000  0.0010  0.0021 </r>
        <r>  0.0022  0.0035  0.0020 </r>
        <r>  0.0033  0.0009  0.0020 </r>
        <r>  0.0001  0.0015  0.0001 </r>
        <r>  0.0000  0.0000  0.0140 </r>
       </set>
       <set comment="band 201">
        <r>  0.0022  0.0006  0.0071 </r>
        <r>  0.0080  0.0020  0.0037 </r>
        <r>  0.0002  0.0010  0.0168 </r>
        <r>  0.0001  0.0010  0.0166 </r>
        <r>  0.0079  0.0020  0.0036 </r>
        <r>  0.0021  0.0006  0.0069 </r>
        <r>  0.0000  0.0051  0.0001 </r>
        <r>  0.0000  0.0049  0.0001 </r>
        <r>  0.0000  0.0006  0.0000 </r>
        <r>  0.0000  0.0006  0.0000 </r>
        <r>  0.0000  0.0105  0.0001 </r>
        <r>  0.0000  0.0105  0.0001 </r>
        <r>  0.0000  0.0022  0.0003 </r>
        <r>  0.0000  0.0022  0.0003 </r>
        <r>  0.0000  0.0020  0.0001 </r>
        <r>  0.0003  0.0030  0.0006 </r>
        <r>  0.0013  0.0025  0.0016 </r>
        <r>  0.0003  0.0041  0.0011 </r>
        <r>  0.0003  0.0042  0.0011 </r>
        <r>  0.0013  0.0025  0.0016 </r>
        <r>  0.0003  0.0030  0.0006 </r>
        <r>  0.0000  0.0022  0.0000 </r>
        <r>  0.0019  0.0031  0.0014 </r>
        <r>  0.0007  0.0030  0.0010 </r>
        <r>  0.0004  0.0032  0.0007 </r>
        <r>  0.0038  0.0018  0.0038 </r>
        <r>  0.0002  0.0010  0.0011 </r>
        <r>  0.0001  0.0011  0.0001 </r>
        <r>  0.0000  0.0020  0.0004 </r>
        <r>  0.0000  0.0018  0.0015 </r>
        <r>  0.0000  0.0018  0.0015 </r>
        <r>  0.0000  0.0020  0.0004 </r>
        <r>  0.0001  0.0011  0.0001 </r>
        <r>  0.0002  0.0011  0.0011 </r>
        <r>  0.0007  0.0030  0.0010 </r>
        <r>  0.0017  0.0031  0.0014 </r>
        <r>  0.0035  0.0018  0.0037 </r>
        <r>  0.0004  0.0033  0.0007 </r>
        <r>  0.0000  0.0025  0.0000 </r>
       </set>
       <set comment="band 202">
        <r>  0.0024  0.0003  0.0043 </r>
        <r>  0.0000  0.0003  0.0092 </r>
        <r>  0.0001  0.0007  0.0041 </r>
        <r>  0.0001  0.0007  0.0042 </r>
        <r>  0.0000  0.0003  0.0091 </r>
        <r>  0.0025  0.0003  0.0043 </r>
        <r>  0.0000  0.0078  0.0001 </r>
        <r>  0.0000  0.0078  0.0001 </r>
        <r>  0.0000  0.0112  0.0000 </r>
        <r>  0.0000  0.0110  0.0000 </r>
        <r>  0.0000  0.0026  0.0002 </r>
        <r>  0.0000  0.0027  0.0002 </r>
        <r>  0.0000  0.0049  0.0000 </r>
        <r>  0.0000  0.0047  0.0000 </r>
        <r>  0.0000  0.0035  0.0008 </r>
        <r>  0.0025  0.0013  0.0026 </r>
        <r>  0.0001  0.0032  0.0007 </r>
        <r>  0.0012  0.0020  0.0012 </r>
        <r>  0.0012  0.0021  0.0012 </r>
        <r>  0.0001  0.0031  0.0007 </r>
        <r>  0.0025  0.0013  0.0026 </r>
        <r>  0.0000  0.0036  0.0008 </r>
        <r>  0.0002  0.0003  0.0003 </r>
        <r>  0.0001  0.0015  0.0010 </r>
        <r>  0.0002  0.0004  0.0011 </r>
        <r>  0.0000  0.0009  0.0007 </r>
        <r>  0.0001  0.0034  0.0002 </r>
        <r>  0.0004  0.0008  0.0005 </r>
        <r>  0.0015  0.0017  0.0025 </r>
        <r>  0.0001  0.0056  0.0003 </r>
        <r>  0.0001  0.0057  0.0003 </r>
        <r>  0.0014  0.0018  0.0024 </r>
        <r>  0.0004  0.0008  0.0005 </r>
        <r>  0.0001  0.0034  0.0002 </r>
        <r>  0.0001  0.0015  0.0010 </r>
        <r>  0.0003  0.0003  0.0004 </r>
        <r>  0.0000  0.0009  0.0007 </r>
        <r>  0.0002  0.0004  0.0012 </r>
        <r>  0.0000  0.0112  0.0000 </r>
       </set>
       <set comment="band 203">
        <r>  0.0048  0.0004  0.0109 </r>
        <r>  0.0067  0.0003  0.0047 </r>
        <r>  0.0004  0.0014  0.0073 </r>
        <r>  0.0004  0.0014  0.0073 </r>
        <r>  0.0070  0.0003  0.0048 </r>
        <r>  0.0047  0.0004  0.0109 </r>
        <r>  0.0000  0.0001  0.0001 </r>
        <r>  0.0000  0.0001  0.0001 </r>
        <r>  0.0000  0.0094  0.0001 </r>
        <r>  0.0000  0.0096  0.0001 </r>
        <r>  0.0000  0.0013  0.0002 </r>
        <r>  0.0000  0.0013  0.0002 </r>
        <r>  0.0000  0.0080  0.0002 </r>
        <r>  0.0000  0.0083  0.0002 </r>
        <r>  0.0000  0.0018  0.0002 </r>
        <r>  0.0001  0.0019  0.0009 </r>
        <r>  0.0015  0.0020  0.0019 </r>
        <r>  0.0008  0.0038  0.0019 </r>
        <r>  0.0008  0.0036  0.0019 </r>
        <r>  0.0015  0.0021  0.0019 </r>
        <r>  0.0001  0.0019  0.0009 </r>
        <r>  0.0000  0.0017  0.0002 </r>
        <r>  0.0007  0.0012  0.0019 </r>
        <r>  0.0001  0.0003  0.0045 </r>
        <r>  0.0001  0.0010  0.0001 </r>
        <r>  0.0000  0.0014  0.0005 </r>
        <r>  0.0010  0.0032  0.0009 </r>
        <r>  0.0006  0.0024  0.0007 </r>
        <r>  0.0006  0.0028  0.0007 </r>
        <r>  0.0015  0.0028  0.0016 </r>
        <r>  0.0015  0.0027  0.0015 </r>
        <r>  0.0006  0.0028  0.0007 </r>
        <r>  0.0006  0.0024  0.0007 </r>
        <r>  0.0010  0.0031  0.0009 </r>
        <r>  0.0001  0.0003  0.0045 </r>
        <r>  0.0007  0.0012  0.0019 </r>
        <r>  0.0000  0.0013  0.0005 </r>
        <r>  0.0001  0.0010  0.0001 </r>
        <r>  0.0003  0.0000  0.0222 </r>
       </set>
       <set comment="band 204">
        <r>  0.0006  0.0009  0.0100 </r>
        <r>  0.0015  0.0005  0.0079 </r>
        <r>  0.0053  0.0007  0.0019 </r>
        <r>  0.0059  0.0007  0.0025 </r>
        <r>  0.0014  0.0005  0.0083 </r>
        <r>  0.0006  0.0009  0.0097 </r>
        <r>  0.0001  0.0056  0.0000 </r>
        <r>  0.0001  0.0055  0.0000 </r>
        <r>  0.0000  0.0010  0.0001 </r>
        <r>  0.0000  0.0011  0.0001 </r>
        <r>  0.0001  0.0141  0.0003 </r>
        <r>  0.0001  0.0145  0.0003 </r>
        <r>  0.0000  0.0039  0.0004 </r>
        <r>  0.0000  0.0042  0.0004 </r>
        <r>  0.0016  0.0007  0.0022 </r>
        <r>  0.0004  0.0043  0.0014 </r>
        <r>  0.0002  0.0061  0.0003 </r>
        <r>  0.0006  0.0003  0.0020 </r>
        <r>  0.0006  0.0003  0.0020 </r>
        <r>  0.0002  0.0059  0.0003 </r>
        <r>  0.0004  0.0040  0.0014 </r>
        <r>  0.0017  0.0008  0.0024 </r>
        <r>  0.0013  0.0017  0.0014 </r>
        <r>  0.0000  0.0051  0.0019 </r>
        <r>  0.0002  0.0047  0.0012 </r>
        <r>  0.0014  0.0008  0.0007 </r>
        <r>  0.0000  0.0019  0.0007 </r>
        <r>  0.0002  0.0014  0.0007 </r>
        <r>  0.0002  0.0010  0.0001 </r>
        <r>  0.0000  0.0007  0.0004 </r>
        <r>  0.0000  0.0007  0.0004 </r>
        <r>  0.0003  0.0011  0.0001 </r>
        <r>  0.0002  0.0013  0.0007 </r>
        <r>  0.0000  0.0019  0.0006 </r>
        <r>  0.0000  0.0051  0.0019 </r>
        <r>  0.0013  0.0016  0.0014 </r>
        <r>  0.0014  0.0009  0.0008 </r>
        <r>  0.0002  0.0049  0.0013 </r>
        <r>  0.0001  0.0000  0.0345 </r>
       </set>
       <set comment="band 205">
        <r>  0.0004  0.0005  0.0098 </r>
        <r>  0.0019  0.0006  0.0081 </r>
        <r>  0.0089  0.0009  0.0086 </r>
        <r>  0.0083  0.0009  0.0082 </r>
        <r>  0.0020  0.0006  0.0080 </r>
        <r>  0.0004  0.0005  0.0100 </r>
        <r>  0.0000  0.0077  0.0000 </r>
        <r>  0.0000  0.0077  0.0000 </r>
        <r>  0.0000  0.0072  0.0001 </r>
        <r>  0.0000  0.0072  0.0001 </r>
        <r>  0.0000  0.0016  0.0000 </r>
        <r>  0.0000  0.0014  0.0000 </r>
        <r>  0.0000  0.0038  0.0001 </r>
        <r>  0.0000  0.0034  0.0001 </r>
        <r>  0.0025  0.0020  0.0023 </r>
        <r>  0.0000  0.0039  0.0010 </r>
        <r>  0.0008  0.0029  0.0011 </r>
        <r>  0.0002  0.0028  0.0003 </r>
        <r>  0.0002  0.0027  0.0004 </r>
        <r>  0.0008  0.0030  0.0011 </r>
        <r>  0.0000  0.0042  0.0009 </r>
        <r>  0.0024  0.0020  0.0021 </r>
        <r>  0.0000  0.0023  0.0011 </r>
        <r>  0.0005  0.0002  0.0009 </r>
        <r>  0.0000  0.0012  0.0004 </r>
        <r>  0.0001  0.0020  0.0016 </r>
        <r>  0.0021  0.0009  0.0013 </r>
        <r>  0.0004  0.0039  0.0004 </r>
        <r>  0.0003  0.0047  0.0004 </r>
        <r>  0.0018  0.0021  0.0021 </r>
        <r>  0.0019  0.0021  0.0021 </r>
        <r>  0.0003  0.0045  0.0004 </r>
        <r>  0.0004  0.0039  0.0005 </r>
        <r>  0.0021  0.0009  0.0014 </r>
        <r>  0.0005  0.0002  0.0008 </r>
        <r>  0.0000  0.0024  0.0011 </r>
        <r>  0.0001  0.0019  0.0016 </r>
        <r>  0.0000  0.0010  0.0003 </r>
        <r>  0.0000  0.0005  0.0000 </r>
       </set>
       <set comment="band 206">
        <r>  0.0023  0.0001  0.0127 </r>
        <r>  0.0003  0.0007  0.0277 </r>
        <r>  0.0000  0.0002  0.0189 </r>
        <r>  0.0000  0.0001  0.0189 </r>
        <r>  0.0005  0.0006  0.0274 </r>
        <r>  0.0022  0.0001  0.0146 </r>
        <r>  0.0000  0.0085  0.0002 </r>
        <r>  0.0001  0.0080  0.0002 </r>
        <r>  0.0000  0.0022  0.0003 </r>
        <r>  0.0000  0.0024  0.0002 </r>
        <r>  0.0001  0.0010  0.0006 </r>
        <r>  0.0001  0.0006  0.0006 </r>
        <r>  0.0000  0.0040  0.0008 </r>
        <r>  0.0000  0.0034  0.0008 </r>
        <r>  0.0001  0.0007  0.0007 </r>
        <r>  0.0000  0.0009  0.0003 </r>
        <r>  0.0006  0.0010  0.0017 </r>
        <r>  0.0013  0.0011  0.0030 </r>
        <r>  0.0014  0.0012  0.0030 </r>
        <r>  0.0008  0.0009  0.0019 </r>
        <r>  0.0001  0.0008  0.0002 </r>
        <r>  0.0001  0.0007  0.0006 </r>
        <r>  0.0000  0.0011  0.0022 </r>
        <r>  0.0001  0.0015  0.0011 </r>
        <r>  0.0003  0.0002  0.0011 </r>
        <r>  0.0006  0.0035  0.0042 </r>
        <r>  0.0004  0.0021  0.0016 </r>
        <r>  0.0002  0.0005  0.0003 </r>
        <r>  0.0000  0.0016  0.0003 </r>
        <r>  0.0005  0.0004  0.0013 </r>
        <r>  0.0005  0.0003  0.0014 </r>
        <r>  0.0000  0.0015  0.0003 </r>
        <r>  0.0002  0.0005  0.0003 </r>
        <r>  0.0005  0.0020  0.0016 </r>
        <r>  0.0001  0.0018  0.0012 </r>
        <r>  0.0000  0.0011  0.0021 </r>
        <r>  0.0005  0.0033  0.0043 </r>
        <r>  0.0003  0.0002  0.0011 </r>
        <r>  0.0000  0.0003  0.0000 </r>
       </set>
       <set comment="band 207">
        <r>  0.0011  0.0001  0.0056 </r>
        <r>  0.0007  0.0007  0.0226 </r>
        <r>  0.0000  0.0002  0.0313 </r>
        <r>  0.0001  0.0002  0.0305 </r>
        <r>  0.0007  0.0008  0.0242 </r>
        <r>  0.0014  0.0001  0.0054 </r>
        <r>  0.0000  0.0060  0.0003 </r>
        <r>  0.0000  0.0067  0.0003 </r>
        <r>  0.0001  0.0011  0.0005 </r>
        <r>  0.0001  0.0010  0.0005 </r>
        <r>  0.0001  0.0045  0.0002 </r>
        <r>  0.0001  0.0046  0.0003 </r>
        <r>  0.0001  0.0028  0.0003 </r>
        <r>  0.0001  0.0034  0.0003 </r>
        <r>  0.0000  0.0011  0.0009 </r>
        <r>  0.0003  0.0004  0.0003 </r>
        <r>  0.0000  0.0003  0.0004 </r>
        <r>  0.0003  0.0007  0.0011 </r>
        <r>  0.0004  0.0007  0.0013 </r>
        <r>  0.0000  0.0002  0.0004 </r>
        <r>  0.0002  0.0004  0.0003 </r>
        <r>  0.0001  0.0010  0.0009 </r>
        <r>  0.0006  0.0006  0.0027 </r>
        <r>  0.0001  0.0010  0.0005 </r>
        <r>  0.0000  0.0002  0.0008 </r>
        <r>  0.0009  0.0014  0.0031 </r>
        <r>  0.0012  0.0020  0.0055 </r>
        <r>  0.0001  0.0014  0.0005 </r>
        <r>  0.0001  0.0004  0.0004 </r>
        <r>  0.0000  0.0033  0.0016 </r>
        <r>  0.0000  0.0032  0.0015 </r>
        <r>  0.0001  0.0004  0.0004 </r>
        <r>  0.0001  0.0013  0.0005 </r>
        <r>  0.0010  0.0022  0.0056 </r>
        <r>  0.0000  0.0010  0.0005 </r>
        <r>  0.0007  0.0005  0.0027 </r>
        <r>  0.0010  0.0013  0.0029 </r>
        <r>  0.0001  0.0001  0.0007 </r>
        <r>  0.0001  0.0000  0.0085 </r>
       </set>
       <set comment="band 208">
        <r>  0.0001  0.0002  0.0258 </r>
        <r>  0.0006  0.0001  0.0130 </r>
        <r>  0.0006  0.0004  0.0165 </r>
        <r>  0.0007  0.0002  0.0126 </r>
        <r>  0.0012  0.0001  0.0196 </r>
        <r>  0.0002  0.0002  0.0303 </r>
        <r>  0.0001  0.0064  0.0002 </r>
        <r>  0.0000  0.0076  0.0001 </r>
        <r>  0.0000  0.0026  0.0002 </r>
        <r>  0.0000  0.0013  0.0001 </r>
        <r>  0.0000  0.0014  0.0010 </r>
        <r>  0.0000  0.0032  0.0004 </r>
        <r>  0.0001  0.0017  0.0009 </r>
        <r>  0.0000  0.0038  0.0010 </r>
        <r>  0.0000  0.0020  0.0019 </r>
        <r>  0.0000  0.0005  0.0018 </r>
        <r>  0.0009  0.0004  0.0023 </r>
        <r>  0.0004  0.0006  0.0013 </r>
        <r>  0.0009  0.0008  0.0012 </r>
        <r>  0.0022  0.0005  0.0037 </r>
        <r>  0.0000  0.0003  0.0013 </r>
        <r>  0.0001  0.0014  0.0011 </r>
        <r>  0.0002  0.0020  0.0009 </r>
        <r>  0.0000  0.0003  0.0012 </r>
        <r>  0.0000  0.0027  0.0031 </r>
        <r>  0.0002  0.0014  0.0009 </r>
        <r>  0.0003  0.0002  0.0009 </r>
        <r>  0.0003  0.0020  0.0004 </r>
        <r>  0.0000  0.0022  0.0002 </r>
        <r>  0.0009  0.0009  0.0017 </r>
        <r>  0.0009  0.0005  0.0022 </r>
        <r>  0.0001  0.0016  0.0001 </r>
        <r>  0.0002  0.0024  0.0004 </r>
        <r>  0.0004  0.0003  0.0012 </r>
        <r>  0.0000  0.0003  0.0016 </r>
        <r>  0.0003  0.0024  0.0011 </r>
        <r>  0.0005  0.0012  0.0008 </r>
        <r>  0.0001  0.0036  0.0027 </r>
        <r>  0.0000  0.0009  0.0014 </r>
       </set>
      </set>
     </set>
    </set>
   </array>
  </projected>
 </calculation>
 <structure name="finalpos" >
  <crystal>
   <varray name="basis" >
    <v>       8.42001800       0.00000000       8.07798100 </v>
    <v>       0.00000000      11.76380800       0.00000000 </v>
    <v>      -8.42001800       0.00000000       8.07798100 </v>
   </varray>
   <i name="volume">   1600.27186790 </i>
   <varray name="rec_basis" >
    <v>       0.05938230      -0.00000000       0.06189665 </v>
    <v>       0.00000000       0.08500649      -0.00000000 </v>
    <v>      -0.05938230       0.00000000       0.06189665 </v>
   </varray>
  </crystal>
  <varray name="positions" >
   <v>       0.27046400       0.24931100       0.20183800 </v>
   <v>       0.77258400       0.24862600       0.72127700 </v>
   <v>       0.20772800       0.75436100       0.76542100 </v>
   <v>       0.29237100       0.24582600       0.73454300 </v>
   <v>       0.72745000       0.75127800       0.77904400 </v>
   <v>       0.22956200       0.75069900       0.29826300 </v>
   <v>       0.99748700       0.99800300       0.00512700 </v>
   <v>       0.50257200       0.00201300       0.49485700 </v>
   <v>       0.50318000       0.99766500       0.00059400 </v>
   <v>       0.99674500       0.00242300       0.49939600 </v>
   <v>       0.50019800       0.50195500       0.99736300 </v>
   <v>       0.99970800       0.49817200       0.50264100 </v>
   <v>       0.00008800       0.50090700       0.00256800 </v>
   <v>       0.49993100       0.49923700       0.49741400 </v>
   <v>       0.46539100       0.74928700       0.94880300 </v>
   <v>       0.97099900       0.75005400       0.47169000 </v>
   <v>       0.97529900       0.24984300       0.96962200 </v>
   <v>       0.44888400       0.25050000       0.46948800 </v>
   <v>       0.05131500       0.74961800       0.03054000 </v>
   <v>       0.52484700       0.75027200       0.53035900 </v>
   <v>       0.52879600       0.25003000       0.02811100 </v>
   <v>       0.03466900       0.25082800       0.55128400 </v>
   <v>       0.24843600       0.46539400       0.94875500 </v>
   <v>       0.74822300       0.45883800       0.47338800 </v>
   <v>       0.44308900       0.52974600       0.24619500 </v>
   <v>       0.95796300       0.54181900       0.75019100 </v>
   <v>       0.54787200       0.03453000       0.75035700 </v>
   <v>       0.05779900       0.03003900       0.25383700 </v>
   <v>       0.75275200       0.94921500       0.04071700 </v>
   <v>       0.25043300       0.96896800       0.54900900 </v>
   <v>       0.24957500       0.03117300       0.95094100 </v>
   <v>       0.74722300       0.05069500       0.45926700 </v>
   <v>       0.44209300       0.97013800       0.24614800 </v>
   <v>       0.95194200       0.96537500       0.74967700 </v>
   <v>       0.75184400       0.54070500       0.02650900 </v>
   <v>       0.25161100       0.53469300       0.55126700 </v>
   <v>       0.54202400       0.45850900       0.74982300 </v>
   <v>       0.05691700       0.47020800       0.25377900 </v>
   <v>       0.74988600       0.49933100       0.24991900 </v>
  </varray>
 </structure>
</modeling>
