  39  39   1   0
  0.4089970E+02  0.1166870E-08  0.1172985E-08  0.1166870E-08  0.5000000E-15
   1.0000000000000000E-004
  CAR 
 CsPbBr3 cubic bulk                      
      8.05168681    -22.21910173  301      0.43353836      1.00000000
    -22.219  0.0000E+00  0.0000E+00
    -22.118  0.0000E+00  0.0000E+00
    -22.017  0.0000E+00  0.0000E+00
    -21.916  0.0000E+00  0.0000E+00
    -21.815  0.0000E+00  0.0000E+00
    -21.715  0.0000E+00  0.0000E+00
    -21.614  0.0000E+00  0.0000E+00
    -21.513  0.0000E+00  0.0000E+00
    -21.412  0.0000E+00  0.0000E+00
    -21.311  0.0000E+00  0.0000E+00
    -21.210  0.0000E+00  0.0000E+00
    -21.109  0.0000E+00  0.0000E+00
    -21.008  0.0000E+00  0.0000E+00
    -20.907  0.0000E+00  0.0000E+00
    -20.806  0.3964E+02  0.4000E+01
    -20.706  0.9868E+02  0.1396E+02
    -20.605  0.1979E+02  0.1600E+02
    -20.504  0.0000E+00  0.1600E+02
    -20.403  0.0000E+00  0.1600E+02
    -20.302  0.0000E+00  0.1600E+02
    -20.201  0.0000E+00  0.1600E+02
    -20.100  0.0000E+00  0.1600E+02
    -19.999  0.0000E+00  0.1600E+02
    -19.898  0.0000E+00  0.1600E+02
    -19.797  0.0000E+00  0.1600E+02
    -19.697  0.0000E+00  0.1600E+02
    -19.596  0.0000E+00  0.1600E+02
    -19.495  0.0000E+00  0.1600E+02
    -19.394  0.0000E+00  0.1600E+02
    -19.293  0.0000E+00  0.1600E+02
    -19.192  0.0000E+00  0.1600E+02
    -19.091  0.0000E+00  0.1600E+02
    -18.990  0.0000E+00  0.1600E+02
    -18.889  0.0000E+00  0.1600E+02
    -18.788  0.0000E+00  0.1600E+02
    -18.688  0.0000E+00  0.1600E+02
    -18.587  0.0000E+00  0.1600E+02
    -18.486  0.0000E+00  0.1600E+02
    -18.385  0.0000E+00  0.1600E+02
    -18.284  0.0000E+00  0.1600E+02
    -18.183  0.0000E+00  0.1600E+02
    -18.082  0.0000E+00  0.1600E+02
    -17.981  0.0000E+00  0.1600E+02
    -17.880  0.0000E+00  0.1600E+02
    -17.779  0.0000E+00  0.1600E+02
    -17.678  0.0000E+00  0.1600E+02
    -17.578  0.0000E+00  0.1600E+02
    -17.477  0.0000E+00  0.1600E+02
    -17.376  0.0000E+00  0.1600E+02
    -17.275  0.0000E+00  0.1600E+02
    -17.174  0.0000E+00  0.1600E+02
    -17.073  0.0000E+00  0.1600E+02
    -16.972  0.0000E+00  0.1600E+02
    -16.871  0.0000E+00  0.1600E+02
    -16.770  0.1176E+02  0.1719E+02
    -16.669  0.8190E+02  0.2626E+02
    -16.569  0.7745E+02  0.3782E+02
    -16.468  0.7929E+02  0.4600E+02
    -16.367  0.1711E+03  0.6352E+02
    -16.266  0.2505E+03  0.9078E+02
    -16.165  0.0000E+00  0.9600E+02
    -16.064  0.0000E+00  0.9600E+02
    -15.963  0.0000E+00  0.9600E+02
    -15.862  0.0000E+00  0.9600E+02
    -15.761  0.0000E+00  0.9600E+02
    -15.660  0.0000E+00  0.9600E+02
    -15.560  0.0000E+00  0.9600E+02
    -15.459  0.0000E+00  0.9600E+02
    -15.358  0.0000E+00  0.9600E+02
    -15.257  0.0000E+00  0.9600E+02
    -15.156  0.0000E+00  0.9600E+02
    -15.055  0.0000E+00  0.9600E+02
    -14.954  0.0000E+00  0.9600E+02
    -14.853  0.0000E+00  0.9600E+02
    -14.752  0.0000E+00  0.9600E+02
    -14.651  0.0000E+00  0.9600E+02
    -14.551  0.7025E-03  0.9600E+02
    -14.450  0.2215E+02  0.9824E+02
    -14.349  0.3310E-04  0.1000E+03
    -14.248  0.2211E+02  0.1022E+03
    -14.147  0.2982E+02  0.1063E+03
    -14.046  0.8004E+02  0.1163E+03
    -13.945  0.5632E+02  0.1244E+03
    -13.844  0.8105E+02  0.1337E+03
    -13.743  0.5470E+02  0.1413E+03
    -13.642  0.2477E+01  0.1420E+03
    -13.541  0.0000E+00  0.1420E+03
    -13.441  0.0000E+00  0.1420E+03
    -13.340  0.0000E+00  0.1420E+03
    -13.239  0.0000E+00  0.1420E+03
    -13.138  0.0000E+00  0.1420E+03
    -13.037  0.0000E+00  0.1420E+03
    -12.936  0.0000E+00  0.1420E+03
    -12.835  0.0000E+00  0.1420E+03
    -12.734  0.0000E+00  0.1420E+03
    -12.633  0.0000E+00  0.1420E+03
    -12.532  0.0000E+00  0.1420E+03
    -12.432  0.0000E+00  0.1420E+03
    -12.331  0.0000E+00  0.1420E+03
    -12.230  0.0000E+00  0.1420E+03
    -12.129  0.0000E+00  0.1420E+03
    -12.028  0.0000E+00  0.1420E+03
    -11.927  0.0000E+00  0.1420E+03
    -11.826  0.0000E+00  0.1420E+03
    -11.725  0.0000E+00  0.1420E+03
    -11.624  0.0000E+00  0.1420E+03
    -11.523  0.0000E+00  0.1420E+03
    -11.423  0.0000E+00  0.1420E+03
    -11.322  0.0000E+00  0.1420E+03
    -11.221  0.0000E+00  0.1420E+03
    -11.120  0.0000E+00  0.1420E+03
    -11.019  0.0000E+00  0.1420E+03
    -10.918  0.0000E+00  0.1420E+03
    -10.817  0.0000E+00  0.1420E+03
    -10.716  0.0000E+00  0.1420E+03
    -10.615  0.0000E+00  0.1420E+03
    -10.514  0.0000E+00  0.1420E+03
    -10.413  0.0000E+00  0.1420E+03
    -10.313  0.0000E+00  0.1420E+03
    -10.212  0.0000E+00  0.1420E+03
    -10.111  0.0000E+00  0.1420E+03
    -10.010  0.0000E+00  0.1420E+03
     -9.909  0.0000E+00  0.1420E+03
     -9.808  0.0000E+00  0.1420E+03
     -9.707  0.0000E+00  0.1420E+03
     -9.606  0.0000E+00  0.1420E+03
     -9.505  0.0000E+00  0.1420E+03
     -9.404  0.0000E+00  0.1420E+03
     -9.304  0.0000E+00  0.1420E+03
     -9.203  0.0000E+00  0.1420E+03
     -9.102  0.0000E+00  0.1420E+03
     -9.001  0.0000E+00  0.1420E+03
     -8.900  0.0000E+00  0.1420E+03
     -8.799  0.0000E+00  0.1420E+03
     -8.698  0.0000E+00  0.1420E+03
     -8.597  0.0000E+00  0.1420E+03
     -8.496  0.0000E+00  0.1420E+03
     -8.395  0.0000E+00  0.1420E+03
     -8.295  0.0000E+00  0.1420E+03
     -8.194  0.2477E+01  0.1422E+03
     -8.093  0.5627E-01  0.1423E+03
     -7.992  0.5694E+01  0.1431E+03
     -7.891  0.7633E+01  0.1445E+03
     -7.790  0.6729E+01  0.1454E+03
     -7.689  0.1924E+02  0.1474E+03
     -7.588  0.7432E+01  0.1490E+03
     -7.487  0.1434E+02  0.1504E+03
     -7.386  0.1734E+02  0.1530E+03
     -7.286  0.1657E+02  0.1547E+03
     -7.185  0.1371E+03  0.1703E+03
     -7.084  0.2354E+03  0.2003E+03
     -6.983  0.1734E+02  0.2045E+03
     -6.882  0.4956E+01  0.2050E+03
     -6.781  0.7432E+01  0.2058E+03
     -6.680  0.0000E+00  0.2058E+03
     -6.579  0.2228E+01  0.2060E+03
     -6.478  0.0000E+00  0.2060E+03
     -6.377  0.0000E+00  0.2060E+03
     -6.276  0.0000E+00  0.2060E+03
     -6.176  0.0000E+00  0.2060E+03
     -6.075  0.0000E+00  0.2060E+03
     -5.974  0.0000E+00  0.2060E+03
     -5.873  0.0000E+00  0.2060E+03
     -5.772  0.0000E+00  0.2060E+03
     -5.671  0.0000E+00  0.2060E+03
     -5.570  0.0000E+00  0.2060E+03
     -5.469  0.0000E+00  0.2060E+03
     -5.368  0.0000E+00  0.2060E+03
     -5.267  0.0000E+00  0.2060E+03
     -5.167  0.0000E+00  0.2060E+03
     -5.066  0.0000E+00  0.2060E+03
     -4.965  0.0000E+00  0.2060E+03
     -4.864  0.0000E+00  0.2060E+03
     -4.763  0.0000E+00  0.2060E+03
     -4.662  0.0000E+00  0.2060E+03
     -4.561  0.0000E+00  0.2060E+03
     -4.460  0.0000E+00  0.2060E+03
     -4.359  0.0000E+00  0.2060E+03
     -4.258  0.0000E+00  0.2060E+03
     -4.158  0.0000E+00  0.2060E+03
     -4.057  0.0000E+00  0.2060E+03
     -3.956  0.0000E+00  0.2060E+03
     -3.855  0.0000E+00  0.2060E+03
     -3.754  0.0000E+00  0.2060E+03
     -3.653  0.0000E+00  0.2060E+03
     -3.552  0.0000E+00  0.2060E+03
     -3.451  0.0000E+00  0.2060E+03
     -3.350  0.3293E+01  0.2063E+03
     -3.249  0.2834E+02  0.2099E+03
     -3.149  0.3098E+02  0.2141E+03
     -3.048  0.1667E+02  0.2164E+03
     -2.947  0.2329E+02  0.2188E+03
     -2.846  0.9909E+01  0.2200E+03
     -2.745  0.3077E+00  0.2200E+03
     -2.644  0.2209E+02  0.2225E+03
     -2.543  0.3937E+02  0.2272E+03
     -2.442  0.2668E+02  0.2304E+03
     -2.341  0.3745E+02  0.2350E+03
     -2.240  0.2272E+02  0.2385E+03
     -2.139  0.2876E+02  0.2419E+03
     -2.039  0.2393E+02  0.2452E+03
     -1.938  0.3486E+02  0.2493E+03
     -1.837  0.2699E+02  0.2532E+03
     -1.736  0.4038E+02  0.2586E+03
     -1.635  0.4824E+02  0.2646E+03
     -1.534  0.6390E+02  0.2722E+03
     -1.433  0.8633E+02  0.2827E+03
     -1.332  0.9940E+02  0.2958E+03
     -1.231  0.8060E+02  0.3061E+03
     -1.130  0.7810E+02  0.3161E+03
     -1.030  0.6713E+02  0.3255E+03
     -0.929  0.2592E+02  0.3296E+03
     -0.828  0.2633E+02  0.3334E+03
     -0.727  0.2034E+02  0.3363E+03
     -0.626  0.5286E+01  0.3370E+03
     -0.525  0.1076E+02  0.3383E+03
     -0.424  0.1484E+02  0.3405E+03
     -0.323  0.9982E+01  0.3415E+03
     -0.222  0.2489E+01  0.3420E+03
     -0.121  0.2953E+01  0.3425E+03
     -0.021  0.2478E+01  0.3430E+03
      0.080  0.7424E+01  0.3437E+03
      0.181  0.0000E+00  0.3438E+03
      0.282  0.0000E+00  0.3438E+03
      0.383  0.2351E+01  0.3440E+03
      0.484  0.0000E+00  0.3440E+03
      0.585  0.0000E+00  0.3440E+03
      0.686  0.0000E+00  0.3440E+03
      0.787  0.0000E+00  0.3440E+03
      0.888  0.0000E+00  0.3440E+03
      0.989  0.0000E+00  0.3440E+03
      1.089  0.0000E+00  0.3440E+03
      1.190  0.0000E+00  0.3440E+03
      1.291  0.0000E+00  0.3440E+03
      1.392  0.0000E+00  0.3440E+03
      1.493  0.0000E+00  0.3440E+03
      1.594  0.0000E+00  0.3440E+03
      1.695  0.0000E+00  0.3440E+03
      1.796  0.0000E+00  0.3440E+03
      1.897  0.0000E+00  0.3440E+03
      1.998  0.0000E+00  0.3440E+03
      2.098  0.0000E+00  0.3440E+03
      2.199  0.0000E+00  0.3440E+03
      2.300  0.0000E+00  0.3440E+03
      2.401  0.5196E-07  0.3440E+03
      2.502  0.4977E+01  0.3445E+03
      2.603  0.9894E+01  0.3457E+03
      2.704  0.2478E+01  0.3460E+03
      2.805  0.2478E+01  0.3463E+03
      2.906  0.9524E+01  0.3472E+03
      3.007  0.1492E+02  0.3488E+03
      3.107  0.1071E+02  0.3501E+03
      3.208  0.1784E+02  0.3531E+03
      3.309  0.1023E+02  0.3545E+03
      3.410  0.1734E+02  0.3567E+03
      3.511  0.9911E+01  0.3577E+03
      3.612  0.2478E+01  0.3580E+03
      3.713  0.0000E+00  0.3580E+03
      3.814  0.3224E-06  0.3580E+03
      3.915  0.9805E+01  0.3590E+03
      4.016  0.4955E+01  0.3595E+03
      4.116  0.4955E+01  0.3600E+03
      4.217  0.4956E+01  0.3605E+03
      4.318  0.2231E+02  0.3628E+03
      4.419  0.2759E+02  0.3658E+03
      4.520  0.2522E+02  0.3690E+03
      4.621  0.2520E+02  0.3723E+03
      4.722  0.1660E+02  0.3752E+03
      4.823  0.2740E+02  0.3790E+03
      4.924  0.2223E+02  0.3817E+03
      5.025  0.0000E+00  0.3822E+03
      5.126  0.0000E+00  0.3822E+03
      5.226  0.0000E+00  0.3822E+03
      5.327  0.2477E+01  0.3825E+03
      5.428  0.2478E+01  0.3828E+03
      5.529  0.7603E+01  0.3835E+03
      5.630  0.9892E+01  0.3847E+03
      5.731  0.1555E+02  0.3863E+03
      5.832  0.1046E+02  0.3878E+03
      5.933  0.2366E+02  0.3906E+03
      6.034  0.2573E+02  0.3936E+03
      6.135  0.2503E+02  0.3973E+03
      6.235  0.2760E+02  0.4005E+03
      6.336  0.3153E+02  0.4047E+03
      6.437  0.2772E+02  0.4088E+03
      6.538  0.2804E+02  0.4123E+03
      6.639  0.2019E+02  0.4153E+03
      6.740  0.2478E+01  0.4160E+03
      6.841  0.0000E+00  0.4160E+03
      6.942  0.0000E+00  0.4160E+03
      7.043  0.0000E+00  0.4160E+03
      7.144  0.0000E+00  0.4160E+03
      7.244  0.0000E+00  0.4160E+03
      7.345  0.0000E+00  0.4160E+03
      7.446  0.0000E+00  0.4160E+03
      7.547  0.0000E+00  0.4160E+03
      7.648  0.0000E+00  0.4160E+03
      7.749  0.0000E+00  0.4160E+03
      7.850  0.0000E+00  0.4160E+03
      7.951  0.0000E+00  0.4160E+03
      8.052  0.0000E+00  0.4160E+03
      8.05168681    -22.21910173  301      0.43353836      1.00000000
    -22.219  0.0000E+00  0.0000E+00  0.0000E+00
    -22.118  0.0000E+00  0.0000E+00  0.0000E+00
    -22.017  0.0000E+00  0.0000E+00  0.0000E+00
    -21.916  0.0000E+00  0.0000E+00  0.0000E+00
    -21.815  0.0000E+00  0.0000E+00  0.0000E+00
    -21.715  0.0000E+00  0.0000E+00  0.0000E+00
    -21.614  0.0000E+00  0.0000E+00  0.0000E+00
    -21.513  0.0000E+00  0.0000E+00  0.0000E+00
    -21.412  0.0000E+00  0.0000E+00  0.0000E+00
    -21.311  0.0000E+00  0.0000E+00  0.0000E+00
    -21.210  0.0000E+00  0.0000E+00  0.0000E+00
    -21.109  0.0000E+00  0.0000E+00  0.0000E+00
    -21.008  0.0000E+00  0.0000E+00  0.0000E+00
    -20.907  0.0000E+00  0.0000E+00  0.0000E+00
    -20.806  0.5880E-03  0.5706E-07  0.1117E-07
    -20.706  0.1759E+02  0.7632E-04  0.6813E-05
    -20.605  0.4574E-04  0.3283E-08  0.3886E-09
    -20.504  0.0000E+00  0.0000E+00  0.0000E+00
    -20.403  0.0000E+00  0.0000E+00  0.0000E+00
    -20.302  0.0000E+00  0.0000E+00  0.0000E+00
    -20.201  0.0000E+00  0.0000E+00  0.0000E+00
    -20.100  0.0000E+00  0.0000E+00  0.0000E+00
    -19.999  0.0000E+00  0.0000E+00  0.0000E+00
    -19.898  0.0000E+00  0.0000E+00  0.0000E+00
    -19.797  0.0000E+00  0.0000E+00  0.0000E+00
    -19.697  0.0000E+00  0.0000E+00  0.0000E+00
    -19.596  0.0000E+00  0.0000E+00  0.0000E+00
    -19.495  0.0000E+00  0.0000E+00  0.0000E+00
    -19.394  0.0000E+00  0.0000E+00  0.0000E+00
    -19.293  0.0000E+00  0.0000E+00  0.0000E+00
    -19.192  0.0000E+00  0.0000E+00  0.0000E+00
    -19.091  0.0000E+00  0.0000E+00  0.0000E+00
    -18.990  0.0000E+00  0.0000E+00  0.0000E+00
    -18.889  0.0000E+00  0.0000E+00  0.0000E+00
    -18.788  0.0000E+00  0.0000E+00  0.0000E+00
    -18.688  0.0000E+00  0.0000E+00  0.0000E+00
    -18.587  0.0000E+00  0.0000E+00  0.0000E+00
    -18.486  0.0000E+00  0.0000E+00  0.0000E+00
    -18.385  0.0000E+00  0.0000E+00  0.0000E+00
    -18.284  0.0000E+00  0.0000E+00  0.0000E+00
    -18.183  0.0000E+00  0.0000E+00  0.0000E+00
    -18.082  0.0000E+00  0.0000E+00  0.0000E+00
    -17.981  0.0000E+00  0.0000E+00  0.0000E+00
    -17.880  0.0000E+00  0.0000E+00  0.0000E+00
    -17.779  0.0000E+00  0.0000E+00  0.0000E+00
    -17.678  0.0000E+00  0.0000E+00  0.0000E+00
    -17.578  0.0000E+00  0.0000E+00  0.0000E+00
    -17.477  0.0000E+00  0.0000E+00  0.0000E+00
    -17.376  0.0000E+00  0.0000E+00  0.0000E+00
    -17.275  0.0000E+00  0.0000E+00  0.0000E+00
    -17.174  0.0000E+00  0.0000E+00  0.0000E+00
    -17.073  0.0000E+00  0.0000E+00  0.0000E+00
    -16.972  0.0000E+00  0.0000E+00  0.0000E+00
    -16.871  0.0000E+00  0.0000E+00  0.0000E+00
    -16.770  0.5788E-05  0.2499E-05  0.3611E-06
    -16.669  0.3831E-04  0.1536E-04  0.1900E-05
    -16.569  0.2023E-04  0.9925E-05  0.1368E-05
    -16.468  0.7266E-05  0.3675E-05  0.4873E-06
    -16.367  0.6933E-04  0.9737E-04  0.2096E-04
    -16.266  0.8059E-04  0.4271E-04  0.4959E-05
    -16.165  0.0000E+00  0.0000E+00  0.0000E+00
    -16.064  0.0000E+00  0.0000E+00  0.0000E+00
    -15.963  0.0000E+00  0.0000E+00  0.0000E+00
    -15.862  0.0000E+00  0.0000E+00  0.0000E+00
    -15.761  0.0000E+00  0.0000E+00  0.0000E+00
    -15.660  0.0000E+00  0.0000E+00  0.0000E+00
    -15.560  0.0000E+00  0.0000E+00  0.0000E+00
    -15.459  0.0000E+00  0.0000E+00  0.0000E+00
    -15.358  0.0000E+00  0.0000E+00  0.0000E+00
    -15.257  0.0000E+00  0.0000E+00  0.0000E+00
    -15.156  0.0000E+00  0.0000E+00  0.0000E+00
    -15.055  0.0000E+00  0.0000E+00  0.0000E+00
    -14.954  0.0000E+00  0.0000E+00  0.0000E+00
    -14.853  0.0000E+00  0.0000E+00  0.0000E+00
    -14.752  0.0000E+00  0.0000E+00  0.0000E+00
    -14.651  0.0000E+00  0.0000E+00  0.0000E+00
    -14.551  0.4195E-07  0.1516E-08  0.1121E-09
    -14.450  0.4737E-03  0.2656E-03  0.1119E-04
    -14.349  0.7347E-08  0.2826E-08  0.3051E-10
    -14.248  0.4428E-02  0.2328E-02  0.3127E-04
    -14.147  0.1775E-02  0.3209E-02  0.9381E-04
    -14.046  0.1777E-02  0.5031E-02  0.4578E-03
    -13.945  0.1243E-02  0.3962E-02  0.3612E-03
    -13.844  0.1055E-02  0.4623E-02  0.6323E-03
    -13.743  0.8636E-03  0.1832E-02  0.2986E-03
    -13.642  0.3837E-04  0.1111E-03  0.7518E-05
    -13.541  0.0000E+00  0.0000E+00  0.0000E+00
    -13.441  0.0000E+00  0.0000E+00  0.0000E+00
    -13.340  0.0000E+00  0.0000E+00  0.0000E+00
    -13.239  0.0000E+00  0.0000E+00  0.0000E+00
    -13.138  0.0000E+00  0.0000E+00  0.0000E+00
    -13.037  0.0000E+00  0.0000E+00  0.0000E+00
    -12.936  0.0000E+00  0.0000E+00  0.0000E+00
    -12.835  0.0000E+00  0.0000E+00  0.0000E+00
    -12.734  0.0000E+00  0.0000E+00  0.0000E+00
    -12.633  0.0000E+00  0.0000E+00  0.0000E+00
    -12.532  0.0000E+00  0.0000E+00  0.0000E+00
    -12.432  0.0000E+00  0.0000E+00  0.0000E+00
    -12.331  0.0000E+00  0.0000E+00  0.0000E+00
    -12.230  0.0000E+00  0.0000E+00  0.0000E+00
    -12.129  0.0000E+00  0.0000E+00  0.0000E+00
    -12.028  0.0000E+00  0.0000E+00  0.0000E+00
    -11.927  0.0000E+00  0.0000E+00  0.0000E+00
    -11.826  0.0000E+00  0.0000E+00  0.0000E+00
    -11.725  0.0000E+00  0.0000E+00  0.0000E+00
    -11.624  0.0000E+00  0.0000E+00  0.0000E+00
    -11.523  0.0000E+00  0.0000E+00  0.0000E+00
    -11.423  0.0000E+00  0.0000E+00  0.0000E+00
    -11.322  0.0000E+00  0.0000E+00  0.0000E+00
    -11.221  0.0000E+00  0.0000E+00  0.0000E+00
    -11.120  0.0000E+00  0.0000E+00  0.0000E+00
    -11.019  0.0000E+00  0.0000E+00  0.0000E+00
    -10.918  0.0000E+00  0.0000E+00  0.0000E+00
    -10.817  0.0000E+00  0.0000E+00  0.0000E+00
    -10.716  0.0000E+00  0.0000E+00  0.0000E+00
    -10.615  0.0000E+00  0.0000E+00  0.0000E+00
    -10.514  0.0000E+00  0.0000E+00  0.0000E+00
    -10.413  0.0000E+00  0.0000E+00  0.0000E+00
    -10.313  0.0000E+00  0.0000E+00  0.0000E+00
    -10.212  0.0000E+00  0.0000E+00  0.0000E+00
    -10.111  0.0000E+00  0.0000E+00  0.0000E+00
    -10.010  0.0000E+00  0.0000E+00  0.0000E+00
     -9.909  0.0000E+00  0.0000E+00  0.0000E+00
     -9.808  0.0000E+00  0.0000E+00  0.0000E+00
     -9.707  0.0000E+00  0.0000E+00  0.0000E+00
     -9.606  0.0000E+00  0.0000E+00  0.0000E+00
     -9.505  0.0000E+00  0.0000E+00  0.0000E+00
     -9.404  0.0000E+00  0.0000E+00  0.0000E+00
     -9.304  0.0000E+00  0.0000E+00  0.0000E+00
     -9.203  0.0000E+00  0.0000E+00  0.0000E+00
     -9.102  0.0000E+00  0.0000E+00  0.0000E+00
     -9.001  0.0000E+00  0.0000E+00  0.0000E+00
     -8.900  0.0000E+00  0.0000E+00  0.0000E+00
     -8.799  0.0000E+00  0.0000E+00  0.0000E+00
     -8.698  0.0000E+00  0.0000E+00  0.0000E+00
     -8.597  0.0000E+00  0.0000E+00  0.0000E+00
     -8.496  0.0000E+00  0.0000E+00  0.0000E+00
     -8.395  0.0000E+00  0.0000E+00  0.0000E+00
     -8.295  0.0000E+00  0.0000E+00  0.0000E+00
     -8.194  0.1643E-07  0.4364E-03  0.1233E-04
     -8.093  0.1000E-08  0.3302E-04  0.1023E-06
     -7.992  0.1662E-06  0.2953E-02  0.1882E-04
     -7.891  0.2135E-06  0.8166E-02  0.2728E-04
     -7.790  0.3898E-06  0.9201E-02  0.2814E-04
     -7.689  0.6448E-05  0.3351E-01  0.7436E-04
     -7.588  0.1159E-04  0.1545E-01  0.2418E-04
     -7.487  0.2083E-04  0.4951E-01  0.4506E-04
     -7.386  0.2621E-04  0.1249E+00  0.5113E-04
     -7.286  0.9189E-05  0.2140E+00  0.2381E-04
     -7.185  0.6175E-04  0.4916E+01  0.7335E-04
     -7.084  0.1412E-03  0.2966E+02  0.1491E-03
     -6.983  0.2574E-04  0.3485E+00  0.1591E-04
     -6.882  0.3056E-04  0.2719E-01  0.1227E-04
     -6.781  0.2832E-04  0.4342E-01  0.1726E-04
     -6.680  0.0000E+00  0.0000E+00  0.0000E+00
     -6.579  0.9081E-05  0.6084E-02  0.1244E-05
     -6.478  0.0000E+00  0.0000E+00  0.0000E+00
     -6.377  0.0000E+00  0.0000E+00  0.0000E+00
     -6.276  0.0000E+00  0.0000E+00  0.0000E+00
     -6.176  0.0000E+00  0.0000E+00  0.0000E+00
     -6.075  0.0000E+00  0.0000E+00  0.0000E+00
     -5.974  0.0000E+00  0.0000E+00  0.0000E+00
     -5.873  0.0000E+00  0.0000E+00  0.0000E+00
     -5.772  0.0000E+00  0.0000E+00  0.0000E+00
     -5.671  0.0000E+00  0.0000E+00  0.0000E+00
     -5.570  0.0000E+00  0.0000E+00  0.0000E+00
     -5.469  0.0000E+00  0.0000E+00  0.0000E+00
     -5.368  0.0000E+00  0.0000E+00  0.0000E+00
     -5.267  0.0000E+00  0.0000E+00  0.0000E+00
     -5.167  0.0000E+00  0.0000E+00  0.0000E+00
     -5.066  0.0000E+00  0.0000E+00  0.0000E+00
     -4.965  0.0000E+00  0.0000E+00  0.0000E+00
     -4.864  0.0000E+00  0.0000E+00  0.0000E+00
     -4.763  0.0000E+00  0.0000E+00  0.0000E+00
     -4.662  0.0000E+00  0.0000E+00  0.0000E+00
     -4.561  0.0000E+00  0.0000E+00  0.0000E+00
     -4.460  0.0000E+00  0.0000E+00  0.0000E+00
     -4.359  0.0000E+00  0.0000E+00  0.0000E+00
     -4.258  0.0000E+00  0.0000E+00  0.0000E+00
     -4.158  0.0000E+00  0.0000E+00  0.0000E+00
     -4.057  0.0000E+00  0.0000E+00  0.0000E+00
     -3.956  0.0000E+00  0.0000E+00  0.0000E+00
     -3.855  0.0000E+00  0.0000E+00  0.0000E+00
     -3.754  0.0000E+00  0.0000E+00  0.0000E+00
     -3.653  0.0000E+00  0.0000E+00  0.0000E+00
     -3.552  0.0000E+00  0.0000E+00  0.0000E+00
     -3.451  0.0000E+00  0.0000E+00  0.0000E+00
     -3.350  0.2320E-04  0.3254E-02  0.4810E-04
     -3.249  0.3142E-03  0.1911E-01  0.1697E-02
     -3.149  0.3661E-03  0.1908E-01  0.1895E-02
     -3.048  0.1681E-04  0.5233E-02  0.5423E-03
     -2.947  0.2263E-03  0.5512E-02  0.5144E-03
     -2.846  0.3009E-03  0.3147E-02  0.1404E-03
     -2.745  0.4523E-05  0.2169E-03  0.1225E-04
     -2.644  0.9416E-03  0.1931E-01  0.9602E-03
     -2.543  0.1380E-02  0.3005E-01  0.2016E-02
     -2.442  0.1643E-02  0.2270E-01  0.1786E-02
     -2.341  0.2304E-02  0.2520E-01  0.2919E-02
     -2.240  0.4155E-02  0.1141E-01  0.2362E-02
     -2.139  0.7089E-02  0.1701E-01  0.2280E-02
     -2.039  0.7164E-02  0.1827E-01  0.2329E-02
     -1.938  0.1886E-01  0.4316E-01  0.4008E-02
     -1.837  0.3072E-02  0.4855E-01  0.3205E-02
     -1.736  0.2085E-02  0.7295E-01  0.6109E-02
     -1.635  0.4180E-02  0.1055E+00  0.1400E-01
     -1.534  0.3314E-02  0.1032E+00  0.1458E-01
     -1.433  0.5129E-02  0.9109E-01  0.1655E-01
     -1.332  0.3844E-02  0.8262E-01  0.2131E-01
     -1.231  0.5114E-02  0.5347E-01  0.1166E-01
     -1.130  0.2115E-02  0.8874E-01  0.1582E-01
     -1.030  0.1048E-02  0.4211E-01  0.9264E-02
     -0.929  0.7662E-03  0.1470E-01  0.2777E-02
     -0.828  0.1599E-02  0.2663E-01  0.4388E-02
     -0.727  0.3878E-03  0.8226E-02  0.2345E-02
     -0.626  0.1578E-04  0.1303E-02  0.5510E-03
     -0.525  0.1534E-03  0.1673E-02  0.6392E-03
     -0.424  0.1201E-04  0.1558E-02  0.1062E-02
     -0.323  0.1407E-03  0.1891E-02  0.7993E-03
     -0.222  0.7737E-05  0.8823E-03  0.4279E-04
     -0.121  0.6810E-05  0.9856E-04  0.2684E-03
     -0.021  0.4485E-05  0.1109E-03  0.2149E-03
      0.080  0.7482E-05  0.1055E-02  0.5538E-03
      0.181  0.0000E+00  0.0000E+00  0.0000E+00
      0.282  0.0000E+00  0.0000E+00  0.0000E+00
      0.383  0.1323E-07  0.1754E-03  0.2057E-03
      0.484  0.0000E+00  0.0000E+00  0.0000E+00
      0.585  0.0000E+00  0.0000E+00  0.0000E+00
      0.686  0.0000E+00  0.0000E+00  0.0000E+00
      0.787  0.0000E+00  0.0000E+00  0.0000E+00
      0.888  0.0000E+00  0.0000E+00  0.0000E+00
      0.989  0.0000E+00  0.0000E+00  0.0000E+00
      1.089  0.0000E+00  0.0000E+00  0.0000E+00
      1.190  0.0000E+00  0.0000E+00  0.0000E+00
      1.291  0.0000E+00  0.0000E+00  0.0000E+00
      1.392  0.0000E+00  0.0000E+00  0.0000E+00
      1.493  0.0000E+00  0.0000E+00  0.0000E+00
      1.594  0.0000E+00  0.0000E+00  0.0000E+00
      1.695  0.0000E+00  0.0000E+00  0.0000E+00
      1.796  0.0000E+00  0.0000E+00  0.0000E+00
      1.897  0.0000E+00  0.0000E+00  0.0000E+00
      1.998  0.0000E+00  0.0000E+00  0.0000E+00
      2.098  0.0000E+00  0.0000E+00  0.0000E+00
      2.199  0.0000E+00  0.0000E+00  0.0000E+00
      2.300  0.0000E+00  0.0000E+00  0.0000E+00
      2.401  0.3857E-12  0.1451E-11  0.4269E-12
      2.502  0.6152E-04  0.2464E-03  0.1122E-03
      2.603  0.7232E-04  0.1198E-02  0.3469E-02
      2.704  0.6554E-05  0.3554E-03  0.9144E-03
      2.805  0.4252E-04  0.3198E-03  0.7495E-03
      2.906  0.4652E-03  0.1718E-02  0.2509E-02
      3.007  0.2722E-03  0.1631E-02  0.5239E-02
      3.107  0.2700E-03  0.2250E-02  0.2684E-02
      3.208  0.4538E-03  0.3693E-02  0.4561E-02
      3.309  0.7937E-03  0.2130E-02  0.1553E-02
      3.410  0.7044E-03  0.2768E-02  0.2963E-02
      3.511  0.5046E-03  0.9512E-03  0.1718E-02
      3.612  0.5072E-03  0.1898E-03  0.8561E-03
      3.713  0.0000E+00  0.0000E+00  0.0000E+00
      3.814  0.4852E-10  0.2278E-09  0.6480E-09
      3.915  0.1709E-02  0.8018E-02  0.1803E-01
      4.016  0.3949E-04  0.4648E-03  0.1378E-02
      4.116  0.5926E-04  0.3469E-03  0.2566E-02
      4.217  0.2605E-03  0.3227E-03  0.1913E-02
      4.318  0.4462E-03  0.3134E-02  0.7470E-02
      4.419  0.2011E-02  0.5891E-02  0.1784E-01
      4.520  0.4369E-02  0.5750E-02  0.1089E-01
      4.621  0.3504E-02  0.4874E-02  0.9738E-02
      4.722  0.1781E-02  0.2467E-02  0.6189E-02
      4.823  0.1471E-02  0.4354E-02  0.7681E-02
      4.924  0.1577E-01  0.5188E-02  0.9963E-02
      5.025  0.0000E+00  0.0000E+00  0.0000E+00
      5.126  0.0000E+00  0.0000E+00  0.0000E+00
      5.226  0.0000E+00  0.0000E+00  0.0000E+00
      5.327  0.5102E-02  0.4094E-02  0.2654E-02
      5.428  0.1113E-01  0.2994E-02  0.1904E-02
      5.529  0.9470E-02  0.6299E-02  0.8258E-02
      5.630  0.1693E-01  0.4821E-02  0.1789E-01
      5.731  0.3405E-02  0.1846E-02  0.2137E-01
      5.832  0.7136E-02  0.3136E-02  0.2760E-01
      5.933  0.8481E-02  0.6019E-02  0.6423E-01
      6.034  0.1002E-01  0.1262E-01  0.9546E-01
      6.135  0.4270E-01  0.8397E-02  0.9534E-01
      6.235  0.3164E-01  0.1565E-01  0.1698E+00
      6.336  0.2597E-01  0.1368E-01  0.3090E+00
      6.437  0.2694E-01  0.2268E-01  0.3234E+00
      6.538  0.3952E-01  0.2105E-01  0.3570E+00
      6.639  0.3890E-01  0.1800E-01  0.2582E+00
      6.740  0.7419E-03  0.6762E-03  0.4873E-01
      6.841  0.0000E+00  0.0000E+00  0.0000E+00
      6.942  0.0000E+00  0.0000E+00  0.0000E+00
      7.043  0.0000E+00  0.0000E+00  0.0000E+00
      7.144  0.0000E+00  0.0000E+00  0.0000E+00
      7.244  0.0000E+00  0.0000E+00  0.0000E+00
      7.345  0.0000E+00  0.0000E+00  0.0000E+00
      7.446  0.0000E+00  0.0000E+00  0.0000E+00
      7.547  0.0000E+00  0.0000E+00  0.0000E+00
      7.648  0.0000E+00  0.0000E+00  0.0000E+00
      7.749  0.0000E+00  0.0000E+00  0.0000E+00
      7.850  0.0000E+00  0.0000E+00  0.0000E+00
      7.951  0.0000E+00  0.0000E+00  0.0000E+00
      8.052  0.0000E+00  0.0000E+00  0.0000E+00
      8.05168681    -22.21910173  301      0.43353836      1.00000000
    -22.219  0.0000E+00  0.0000E+00  0.0000E+00
    -22.118  0.0000E+00  0.0000E+00  0.0000E+00
    -22.017  0.0000E+00  0.0000E+00  0.0000E+00
    -21.916  0.0000E+00  0.0000E+00  0.0000E+00
    -21.815  0.0000E+00  0.0000E+00  0.0000E+00
    -21.715  0.0000E+00  0.0000E+00  0.0000E+00
    -21.614  0.0000E+00  0.0000E+00  0.0000E+00
    -21.513  0.0000E+00  0.0000E+00  0.0000E+00
    -21.412  0.0000E+00  0.0000E+00  0.0000E+00
    -21.311  0.0000E+00  0.0000E+00  0.0000E+00
    -21.210  0.0000E+00  0.0000E+00  0.0000E+00
    -21.109  0.0000E+00  0.0000E+00  0.0000E+00
    -21.008  0.0000E+00  0.0000E+00  0.0000E+00
    -20.907  0.0000E+00  0.0000E+00  0.0000E+00
    -20.806  0.1759E+02  0.9885E-04  0.1328E-04
    -20.706  0.4445E-02  0.4572E-06  0.6083E-07
    -20.605  0.1001E-05  0.2128E-08  0.2812E-09
    -20.504  0.0000E+00  0.0000E+00  0.0000E+00
    -20.403  0.0000E+00  0.0000E+00  0.0000E+00
    -20.302  0.0000E+00  0.0000E+00  0.0000E+00
    -20.201  0.0000E+00  0.0000E+00  0.0000E+00
    -20.100  0.0000E+00  0.0000E+00  0.0000E+00
    -19.999  0.0000E+00  0.0000E+00  0.0000E+00
    -19.898  0.0000E+00  0.0000E+00  0.0000E+00
    -19.797  0.0000E+00  0.0000E+00  0.0000E+00
    -19.697  0.0000E+00  0.0000E+00  0.0000E+00
    -19.596  0.0000E+00  0.0000E+00  0.0000E+00
    -19.495  0.0000E+00  0.0000E+00  0.0000E+00
    -19.394  0.0000E+00  0.0000E+00  0.0000E+00
    -19.293  0.0000E+00  0.0000E+00  0.0000E+00
    -19.192  0.0000E+00  0.0000E+00  0.0000E+00
    -19.091  0.0000E+00  0.0000E+00  0.0000E+00
    -18.990  0.0000E+00  0.0000E+00  0.0000E+00
    -18.889  0.0000E+00  0.0000E+00  0.0000E+00
    -18.788  0.0000E+00  0.0000E+00  0.0000E+00
    -18.688  0.0000E+00  0.0000E+00  0.0000E+00
    -18.587  0.0000E+00  0.0000E+00  0.0000E+00
    -18.486  0.0000E+00  0.0000E+00  0.0000E+00
    -18.385  0.0000E+00  0.0000E+00  0.0000E+00
    -18.284  0.0000E+00  0.0000E+00  0.0000E+00
    -18.183  0.0000E+00  0.0000E+00  0.0000E+00
    -18.082  0.0000E+00  0.0000E+00  0.0000E+00
    -17.981  0.0000E+00  0.0000E+00  0.0000E+00
    -17.880  0.0000E+00  0.0000E+00  0.0000E+00
    -17.779  0.0000E+00  0.0000E+00  0.0000E+00
    -17.678  0.0000E+00  0.0000E+00  0.0000E+00
    -17.578  0.0000E+00  0.0000E+00  0.0000E+00
    -17.477  0.0000E+00  0.0000E+00  0.0000E+00
    -17.376  0.0000E+00  0.0000E+00  0.0000E+00
    -17.275  0.0000E+00  0.0000E+00  0.0000E+00
    -17.174  0.0000E+00  0.0000E+00  0.0000E+00
    -17.073  0.0000E+00  0.0000E+00  0.0000E+00
    -16.972  0.0000E+00  0.0000E+00  0.0000E+00
    -16.871  0.0000E+00  0.0000E+00  0.0000E+00
    -16.770  0.2022E-04  0.8291E-05  0.1103E-05
    -16.669  0.3622E-04  0.1708E-04  0.2471E-05
    -16.569  0.5194E-05  0.6065E-05  0.1471E-05
    -16.468  0.6137E-05  0.2893E-05  0.3099E-06
    -16.367  0.1108E-03  0.1043E-03  0.1846E-04
    -16.266  0.3656E-04  0.2160E-04  0.2528E-05
    -16.165  0.0000E+00  0.0000E+00  0.0000E+00
    -16.064  0.0000E+00  0.0000E+00  0.0000E+00
    -15.963  0.0000E+00  0.0000E+00  0.0000E+00
    -15.862  0.0000E+00  0.0000E+00  0.0000E+00
    -15.761  0.0000E+00  0.0000E+00  0.0000E+00
    -15.660  0.0000E+00  0.0000E+00  0.0000E+00
    -15.560  0.0000E+00  0.0000E+00  0.0000E+00
    -15.459  0.0000E+00  0.0000E+00  0.0000E+00
    -15.358  0.0000E+00  0.0000E+00  0.0000E+00
    -15.257  0.0000E+00  0.0000E+00  0.0000E+00
    -15.156  0.0000E+00  0.0000E+00  0.0000E+00
    -15.055  0.0000E+00  0.0000E+00  0.0000E+00
    -14.954  0.0000E+00  0.0000E+00  0.0000E+00
    -14.853  0.0000E+00  0.0000E+00  0.0000E+00
    -14.752  0.0000E+00  0.0000E+00  0.0000E+00
    -14.651  0.0000E+00  0.0000E+00  0.0000E+00
    -14.551  0.1012E-06  0.4645E-07  0.4344E-08
    -14.450  0.1938E-02  0.2145E-02  0.1616E-03
    -14.349  0.5686E-08  0.2114E-08  0.2883E-10
    -14.248  0.2167E-02  0.2205E-02  0.6618E-04
    -14.147  0.1498E-02  0.3063E-02  0.1298E-03
    -14.046  0.1915E-02  0.5104E-02  0.3984E-03
    -13.945  0.1214E-02  0.2961E-02  0.2583E-03
    -13.844  0.1173E-02  0.4412E-02  0.4593E-03
    -13.743  0.6760E-03  0.1530E-02  0.2505E-03
    -13.642  0.3345E-04  0.7926E-04  0.1318E-04
    -13.541  0.0000E+00  0.0000E+00  0.0000E+00
    -13.441  0.0000E+00  0.0000E+00  0.0000E+00
    -13.340  0.0000E+00  0.0000E+00  0.0000E+00
    -13.239  0.0000E+00  0.0000E+00  0.0000E+00