 vasp.5.4.4.18Apr17-6-g9f103f2a35 (build Jun 22 2020 09:27:21) complex           
 executed on tx2_gcc-7.3_libsci-1 date 2021.10.12  05:36:17
 running on   64 total cores
 distrk:  each k-point on   64 cores,    1 groups
 distr:  one band on NCORES_PER_BAND=   8 cores,    8 groups


--------------------------------------------------------------------------------------------------------


 INCAR:
 POTCAR:    PAW_PBE Cs_sv 08Apr2002               
 POTCAR:    PAW_PBE Pb_d 06Sep2000                
 POTCAR:    PAW_PBE Br 06Sep2000                  
 POTCAR:    PAW_PBE Cs_sv 08Apr2002               
   SHA256 =  c1463496f0f6037ed62c6012a8013a89ee9ad6ffb38599dcd6c079e7ed31779b Cs
   COPYR  = (c) Copyright 08Apr2002 Georg Kresse                                
   COPYR  = This file is part of the software VASP. Any use, copying, and all ot
   COPYR  = If you do not have a valid VASP license, you may not use, copy or di
   VRHFIN =Cs: 5s5p6s                                                           
   LEXCH  = PE                                                                  
   EATOM  =   555.6835 eV,   40.8416 Ry                                         
                                                                                
   TITEL  = PAW_PBE Cs_sv 08Apr2002                                             
   LULTRA =        F    use ultrasoft PP ?                                      
   IUNSCR =        1    unscreen: 0-lin 1-nonlin 2-no                           
   RPACOR =    2.200    partial core radius                                     
   POMASS =  132.900; ZVAL   =    9.000    mass and valenz                      
   RCORE  =    2.500    outmost cutoff radius                                   
   RWIGS  =    2.500; RWIGS  =    1.323    wigner-seitz radius (au A)           
   ENMAX  =  220.318; ENMIN  =  165.238 eV                                      
   RCLOC  =    2.207    cutoff for local pot                                    
   LCOR   =        T    correct aug charges                                     
   LPAW   =        T    paw PP                                                  
   EAUG   =  407.933                                                            
   DEXC   =    0.000                                                            
   RMAX   =    2.554    core radius for proj-oper                               
   RAUG   =    1.300    factor for augmentation sphere                          
   RDEP   =    2.590    radius for radial grids                                 
   RDEPT  =    2.117    core radius for aug-charge                              
                                                                                
   Atomic configuration                                                         
   13 entries                                                                   
     n  l   j            E        occ.                                          
     1  0  0.50    -35790.1377   2.0000                                         
     2  0  0.50     -5613.6201   2.0000                                         
     2  1  1.50     -5035.0101   6.0000                                         
     3  0  0.50     -1167.0767   2.0000                                         
     3  1  1.50      -980.9754   6.0000                                         
     3  2  2.50      -708.0703  10.0000                                         
     4  0  0.50      -220.2386   2.0000                                         
     4  1  1.50      -160.7596   6.0000                                         
     4  2  2.50       -74.2354  10.0000                                         
     5  0  0.50       -26.7287   2.0000                                         
     6  0  0.50        -2.0862   1.0000                                         
     5  1  1.50       -13.5159   6.0000                                         
     5  2  2.50        -0.4136   0.0000                                         
   Description                                                                  
     l       E           TYP  RCUT    TYP  RCUT                                 
     0    -26.7287425     23  1.900                                             
     0     -2.0862306     23  1.900                                             
     1    -13.5158719     23  2.500                                             
     1     -2.7211652     23  2.500                                             
     2     -0.4136171     23  2.500                                             
  local pseudopotential read in
  partial core-charges read in
  partial kinetic energy density read in
  atomic valenz-charges read in
  non local Contribution for L=           0  read in
    real space projection operators read in
  non local Contribution for L=           0  read in
    real space projection operators read in
  non local Contribution for L=           1  read in
    real space projection operators read in
  non local Contribution for L=           1  read in
    real space projection operators read in
  non local Contribution for L=           2  read in
    real space projection operators read in
    PAW grid and wavefunctions read in

   number of l-projection  operators is LMAX  =           5
   number of lm-projection operators is LMMAX =          13

 POTCAR:    PAW_PBE Pb_d 06Sep2000                
   SHA256 =  fb885b08f0fba73a15f6a6b0e39bd200c13ec96ef97cf3ecd8e63bade5137abd Pb
   COPYR  = (c) Copyright 06Sep2000 Georg Kresse                                
   COPYR  = This file is part of the software VASP. Any use, copying, and all ot
   COPYR  = If you do not have a valid VASP license, you may not use, copy or di
   VRHFIN =Pb:                                                                  
   LEXCH  = PE                                                                  
   EATOM  =  1661.6185 eV,  122.1255 Ry                                         
                                                                                
   TITEL  = PAW_PBE Pb_d 06Sep2000                                              
   LULTRA =        F    use ultrasoft PP ?                                      
   IUNSCR =        1    unscreen: 0-lin 1-nonlin 2-no                           
   RPACOR =    2.200    partial core radius                                     
   POMASS =  207.200; ZVAL   =   14.000    mass and valenz                      
   RCORE  =    2.500    outmost cutoff radius                                   
   RWIGS  =    3.260; RWIGS  =    1.725    wigner-seitz radius (au A)           
   ENMAX  =  237.835; ENMIN  =  178.376 eV                                      
   ICORE  =        3    local potential                                         
   LCOR   =        T    correct aug charges                                     
   LPAW   =        T    paw PP                                                  
   EAUG   =  391.914                                                            
   DEXC   =    0.000                                                            
   RMAX   =    2.565    core radius for proj-oper                               
   RAUG   =    1.300    factor for augmentation sphere                          
   RDEP   =    2.643    radius for radial grids                                 
   RDEPT  =    2.092    core radius for aug-charge                              
                                                                                
   Atomic configuration                                                         
   16 entries                                                                   
     n  l   j            E        occ.                                          
     1  0  0.50    -88091.8466   2.0000                                         
     2  0  0.50    -15753.4197   2.0000                                         
     2  1  1.50    -13508.1797   6.0000                                         
     3  0  0.50     -3781.7194   2.0000                                         
     3  1  1.50     -3138.2529   6.0000                                         
     3  2  2.50     -2483.2977  10.0000                                         
     4  0  0.50      -856.2895   2.0000                                         
     4  1  1.50      -645.4942   6.0000                                         
     4  2  2.50      -401.8768  10.0000                                         
     4  3  3.50      -132.9059  14.0000                                         
     5  0  0.50      -144.0950   2.0000                                         
     5  1  1.50       -85.7879   6.0000                                         
     5  2  2.50       -21.1769  10.0000                                         
     6  0  0.50       -12.0372   2.0000                                         
     6  1  1.50        -3.4971   2.0000                                         
     5  3  2.50        -2.7212   0.0000                                         
   Description                                                                  
     l       E           TYP  RCUT    TYP  RCUT                                 
     2    -21.1768523     23  2.500                                             
     2      1.3605826     23  2.500                                             
     0    -12.0371562     23  2.500                                             
     0     13.6058260     23  2.500                                             
     1     -3.4971339     23  2.500                                             
     1     13.6058260     23  2.500                                             
     3     -1.3605826      7  2.500                                             
  local pseudopotential read in
  partial core-charges read in
  partial kinetic energy density read in
  atomic valenz-charges read in
  non local Contribution for L=           2  read in
    real space projection operators read in
  non local Contribution for L=           2  read in
    real space projection operators read in
  non local Contribution for L=           0  read in
    real space projection operators read in
  non local Contribution for L=           0  read in
    real space projection operators read in
  non local Contribution for L=           1  read in
    real space projection operators read in
  non local Contribution for L=           1  read in
    real space projection operators read in
    PAW grid and wavefunctions read in

   number of l-projection  operators is LMAX  =           6
   number of lm-projection operators is LMMAX =          18

 POTCAR:    PAW_PBE Br 06Sep2000                  
   SHA256 =  96a73d2954943bbee26f4990d676cc6c3bf44b8dd2c75cd4b3b825d8403f0103 Br
   COPYR  = (c) Copyright 06Sep2000 Georg Kresse                                
   COPYR  = This file is part of the software VASP. Any use, copying, and all ot
   COPYR  = If you do not have a valid VASP license, you may not use, copy or di
   VRHFIN =Br: s2p5                                                             
   LEXCH  = PE                                                                  
   EATOM  =   368.4488 eV,   27.0802 Ry                                         
                                                                                
   TITEL  = PAW_PBE Br 06Sep2000                                                
   LULTRA =        F    use ultrasoft PP ?                                      
   IUNSCR =        1    unscreen: 0-lin 1-nonlin 2-no                           
   RPACOR =    1.900    partial core radius                                     
   POMASS =   79.904; ZVAL   =    7.000    mass and valenz                      
   RCORE  =    2.100    outmost cutoff radius                                   
   RWIGS  =    2.200; RWIGS  =    1.164    wigner-seitz radius (au A)           
   ENMAX  =  216.285; ENMIN  =  162.214 eV                                      
   ICORE  =        3    local potential                                         
   LCOR   =        T    correct aug charges                                     
   LPAW   =        T    paw PP                                                  
   EAUG   =  503.852                                                            
   DEXC   =    0.000                                                            
   RMAX   =    2.139    core radius for proj-oper                               
   RAUG   =    1.300    factor for augmentation sphere                          
   RDEP   =    2.186    radius for radial grids                                 
   RDEPT  =    1.890    core radius for aug-charge                              
                                                                                
   Atomic configuration                                                         
   10 entries                                                                   
     n  l   j            E        occ.                                          
     1  0  0.50    -13316.2796   2.0000                                         
     2  0  0.50     -1732.8239   2.0000                                         
     2  1  1.50     -1528.2193   6.0000                                         
     3  0  0.50      -238.0460   2.0000                                         
     3  1  1.50      -173.4609   6.0000                                         
     3  2  2.50       -66.7132  10.0000                                         
     4  0  0.50       -20.1334   2.0000                                         
     4  1  0.50        -7.8591   5.0000                                         
     4  2  2.50        -8.1635   0.0000                                         
     4  3  2.50        -8.1635   0.0000                                         
   Description                                                                  
     l       E           TYP  RCUT    TYP  RCUT                                 
     0    -20.1333652     23  2.100                                             
     0    -21.4939478     23  2.100                                             
     1     -7.8591052     23  2.100                                             
     1     -3.1608434     23  2.100                                             
     2     -8.1634956     23  2.100                                             
     3     -1.3605826      7  2.100                                             
  local pseudopotential read in
  partial core-charges read in
  partial kinetic energy density read in
  atomic valenz-charges read in
  non local Contribution for L=           0  read in
    real space projection operators read in
  non local Contribution for L=           0  read in
    real space projection operators read in
  non local Contribution for L=           1  read in
    real space projection operators read in
  non local Contribution for L=           1  read in
    real space projection operators read in
  non local Contribution for L=           2  read in
    real space projection operators read in
    PAW grid and wavefunctions read in

   number of l-projection  operators is LMAX  =           5
   number of lm-projection operators is LMMAX =          13

 Optimization of the real space projectors (new method)

 maximal supplied QI-value         = 15.12
 optimisation between [QCUT,QGAM] = [  8.77, 17.69] = [ 21.53, 87.61] Ry 
 Optimized for a Real-space Cutoff    1.85 Angstroem

   l    n(q)    QCUT    max X(q) W(low)/X(q) W(high)/X(q)  e(spline) 
   0     10     8.768    25.322    0.81E-04    0.51E-04    0.48E-06
   0     10     8.768    99.187    0.78E-04    0.50E-04    0.47E-06
   1      9     8.768    11.761    0.21E-03    0.20E-03    0.37E-06
   1      9     8.768     8.275    0.24E-03    0.22E-03    0.41E-06
   2      9     8.768     3.829    0.23E-04    0.15E-03    0.18E-06
 Optimization of the real space projectors (new method)

 maximal supplied QI-value         = 15.12
 optimisation between [QCUT,QGAM] = [  8.77, 17.69] = [ 21.53, 87.61] Ry 
 Optimized for a Real-space Cutoff    1.59 Angstroem

   l    n(q)    QCUT    max X(q) W(low)/X(q) W(high)/X(q)  e(spline) 
   2      7     8.768     3.846    0.48E-04    0.11E-03    0.11E-06
   2      7     8.768     8.593    0.20E-03    0.22E-04    0.24E-06
   0      8     8.768    20.082    0.68E-04    0.88E-04    0.41E-07
   0      8     8.768     8.597    0.89E-04    0.13E-03    0.59E-07
   1      8     8.768    33.223    0.15E-03    0.53E-04    0.87E-07
   1      8     8.768    15.899    0.14E-03    0.44E-04    0.78E-07
 Optimization of the real space projectors (new method)

 maximal supplied QI-value         = 17.95
 optimisation between [QCUT,QGAM] = [  8.80, 17.59] = [ 21.67, 86.68] Ry 
 Optimized for a Real-space Cutoff    1.59 Angstroem

   l    n(q)    QCUT    max X(q) W(low)/X(q) W(high)/X(q)  e(spline) 
   0      8     8.797   175.082    0.82E-04    0.14E-03    0.89E-07
   0      8     8.797   174.004    0.79E-04    0.14E-03    0.86E-07
   1      8     8.797    54.315    0.16E-03    0.14E-04    0.30E-06
   1      8     8.797    42.441    0.16E-03    0.14E-04    0.30E-06
   2      7     8.797     3.596    0.92E-04    0.15E-03    0.85E-07
  PAW_PBE Cs_sv 08Apr2002               :
 energy of atom  1       EATOM= -555.6835
 kinetic energy error for atom=    0.0069 (will be added to EATOM!!)
  PAW_PBE Pb_d 06Sep2000                :
 energy of atom  2       EATOM=-1661.6185
 kinetic energy error for atom=    0.0498 (will be added to EATOM!!)
  PAW_PBE Br 06Sep2000                  :
 energy of atom  3       EATOM= -368.4488
 kinetic energy error for atom=    0.0072 (will be added to EATOM!!)


 POSCAR: Cs8 Pb8 Br23                            
  positions in direct lattice
  No initial velocities read in

 METAGGA = SCAN     LMAXTAU =  6    LMIXTAU =  F

 exchange correlation table for  LEXCH =        8
   RHO(1)=    0.500       N(1)  =     2000
   RHO(2)=  100.500       N(2)  =     4000

 VTST: version 3.2, (02/03/18)

 CHAIN: initializing optimizer
 
 OPT: Using VASP Conjugate-Gradient optimizer
 CHAIN: Read ICHAIN            0

 POSCAR: Cs8 Pb8 Br23                            
  positions in direct lattice
  No initial velocities read in



--------------------------------------------------------------------------------------------------------


 ion  position               nearest neighbor table
   1  0.266  0.237  0.195-
   2  0.773  0.228  0.744-
   3  0.706  0.777  0.261-
   4  0.228  0.751  0.777-
   5  0.256  0.245  0.730-
   6  0.810  0.249  0.229-
   7  0.729  0.756  0.785-
   8  0.222  0.758  0.300-
   9  0.007  0.994  0.000-  29 2.96  21 2.96  34 2.99  28 3.00  19 3.00  31 3.01
  10  0.491  0.005  0.500-  33 2.99  27 2.99  32 2.99  20 3.01  30 3.02  22 3.04
  11  0.501  0.999  0.001-  31 2.94  27 2.97  17 2.99  23 3.00  29 3.02  33 3.02
  12  0.993  0.000  0.500-  34 2.98  30 2.99  18 2.99  24 3.00  28 3.00  32 3.02
  13  0.522  0.493  0.004-  37 2.89  23 2.93  35 2.96  17 2.99  25 3.00
  14  0.988  0.504  0.493-  36 2.83  26 2.95  18 2.96  24 2.97  38 3.06
  15  0.014  0.501  0.995-  21 2.95  35 2.97  38 2.99  19 2.99  25 3.06  26 3.07
  16  0.485  0.496  0.516-  39 2.82  20 2.95  22 2.98  37 3.01  36 3.09
  17  0.485  0.745  0.983-  11 2.99  13 2.99
  18  0.953  0.752  0.459-  14 2.96  12 2.99
  19  0.993  0.248  0.974-  15 2.99   9 3.00
  20  0.430  0.254  0.477-  16 2.95  10 3.01
  21  0.055  0.748  0.030-  15 2.95   9 2.96
  22  0.519  0.749  0.522-  16 2.98  10 3.04
  23  0.544  0.248  0.045-  13 2.93  11 3.00
  24  0.001  0.254  0.532-  14 2.97  12 3.00
  25  0.269  0.468  0.954-  13 3.00  15 3.06
  26  0.946  0.530  0.739-  14 2.95  15 3.07
  27  0.538  0.028  0.753-  11 2.97  10 2.99
  28  0.049  0.028  0.253-   9 3.00  12 3.00
  29  0.759  0.979  0.035-   9 2.96  11 3.02
  30  0.244  0.965  0.551-  12 2.99  10 3.02
  31  0.254  0.028  0.947-  11 2.94   9 3.01
  32  0.739  0.042  0.455-  10 2.99  12 3.02
  33  0.442  0.970  0.248-  10 2.99  11 3.02
  34  0.957  0.963  0.748-  12 2.98   9 2.99
  35  0.770  0.543  0.042-  13 2.96  15 2.97
  36  0.226  0.536  0.544-  14 2.83  16 3.09
  37  0.563  0.466  0.763-  13 2.89  16 3.01
  38  0.062  0.468  0.247-  15 2.99  14 3.06
  39  0.636  0.485  0.335-  16 2.82


IMPORTANT INFORMATION: All symmetrisations will be switched off!
NOSYMM: (Re-)initialisation of all symmetry stuff for point group C_1.



 KPOINTS: 1x1x1                                   

Automatic generation of k-mesh.
Space group operators:
 irot       det(A)        alpha          n_x          n_y          n_z        tau_x        tau_y        tau_z
    1     1.000000     0.000001     1.000000     0.000000     0.000000     0.000000     0.000000     0.000000
 
 Subroutine IBZKPT returns following result:
 ===========================================
 
 Found      8 irreducible k-points:
 
 Following reciprocal coordinates:
            Coordinates               Weight
  0.000000  0.000000  0.000000      1.000000
  0.500000  0.000000  0.000000      1.000000
  0.000000  0.500000  0.000000      1.000000
  0.500000  0.500000  0.000000      1.000000
  0.000000  0.000000  0.500000      1.000000
  0.500000  0.000000  0.500000      1.000000
  0.000000  0.500000  0.500000      1.000000
  0.500000  0.500000  0.500000      1.000000
 
 Following cartesian coordinates:
            Coordinates               Weight
 -0.000000  0.000000  0.000000      1.000000
  0.029563  0.000000  0.031093      1.000000
 -0.000000  0.042626  0.000000      1.000000
  0.029563  0.042626  0.031093      1.000000
 -0.029563  0.000000  0.031093      1.000000
  0.000000  0.000000  0.062187      1.000000
 -0.029563  0.042626  0.031093      1.000000
  0.000000  0.042626  0.062187      1.000000
 


--------------------------------------------------------------------------------------------------------




 Dimension of arrays:
   k-points           NKPTS =      8   k-points in BZ     NKDIM =      8   number of bands    NBANDS=    208
   number of dos      NEDOS =    301   number of ions     NIONS =     39
   non local maximal  LDIM  =      6   non local SUM 2l+1 LMDIM =     18
   total plane-waves  NPLWV = 343000
   max r-space proj   IRMAX =   5734   max aug-charges    IRDMAX=  91523
   dimension x,y,z NGX =    70 NGY =   70 NGZ =   70
   dimension x,y,z NGXF=   140 NGYF=  140 NGZF=  140
   support grid    NGXF=   280 NGYF=  280 NGZF=  280
   ions per type =               8   8  23
   NGX,Y,Z   is equivalent  to a cutoff of   9.97,  9.92,  9.97 a.u.
   NGXF,Y,Z  is equivalent  to a cutoff of  19.95, 19.84, 19.95 a.u.

 SYSTEM =  CsPbBr3 cubic bulk                      
 POSCAR =  Cs8 Pb8 Br23                            

 Startparameter for this run:
   NWRITE =      2    write-flag & timer
   PREC   = accura    normal or accurate (medium, high low for compatibility)
   ISTART =      0    job   : 0-new  1-cont  2-samecut
   ICHARG =      2    charge: 1-file 2-atom 10-const
   ISPIN  =      1    spin polarized calculation?
   LNONCOLLINEAR =      F non collinear calculations
   LSORBIT =      F    spin-orbit coupling
   INIWAV =      1    electr: 0-lowe 1-rand  2-diag
   LASPH  =      T    aspherical Exc in radial PAW
   METAGGA=      F    non-selfconsistent MetaGGA calc.

 Electronic Relaxation 1
   ENCUT  =  300.0 eV  22.05 Ry    4.70 a.u.  16.48 16.57 16.48*2*pi/ulx,y,z
   ENINI  =  300.0     initial cutoff
   ENAUG  =  503.9 eV  augmentation charge cutoff
   NELM   =    200;   NELMIN=  2; NELMDL= -5     # of ELM steps 
   EDIFF  = 0.1E-05   stopping-criterion for ELM
   LREAL  =      T    real-space projection
   NLSPLINE    = F    spline interpolate recip. space projectors
   LCOMPAT=      F    compatible to vasp.4.4
   GGA_COMPAT  = T    GGA compatible to vasp.4.4-vasp.4.6
   LMAXPAW     = -100 max onsite density
   LMAXMIX     =    2 max onsite mixed and CHGCAR
   VOSKOWN=      0    Vosko Wilk Nusair interpolation
   ROPT   =   -0.00025  -0.00025  -0.00025
 Ionic relaxation
   EDIFFG = -.1E-01   stopping-criterion for IOM
   NSW    =      0    number of steps for IOM
   NBLOCK =      1;   KBLOCK =      1    inner block; outer block 
   IBRION =     -1    ionic relax: 0-MD 1-quasi-New 2-CG
   NFREE  =      1    steps in history (QN), initial steepest desc. (CG)
   ISIF   =      2    stress and relaxation
   IWAVPR =     10    prediction:  0-non 1-charg 2-wave 3-comb
   ISYM   =      0    0-nonsym 1-usesym 2-fastsym
   LCORR  =      T    Harris-Foulkes like correction to forces

   POTIM  = 0.5000    time-step for ionic-motion
   TEIN   =    0.0    initial temperature
   TEBEG  =    0.0;   TEEND  =   0.0 temperature during run
   SMASS  =  -3.00    Nose mass-parameter (am)
   estimated Nose-frequenzy (Omega)   =  0.10E-29 period in steps =****** mass=  -0.311E-26a.u.
   SCALEE = 1.0000    scale energy and forces
   NPACO  =    256;   APACO  = 16.0  distance and # of slots for P.C.
   PSTRESS=    0.0 pullay stress

  Mass of Ions in am
   POMASS = 132.90207.20 79.90
  Ionic Valenz
   ZVAL   =   9.00 14.00  7.00
  Atomic Wigner-Seitz radii
   RWIGS  =  -1.00 -1.00 -1.00
  virtual crystal weights 
   VCA    =   1.00  1.00  1.00
   NELECT =     344.0000    total number of electrons
   NUPDOWN=       0.0000    fix difference up-down

 DOS related values:
   EMIN   =  10.00;   EMAX   =-10.00  energy-range for DOS
   EFERMI =   0.00
   ISMEAR =     0;   SIGMA  =   0.01  broadening in eV -4-tet -1-fermi 0-gaus

 Electronic relaxation 2 (details)
   IALGO  =     38    algorithm
   LDIAG  =      T    sub-space diagonalisation (order eigenvalues)
   LSUBROT=      F    optimize rotation matrix (better conditioning)
   TURBO    =      0    0=normal 1=particle mesh
   IRESTART =      0    0=no restart 2=restart with 2 vectors
   NREBOOT  =      0    no. of reboots
   NMIN     =      0    reboot dimension
   EREF     =   0.00    reference energy to select bands
   IMIX   =      4    mixing-type and parameters
     AMIX     =   0.40;   BMIX     =  1.00
     AMIX_MAG =   1.60;   BMIX_MAG =  1.00
     AMIN     =   0.10
     WC   =   100.;   INIMIX=   1;  MIXPRE=   1;  MAXMIX= -45

 Intra band minimization:
   WEIMIN = 0.0000     energy-eigenvalue tresh-hold
   EBREAK =  0.12E-08  absolut break condition
   DEPER  =   0.30     relativ break condition  

   TIME   =   0.40     timestep for ELM

  volume/ion in A,a.u.               =      40.90       276.00
  Fermi-wavevector in a.u.,A,eV,Ry     =   0.981747  1.855232 13.113654  0.963826
  Thomas-Fermi vector in A             =   2.112777

 Write flags
   LWAVE        =      F    write WAVECAR
   LDOWNSAMPLE  =      F    k-point downsampling of WAVECAR
   LCHARG       =      F    write CHGCAR
   LVTOT        =      F    write LOCPOT, total local potential
   LVHAR        =      T    write LOCPOT, Hartree potential only
   LELF         =      F    write electronic localiz. function (ELF)
   LORBIT       =     10    0 simple, 1 ext, 2 COOP (PROOUT), +10 PAW based schemes


 Dipole corrections
   LMONO  =      F    monopole corrections only (constant potential shift)
   LDIPOL =      F    correct potential (dipole corrections)
   IDIPOL =      0    1-x, 2-y, 3-z, 4-all directions 
   EPSILON=  1.0000000 bulk dielectric constant

 Exchange correlation treatment:
   GGA     =    --    GGA type
   LEXCH   =     8    internal setting for exchange type
   VOSKOWN=      0    Vosko Wilk Nusair interpolation
   LHFCALC =     F    Hartree Fock is set to
   LHFONE  =     F    Hartree Fock one center treatment
   AEXX    =    0.0000 exact exchange contribution

 Linear response parameters
   LEPSILON=     F    determine dielectric tensor
   LRPA    =     F    only Hartree local field effects (RPA)
   LNABLA  =     F    use nabla operator in PAW spheres
   LVEL    =     F    velocity operator in full k-point grid
   LINTERFAST=   F  fast interpolation
   KINTER  =     0    interpolate to denser k-point grid
   CSHIFT  =0.1000    complex shift for real part using Kramers Kronig
   OMEGAMAX=  -1.0    maximum frequency
   DEG_THRESHOLD= 0.2000000E-02 threshold for treating states as degnerate
   RTIME   =   -0.100 relaxation time in fs
  (WPLASMAI=    0.000 imaginary part of plasma frequency in eV, 0.658/RTIME)
   DFIELD  = 0.0000000 0.0000000 0.0000000 field for delta impulse in time

 Orbital magnetization related:
   ORBITALMAG=     F  switch on orbital magnetization
   LCHIMAG   =     F  perturbation theory with respect to B field
   DQ        =  0.001000  dq finite difference perturbation B field
   LLRAUG    =     F  two centre corrections for induced B field



--------------------------------------------------------------------------------------------------------


 Static calculation
 charge density and potential will be updated during run
 non-spin polarized calculation
 Variant of blocked Davidson
 Davidson routine will perform the subspace rotation
 perform sub-space diagonalisation
    after iterative eigenvector-optimisation
 modified Broyden-mixing scheme, WC =      100.0
 initial mixing is a Kerker type mixing with AMIX =  0.4000 and BMIX =      1.0000
 Hartree-type preconditioning will be used
 using additional bands           36
 real space projection scheme for non local part
 use partial core corrections
 calculate Harris-corrections to forces   (improved forces if not selfconsistent)
 use gradient corrections 
 use of overlap-Matrix (Vanderbilt PP)
 Gauss-broadening in eV      SIGMA  =   0.01


--------------------------------------------------------------------------------------------------------


  energy-cutoff  :      300.00
  volume of cell :     1595.09
      direct lattice vectors                 reciprocal lattice vectors
     8.456489000  0.000000000  8.040301000     0.059126193 -0.000000000  0.062186727
     0.000000000 11.729847000  0.000000000     0.000000000  0.085252604 -0.000000000
    -8.456489000  0.000000000  8.040301000    -0.059126193  0.000000000  0.062186727

  length of vectors
    11.668703715 11.729847000 11.668703715     0.085808482  0.085252604  0.085808482



 k-points in units of 2pi/SCALE and weight: 1x1x1                                   
  -0.00000000  0.00000000  0.00000000       0.125
   0.02956310  0.00000000  0.03109336       0.125
  -0.00000000  0.04262630  0.00000000       0.125
   0.02956310  0.04262630  0.03109336       0.125
  -0.02956310  0.00000000  0.03109336       0.125
   0.00000000  0.00000000  0.06218673       0.125
  -0.02956310  0.04262630  0.03109336       0.125
   0.00000000  0.04262630  0.06218673       0.125

 k-points in reciprocal lattice and weights: 1x1x1                                   
   0.00000000  0.00000000  0.00000000       0.125
   0.50000000  0.00000000  0.00000000       0.125
   0.00000000  0.50000000  0.00000000       0.125
   0.50000000  0.50000000  0.00000000       0.125
   0.00000000  0.00000000  0.50000000       0.125
   0.50000000  0.00000000  0.50000000       0.125
   0.00000000  0.50000000  0.50000000       0.125
   0.50000000  0.50000000  0.50000000       0.125

 position of ions in fractional coordinates (direct lattice) 
   0.26623100  0.23748300  0.19486100
   0.77340200  0.22846600  0.74385800
   0.70624600  0.77732400  0.26053000
   0.22819400  0.75103600  0.77742000
   0.25636100  0.24519300  0.72973500
   0.80982800  0.24909000  0.22852000
   0.72850500  0.75637800  0.78506500
   0.22202000  0.75785100  0.30036300
   0.00729900  0.99387000  0.00046600
   0.49142100  0.00524400  0.49954100
   0.50123200  0.99922200  0.00075700
   0.99289100  0.00028600  0.50039700
   0.52210900  0.49345200  0.00435400
   0.98835000  0.50433600  0.49305300
   0.01410600  0.50130300  0.99510500
   0.48507400  0.49636400  0.51597800
   0.48494000  0.74534700  0.98307100
   0.95340800  0.75177900  0.45864900
   0.99286400  0.24800200  0.97380500
   0.42962600  0.25366000  0.47681000
   0.05454200  0.74770000  0.02982600
   0.51864900  0.74856600  0.52193000
   0.54365900  0.24792100  0.04549200
   0.00066900  0.25418200  0.53201900
   0.26850700  0.46751500  0.95423000
   0.94626000  0.53025700  0.73888200
   0.53819600  0.02845200  0.75278500
   0.04902400  0.02827700  0.25347200
   0.75860200  0.97895300  0.03539300
   0.24375100  0.96474800  0.55136700
   0.25418500  0.02829800  0.94669800
   0.73897800  0.04224900  0.45464700
   0.44213800  0.96967000  0.24831100
   0.95659600  0.96285600  0.74842500
   0.76998900  0.54323600  0.04165900
   0.22612300  0.53633500  0.54420500
   0.56302400  0.46559200  0.76346300
   0.06150700  0.46839900  0.24714700
   0.63568200  0.48527500  0.33456400

 position of ions in cartesian coordinates  (Angst):
   0.60353962  2.78563926  3.70731847
   0.24983851  2.67987122 12.19922710
   3.76919245  9.11789159  7.77317004
  -4.64452363  8.80953737  8.08543925
  -4.00308202  2.87607638  7.92850865
   4.91582471  2.92178759  8.34863046
  -0.47829902  8.87219821 12.16955838
  -0.66250672  8.88947628  4.20011656
   0.05778319 11.65794304  0.06243294
  -0.06866669  0.06151132  7.96763276
   4.23226133 11.72072118  4.03614266
   4.16477009  0.00335474 12.00648500
   4.37838946  5.78811646  4.23292099
   4.18847363  5.91578412 11.91092602
  -8.29580725  5.88020749  8.11436021
  -0.26133934  5.82227378  8.04875940
  -4.21243932  8.74280627 11.80325031
   4.18392404  8.81825265 11.35336331
   0.16117222  2.90902552 15.81261073
  -0.39901098  2.97539299  7.28801828
   0.20901058  8.77040660  0.67834411
  -0.02774574  8.78056465  8.36656837
   4.21274376  2.90807540  4.73695137
  -4.49335543  2.98151597  4.28297186
  -5.79880901  5.48387942  9.83117352
   1.75368978  6.21983348 13.54904891
  -1.81466952  0.33373761 10.37987583
  -1.72891226  0.33168488  2.43215889
   6.11580895 11.48296891  6.38395879
  -2.60135132 11.31634643  6.39298805
  -5.85622857  0.33193121  9.65546079
   2.40444197  0.49557431  9.59710428
   1.63909589 11.37408074  5.55141779
   1.76039577 11.29415356 13.70888205
   6.15911463  6.37207516  6.52589423
  -2.68985693  6.29112749  6.19366899
  -1.69501020  5.46132292 10.66535475
  -1.56986262  5.49424860  2.48167106
   2.54640105  5.69220150  7.80106988



--------------------------------------------------------------------------------------------------------


 k-point  1 :   0.0000 0.0000 0.0000  plane waves:   18809
 k-point  2 :   0.5000 0.0000 0.0000  plane waves:   18808
 k-point  3 :   0.0000 0.5000 0.0000  plane waves:   18794
 k-point  4 :   0.5000 0.5000 0.0000  plane waves:   18804
 k-point  5 :   0.0000 0.0000 0.5000  plane waves:   18808
 k-point  6 :   0.5000 0.0000 0.5000  plane waves:   18790
 k-point  7 :   0.0000 0.5000 0.5000  plane waves:   18804
 k-point  8 :   0.5000 0.5000 0.5000  plane waves:   18800

 maximum and minimum number of plane-waves per node :      2389     2304

 maximum number of plane-waves:     18809
 maximum index in each direction: 
   IXMAX=   16   IYMAX=   16   IZMAX=   16
   IXMIN=  -16   IYMIN=  -17   IZMIN=  -16


 real space projection operators:
  total allocation   :      16734.26 KBytes
  max/ min on nodes  :       2201.46       1809.06


 parallel 3D FFT for wavefunctions:
    minimum data exchange during FFTs selected (reduces bandwidth)
 parallel 3D FFT for charge:
    minimum data exchange during FFTs selected (reduces bandwidth)


 total amount of memory used by VASP MPI-rank0    60651. kBytes
=======================================================================

   base      :      30000. kBytes
   nonlr-proj:       6486. kBytes
   fftplans  :       8423. kBytes
   grid      :       7465. kBytes
   one-center:         77. kBytes
   wavefun   :       8200. kBytes

     INWAV:  cpu time    0.0000: real time    0.0000
 Broyden mixing: mesh for mixing (old mesh)
   NGX = 33   NGY = 33   NGZ = 33
  (NGX  =140   NGY  =140   NGZ  =140)
  gives a total of  35937 points

 initial charge density was supplied:
 charge density of overlapping atoms calculated
 number of electron     345.0000000 magnetization 
 keeping initial charge density in first step


--------------------------------------------------------------------------------------------------------


 Maximum index for non-local projection operator          732
 Maximum index for augmentation-charges         3428 (set IRDMAX)


--------------------------------------------------------------------------------------------------------


 First call to EWALD:  gamma=   0.152
 Maximum number of real-space cells 3x 3x 3
 Maximum number of reciprocal cells 3x 3x 3

    FEWALD:  cpu time    0.0038: real time    0.0038


--------------------------------------- Iteration      1(   1)  ---------------------------------------


    POTLOK:  cpu time    0.2638: real time    0.2737
    SETDIJ:  cpu time    1.2026: real time    1.2026
     EDDAV:  cpu time   16.4696: real time   16.4761
       DOS:  cpu time    0.0008: real time    0.0008
    --------------------------------------------
      LOOP:  cpu time   17.9368: real time   17.9532

 eigenvalue-minimisations  :  3432
 total energy-change (2. order) : 0.1331585E+04  (-0.1105451E+05)
 number of electron     345.0000000 magnetization 
 augmentation part      345.0000000 magnetization 

 Free energy of the ion-electron system (eV)
  ---------------------------------------------------
  alpha Z        PSCENC =       872.70583573
  Ewald energy   TEWEN  =    -17937.75326321
  -Hartree energ DENC   =     -7420.08229216
  -exchange      EXHF   =         0.00000000
  -V(xc)+E(xc)   XCENC  =       908.04223115
  PAW double counting   =     21345.28103884   -22405.85761495
  entropy T*S    EENTRO =        -0.00180336
  eigenvalues    EBANDS =      -242.86739841
  atomic energy  EATOM  =     26212.11861568
  Solvation  Ediel_sol  =         0.00000000
  ---------------------------------------------------
  free energy    TOTEN  =      1331.58534931 eV

  energy without entropy =     1331.58715267  energy(sigma->0) =     1331.58625099


--------------------------------------------------------------------------------------------------------




--------------------------------------- Iteration      1(   2)  ---------------------------------------


     EDDAV:  cpu time   18.4955: real time   18.5628
       DOS:  cpu time    0.0004: real time    0.0004
    --------------------------------------------
      LOOP:  cpu time   18.4959: real time   18.5632

 eigenvalue-minimisations  :  4120
 total energy-change (2. order) :-0.2446698E+04  (-0.2363108E+04)
 number of electron     345.0000000 magnetization 
 augmentation part      345.0000000 magnetization 

 Free energy of the ion-electron system (eV)
  ---------------------------------------------------
  alpha Z        PSCENC =       872.70583573
  Ewald energy   TEWEN  =    -17937.75326321
  -Hartree energ DENC   =     -7420.08229216
  -exchange      EXHF   =         0.00000000
  -V(xc)+E(xc)   XCENC  =       908.04223115
  PAW double counting   =     21345.28103884   -22405.85761495
  entropy T*S    EENTRO =        -0.00000000
  eigenvalues    EBANDS =     -2689.56747830
  atomic energy  EATOM  =     26212.11861568
  Solvation  Ediel_sol  =         0.00000000
  ---------------------------------------------------
  free energy    TOTEN  =     -1115.11292722 eV

  energy without entropy =    -1115.11292722  energy(sigma->0) =    -1115.11292722


--------------------------------------------------------------------------------------------------------




--------------------------------------- Iteration      1(   3)  ---------------------------------------


     EDDAV:  cpu time   19.3802: real time   19.4195
       DOS:  cpu time    0.0004: real time    0.0004
    --------------------------------------------
      LOOP:  cpu time   19.3806: real time   19.4199

 eigenvalue-minimisations  :  4432
 total energy-change (2. order) :-0.3600703E+03  (-0.3581645E+03)
 number of electron     345.0000000 magnetization 
 augmentation part      345.0000000 magnetization 

 Free energy of the ion-electron system (eV)
  ---------------------------------------------------
  alpha Z        PSCENC =       872.70583573
  Ewald energy   TEWEN  =    -17937.75326321
  -Hartree energ DENC   =     -7420.08229216
  -exchange      EXHF   =         0.00000000
  -V(xc)+E(xc)   XCENC  =       908.04223115
  PAW double counting   =     21345.28103884   -22405.85761495
  entropy T*S    EENTRO =        -0.00000000
  eigenvalues    EBANDS =     -3049.63781721
  atomic energy  EATOM  =     26212.11861568
  Solvation  Ediel_sol  =         0.00000000
  ---------------------------------------------------
  free energy    TOTEN  =     -1475.18326613 eV

  energy without entropy =    -1475.18326613  energy(sigma->0) =    -1475.18326613


--------------------------------------------------------------------------------------------------------




--------------------------------------- Iteration      1(   4)  ---------------------------------------


     EDDAV:  cpu time   17.9309: real time   17.9582
       DOS:  cpu time    0.0007: real time    0.0007
    --------------------------------------------
      LOOP:  cpu time   17.9316: real time   17.9588

 eigenvalue-minimisations  :  3920
 total energy-change (2. order) :-0.1177313E+02  (-0.1174006E+02)
 number of electron     345.0000000 magnetization 
 augmentation part      345.0000000 magnetization 

 Free energy of the ion-electron system (eV)
  ---------------------------------------------------
  alpha Z        PSCENC =       872.70583573
  Ewald energy   TEWEN  =    -17937.75326321
  -Hartree energ DENC   =     -7420.08229216
  -exchange      EXHF   =         0.00000000
  -V(xc)+E(xc)   XCENC  =       908.04223115
  PAW double counting   =     21345.28103884   -22405.85761495
  entropy T*S    EENTRO =        -0.00000000
  eigenvalues    EBANDS =     -3061.41094918
  atomic energy  EATOM  =     26212.11861568
  Solvation  Ediel_sol  =         0.00000000
  ---------------------------------------------------
  free energy    TOTEN  =     -1486.95639810 eV

  energy without entropy =    -1486.95639810  energy(sigma->0) =    -1486.95639810


--------------------------------------------------------------------------------------------------------




--------------------------------------- Iteration      1(   5)  ---------------------------------------


     EDDAV:  cpu time   19.3565: real time   19.3631
       DOS:  cpu time    0.0004: real time    0.0004
    CHARGE:  cpu time    2.7101: real time    2.7103
    MIXING:  cpu time    0.0016: real time    0.0016
    --------------------------------------------
      LOOP:  cpu time   22.0686: real time   22.0755

 eigenvalue-minimisations  :  4408
 total energy-change (2. order) :-0.5398346E+00  (-0.5395845E+00)
 number of electron     343.9999998 magnetization 
 augmentation part       -5.0315646 magnetization 

 Broyden mixing:
  rms(total) = 0.10036E+01    rms(broyden)= 0.10030E+01
  rms(prec ) = 0.13966E+01
  weight for this iteration     100.00

 Free energy of the ion-electron system (eV)
  ---------------------------------------------------
  alpha Z        PSCENC =       872.70583573
  Ewald energy   TEWEN  =    -17937.75326321
  -Hartree energ DENC   =     -7420.08229216
  -exchange      EXHF   =         0.00000000
  -V(xc)+E(xc)   XCENC  =       908.04223115
  PAW double counting   =     21345.28103884   -22405.85761495
  entropy T*S    EENTRO =        -0.00000000
  eigenvalues    EBANDS =     -3061.95078373
  atomic energy  EATOM  =     26212.11861568
  Solvation  Ediel_sol  =         0.00000000
  ---------------------------------------------------
  free energy    TOTEN  =     -1487.49623265 eV

  energy without entropy =    -1487.49623265  energy(sigma->0) =    -1487.49623265


--------------------------------------------------------------------------------------------------------




--------------------------------------- Iteration      1(   6)  ---------------------------------------


    POTLOK:  cpu time    0.2664: real time    0.2875
    SETDIJ:  cpu time    1.1984: real time    1.1985
     EDDAV:  cpu time   19.0456: real time   19.0466
       DOS:  cpu time    0.0006: real time    0.0005
    CHARGE:  cpu time    2.6940: real time    2.6941
    MIXING:  cpu time    0.0019: real time    0.0019
    --------------------------------------------
      LOOP:  cpu time   23.2069: real time   23.2292

 eigenvalue-minimisations  :  4320
 total energy-change (2. order) : 0.7772871E+02  (-0.2364411E+01)
 number of electron     343.9999998 magnetization 
 augmentation part       -3.6486329 magnetization 

 Broyden mixing:
  rms(total) = 0.71650E+00    rms(broyden)= 0.71641E+00
  rms(prec ) = 0.89960E+00
  weight for this iteration     100.00

 eigenvalues of (default mixing * dielectric matrix)
  average eigenvalue GAMMA=   1.1796
  1.1796

 Free energy of the ion-electron system (eV)
  ---------------------------------------------------
  alpha Z        PSCENC =       872.70583573
  Ewald energy   TEWEN  =    -17937.75326321
  -Hartree energ DENC   =     -7400.04765985
  -exchange      EXHF   =         0.00000000
  -V(xc)+E(xc)   XCENC  =       936.03186649
  PAW double counting   =     21620.87492763   -22679.46765700
  entropy T*S    EENTRO =        -0.00000000
  eigenvalues    EBANDS =     -3034.23018535
  atomic energy  EATOM  =     26212.11861568
  Solvation  Ediel_sol  =         0.00000000
  ---------------------------------------------------
  free energy    TOTEN  =     -1409.76751986 eV

  energy without entropy =    -1409.76751986  energy(sigma->0) =    -1409.76751986


--------------------------------------------------------------------------------------------------------




--------------------------------------- Iteration      1(   7)  ---------------------------------------


    POTLOK:  cpu time    0.2777: real time    0.3170
    SETDIJ:  cpu time    1.1941: real time    1.1941
     EDDAV:  cpu time   18.3153: real time   18.3164
       DOS:  cpu time    0.0004: real time    0.0004
    CHARGE:  cpu time    2.6940: real time    2.6941
    MIXING:  cpu time    0.0016: real time    0.0016
    --------------------------------------------
      LOOP:  cpu time   22.4831: real time   22.5236

 eigenvalue-minimisations  :  4072
 total energy-change (2. order) : 0.5070108E+00  (-0.8725245E+00)
 number of electron     343.9999998 magnetization 
 augmentation part       -3.0785151 magnetization 

 Broyden mixing:
  rms(total) = 0.37291E+00    rms(broyden)= 0.37289E+00
  rms(prec ) = 0.41556E+00
  weight for this iteration     100.00

 eigenvalues of (default mixing * dielectric matrix)
  average eigenvalue GAMMA=   1.2978
  1.2978  1.2978

 Free energy of the ion-electron system (eV)
  ---------------------------------------------------
  alpha Z        PSCENC =       872.70583573
  Ewald energy   TEWEN  =    -17937.75326321
  -Hartree energ DENC   =     -7441.34779414
  -exchange      EXHF   =         0.00000000
  -V(xc)+E(xc)   XCENC  =       941.02928506
  PAW double counting   =     22225.67604980   -23282.22555830
  entropy T*S    EENTRO =        -0.00000000
  eigenvalues    EBANDS =     -2999.46367969
  atomic energy  EATOM  =     26212.11861568
  Solvation  Ediel_sol  =         0.00000000
  ---------------------------------------------------
  free energy    TOTEN  =     -1409.26050907 eV

  energy without entropy =    -1409.26050907  energy(sigma->0) =    -1409.26050907


--------------------------------------------------------------------------------------------------------




--------------------------------------- Iteration      1(   8)  ---------------------------------------


    POTLOK:  cpu time    0.2633: real time    0.3124
    SETDIJ:  cpu time    1.1974: real time    1.1974
     EDDAV:  cpu time   18.3151: real time   18.3157
       DOS:  cpu time    0.0004: real time    0.0004
    CHARGE:  cpu time    2.6953: real time    2.6954
    MIXING:  cpu time    0.0015: real time    0.0015
    --------------------------------------------
      LOOP:  cpu time   22.4731: real time   22.5229

 eigenvalue-minimisations  :  4072
 total energy-change (2. order) :-0.1769135E+00  (-0.4557507E-01)
 number of electron     343.9999998 magnetization 
 augmentation part       -3.1733106 magnetization 

 Broyden mixing:
  rms(total) = 0.21688E+00    rms(broyden)= 0.21688E+00
  rms(prec ) = 0.24653E+00
  weight for this iteration     100.00

 eigenvalues of (default mixing * dielectric matrix)
  average eigenvalue GAMMA=   1.6775
  1.1395  1.2839  2.6092

 Free energy of the ion-electron system (eV)
  ---------------------------------------------------
  alpha Z        PSCENC =       872.70583573
  Ewald energy   TEWEN  =    -17937.75326321
  -Hartree energ DENC   =     -7447.17442118
  -exchange      EXHF   =         0.00000000
  -V(xc)+E(xc)   XCENC  =       941.72324046
  PAW double counting   =     22452.51826812   -23509.40871866
  entropy T*S    EENTRO =        -0.00000000
  eigenvalues    EBANDS =     -2994.16697952
  atomic energy  EATOM  =     26212.11861568
  Solvation  Ediel_sol  =         0.00000000
  ---------------------------------------------------
  free energy    TOTEN  =     -1409.43742258 eV

  energy without entropy =    -1409.43742258  energy(sigma->0) =    -1409.43742258


--------------------------------------------------------------------------------------------------------




--------------------------------------- Iteration      1(   9)  ---------------------------------------


    POTLOK:  cpu time    0.2607: real time    0.3185
    SETDIJ:  cpu time    1.1965: real time    1.1965
     EDDAV:  cpu time   17.1674: real time   17.1684
       DOS:  cpu time    0.0004: real time    0.0004
    CHARGE:  cpu time    2.6895: real time    2.6896
    MIXING:  cpu time    0.0015: real time    0.0015
    --------------------------------------------
      LOOP:  cpu time   21.3160: real time   21.3749

 eigenvalue-minimisations  :  3672
 total energy-change (2. order) :-0.6883040E-01  (-0.1801290E-01)
 number of electron     343.9999998 magnetization 
 augmentation part       -3.2114061 magnetization 

 Broyden mixing:
  rms(total) = 0.44503E-01    rms(broyden)= 0.44500E-01
  rms(prec ) = 0.53918E-01
  weight for this iteration     100.00

 eigenvalues of (default mixing * dielectric matrix)
  average eigenvalue GAMMA=   1.4655
  2.5215  1.2456  1.2456  0.8493

 Free energy of the ion-electron system (eV)
  ---------------------------------------------------
  alpha Z        PSCENC =       872.70583573
  Ewald energy   TEWEN  =    -17937.75326321
  -Hartree energ DENC   =     -7454.21523569
  -exchange      EXHF   =         0.00000000
  -V(xc)+E(xc)   XCENC  =       943.64490325
  PAW double counting   =     22779.99746483   -23837.66683098
  entropy T*S    EENTRO =        -0.00000000
  eigenvalues    EBANDS =     -2988.33774260
  atomic energy  EATOM  =     26212.11861568
  Solvation  Ediel_sol  =         0.00000000
  ---------------------------------------------------
  free energy    TOTEN  =     -1409.50625298 eV

  energy without entropy =    -1409.50625298  energy(sigma->0) =    -1409.50625298


--------------------------------------------------------------------------------------------------------




--------------------------------------- Iteration      1(  10)  ---------------------------------------


    POTLOK:  cpu time    0.3029: real time    0.3208
    SETDIJ:  cpu time    1.1953: real time    1.1953
     EDDAV:  cpu time   19.5462: real time   19.5470
       DOS:  cpu time    0.0004: real time    0.0004
    CHARGE:  cpu time    2.6996: real time    2.6997
    MIXING:  cpu time    0.0017: real time    0.0017
    --------------------------------------------
      LOOP:  cpu time   23.7461: real time   23.7650

 eigenvalue-minimisations  :  4496
 total energy-change (2. order) :-0.3956569E-02  (-0.2549447E-02)
 number of electron     343.9999998 magnetization 
 augmentation part       -3.1991891 magnetization 

 Broyden mixing:
  rms(total) = 0.33110E-01    rms(broyden)= 0.33108E-01
  rms(prec ) = 0.41321E-01
  weight for this iteration     100.00

 eigenvalues of (default mixing * dielectric matrix)
  average eigenvalue GAMMA=   1.2988
  2.4139  1.3139  1.3139  0.8440  0.6081

 Free energy of the ion-electron system (eV)
  ---------------------------------------------------
  alpha Z        PSCENC =       872.70583573
  Ewald energy   TEWEN  =    -17937.75326321
  -Hartree energ DENC   =     -7452.57647721
  -exchange      EXHF   =         0.00000000
  -V(xc)+E(xc)   XCENC  =       943.51155875
  PAW double counting   =     22753.95848672   -23811.70708302
  entropy T*S    EENTRO =        -0.00000000
  eigenvalues    EBANDS =     -2989.76788299
  atomic energy  EATOM  =     26212.11861568
  Solvation  Ediel_sol  =         0.00000000
  ---------------------------------------------------
  free energy    TOTEN  =     -1409.51020955 eV

  energy without entropy =    -1409.51020955  energy(sigma->0) =    -1409.51020955


--------------------------------------------------------------------------------------------------------




--------------------------------------- Iteration      1(  11)  ---------------------------------------


    POTLOK:  cpu time    0.2568: real time    0.3225
    SETDIJ:  cpu time    1.2002: real time    1.2003
     EDDAV:  cpu time   17.4189: real time   17.4196
       DOS:  cpu time    0.0004: real time    0.0004
    CHARGE:  cpu time    2.6935: real time    2.6937
    MIXING:  cpu time    0.0016: real time    0.0016
    --------------------------------------------
      LOOP:  cpu time   21.5713: real time   21.6380

 eigenvalue-minimisations  :  3760
 total energy-change (2. order) :-0.1749134E-02  (-0.2603636E-03)
 number of electron     343.9999998 magnetization 
 augmentation part       -3.1980357 magnetization 

 Broyden mixing:
  rms(total) = 0.16403E-01    rms(broyden)= 0.16403E-01
  rms(prec ) = 0.23983E-01
  weight for this iteration     100.00

 eigenvalues of (default mixing * dielectric matrix)
  average eigenvalue GAMMA=   1.5954
  2.7418  2.7418  1.1973  1.1973  0.8470  0.8470

 Free energy of the ion-electron system (eV)
  ---------------------------------------------------
  alpha Z        PSCENC =       872.70583573
  Ewald energy   TEWEN  =    -17937.75326321
  -Hartree energ DENC   =     -7451.29303926
  -exchange      EXHF   =         0.00000000
  -V(xc)+E(xc)   XCENC  =       943.45186550
  PAW double counting   =     22739.17806546   -23797.10424672
  entropy T*S    EENTRO =        -0.00000000
  eigenvalues    EBANDS =     -2990.81579187
  atomic energy  EATOM  =     26212.11861568
  Solvation  Ediel_sol  =         0.00000000
  ---------------------------------------------------
  free energy    TOTEN  =     -1409.51195868 eV

  energy without entropy =    -1409.51195868  energy(sigma->0) =    -1409.51195868


--------------------------------------------------------------------------------------------------------




--------------------------------------- Iteration      1(  12)  ---------------------------------------


    POTLOK:  cpu time    0.2547: real time    0.3153
    SETDIJ:  cpu time    1.1968: real time    1.1968
     EDDAV:  cpu time   17.0516: real time   17.0523
       DOS:  cpu time    0.0004: real time    0.0004
    CHARGE:  cpu time    2.7004: real time    2.7005
    MIXING:  cpu time    0.0017: real time    0.0017
    --------------------------------------------
      LOOP:  cpu time   21.2056: real time   21.2670

 eigenvalue-minimisations  :  3632
 total energy-change (2. order) :-0.2698019E-02  (-0.5315930E-03)
 number of electron     343.9999998 magnetization 
 augmentation part       -3.2014931 magnetization 

 Broyden mixing:
  rms(total) = 0.10149E-01    rms(broyden)= 0.10148E-01
  rms(prec ) = 0.12978E-01
  weight for this iteration     100.00

 eigenvalues of (default mixing * dielectric matrix)
  average eigenvalue GAMMA=   1.5817
  2.8111  2.8111  1.3121  1.3121  0.8905  0.9675  0.9675

 Free energy of the ion-electron system (eV)
  ---------------------------------------------------
  alpha Z        PSCENC =       872.70583573
  Ewald energy   TEWEN  =    -17937.75326321
  -Hartree energ DENC   =     -7450.37553158
  -exchange      EXHF   =         0.00000000
  -V(xc)+E(xc)   XCENC  =       943.48683754
  PAW double counting   =     22733.60530017   -23791.83434958
  entropy T*S    EENTRO =        -0.00000000
  eigenvalues    EBANDS =     -2991.46810146
  atomic energy  EATOM  =     26212.11861568
  Solvation  Ediel_sol  =         0.00000000
  ---------------------------------------------------
  free energy    TOTEN  =     -1409.51465670 eV

  energy without entropy =    -1409.51465670  energy(sigma->0) =    -1409.51465670


--------------------------------------------------------------------------------------------------------




--------------------------------------- Iteration      1(  13)  ---------------------------------------


    POTLOK:  cpu time    0.2624: real time    0.3164
    SETDIJ:  cpu time    1.2001: real time    1.2002
     EDDAV:  cpu time   19.5362: real time   19.5370
       DOS:  cpu time    0.0004: real time    0.0004
    CHARGE:  cpu time    2.7001: real time    2.7002
    MIXING:  cpu time    0.0021: real time    0.0021
    --------------------------------------------
      LOOP:  cpu time   23.7013: real time   23.7563

 eigenvalue-minimisations  :  4480
 total energy-change (2. order) : 0.3467185E-03  (-0.1459754E-03)
 number of electron     343.9999998 magnetization 
 augmentation part       -3.2025367 magnetization 

 Broyden mixing:
  rms(total) = 0.49821E-02    rms(broyden)= 0.49815E-02
  rms(prec ) = 0.59480E-02
  weight for this iteration     100.00

 eigenvalues of (default mixing * dielectric matrix)
  average eigenvalue GAMMA=   1.5471
  3.1352  2.5060  1.6748  1.0827  1.0827  1.1329  0.9885  0.7742

 Free energy of the ion-electron system (eV)
  ---------------------------------------------------
  alpha Z        PSCENC =       872.70583573
  Ewald energy   TEWEN  =    -17937.75326321
  -Hartree energ DENC   =     -7451.32629520
  -exchange      EXHF   =         0.00000000
  -V(xc)+E(xc)   XCENC  =       943.54400046
  PAW double counting   =     22732.48341110   -23790.66705744
  entropy T*S    EENTRO =        -0.00000000
  eigenvalues    EBANDS =     -2990.61955711
  atomic energy  EATOM  =     26212.11861568
  Solvation  Ediel_sol  =         0.00000000
  ---------------------------------------------------
  free energy    TOTEN  =     -1409.51430998 eV

  energy without entropy =    -1409.51430998  energy(sigma->0) =    -1409.51430998


--------------------------------------------------------------------------------------------------------




--------------------------------------- Iteration      1(  14)  ---------------------------------------


    POTLOK:  cpu time    0.2896: real time    0.3173
    SETDIJ:  cpu time    1.1976: real time    1.1976
     EDDAV:  cpu time   17.8322: real time   17.8328
       DOS:  cpu time    0.0004: real time    0.0004
    CHARGE:  cpu time    2.7014: real time    2.7016
    MIXING:  cpu time    0.0018: real time    0.0018
    --------------------------------------------
      LOOP:  cpu time   22.0229: real time   22.0515

 eigenvalue-minimisations  :  3896
 total energy-change (2. order) : 0.6777119E-04  (-0.4487345E-04)
 number of electron     343.9999998 magnetization 
 augmentation part       -3.2015113 magnetization 

 Broyden mixing:
  rms(total) = 0.26009E-02    rms(broyden)= 0.25999E-02
  rms(prec ) = 0.33624E-02
  weight for this iteration     100.00

 eigenvalues of (default mixing * dielectric matrix)
  average eigenvalue GAMMA=   1.5348
  3.1957  2.2324  2.2324  1.0598  1.0598  1.1481  1.1481  0.8685  0.8685

 Free energy of the ion-electron system (eV)
  ---------------------------------------------------
  alpha Z        PSCENC =       872.70583573
  Ewald energy   TEWEN  =    -17937.75326321
  -Hartree energ DENC   =     -7451.64940088
  -exchange      EXHF   =         0.00000000
  -V(xc)+E(xc)   XCENC  =       943.56518879
  PAW double counting   =     22733.96091476   -23792.12245700
  entropy T*S    EENTRO =        -0.00000000
  eigenvalues    EBANDS =     -2990.33967608
  atomic energy  EATOM  =     26212.11861568
  Solvation  Ediel_sol  =         0.00000000
  ---------------------------------------------------
  free energy    TOTEN  =     -1409.51424221 eV

  energy without entropy =    -1409.51424221  energy(sigma->0) =    -1409.51424221


--------------------------------------------------------------------------------------------------------




--------------------------------------- Iteration      1(  15)  ---------------------------------------


    POTLOK:  cpu time    0.3139: real time    0.3172
    SETDIJ:  cpu time    1.1982: real time    1.1982
     EDDAV:  cpu time   18.2654: real time   18.2662
       DOS:  cpu time    0.0004: real time    0.0004
    CHARGE:  cpu time    2.6986: real time    2.6987
    MIXING:  cpu time    0.0018: real time    0.0018
    --------------------------------------------
      LOOP:  cpu time   22.4783: real time   22.4825

 eigenvalue-minimisations  :  4048
 total energy-change (2. order) : 0.1551980E-04  (-0.2853833E-05)
 number of electron     343.9999998 magnetization 
 augmentation part       -3.2016902 magnetization 

 Broyden mixing:
  rms(total) = 0.15404E-02    rms(broyden)= 0.15394E-02
  rms(prec ) = 0.21105E-02
  weight for this iteration     100.00

 eigenvalues of (default mixing * dielectric matrix)
  average eigenvalue GAMMA=   1.6244
  3.7000  2.5023  2.5023  1.2783  1.2783  1.1968  1.1968  0.8977  0.8977  0.7942

 Free energy of the ion-electron system (eV)
  ---------------------------------------------------
  alpha Z        PSCENC =       872.70583573
  Ewald energy   TEWEN  =    -17937.75326321
  -Hartree energ DENC   =     -7451.74951633
  -exchange      EXHF   =         0.00000000
  -V(xc)+E(xc)   XCENC  =       943.56767332
  PAW double counting   =     22734.53849867   -23792.69357605
  entropy T*S    EENTRO =        -0.00000000
  eigenvalues    EBANDS =     -2990.24849450
  atomic energy  EATOM  =     26212.11861568
  Solvation  Ediel_sol  =         0.00000000
  ---------------------------------------------------
  free energy    TOTEN  =     -1409.51422669 eV

  energy without entropy =    -1409.51422669  energy(sigma->0) =    -1409.51422669


--------------------------------------------------------------------------------------------------------




--------------------------------------- Iteration      1(  16)  ---------------------------------------


    POTLOK:  cpu time    0.2564: real time    0.3051
    SETDIJ:  cpu time    1.1971: real time    1.1971
     EDDAV:  cpu time   17.6111: real time   17.6120
       DOS:  cpu time    0.0004: real time    0.0004
    CHARGE:  cpu time    2.6962: real time    2.6963
    MIXING:  cpu time    0.0019: real time    0.0019
    --------------------------------------------
      LOOP:  cpu time   21.7631: real time   21.8128

 eigenvalue-minimisations  :  3824
 total energy-change (2. order) :-0.4779940E-04  (-0.3349933E-05)
 number of electron     343.9999998 magnetization 
 augmentation part       -3.2013110 magnetization 

 Broyden mixing:
  rms(total) = 0.60961E-03    rms(broyden)= 0.60704E-03
  rms(prec ) = 0.75750E-03
  weight for this iteration     100.00

 eigenvalues of (default mixing * dielectric matrix)
  average eigenvalue GAMMA=   1.6667
  4.1685  2.7320  2.3510  1.9733  1.0811  1.0811  1.1418  1.1418  0.9190  0.9190
  0.8257

 Free energy of the ion-electron system (eV)
  ---------------------------------------------------
  alpha Z        PSCENC =       872.70583573
  Ewald energy   TEWEN  =    -17937.75326321
  -Hartree energ DENC   =     -7451.79396755
  -exchange      EXHF   =         0.00000000
  -V(xc)+E(xc)   XCENC  =       943.56187591
  PAW double counting   =     22734.00937979   -23792.15996163
  entropy T*S    EENTRO =        -0.00000000
  eigenvalues    EBANDS =     -2990.20278921
  atomic energy  EATOM  =     26212.11861568
  Solvation  Ediel_sol  =         0.00000000
  ---------------------------------------------------
  free energy    TOTEN  =     -1409.51427449 eV

  energy without entropy =    -1409.51427449  energy(sigma->0) =    -1409.51427449


--------------------------------------------------------------------------------------------------------




--------------------------------------- Iteration      1(  17)  ---------------------------------------


    POTLOK:  cpu time    0.2500: real time    0.3224
    SETDIJ:  cpu time    1.1953: real time    1.1956
     EDDAV:  cpu time   17.3308: real time   17.3315
       DOS:  cpu time    0.0004: real time    0.0004
    CHARGE:  cpu time    2.6948: real time    2.6949
    MIXING:  cpu time    0.0019: real time    0.0019
    --------------------------------------------
      LOOP:  cpu time   21.4732: real time   21.5467

 eigenvalue-minimisations  :  3712
 total energy-change (2. order) :-0.1092593E-04  (-0.7742242E-06)
 number of electron     343.9999998 magnetization 
 augmentation part       -3.2012086 magnetization 

 Broyden mixing:
  rms(total) = 0.45522E-03    rms(broyden)= 0.45182E-03
  rms(prec ) = 0.50293E-03
  weight for this iteration     100.00

 eigenvalues of (default mixing * dielectric matrix)
  average eigenvalue GAMMA=   1.6584
  4.2935  2.9862  2.1815  2.1815  1.2067  1.2067  1.1429  1.1429  0.9736  0.9736
  0.8056  0.8056

 Free energy of the ion-electron system (eV)
  ---------------------------------------------------
  alpha Z        PSCENC =       872.70583573
  Ewald energy   TEWEN  =    -17937.75326321
  -Hartree energ DENC   =     -7451.77805691
  -exchange      EXHF   =         0.00000000
  -V(xc)+E(xc)   XCENC  =       943.55825647
  PAW double counting   =     22733.91155516   -23792.06079390
  entropy T*S    EENTRO =        -0.00000000
  eigenvalues    EBANDS =     -2990.21643444
  atomic energy  EATOM  =     26212.11861568
  Solvation  Ediel_sol  =         0.00000000
  ---------------------------------------------------
  free energy    TOTEN  =     -1409.51428542 eV

  energy without entropy =    -1409.51428542  energy(sigma->0) =    -1409.51428542


--------------------------------------------------------------------------------------------------------




--------------------------------------- Iteration      1(  18)  ---------------------------------------


    POTLOK:  cpu time    0.3156: real time    0.3186
    SETDIJ:  cpu time    1.1946: real time    1.1947
     EDDAV:  cpu time   14.3988: real time   14.3994
       DOS:  cpu time    0.0004: real time    0.0004
    CHARGE:  cpu time    2.6975: real time    2.6976
    MIXING:  cpu time    0.0020: real time    0.0020
    --------------------------------------------
      LOOP:  cpu time   18.6090: real time   18.6127

 eigenvalue-minimisations  :  2680
 total energy-change (2. order) : 0.6384969E-05  (-0.2138612E-06)
 number of electron     343.9999998 magnetization 
 augmentation part       -3.2012355 magnetization 

 Broyden mixing:
  rms(total) = 0.16204E-03    rms(broyden)= 0.15224E-03
  rms(prec ) = 0.17672E-03
  weight for this iteration     100.00

 eigenvalues of (default mixing * dielectric matrix)
  average eigenvalue GAMMA=   1.6664
  4.5698  2.9879  2.2845  2.2220  1.3241  1.3241  1.1506  1.1506  1.0083  1.0083
  0.8114  0.9106  0.9106

 Free energy of the ion-electron system (eV)
  ---------------------------------------------------
  alpha Z        PSCENC =       872.70583573
  Ewald energy   TEWEN  =    -17937.75326321
  -Hartree energ DENC   =     -7451.78061245
  -exchange      EXHF   =         0.00000000
  -V(xc)+E(xc)   XCENC  =       943.55805848
  PAW double counting   =     22733.97071297   -23792.11878477
  entropy T*S    EENTRO =        -0.00000000
  eigenvalues    EBANDS =     -2990.21484147
  atomic energy  EATOM  =     26212.11861568
  Solvation  Ediel_sol  =         0.00000000
  ---------------------------------------------------
  free energy    TOTEN  =     -1409.51427903 eV

  energy without entropy =    -1409.51427903  energy(sigma->0) =    -1409.51427903


--------------------------------------------------------------------------------------------------------




--------------------------------------- Iteration      1(  19)  ---------------------------------------


    POTLOK:  cpu time    0.2893: real time    0.3141
    SETDIJ:  cpu time    1.1956: real time    1.1956
     EDDAV:  cpu time   12.9566: real time   12.9571
       DOS:  cpu time    0.0004: real time    0.0004
    CHARGE:  cpu time    2.6958: real time    2.6959
    MIXING:  cpu time    0.0025: real time    0.0025
    --------------------------------------------
      LOOP:  cpu time   17.1401: real time   17.1656

 eigenvalue-minimisations  :  2168
 total energy-change (2. order) : 0.4547246E-05  (-0.3743880E-07)
 number of electron     343.9999998 magnetization 
 augmentation part       -3.2012557 magnetization 

 Broyden mixing:
  rms(total) = 0.10085E-03    rms(broyden)= 0.84255E-04
  rms(prec ) = 0.98133E-04
  weight for this iteration     100.00
  WARNING: grid for Broyden might be to small

 eigenvalues of (default mixing * dielectric matrix)
  average eigenvalue GAMMA=   1.6489
  4.6372  3.0299  2.4224  2.0387  1.2452  1.2452  1.3604  1.3604  1.0900  1.0900
  0.9801  0.9801  0.8027  0.8027

 Free energy of the ion-electron system (eV)
  ---------------------------------------------------
  alpha Z        PSCENC =       872.70583573
  Ewald energy   TEWEN  =    -17937.75326321
  -Hartree energ DENC   =     -7451.78451166
  -exchange      EXHF   =         0.00000000
  -V(xc)+E(xc)   XCENC  =       943.55822063
  PAW double counting   =     22734.04321712   -23792.19137579
  entropy T*S    EENTRO =        -0.00000000
  eigenvalues    EBANDS =     -2990.21101299
  atomic energy  EATOM  =     26212.11861568
  Solvation  Ediel_sol  =         0.00000000
  ---------------------------------------------------
  free energy    TOTEN  =     -1409.51427449 eV

  energy without entropy =    -1409.51427449  energy(sigma->0) =    -1409.51427449


--------------------------------------------------------------------------------------------------------




--------------------------------------- Iteration      1(  20)  ---------------------------------------


    POTLOK:  cpu time    0.2747: real time    0.2864
    SETDIJ:  cpu time    1.1958: real time    1.1959
     EDDAV:  cpu time   12.5622: real time   12.5627
       DOS:  cpu time    0.0004: real time    0.0004
    CHARGE:  cpu time    2.6933: real time    2.6934
    MIXING:  cpu time    0.0023: real time    0.0023
    --------------------------------------------
      LOOP:  cpu time   16.7287: real time   16.7410

 eigenvalue-minimisations  :  2032
 total energy-change (2. order) : 0.3268278E-05  (-0.1665357E-07)
 number of electron     343.9999998 magnetization 
 augmentation part       -3.2012687 magnetization 

 Broyden mixing:
  rms(total) = 0.74566E-04    rms(broyden)= 0.49895E-04
  rms(prec ) = 0.56789E-04
  weight for this iteration     100.00
  WARNING: grid for Broyden might be to small

 eigenvalues of (default mixing * dielectric matrix)
  average eigenvalue GAMMA=   1.6270
  4.6853  3.0589  2.3917  2.1721  1.9926  1.2462  1.2462  1.1307  1.1307  1.0194
  1.0194  0.9667  0.7916  0.7916  0.7613

 Free energy of the ion-electron system (eV)
  ---------------------------------------------------
  alpha Z        PSCENC =       872.70583573
  Ewald energy   TEWEN  =    -17937.75326321
  -Hartree energ DENC   =     -7451.78975496
  -exchange      EXHF   =         0.00000000
  -V(xc)+E(xc)   XCENC  =       943.55849752
  PAW double counting   =     22734.04985196   -23792.19732720
  entropy T*S    EENTRO =        -0.00000000
  eigenvalues    EBANDS =     -2990.20672674
  atomic energy  EATOM  =     26212.11861568
  Solvation  Ediel_sol  =         0.00000000
  ---------------------------------------------------
  free energy    TOTEN  =     -1409.51427122 eV

  energy without entropy =    -1409.51427122  energy(sigma->0) =    -1409.51427122


--------------------------------------------------------------------------------------------------------




--------------------------------------- Iteration      1(  21)  ---------------------------------------


    POTLOK:  cpu time    0.2573: real time    0.3099
    SETDIJ:  cpu time    1.2030: real time    1.2031
     EDDAV:  cpu time   12.8179: real time   12.8185
       DOS:  cpu time    0.0004: real time    0.0004
    --------------------------------------------
      LOOP:  cpu time   14.2786: real time   14.3318

 eigenvalue-minimisations  :  2120
 total energy-change (2. order) : 0.4224103E-07  (-0.3481071E-07)
 number of electron     343.9999998 magnetization 
 augmentation part       -3.2012687 magnetization 

 Free energy of the ion-electron system (eV)
  ---------------------------------------------------
  alpha Z        PSCENC =       872.70583573
  Ewald energy   TEWEN  =    -17937.75326321
  -Hartree energ DENC   =     -7451.79013519
  -exchange      EXHF   =         0.00000000
  -V(xc)+E(xc)   XCENC  =       943.55852942
  PAW double counting   =     22734.04773352   -23792.19607562
  entropy T*S    EENTRO =        -0.00000000
  eigenvalues    EBANDS =     -2990.20551151
  atomic energy  EATOM  =     26212.11861568
  Solvation  Ediel_sol  =         0.00000000
  ---------------------------------------------------
  free energy    TOTEN  =     -1409.51427118 eV

  energy without entropy =    -1409.51427118  energy(sigma->0) =    -1409.51427118


--------------------------------------------------------------------------------------------------------




 average (electrostatic) potential at core
  the test charge radii are     1.1312  1.1541  1.0178
  (the norm of the test charge is              1.0000)
       1 -55.2048       2 -55.3029       3 -55.1467       4 -55.2239       5 -55.2396
       6 -55.1891       7 -55.2391       8 -55.3117       9-101.5949      10-101.6358
      11-101.6280      12-101.6209      13-101.9150      14-101.8782      15-101.6469
      16-101.9980      17 -69.0435      18 -69.0535      19 -69.0176      20 -69.0489
      21 -69.0160      22 -69.0205      23 -69.0785      24 -69.0416      25 -68.9695
      26 -68.9820      27 -68.9834      28 -68.9866      29 -68.9948      30 -68.9326
      31 -69.0287      32 -68.9240      33 -68.9594      34 -68.9971      35 -69.0119
      36 -69.4191      37 -69.4757      38 -68.9682      39 -68.9596



 E-fermi :   0.4335     XC(G=0):  -7.9589     alpha+bet : -6.9586


 k-point     1 :       0.0000    0.0000    0.0000
  band No.  band energies     occupation 
      1     -20.8432      2.00000
      2     -20.8327      2.00000
      3     -20.7678      2.00000
      4     -20.7656      2.00000
      5     -20.7509      2.00000
      6     -20.7402      2.00000
      7     -20.7197      2.00000
      8     -20.6844      2.00000
      9     -16.7724      2.00000
     10     -16.7323      2.00000
     11     -16.7045      2.00000
     12     -16.6901      2.00000
     13     -16.6859      2.00000
     14     -16.6611      2.00000
     15     -16.6597      2.00000
     16     -16.6276      2.00000
     17     -16.5864      2.00000
     18     -16.5845      2.00000
     19     -16.5787      2.00000
     20     -16.5426      2.00000
     21     -16.5381      2.00000
     22     -16.5317      2.00000
     23     -16.5080      2.00000
     24     -16.4473      2.00000
     25     -16.4412      2.00000
     26     -16.4292      2.00000
     27     -16.4186      2.00000
     28     -16.4118      2.00000
     29     -16.4054      2.00000
     30     -16.3832      2.00000
     31     -16.3704      2.00000
     32     -16.3569      2.00000
     33     -16.3445      2.00000
     34     -16.3111      2.00000
     35     -16.3027      2.00000
     36     -16.3005      2.00000
     37     -16.2987      2.00000
     38     -16.2975      2.00000
     39     -16.2925      2.00000
     40     -16.2919      2.00000
     41     -16.2865      2.00000
     42     -16.2829      2.00000
     43     -16.2807      2.00000
     44     -16.2797      2.00000
     45     -16.2740      2.00000
     46     -16.2633      2.00000
     47     -16.2587      2.00000
     48     -16.2542      2.00000
     49     -14.5260      2.00000
     50     -14.4325      2.00000
     51     -14.3034      2.00000
     52     -14.1768      2.00000
     53     -14.1347      2.00000
     54     -14.0992      2.00000
     55     -14.0902      2.00000
     56     -14.0791      2.00000
     57     -14.0643      2.00000
     58     -14.0620      2.00000
     59     -14.0460      2.00000
     60     -14.0327      2.00000
     61     -14.0242      2.00000
     62     -14.0071      2.00000
     63     -13.9995      2.00000
     64     -13.9743      2.00000
     65     -13.9517      2.00000
     66     -13.9093      2.00000
     67     -13.8645      2.00000
     68     -13.7744      2.00000
     69     -13.7518      2.00000
     70     -13.7505      2.00000
     71     -13.7184      2.00000
     72      -8.2195      2.00000
     73      -7.7996      2.00000
     74      -7.7961      2.00000
     75      -7.6814      2.00000
     76      -7.3481      2.00000
     77      -7.2854      2.00000
     78      -7.2667      2.00000
     79      -7.2468      2.00000
     80      -7.2437      2.00000
     81      -7.2294      2.00000
     82      -7.2237      2.00000
     83      -7.2164      2.00000
     84      -7.1931      2.00000
     85      -7.1806      2.00000
     86      -7.1772      2.00000
     87      -7.1672      2.00000
     88      -7.1636      2.00000
     89      -7.1609      2.00000
     90      -7.1557      2.00000
     91      -7.1515      2.00000
     92      -7.1460      2.00000
     93      -7.1384      2.00000
     94      -7.1365      2.00000
     95      -7.1274      2.00000
     96      -7.1174      2.00000
     97      -7.1157      2.00000
     98      -7.1084      2.00000
     99      -7.0978      2.00000
    100      -7.0942      2.00000
    101      -7.0774      2.00000
    102      -7.0523      2.00000
    103      -6.5882      2.00000
    104      -3.3636      2.00000
    105      -3.3371      2.00000
    106      -3.2908      2.00000
    107      -3.2744      2.00000
    108      -3.2580      2.00000
    109      -3.1798      2.00000
    110      -3.1771      2.00000
    111      -3.1546      2.00000
    112      -3.0994      2.00000
    113      -3.0858      2.00000
    114      -2.9533      2.00000
    115      -2.8948      2.00000
    116      -2.2478      2.00000
    117      -2.1876      2.00000
    118      -2.1616      2.00000
    119      -2.0914      2.00000
    120      -2.0104      2.00000
    121      -1.9753      2.00000
    122      -1.9494      2.00000
    123      -1.8751      2.00000
    124      -1.8451      2.00000
    125      -1.8314      2.00000
    126      -1.7650      2.00000
    127      -1.7418      2.00000
    128      -1.6977      2.00000
    129      -1.6690      2.00000
    130      -1.6496      2.00000
    131      -1.6075      2.00000
    132      -1.5708      2.00000
    133      -1.5685      2.00000
    134      -1.5596      2.00000
    135      -1.5279      2.00000
    136      -1.4994      2.00000
    137      -1.4910      2.00000
    138      -1.4672      2.00000
    139      -1.4542      2.00000
    140      -1.4295      2.00000
    141      -1.4254      2.00000
    142      -1.4142      2.00000
    143      -1.4076      2.00000
    144      -1.4069      2.00000
    145      -1.3880      2.00000
    146      -1.3643      2.00000
    147      -1.3540      2.00000
    148      -1.3437      2.00000
    149      -1.3411      2.00000
    150      -1.3324      2.00000
    151      -1.3119      2.00000
    152      -1.2938      2.00000
    153      -1.2813      2.00000
[...]


--------------------------------------------------------------------------------------------------------


 soft charge-density along one line, spin component           1
         0         1         2         3         4         5         6         7         8         9
 total charge-density along one line

 pseudopotential strength for first ion, spin component:           1
 17.939  -4.696   0.004   0.002   0.000  -0.005  -0.002  -0.001
 -4.696   1.238  -0.001  -0.000  -0.000   0.001   0.000   0.000
  0.004  -0.001   2.251   0.001   0.000  -2.690  -0.001  -0.000
  0.002  -0.000   0.001   2.251  -0.000  -0.001  -2.689   0.001
  0.000  -0.000   0.000  -0.000   2.251  -0.000   0.001  -2.689
 -0.005   0.001  -2.690  -0.001  -0.000   3.181   0.002   0.001
 -0.002   0.000  -0.001  -2.689   0.001   0.002   3.180  -0.001
 -0.001   0.000  -0.000   0.001  -2.689   0.001  -0.001   3.180
  0.000  -0.000   0.001   0.000   0.001  -0.001  -0.000  -0.002
  0.001  -0.000   0.002   0.002   0.000  -0.002  -0.002  -0.000
 -0.000   0.000  -0.001  -0.000  -0.000   0.002   0.000   0.000
 -0.000   0.000   0.000   0.000   0.002  -0.000  -0.001  -0.002
 -0.000   0.000  -0.003   0.000  -0.001   0.004  -0.000   0.001
 total augmentation occupancy for first ion, spin component:           1
  1.913  -0.136   0.001   0.000   0.000   0.002   0.001   0.000   0.001   0.001  -0.000  -0.001  -0.000
 -0.136   0.123   0.011   0.004   0.002  -0.005  -0.002  -0.000  -0.001  -0.001  -0.001   0.003  -0.000
  0.001   0.011   2.019   0.003   0.001   0.006   0.002   0.001   0.003   0.004  -0.002   0.001  -0.004
  0.000   0.004   0.003   2.018  -0.001   0.002   0.005  -0.001   0.001   0.004  -0.002   0.001  -0.001
  0.000   0.002   0.001  -0.001   2.018   0.001  -0.001   0.005   0.003   0.001  -0.000   0.002  -0.002
  0.002  -0.005   0.006   0.002   0.001   0.009  -0.001  -0.000  -0.001  -0.003   0.000  -0.000   0.001
  0.001  -0.002   0.002   0.005  -0.001  -0.001   0.008   0.001  -0.000  -0.001   0.002  -0.001   0.001
  0.000  -0.000   0.001  -0.001   0.005  -0.000   0.001   0.009  -0.001  -0.000  -0.001  -0.001   0.002
  0.001  -0.001   0.003   0.001   0.003  -0.001  -0.000  -0.001   0.007   0.001  -0.000   0.000   0.001
  0.001  -0.001   0.004   0.004   0.001  -0.003  -0.001  -0.000   0.001   0.005   0.000  -0.001   0.001
 -0.000  -0.001  -0.002  -0.002  -0.000   0.000   0.002  -0.001  -0.000   0.000   0.006  -0.002  -0.000
 -0.001   0.003   0.001   0.001   0.002  -0.000  -0.001  -0.001   0.000  -0.001  -0.002   0.004   0.001
 -0.000  -0.000  -0.004  -0.001  -0.002   0.001   0.001   0.002   0.001   0.001  -0.000   0.001   0.004


------------------------ aborting loop because EDIFF is reached ----------------------------------------





 total charge     

# of ion       s       p       d       tot
------------------------------------------
    1        1.786   4.717   0.019   6.523
    2        1.786   4.717   0.018   6.520
    3        1.786   4.717   0.020   6.523
    4        1.785   4.717   0.017   6.519
    5        1.785   4.716   0.018   6.519
    6        1.786   4.716   0.018   6.520
    7        1.785   4.716   0.017   6.519
    8        1.786   4.716   0.019   6.521
    9        1.554   0.423   9.835  11.812
   10        1.553   0.410   9.833  11.796
   11        1.553   0.421   9.834  11.809
   12        1.554   0.416   9.834  11.804
   13        1.537   0.428   9.832  11.796
   14        1.530   0.441   9.832  11.802
   15        1.552   0.414   9.833  11.799
   16        1.542   0.434   9.828  11.804
   17        1.614   3.282   0.006   4.902
   18        1.615   3.283   0.007   4.904
   19        1.614   3.287   0.006   4.907
   20        1.615   3.279   0.006   4.900
   21        1.615   3.285   0.007   4.907
   22        1.614   3.276   0.006   4.896
   23        1.615   3.281   0.007   4.903
   24        1.614   3.284   0.006   4.904
   25        1.613   3.279   0.006   4.898
   26        1.614   3.274   0.006   4.893
   27        1.614   3.282   0.006   4.903
   28        1.614   3.285   0.006   4.905
   29        1.614   3.285   0.007   4.906
   30        1.614   3.282   0.006   4.902
   31        1.615   3.287   0.007   4.909
   32        1.614   3.279   0.006   4.898
   33        1.614   3.284   0.006   4.904
   34        1.614   3.284   0.006   4.904
   35        1.615   3.276   0.007   4.898
   36        1.616   3.273   0.007   4.896
   37        1.615   3.269   0.007   4.891
   38        1.614   3.279   0.006   4.898
   39        1.615   3.269   0.006   4.890
--------------------------------------------------
tot         63.793 116.565  78.950 259.308

    CHARGE:  cpu time    0.3952: real time    0.3952
    FORLOC:  cpu time    0.0111: real time    0.0111
    FORNL :  cpu time    1.9113: real time    1.9114
    STRESS:  cpu time   49.6842: real time   49.6860
    FORCOR:  cpu time    0.2416: real time    0.2417
    FORHAR:  cpu time    0.0276: real time    0.0276
    MIXING:  cpu time    0.0021: real time    0.0021
    OFIELD:  cpu time    0.0000: real time    0.0000

  FORCE on cell =-STRESS in cart. coord.  units (eV):
  Direction    XX          YY          ZZ          XY          YZ          ZX
  --------------------------------------------------------------------------------------
  Alpha Z   872.70584   872.70584   872.70584
  Ewald   -6014.86782 -5675.07849 -6247.88552     0.78114   -13.92511    -8.82665
  Hartree  2465.99507  2667.93560  2317.85789     1.52845    -8.73212    -3.14501
  E(xc)   -1449.23179 -1448.97016 -1449.47990     0.04582    -0.00421    -0.00034
  Local   -2842.70167 -3384.01436 -2459.56215    -3.00655    22.20977    11.97008
  n-local  1748.60910  1749.48206  1744.66322     0.06776     0.29251     0.22252
  augment   818.02019   818.14387   816.71626     0.02705     0.04523    -0.05691
  Kinetic  4394.29611  4395.81227  4398.07929     0.82049     0.13238     0.43226
  Fock        0.00000     0.00000     0.00000     0.00000     0.00000     0.00000
  -------------------------------------------------------------------------------------
  Total      -7.17498    -3.98338    -6.90508     0.26416     0.01845     0.59596
  in kB      -7.20687    -4.00109    -6.93577     0.26533     0.01853     0.59860
  external pressure =       -6.05 kB  Pullay stress =        0.00 kB


 VOLUME and BASIS-vectors are now :
 -----------------------------------------------------------------------------
  energy-cutoff  :      300.00
  volume of cell :     1595.09
      direct lattice vectors                 reciprocal lattice vectors
     8.456489000  0.000000000  8.040301000     0.059126193 -0.000000000  0.062186727
     0.000000000 11.729847000  0.000000000     0.000000000  0.085252604 -0.000000000
    -8.456489000  0.000000000  8.040301000    -0.059126193  0.000000000  0.062186727

  length of vectors
    11.668703715 11.729847000 11.668703715     0.085808482  0.085252604  0.085808482


 FORCES acting on ions
    electron-ion (+dipol)            ewald-force                    non-local-force                 convergence-correction
 -----------------------------------------------------------------------------------------------
   0.196E+02 -.537E+02 -.498E+02   -.196E+02 0.533E+02 0.496E+02   0.482E-01 0.325E+00 0.127E+00   -.334E-04 -.957E-04 0.299E-04
   0.510E+01 -.433E+02 0.359E+02   -.501E+01 0.430E+02 -.356E+02   -.901E-01 0.308E+00 -.260E+00   -.784E-04 -.953E-04 -.143E-04
   0.299E+01 0.405E+02 -.150E+02   -.307E+01 -.406E+02 0.152E+02   0.765E-01 0.265E-02 -.142E+00   -.758E-04 0.138E-03 -.559E-04
   -.334E+02 0.264E+02 -.375E+01   0.332E+02 -.262E+02 0.381E+01   0.203E+00 -.202E+00 -.769E-01   0.148E-03 -.692E-04 0.138E-03
   -.192E+01 -.276E+02 -.406E+01   0.192E+01 0.274E+02 0.395E+01   -.104E-01 0.218E+00 0.105E+00   0.451E-04 -.360E-04 0.337E-04
   0.545E+02 -.237E+02 0.401E+01   -.544E+02 0.236E+02 -.418E+01   -.424E-01 0.123E+00 0.181E+00   0.349E-04 -.126E-03 -.280E-04
   -.360E+02 0.225E+02 0.296E+02   0.359E+02 -.225E+02 -.295E+02   0.913E-01 -.670E-01 -.121E+00   -.548E-04 0.106E-03 -.369E-04
   -.581E+02 0.529E+02 -.126E+02   0.577E+02 -.524E+02 0.123E+02   0.401E+00 -.507E+00 0.322E+00   -.252E-04 0.793E-04 0.107E-03
   0.124E+02 0.191E+02 0.110E+01   -.122E+02 -.188E+02 -.914E+00   -.219E+00 -.242E+00 -.193E+00   -.711E-05 0.589E-04 0.121E-03
   -.234E+02 -.131E+02 -.136E+02   0.234E+02 0.130E+02 0.138E+02   0.131E-01 0.431E-01 -.243E+00   -.242E-04 -.437E-04 -.170E-03
   0.345E+01 0.325E+01 -.129E+02   -.342E+01 -.333E+01 0.141E+02   -.297E-01 0.796E-01 -.116E+01   -.111E-03 -.274E-04 0.329E-04
   0.828E+01 -.280E+01 0.127E+02   -.821E+01 0.310E+01 -.131E+02   -.537E-01 -.302E+00 0.392E+00   0.156E-03 -.272E-04 0.347E-05
   0.982E+02 -.127E+02 -.392E+02   -.103E+03 0.137E+02 0.419E+02   0.445E+01 -.103E+01 -.277E+01   0.761E-03 -.124E-03 -.570E-03
   0.624E+02 0.152E+02 0.103E+03   -.648E+02 -.162E+02 -.109E+03   0.240E+01 0.984E+00 0.599E+01   0.721E-03 0.167E-03 0.968E-03
   -.143E+02 -.710E+01 -.129E+01   0.158E+02 0.664E+01 0.637E+00   -.152E+01 0.451E+00 0.639E+00   -.187E-04 -.638E-04 0.146E-03
   -.404E+02 -.218E+01 0.977E+01   0.373E+02 0.295E+01 -.102E+02   0.315E+01 -.766E+00 0.455E+00   -.757E-04 0.147E-04 -.105E-03
   0.308E+02 0.255E+02 0.174E+02   -.310E+02 -.256E+02 -.176E+02   0.159E+00 0.575E-01 0.175E+00   -.283E-04 0.239E-04 -.203E-04
   0.250E+02 0.224E+02 0.474E+02   -.251E+02 -.224E+02 -.477E+02   0.981E-01 -.128E-01 0.304E+00   0.585E-04 0.275E-04 0.302E-04
   -.954E+01 -.167E+02 0.274E+02   0.969E+01 0.167E+02 -.275E+02   -.132E+00 0.313E-02 0.965E-01   0.159E-05 0.113E-04 0.118E-03
   -.154E+02 -.222E+02 0.370E+02   0.153E+02 0.221E+02 -.374E+02   0.700E-01 0.537E-01 0.402E+00   0.263E-04 0.311E-04 -.570E-04
   0.644E+01 0.146E+02 -.421E+02   -.647E+01 -.146E+02 0.425E+02   0.230E-01 0.145E-02 -.356E+00   0.971E-05 -.180E-04 0.544E-04
   -.131E+02 0.245E+02 -.230E+02   0.132E+02 -.245E+02 0.231E+02   -.249E-01 -.417E-01 -.147E+00   -.424E-04 -.117E-04 -.953E-04
   0.108E+02 -.150E+02 -.411E+02   -.108E+02 0.149E+02 0.415E+02   0.186E-01 0.977E-01 -.381E+00   -.798E-04 -.313E-04 -.235E-04
   0.697E+01 -.211E+02 -.570E+01   -.705E+01 0.210E+02 0.584E+01   0.807E-01 0.112E-01 -.132E+00   0.155E-03 -.146E-04 0.467E-04
   -.147E+02 0.198E+01 0.552E+00   0.148E+02 -.211E+01 -.763E+00   -.104E+00 0.124E+00 0.199E+00   0.167E-04 0.530E-06 0.190E-04
   0.290E+02 -.127E+02 0.406E+02   -.294E+02 0.129E+02 -.407E+02   0.350E+00 -.128E+00 0.108E+00   0.695E-04 0.181E-04 0.800E-04
   -.274E+02 -.203E+02 -.882E+01   0.276E+02 0.205E+02 0.894E+01   -.175E+00 -.136E+00 -.118E+00   -.433E-04 -.425E-04 -.997E-04
   -.944E+01 -.170E+02 -.284E+02   0.962E+01 0.171E+02 0.286E+02   -.162E+00 -.153E+00 -.238E+00   0.401E-04 0.226E-04 0.713E-04
   0.256E+02 0.125E+02 -.137E+02   -.258E+02 -.125E+02 0.137E+02   0.188E+00 0.232E-01 -.487E-01   -.765E-04 -.744E-05 -.831E-05
   0.122E+02 0.216E+02 -.280E+02   -.124E+02 -.218E+02 0.283E+02   0.180E+00 0.185E+00 -.294E+00   0.112E-03 -.528E-05 0.137E-04
   -.248E+02 -.138E+02 0.229E+02   0.250E+02 0.139E+02 -.233E+02   -.165E+00 -.163E+00 0.357E+00   0.146E-04 0.295E-04 0.714E-04
   -.893E+01 -.360E+02 0.269E+02   0.913E+01 0.362E+02 -.271E+02   -.186E+00 -.255E+00 0.134E+00   -.225E-04 -.420E-04 -.108E-03
   0.186E+02 0.249E+02 0.166E+02   -.188E+02 -.251E+02 -.169E+02   0.170E+00 0.176E+00 0.283E+00   -.413E-04 0.979E-05 0.322E-04
   0.143E+02 0.305E+02 0.308E+02   -.145E+02 -.307E+02 -.309E+02   0.165E+00 0.226E+00 0.149E+00   0.370E-04 -.149E-04 0.115E-04
   0.312E+02 -.272E+02 -.240E+02   -.315E+02 0.276E+02 0.243E+02   0.268E+00 -.355E+00 -.275E+00   -.128E-04 -.591E-05 -.393E-05
   -.227E+02 -.134E+02 -.461E+02   0.229E+02 0.136E+02 0.468E+02   -.149E+00 -.215E+00 -.619E+00   0.999E-04 -.186E-04 0.148E-04
   -.574E+02 0.208E+02 0.693E+00   0.579E+02 -.211E+02 -.564E+00   -.466E+00 0.221E+00 -.119E+00   -.114E-03 0.563E-04 -.134E-03
   -.134E+02 0.105E+02 -.498E+02   0.135E+02 -.107E+02 0.502E+02   -.132E+00 0.163E+00 -.362E+00   0.713E-04 -.588E-05 0.985E-04
   -.614E+02 0.122E+02 -.390E+01   0.623E+02 -.123E+02 0.378E+01   -.818E+00 0.582E-01 0.115E+00   -.181E-03 0.371E-05 -.936E-04
 -----------------------------------------------------------------------------------------------
   -.807E+01 0.622E+00 -.257E+01   0.284E-13 -.888E-14 -.613E-13   0.812E+01 -.639E+00 0.247E+01   0.143E-02 -.128E-03 0.617E-03


 POSITION                                       TOTAL-FORCE (eV/Angst)
 -----------------------------------------------------------------------------------
      0.60354      2.78564      3.70732         0.000522      0.000140      0.000136
      0.24984      2.67987     12.19923         0.000069      0.000073      0.000260
      3.76919      9.11789      7.77317        -0.000543      0.000264      0.000384
     -4.64452      8.80954      8.08544        -0.000896     -0.000059     -0.000168
     -4.00308      2.87608      7.92851        -0.000419     -0.000711     -0.000610
      4.91582      2.92179      8.34863         0.000153     -0.000139      0.000347
     -0.47830      8.87220     12.16956         0.000080      0.000191      0.000116
     -0.66251      8.88948      4.20012         0.000072      0.000184     -0.000034
      0.05778     11.65794      0.06243         0.000606     -0.000169      0.000536
     -0.06867      0.06151      7.96763         0.000790      0.000014     -0.000633
      4.23226     11.72072      4.03614        -0.000180      0.000664     -0.000231
      4.16477      0.00335     12.00648         0.000316     -0.001377      0.000096
      4.37839      5.78812      4.23292        -0.001943      0.000370     -0.000066
      4.18847      5.91578     11.91093        -0.000664      0.000389     -0.000711
     -8.29581      5.88021      8.11436         0.000930      0.000157      0.001550
     -0.26134      5.82227      8.04876         0.000457     -0.000063      0.000393
     -4.21244      8.74281     11.80325         0.000279      0.000281      0.000660
      4.18392      8.81825     11.35336        -0.000004      0.000355      0.000636
      0.16117      2.90903     15.81261        -0.000142     -0.000371     -0.000311
     -0.39901      2.97539      7.28802         0.000085      0.000512      0.000337
      0.20901      8.77041      0.67834        -0.000067     -0.000131     -0.000296
     -0.02775      8.78056      8.36657        -0.000047      0.000090     -0.000345
      4.21274      2.90808      4.73695         0.001040      0.000114     -0.000176
     -4.49336      2.98152      4.28297        -0.000302     -0.000767     -0.000314
     -5.79881      5.48388      9.83117        -0.000134     -0.000488     -0.000073
      1.75369      6.21983     13.54905        -0.000408      0.000065      0.000497
     -1.81467      0.33374     10.37988         0.000358      0.000310     -0.000576
     -1.72891      0.33168      2.43216        -0.000641     -0.000057      0.000406
      6.11581     11.48297      6.38396        -0.000285     -0.000484      0.000077
     -2.60135     11.31635      6.39299        -0.000163     -0.000334     -0.000070
     -5.85623      0.33193      9.65546        -0.000332     -0.000059      0.000220
      2.40444      0.49557      9.59710        -0.000435     -0.000232      0.000516
      1.63910     11.37408      5.55142        -0.000415      0.000130      0.000394
      1.76040     11.29415     13.70888         0.000319      0.000704     -0.000595
      6.15911      6.37208      6.52589        -0.000021      0.000027     -0.000199
     -2.68986      6.29113      6.19367         0.000339      0.000235     -0.000239
     -1.69501      5.46132     10.66535         0.001073      0.000974     -0.000869
     -1.56986      5.49425      2.48167        -0.000039     -0.000440     -0.000540
      2.54640      5.69220      7.80107         0.000589     -0.000360     -0.000502
 -----------------------------------------------------------------------------------
    total drift:                                0.048681     -0.017078     -0.093342


--------------------------------------------------------------------------------------------------------



  FREE ENERGIE OF THE ION-ELECTRON SYSTEM (eV)
  ---------------------------------------------------
  free  energy   TOTEN  =     -1409.51427118 eV

  energy  without entropy=    -1409.51427118  energy(sigma->0) =    -1409.51427118



--------------------------------------------------------------------------------------------------------


    POTLOK:  cpu time    1.4355: real time    1.4355


--------------------------------------------------------------------------------------------------------


 stress matrix after NEB project (eV)
     -7.17498      0.26422      0.59596
      0.26416     -3.98338      0.01838
      0.59592      0.01845     -6.90508
  FORCES: max atom, RMS     0.001979    0.000854
  FORCE total and by dimension    0.005334    0.001943
  Stress total and by dimension   10.764682    7.174982
     LOOP+:  cpu time  484.9970: real time  485.8334
    4ORBIT:  cpu time    0.0000: real time    0.0000



 total charge     

# of ion       s       p       d       tot
------------------------------------------
    1        1.786   4.717   0.019   6.523
    2        1.786   4.717   0.018   6.520
    3        1.786   4.717   0.020   6.523
    4        1.785   4.717   0.017   6.519
    5        1.785   4.716   0.018   6.519
    6        1.786   4.716   0.018   6.520
    7        1.785   4.716   0.017   6.519
    8        1.786   4.716   0.019   6.521
    9        1.554   0.423   9.835  11.812
   10        1.553   0.410   9.833  11.796
   11        1.553   0.421   9.834  11.809
   12        1.554   0.416   9.834  11.804
   13        1.537   0.428   9.832  11.796
   14        1.530   0.441   9.832  11.802
   15        1.552   0.414   9.833  11.799
   16        1.542   0.434   9.828  11.804
   17        1.614   3.282   0.006   4.902
   18        1.615   3.283   0.007   4.904
   19        1.614   3.287   0.006   4.907
   20        1.615   3.279   0.006   4.900
   21        1.615   3.285   0.007   4.907
   22        1.614   3.276   0.006   4.896
   23        1.615   3.281   0.007   4.903
   24        1.614   3.284   0.006   4.904
   25        1.613   3.279   0.006   4.898
   26        1.614   3.274   0.006   4.893
   27        1.614   3.282   0.006   4.903
   28        1.614   3.285   0.006   4.905
   29        1.614   3.285   0.007   4.906
   30        1.614   3.282   0.006   4.902
   31        1.615   3.287   0.007   4.909
   32        1.614   3.279   0.006   4.898
   33        1.614   3.284   0.006   4.904
   34        1.614   3.284   0.006   4.904
   35        1.615   3.276   0.007   4.898
   36        1.616   3.273   0.007   4.896
   37        1.615   3.269   0.007   4.891
   38        1.614   3.279   0.006   4.898
   39        1.615   3.269   0.006   4.890
--------------------------------------------------
tot         63.793 116.565  78.950 259.308


 total amount of memory used by VASP MPI-rank0    60651. kBytes
=======================================================================

   base      :      30000. kBytes
   nonlr-proj:       6486. kBytes
   fftplans  :       8423. kBytes
   grid      :       7465. kBytes
   one-center:         77. kBytes
   wavefun   :       8200. kBytes

  
  
 General timing and accounting informations for this job:
 ========================================================
  
                  Total CPU time used (sec):      497.360
                            User time (sec):      495.900
                          System time (sec):        1.460
                         Elapsed time (sec):      498.785
  
                   Maximum memory used (kb):       78352.
                   Average memory used (kb):           0.
  
                          Minor page faults:        21017
                          Major page faults:            2
                 Voluntary context switches:         2017
