<?xml version="1.0" encoding="ISO-8859-1"?>
<modeling>
 <generator>
  <i name="program" type="string">vasp </i>
  <i name="version" type="string">5.4.4.18Apr17-6-g9f103f2a35  </i>
  <i name="subversion" type="string">(build Jun 22 2020 09:27:21) complex            parallel </i>
  <i name="platform" type="string">tx2_gcc-7.3_libsci-18.07_cray-fftw-3.3.8 </i>
  <i name="date" type="string">2021 10 12 </i>
  <i name="time" type="string">05:36:17 </i>
 </generator>
 <incar>
  <i type="string" name="SYSTEM"> CsPbBr3 cubic bulk</i>
  <i type="string" name="PREC">accurate</i>
  <i type="string" name="ALGO"> NORMAL   ! Electronic minimisation algo</i>
  <i type="logical" name="ADDGRID"> T  </i>
  <i type="int" name="ISPIN">     1</i>
  <i type="int" name="NELM">   200</i>
  <i type="int" name="IBRION">     2</i>
  <i name="EDIFF">      0.00000100</i>
  <i name="EDIFFG">     -0.01000000</i>
  <i type="int" name="NSW">     0</i>
  <i type="int" name="ISIF">     2</i>
  <i type="int" name="ISYM">     0</i>
  <i name="ENCUT">    300.00000000</i>
  <i name="POTIM">      0.50000000</i>
  <i name="NUPDOWN">      0.00000000</i>
  <i name="NELECT">    344.00000000</i>
  <i type="string" name="LREAL"> AUTO</i>
  <i type="int" name="ISMEAR">     0</i>
  <i name="SIGMA">      0.01000000</i>
  <i type="logical" name="LWAVE"> F  </i>
  <i type="logical" name="LCHARG"> F  </i>
  <i type="logical" name="LVHAR"> T  </i>
  <i type="int" name="LORBIT">    10</i>
  <i type="logical" name="LASPH"> T  </i>
  <v type="int" name="KPOINT_BSE">    -1     0     0     0</v>
  <i type="int" name="NELM">   200</i>
  <i type="string" name="METAGGA"> SCAN       ! PBE exchange-correlation</i>
  <i type="logical" name="LASPH"> T  </i>
 </incar>
 <structure name="primitive_cell" >
  <crystal>
   <varray name="basis" >
    <v>       8.45648900       0.00000000       8.04030100 </v>
    <v>       0.00000000      11.72984700       0.00000000 </v>
    <v>      -8.45648900       0.00000000       8.04030100 </v>
   </varray>
   <i name="volume">   1595.08833419 </i>
   <varray name="rec_basis" >
    <v>       0.05912619      -0.00000000       0.06218673 </v>
    <v>       0.00000000       0.08525260      -0.00000000 </v>
    <v>      -0.05912619       0.00000000       0.06218673 </v>
   </varray>
  </crystal>
  <varray name="positions" >
   <v>       0.26623100       0.23748300       0.19486100 </v>
   <v>       0.04902400       0.02827700       0.25347200 </v>
   <v>       0.06150700       0.46839900       0.24714700 </v>
   <v>       0.42962600       0.25366000       0.47681000 </v>
   <v>      -0.45634100       0.24792100       0.04549200 </v>
   <v>       0.44213800      -0.03033000       0.24831100 </v>
   <v>       0.25418500       0.02829800      -0.05330200 </v>
   <v>       0.26850700       0.46751500      -0.04577000 </v>
   <v>      -0.00713600       0.24800200      -0.02619500 </v>
   <v>      -0.49876800      -0.00077800       0.00075700 </v>
   <v>       0.00729900      -0.00613000       0.00046600 </v>
   <v>       0.01410600      -0.49869700      -0.00489500 </v>
   <v>      -0.47789100       0.49345200       0.00435400 </v>
   <v>       0.49142100       0.00524400       0.49954100 </v>
   <v>       0.00066900       0.25418200      -0.46798100 </v>
   <v>       0.24375100      -0.03525200      -0.44863300 </v>
   <v>      -0.19017200       0.24909000       0.22852000 </v>
   <v>       0.48507400       0.49636400      -0.48402200 </v>
   <v>      -0.36431800       0.48527500       0.33456400 </v>
   <v>       0.22612300      -0.46366500      -0.45579500 </v>
   <v>       0.25636100       0.24519300      -0.27026500 </v>
   <v>      -0.00710900       0.00028600      -0.49960300 </v>
   <v>       0.22202000      -0.24214900       0.30036300 </v>
   <v>      -0.01165000      -0.49566400       0.49305300 </v>
   <v>       0.05454200      -0.25230000       0.02982600 </v>
   <v>      -0.26102200       0.04224900       0.45464700 </v>
   <v>      -0.46180400       0.02845200      -0.24721500 </v>
   <v>      -0.43697600       0.46559200      -0.23653700 </v>
   <v>       0.48494000      -0.25465300      -0.01692900 </v>
   <v>      -0.24139800      -0.02104700       0.03539300 </v>
   <v>      -0.23001100      -0.45676400       0.04165900 </v>
   <v>      -0.04340400      -0.03714400      -0.25157500 </v>
   <v>      -0.05374000      -0.46974300      -0.26111800 </v>
   <v>      -0.48135100      -0.25143400      -0.47807000 </v>
   <v>      -0.29375400      -0.22267600       0.26053000 </v>
   <v>       0.22819400      -0.24896400      -0.22258000 </v>
   <v>      -0.04659200      -0.24822100       0.45864900 </v>
   <v>      -0.22659800       0.22846600      -0.25614200 </v>
   <v>      -0.27149500      -0.24362200      -0.21493500 </v>
  </varray>
 </structure>
 <varray name="primitive_index" >
  <v type="int" >        1 </v>
  <v type="int" >       28 </v>
  <v type="int" >       38 </v>
  <v type="int" >       20 </v>
  <v type="int" >       23 </v>
  <v type="int" >       33 </v>
  <v type="int" >       31 </v>
  <v type="int" >       25 </v>
  <v type="int" >       19 </v>
  <v type="int" >       11 </v>
  <v type="int" >        9 </v>
  <v type="int" >       15 </v>
  <v type="int" >       13 </v>
  <v type="int" >       10 </v>
  <v type="int" >       24 </v>
  <v type="int" >       30 </v>
  <v type="int" >        6 </v>
  <v type="int" >       16 </v>
  <v type="int" >       39 </v>
  <v type="int" >       36 </v>
  <v type="int" >        5 </v>
  <v type="int" >       12 </v>
  <v type="int" >        8 </v>
  <v type="int" >       14 </v>
  <v type="int" >       21 </v>
  <v type="int" >       32 </v>
  <v type="int" >       27 </v>
  <v type="int" >       37 </v>
  <v type="int" >       17 </v>
  <v type="int" >       29 </v>
  <v type="int" >       35 </v>
  <v type="int" >       34 </v>
  <v type="int" >       26 </v>
  <v type="int" >       22 </v>
  <v type="int" >        3 </v>
  <v type="int" >        4 </v>
  <v type="int" >       18 </v>
  <v type="int" >        2 </v>
  <v type="int" >        7 </v>
 </varray>
 <kpoints>
  <generation param="Gamma">
   <v type="int" name="divisions">       2        2        2 </v>
   <v name="usershift">      0.00000000       0.00000000       0.00000000 </v>
   <v name="genvec1">      0.50000000       0.00000000       0.00000000 </v>
   <v name="genvec2">      0.00000000       0.50000000       0.00000000 </v>
   <v name="genvec3">      0.00000000       0.00000000       0.50000000 </v>
   <v name="shift">      0.00000000       0.00000000       0.00000000 </v>
  </generation>
  <varray name="kpointlist" >
   <v>       0.00000000       0.00000000       0.00000000 </v>
   <v>       0.50000000       0.00000000       0.00000000 </v>
   <v>       0.00000000       0.50000000       0.00000000 </v>
   <v>       0.50000000       0.50000000       0.00000000 </v>
   <v>       0.00000000       0.00000000       0.50000000 </v>
   <v>       0.50000000       0.00000000       0.50000000 </v>
   <v>       0.00000000       0.50000000       0.50000000 </v>
   <v>       0.50000000       0.50000000       0.50000000 </v>
  </varray>
  <varray name="weights" >
   <v>       0.12500000 </v>
   <v>       0.12500000 </v>
   <v>       0.12500000 </v>
   <v>       0.12500000 </v>
   <v>       0.12500000 </v>
   <v>       0.12500000 </v>
   <v>       0.12500000 </v>
   <v>       0.12500000 </v>
  </varray>
 </kpoints>
 <parameters>
  <separator name="general" >
   <i type="string" name="SYSTEM">CsPbBr3 cubic bulk</i>
   <i type="logical" name="LCOMPAT"> F  </i>
  </separator>
  <separator name="electronic" >
   <i type="string" name="PREC">accura</i>
   <i name="ENMAX">    300.00000000</i>
   <i name="ENAUG">    503.85200000</i>
   <i name="EDIFF">      0.00000100</i>
   <i type="int" name="IALGO">    38</i>
   <i type="int" name="IWAVPR">    10</i>
   <i type="int" name="NBANDS">   208</i>
   <i name="NELECT">    344.00000000</i>
   <i type="int" name="TURBO">     0</i>
   <i type="int" name="IRESTART">     0</i>
   <i type="int" name="NREBOOT">     0</i>
   <i type="int" name="NMIN">     0</i>
   <i name="EREF">      0.00000000</i>
   <separator name="electronic smearing" >
    <i type="int" name="ISMEAR">     0</i>
    <i name="SIGMA">      0.01000000</i>
    <i name="KSPACING">      0.50000000</i>
    <i type="logical" name="KGAMMA"> T  </i>
   </separator>
   <separator name="electronic projectors" >
    <i type="logical" name="LREAL"> T  </i>
    <v name="ROPT">     -0.00025000     -0.00025000     -0.00025000</v>
    <i type="int" name="LMAXPAW">  -100</i>
    <i type="int" name="LMAXMIX">     2</i>
    <i type="logical" name="NLSPLINE"> F  </i>
   </separator>
   <separator name="electronic startup" >
    <i type="int" name="ISTART">     0</i>
    <i type="int" name="ICHARG">     2</i>
    <i type="int" name="INIWAV">     1</i>
   </separator>
   <separator name="electronic spin" >
    <i type="int" name="ISPIN">     1</i>
    <i type="logical" name="LNONCOLLINEAR"> F  </i>
    <v name="MAGMOM">      0.00000000      0.00000000      0.00000000      0.00000000      0.00000000      0.00000000      0.00000000      0.00000000      0.00000000      0.00000000      0.00000000      0.00000000      0.00000000      0.00000000      0.00000000      0.00000000      0.00000000      0.00000000      0.00000000      0.00000000
      0.00000000      0.00000000      0.00000000      0.00000000      0.00000000      0.00000000      0.00000000      0.00000000      0.00000000      0.00000000      0.00000000      0.00000000      0.00000000      0.00000000      0.00000000      0.00000000      0.00000000      0.00000000      0.00000000</v>
    <i name="NUPDOWN">      0.00000000</i>
    <i type="logical" name="LSORBIT"> F  </i>
    <v name="SAXIS">      0.00000000      0.00000000      1.00000000</v>
    <i type="logical" name="LSPIRAL"> F  </i>
    <v name="QSPIRAL">      0.00000000      0.00000000      0.00000000</v>
    <i type="logical" name="LZEROZ"> F  </i>
   </separator>
   <separator name="electronic exchange-correlation" >
    <i type="logical" name="LASPH"> T  </i>
    <i type="logical" name="LMETAGGA"> F  </i>
   </separator>
   <separator name="electronic convergence" >
    <i type="int" name="NELM">   200</i>
    <i type="int" name="NELMDL">    -5</i>
    <i type="int" name="NELMIN">     2</i>
    <i name="ENINI">    300.00000000</i>
    <separator name="electronic convergence detail" >
     <i type="logical" name="LDIAG"> T  </i>
     <i type="logical" name="LSUBROT"> F  </i>
     <i name="WEIMIN">      0.00000000</i>
     <i name="EBREAK">      0.00000000</i>
     <i name="DEPER">      0.30000000</i>
     <i type="int" name="NRMM">     4</i>
     <i name="TIME">      0.40000000</i>
    </separator>
   </separator>
   <separator name="electronic mixer" >
    <i name="AMIX">      0.40000000</i>
    <i name="BMIX">      1.00000000</i>
    <i name="AMIN">      0.10000000</i>
    <i name="AMIX_MAG">      1.60000000</i>
    <i name="BMIX_MAG">      1.00000000</i>
    <separator name="electronic mixer details" >
     <i type="int" name="IMIX">     4</i>
     <i type="logical" name="MIXFIRST"> F  </i>
     <i type="int" name="MAXMIX">   -45</i>
     <i name="WC">    100.00000000</i>
     <i type="int" name="INIMIX">     1</i>
     <i type="int" name="MIXPRE">     1</i>
     <i type="int" name="MREMOVE">     5</i>
    </separator>
   </separator>
   <separator name="electronic dipolcorrection" >
    <i type="logical" name="LDIPOL"> F  </i>
    <i type="logical" name="LMONO"> F  </i>
    <i type="int" name="IDIPOL">     0</i>
    <i name="EPSILON">      1.00000000</i>
    <v name="DIPOL">   -100.00000000   -100.00000000   -100.00000000</v>
    <i name="EFIELD">      0.00000000</i>
   </separator>
  </separator>
  <separator name="grids" >
   <i type="int" name="NGX">    70</i>
   <i type="int" name="NGY">    70</i>
   <i type="int" name="NGZ">    70</i>
   <i type="int" name="NGXF">   140</i>
   <i type="int" name="NGYF">   140</i>
   <i type="int" name="NGZF">   140</i>
   <i type="logical" name="ADDGRID"> T  </i>
  </separator>
  <separator name="ionic" >
   <i type="int" name="NSW">     0</i>
   <i type="int" name="IBRION">    -1</i>
   <i type="int" name="MDALGO">     0</i>
   <i type="int" name="ISIF">     2</i>
   <i name="PSTRESS">      0.00000000</i>
   <i name="EDIFFG">     -0.01000000</i>
   <i type="int" name="NFREE">     1</i>
   <i name="POTIM">      0.50000000</i>
   <i name="SMASS">     -3.00000000</i>
   <i name="SCALEE">      1.00000000</i>
  </separator>
  <separator name="ionic md" >
   <i name="TEBEG">      0.00010000</i>
   <i name="TEEND">      0.00010000</i>
   <i type="int" name="NBLOCK">     1</i>
   <i type="int" name="KBLOCK">     1</i>
   <i type="int" name="NPACO">   256</i>
   <i name="APACO">     16.00000000</i>
  </separator>
  <separator name="symmetry" >
   <i type="int" name="ISYM">     0</i>
   <i name="SYMPREC">      0.00001000</i>
  </separator>
  <separator name="dos" >
   <i type="int" name="LORBIT">    10</i>
   <v name="RWIGS">     -1.00000000     -1.00000000     -1.00000000</v>
   <i type="int" name="NEDOS">   301</i>
   <i name="EMIN">     10.00000000</i>
   <i name="EMAX">    -10.00000000</i>
   <i name="EFERMI">      0.00000000</i>
  </separator>
  <separator name="writing" >
   <i type="int" name="NWRITE">     2</i>
   <i type="logical" name="LWAVE"> F  </i>
   <i type="logical" name="LDOWNSAMPLE"> F  </i>
   <i type="logical" name="LCHARG"> F  </i>
   <i type="logical" name="LPARD"> F  </i>
   <i type="logical" name="LVTOT"> F  </i>
   <i type="logical" name="LVHAR"> T  </i>
   <i type="logical" name="LELF"> F  </i>
   <i type="logical" name="LOPTICS"> F  </i>
   <v name="STM">      0.00000000      0.00000000      0.00000000      0.00000000      0.00000000      0.00000000      0.00000000</v>
  </separator>
  <separator name="performance" >
   <i type="int" name="NPAR">     8</i>
   <i type="int" name="NSIM">     4</i>
   <i type="int" name="NBLK">    -1</i>
   <i type="logical" name="LPLANE"> T  </i>
   <i type="logical" name="LSCALAPACK"> T  </i>
   <i type="logical" name="LSCAAWARE"> F  </i>
   <i type="logical" name="LSCALU"> F  </i>
   <i type="logical" name="LASYNC"> F  </i>
   <i type="logical" name="LORBITALREAL"> F  </i>
  </separator>
  <separator name="miscellaneous" >
   <i type="int" name="IDIOT">     3</i>
   <i type="int" name="ISPECIAL">     0</i>
   <i type="logical" name="LMUSIC"> F  </i>
   <v name="POMASS">    132.90000000    207.20000000     79.90400000</v>
   <v name="DARWINR">      0.00000000      0.00000000      0.00000000</v>
   <v name="DARWINV">      1.00000000      1.00000000      1.00000000</v>
   <i type="logical" name="LCORR"> T  </i>
  </separator>
  <i type="logical" name="GGA_COMPAT"> T  </i>
  <i type="logical" name="LBERRY"> F  </i>
  <i type="int" name="ICORELEVEL">     0</i>
  <i type="logical" name="LDAU"> F  </i>
  <i type="int" name="I_CONSTRAINED_M">     0</i>
  <separator name="electronic exchange-correlation" >
   <i type="string" name="GGA">--</i>
   <i type="int" name="VOSKOWN">     0</i>
   <i type="logical" name="LHFCALC"> F  </i>
   <i type="string" name="PRECFOCK"></i>
   <i type="logical" name="LSYMGRAD"> F  </i>
   <i type="logical" name="LHFONE"> F  </i>
   <i type="logical" name="LRHFCALC"> F  </i>
   <i type="logical" name="LTHOMAS"> F  </i>
   <i type="logical" name="LMODELHF"> F  </i>
   <i name="ENCUT4O">     -1.00000000</i>
   <i type="int" name="EXXOEP">     0</i>
   <i type="int" name="FOURORBIT">     0</i>
   <i name="AEXX">      0.00000000</i>
   <i name="HFALPHA">      0.00000000</i>
   <i name="MCALPHA">      0.00000000</i>
   <i name="ALDAX">      1.00000000</i>
   <i name="AGGAX">      1.00000000</i>
   <i name="ALDAC">      1.00000000</i>
   <i name="AGGAC">      1.00000000</i>
   <i type="int" name="NKREDX">     1</i>
   <i type="int" name="NKREDY">     1</i>
   <i type="int" name="NKREDZ">     1</i>
   <i type="logical" name="SHIFTRED"> F  </i>
   <i type="logical" name="ODDONLY"> F  </i>
   <i type="logical" name="EVENONLY"> F  </i>
   <i type="int" name="LMAXFOCK">     0</i>
   <i type="int" name="NMAXFOCKAE">     0</i>
   <i type="logical" name="LFOCKAEDFT"> F  </i>
   <i name="HFSCREEN">      0.00000000</i>
   <i name="HFSCREENC">      0.00000000</i>
   <i type="int" name="NBANDSGWLOW">     0</i>
  </separator>
  <separator name="vdW DFT" >
   <i type="logical" name="LUSE_VDW"> F  </i>
   <i name="Zab_VDW">     -0.84910000</i>
   <i name="PARAM1">      0.12340000</i>
   <i name="PARAM2">      1.00000000</i>
   <i name="PARAM3">      0.00000000</i>
  </separator>
  <separator name="model GW" >
   <i type="int" name="MODEL_GW">     0</i>
   <i name="MODEL_EPS0">     24.53982053</i>
   <i name="MODEL_ALPHA">      1.00000000</i>
  </separator>
  <separator name="linear response parameters" >
   <i type="logical" name="LEPSILON"> F  </i>
   <i type="logical" name="LRPA"> F  </i>
   <i type="logical" name="LNABLA"> F  </i>
   <i type="logical" name="LVEL"> F  </i>
   <i type="int" name="KINTER">     0</i>
   <i name="CSHIFT">      0.10000000</i>
   <i name="OMEGAMAX">     -1.00000000</i>
   <i name="DEG_THRESHOLD">      0.00200000</i>
   <i name="RTIME">     -0.10000000</i>
   <i name="WPLASMAI">      0.00000000</i>
   <v name="DFIELD">      0.00000000      0.00000000      0.00000000</v>
   <v name="WPLASMA">      0.00000000      0.00000000      0.00000000      0.00000000      0.00000000      0.00000000      0.00000000      0.00000000      0.00000000</v>
  </separator>
  <separator name="orbital magnetization" >
   <i type="logical" name="NUCIND"> F  </i>
   <v name="MAGPOS">      0.00000000      0.00000000      0.00000000</v>
   <i type="logical" name="LNICSALL"> T  </i>
   <i type="logical" name="ORBITALMAG"> F  </i>
   <i type="logical" name="LMAGBLOCH"> F  </i>
   <i type="logical" name="LCHIMAG"> F  </i>
   <i type="logical" name="LGAUGE"> T  </i>
   <i type="int" name="MAGATOM">     0</i>
   <v name="MAGDIPOL">      0.00000000      0.00000000      0.00000000</v>
   <v name="AVECCONST">      0.00000000      0.00000000      0.00000000</v>
  </separator>
  <separator name="response functions" >
   <i type="logical" name="LADDER"> F  </i>
   <i type="logical" name="LRPAFORCE"> F  </i>
   <i type="logical" name="LFXC"> F  </i>
   <i type="logical" name="LHARTREE"> T  </i>
   <i type="int" name="IBSE">     0</i>
   <v type="int" name="KPOINT">    -1     0     0     0</v>
   <i type="logical" name="LTCTE"> F  </i>
   <i type="logical" name="LTETE"> F  </i>
   <i type="logical" name="LTRIPLET"> F  </i>
   <i type="logical" name="LFXCEPS"> F  </i>
   <i type="logical" name="LFXHEG"> F  </i>
   <i type="int" name="NATURALO">     2</i>
   <i type="logical" name="L2ORDER"> F  </i>
   <i type="logical" name="LMP2LT"> F  </i>
   <i type="logical" name="LUSEW"> F  </i>
   <i name="ENCUTGW">     -2.00000000</i>
   <i name="ENCUTGWSOFT">     -2.00000000</i>
   <i name="ENCUTLF">     -1.00000000</i>
   <i type="int" name="LMAXMP2">    -1</i>
   <i name="SCISSOR">      0.00000000</i>
   <i type="int" name="NOMEGA">     0</i>
   <i type="int" name="NOMEGAR">     0</i>
   <i type="int" name="NBANDSGW">    -1</i>
   <i type="int" name="NBANDSO">    -1</i>
   <i type="int" name="NBANDSV">    -1</i>
   <i type="int" name="NELM">   200</i>
   <i type="int" name="NELMHF">     1</i>
   <i type="int" name="DIM">     3</i>
   <i type="int" name="ANTIRES">     0</i>
   <i name="OMEGAMAX">    -30.00000000</i>
   <i name="OMEGAMIN">    -30.00000000</i>
   <i name="OMEGATL">   -200.00000000</i>
   <i type="int" name="OMEGAGRID">   140</i>
   <i name="CSHIFT">     -0.10000000</i>
   <i type="logical" name="SELFENERGY"> F  </i>
   <i type="logical" name="LSPECTRAL"> F  </i>
   <i type="logical" name="LSPECTRALGW"> F  </i>
   <i type="logical" name="LSINGLES"> F  </i>
   <i type="logical" name="LFERMIGW"> F  </i>
   <i type="logical" name="ODDONLYGW"> F  </i>
   <i type="logical" name="EVENONLYGW"> F  </i>
   <i type="int" name="NKREDLFX">     1</i>
   <i type="int" name="NKREDLFY">     1</i>
   <i type="int" name="NKREDLFZ">     1</i>
   <i type="int" name="MAXMEM">  2800</i>
   <i type="int" name="TELESCOPE">     0</i>
   <i type="int" name="TAUPAR">     1</i>
   <i type="int" name="OMEGAPAR">    -1</i>
   <i name="LAMBDA">      1.00000000</i>
  </separator>
  <separator name="External order field" >
   <i name="OFIELD_KAPPA">      0.00000000</i>
   <v name="OFIELD_K">      0.00000000      0.00000000      0.00000000</v>
   <i name="OFIELD_Q6_NEAR">      0.00000000</i>
   <i name="OFIELD_Q6_FAR">      0.00000000</i>
   <i name="OFIELD_A">      0.00000000</i>
  </separator>
 </parameters>
 <atominfo>
  <atoms>      39 </atoms>
  <types>       3 </types>
  <array name="atoms" >
   <dimension dim="1">ion</dimension>
   <field type="string">element</field>
   <field type="int">atomtype</field>
   <set>
    <rc><c>Cs</c><c>   1</c></rc>
    <rc><c>Cs</c><c>   1</c></rc>
    <rc><c>Cs</c><c>   1</c></rc>
    <rc><c>Cs</c><c>   1</c></rc>
    <rc><c>Cs</c><c>   1</c></rc>
    <rc><c>Cs</c><c>   1</c></rc>
    <rc><c>Cs</c><c>   1</c></rc>
    <rc><c>Cs</c><c>   1</c></rc>
    <rc><c>Pb</c><c>   2</c></rc>
    <rc><c>Pb</c><c>   2</c></rc>
    <rc><c>Pb</c><c>   2</c></rc>
    <rc><c>Pb</c><c>   2</c></rc>
    <rc><c>Pb</c><c>   2</c></rc>
    <rc><c>Pb</c><c>   2</c></rc>
    <rc><c>Pb</c><c>   2</c></rc>
    <rc><c>Pb</c><c>   2</c></rc>
    <rc><c>Br</c><c>   3</c></rc>
    <rc><c>Br</c><c>   3</c></rc>
    <rc><c>Br</c><c>   3</c></rc>
    <rc><c>Br</c><c>   3</c></rc>
    <rc><c>Br</c><c>   3</c></rc>
    <rc><c>Br</c><c>   3</c></rc>
    <rc><c>Br</c><c>   3</c></rc>
    <rc><c>Br</c><c>   3</c></rc>
    <rc><c>Br</c><c>   3</c></rc>
    <rc><c>Br</c><c>   3</c></rc>
    <rc><c>Br</c><c>   3</c></rc>
    <rc><c>Br</c><c>   3</c></rc>
    <rc><c>Br</c><c>   3</c></rc>
    <rc><c>Br</c><c>   3</c></rc>
    <rc><c>Br</c><c>   3</c></rc>
    <rc><c>Br</c><c>   3</c></rc>
    <rc><c>Br</c><c>   3</c></rc>
    <rc><c>Br</c><c>   3</c></rc>
    <rc><c>Br</c><c>   3</c></rc>
    <rc><c>Br</c><c>   3</c></rc>
    <rc><c>Br</c><c>   3</c></rc>
    <rc><c>Br</c><c>   3</c></rc>
    <rc><c>Br</c><c>   3</c></rc>
   </set>
  </array>
  <array name="atomtypes" >
   <dimension dim="1">type</dimension>
   <field type="int">atomspertype</field>
   <field type="string">element</field>
   <field>mass</field>
   <field>valence</field>
   <field type="string">pseudopotential</field>
   <set>
    <rc><c>   8</c><c>Cs</c><c>    132.90000000</c><c>      9.00000000</c><c>  PAW_PBE Cs_sv 08Apr2002               </c></rc>
    <rc><c>   8</c><c>Pb</c><c>    207.20000000</c><c>     14.00000000</c><c>  PAW_PBE Pb_d 06Sep2000                </c></rc>
    <rc><c>  23</c><c>Br</c><c>     79.90400000</c><c>      7.00000000</c><c>  PAW_PBE Br 06Sep2000                  </c></rc>
   </set>
  </array>
 </atominfo>
 <structure name="initialpos" >
  <crystal>
   <varray name="basis" >
    <v>       8.45648900       0.00000000       8.04030100 </v>
    <v>       0.00000000      11.72984700       0.00000000 </v>
    <v>      -8.45648900       0.00000000       8.04030100 </v>
   </varray>
   <i name="volume">   1595.08833419 </i>
   <varray name="rec_basis" >
    <v>       0.05912619      -0.00000000       0.06218673 </v>
    <v>       0.00000000       0.08525260      -0.00000000 </v>
    <v>      -0.05912619       0.00000000       0.06218673 </v>
   </varray>
  </crystal>
  <varray name="positions" >
   <v>       0.26623100       0.23748300       0.19486100 </v>
   <v>       0.77340200       0.22846600       0.74385800 </v>
   <v>       0.70624600       0.77732400       0.26053000 </v>
   <v>       0.22819400       0.75103600       0.77742000 </v>
   <v>       0.25636100       0.24519300       0.72973500 </v>
   <v>       0.80982800       0.24909000       0.22852000 </v>
   <v>       0.72850500       0.75637800       0.78506500 </v>
   <v>       0.22202000       0.75785100       0.30036300 </v>
   <v>       0.00729900       0.99387000       0.00046600 </v>
   <v>       0.49142100       0.00524400       0.49954100 </v>
   <v>       0.50123200       0.99922200       0.00075700 </v>
   <v>       0.99289100       0.00028600       0.50039700 </v>
   <v>       0.52210900       0.49345200       0.00435400 </v>
   <v>       0.98835000       0.50433600       0.49305300 </v>
   <v>       0.01410600       0.50130300       0.99510500 </v>
   <v>       0.48507400       0.49636400       0.51597800 </v>
   <v>       0.48494000       0.74534700       0.98307100 </v>
   <v>       0.95340800       0.75177900       0.45864900 </v>
   <v>       0.99286400       0.24800200       0.97380500 </v>
   <v>       0.42962600       0.25366000       0.47681000 </v>
   <v>       0.05454200       0.74770000       0.02982600 </v>
   <v>       0.51864900       0.74856600       0.52193000 </v>
   <v>       0.54365900       0.24792100       0.04549200 </v>
   <v>       0.00066900       0.25418200       0.53201900 </v>
   <v>       0.26850700       0.46751500       0.95423000 </v>
   <v>       0.94626000       0.53025700       0.73888200 </v>
   <v>       0.53819600       0.02845200       0.75278500 </v>
   <v>       0.04902400       0.02827700       0.25347200 </v>
   <v>       0.75860200       0.97895300       0.03539300 </v>
   <v>       0.24375100       0.96474800       0.55136700 </v>
   <v>       0.25418500       0.02829800       0.94669800 </v>
   <v>       0.73897800       0.04224900       0.45464700 </v>
   <v>       0.44213800       0.96967000       0.24831100 </v>
   <v>       0.95659600       0.96285600       0.74842500 </v>
   <v>       0.76998900       0.54323600       0.04165900 </v>
   <v>       0.22612300       0.53633500       0.54420500 </v>
   <v>       0.56302400       0.46559200       0.76346300 </v>
   <v>       0.06150700       0.46839900       0.24714700 </v>
   <v>       0.63568200       0.48527500       0.33456400 </v>
  </varray>
 </structure>
 <calculation>
  <scstep>
   <time name="dav">   16.47   16.48</time>
   <time name="total">   17.94   17.95</time>
   <energy>
    <i name="alphaZ">    872.70583573 </i>
    <i name="ewald"> -17937.75326321 </i>
    <i name="hartreedc">  -7420.08229216 </i>
    <i name="XCdc">    908.04223115 </i>
    <i name="pawpsdc">  21345.28103884 </i>
    <i name="pawaedc"> -22405.85761495 </i>
    <i name="eentropy">     -0.00180336 </i>
    <i name="bandstr">   -242.86739841 </i>
    <i name="atom">  26212.11861568 </i>
    <i name="e_fr_energy">   1331.58534931 </i>
    <i name="e_wo_entrp">   1331.58715267 </i>
    <i name="e_0_energy">   1331.58625099 </i>
   </energy>
  </scstep>
  <scstep>
   <time name="dav">   18.50   18.56</time>
   <time name="total">   18.50   18.56</time>
   <energy>
    <i name="e_fr_energy">  -1115.11292722 </i>
    <i name="e_wo_entrp">  -1115.11292722 </i>
    <i name="e_0_energy">  -1115.11292722 </i>
   </energy>
  </scstep>
  <scstep>
   <time name="dav">   19.38   19.42</time>
   <time name="total">   19.38   19.42</time>
   <energy>
    <i name="e_fr_energy">  -1475.18326613 </i>
    <i name="e_wo_entrp">  -1475.18326613 </i>
    <i name="e_0_energy">  -1475.18326613 </i>
   </energy>
  </scstep>
  <scstep>
   <time name="dav">   17.93   17.96</time>
   <time name="total">   17.93   17.96</time>
   <energy>
    <i name="e_fr_energy">  -1486.95639810 </i>
    <i name="e_wo_entrp">  -1486.95639810 </i>
    <i name="e_0_energy">  -1486.95639810 </i>
   </energy>
  </scstep>
  <scstep>
   <time name="dav">   19.36   19.36</time>
   <time name="total">   22.07   22.08</time>
   <energy>
    <i name="e_fr_energy">  -1487.49623265 </i>
    <i name="e_wo_entrp">  -1487.49623265 </i>
    <i name="e_0_energy">  -1487.49623265 </i>
   </energy>
  </scstep>
  <scstep>
   <time name="dav">   19.05   19.05</time>
   <time name="total">   23.21   23.23</time>
   <energy>
    <i name="e_fr_energy">  -1409.76751986 </i>
    <i name="e_wo_entrp">  -1409.76751986 </i>
    <i name="e_0_energy">  -1409.76751986 </i>
   </energy>
  </scstep>
  <scstep>
   <time name="dav">   18.32   18.32</time>
   <time name="total">   22.48   22.52</time>
   <energy>
    <i name="e_fr_energy">  -1409.26050907 </i>
    <i name="e_wo_entrp">  -1409.26050907 </i>
    <i name="e_0_energy">  -1409.26050907 </i>
   </energy>
  </scstep>
  <scstep>
   <time name="dav">   18.32   18.32</time>
   <time name="total">   22.47   22.52</time>
   <energy>
    <i name="e_fr_energy">  -1409.43742258 </i>
    <i name="e_wo_entrp">  -1409.43742258 </i>
    <i name="e_0_energy">  -1409.43742258 </i>
   </energy>
  </scstep>
  <scstep>
   <time name="dav">   17.17   17.17</time>
   <time name="total">   21.32   21.37</time>
   <energy>
    <i name="e_fr_energy">  -1409.50625298 </i>
    <i name="e_wo_entrp">  -1409.50625298 </i>
    <i name="e_0_energy">  -1409.50625298 </i>
   </energy>
  </scstep>
  <scstep>
   <time name="dav">   19.55   19.55</time>
   <time name="total">   23.75   23.76</time>
   <energy>
    <i name="e_fr_energy">  -1409.51020955 </i>
    <i name="e_wo_entrp">  -1409.51020955 </i>
    <i name="e_0_energy">  -1409.51020955 </i>
   </energy>
  </scstep>
  <scstep>
   <time name="dav">   17.42   17.42</time>
   <time name="total">   21.57   21.64</time>
   <energy>
    <i name="e_fr_energy">  -1409.51195868 </i>
    <i name="e_wo_entrp">  -1409.51195868 </i>
    <i name="e_0_energy">  -1409.51195868 </i>
   </energy>
  </scstep>
  <scstep>
   <time name="dav">   17.05   17.05</time>
   <time name="total">   21.21   21.27</time>
   <energy>
    <i name="e_fr_energy">  -1409.51465670 </i>
    <i name="e_wo_entrp">  -1409.51465670 </i>
    <i name="e_0_energy">  -1409.51465670 </i>
   </energy>
  </scstep>
  <scstep>
   <time name="dav">   19.54   19.54</time>
   <time name="total">   23.70   23.76</time>
   <energy>
    <i name="e_fr_energy">  -1409.51430998 </i>
    <i name="e_wo_entrp">  -1409.51430998 </i>
    <i name="e_0_energy">  -1409.51430998 </i>
   </energy>
  </scstep>
  <scstep>
   <time name="dav">   17.83   17.83</time>
   <time name="total">   22.02   22.05</time>
   <energy>
    <i name="e_fr_energy">  -1409.51424221 </i>
    <i name="e_wo_entrp">  -1409.51424221 </i>
    <i name="e_0_energy">  -1409.51424221 </i>
   </energy>
  </scstep>
  <scstep>
   <time name="dav">   18.27   18.27</time>
   <time name="total">   22.48   22.48</time>
   <energy>
    <i name="e_fr_energy">  -1409.51422669 </i>
    <i name="e_wo_entrp">  -1409.51422669 </i>
    <i name="e_0_energy">  -1409.51422669 </i>
   </energy>
  </scstep>
  <scstep>
   <time name="dav">   17.61   17.61</time>
   <time name="total">   21.76   21.81</time>
   <energy>
    <i name="e_fr_energy">  -1409.51427449 </i>
    <i name="e_wo_entrp">  -1409.51427449 </i>
    <i name="e_0_energy">  -1409.51427449 </i>
   </energy>
  </scstep>
  <scstep>
   <time name="dav">   17.33   17.33</time>
   <time name="total">   21.47   21.55</time>
   <energy>
    <i name="e_fr_energy">  -1409.51428542 </i>
    <i name="e_wo_entrp">  -1409.51428542 </i>
    <i name="e_0_energy">  -1409.51428542 </i>
   </energy>
  </scstep>
  <scstep>
   <time name="dav">   14.40   14.40</time>
   <time name="total">   18.61   18.61</time>
   <energy>
    <i name="e_fr_energy">  -1409.51427903 </i>
    <i name="e_wo_entrp">  -1409.51427903 </i>
    <i name="e_0_energy">  -1409.51427903 </i>
   </energy>
  </scstep>
  <scstep>
   <time name="dav">   12.96   12.96</time>
   <time name="total">   17.14   17.17</time>
   <energy>
    <i name="e_fr_energy">  -1409.51427449 </i>
    <i name="e_wo_entrp">  -1409.51427449 </i>
    <i name="e_0_energy">  -1409.51427449 </i>
   </energy>
  </scstep>
  <scstep>
   <time name="dav">   12.56   12.56</time>
   <time name="total">   16.73   16.74</time>
   <energy>
    <i name="e_fr_energy">  -1409.51427122 </i>
    <i name="e_wo_entrp">  -1409.51427122 </i>
    <i name="e_0_energy">  -1409.51427122 </i>
   </energy>
  </scstep>
  <scstep>
   <time name="dav">   12.82   12.82</time>
   <time name="total">   14.28   14.33</time>
   <energy>
    <i name="alphaZ">    872.70583573 </i>
    <i name="ewald"> -17937.75326321 </i>
    <i name="hartreedc">  -7451.79013519 </i>
    <i name="XCdc">    943.55852942 </i>
    <i name="pawpsdc">  22734.04773352 </i>
    <i name="pawaedc"> -23792.19607562 </i>
    <i name="eentropy">     -0.00000000 </i>
    <i name="bandstr">  -2990.20551151 </i>
    <i name="atom">  26212.11861568 </i>
    <i name="e_fr_energy">  -1409.51427118 </i>
    <i name="e_wo_entrp">  -1409.51427118 </i>
    <i name="e_0_energy">  -1409.51427118 </i>
   </energy>
  </scstep>
  <structure>
   <crystal>
    <varray name="basis" >
     <v>       8.45648900       0.00000000       8.04030100 </v>
     <v>       0.00000000      11.72984700       0.00000000 </v>
     <v>      -8.45648900       0.00000000       8.04030100 </v>
    </varray>
    <i name="volume">   1595.08833419 </i>
    <varray name="rec_basis" >
     <v>       0.05912619      -0.00000000       0.06218673 </v>
     <v>       0.00000000       0.08525260      -0.00000000 </v>
     <v>      -0.05912619       0.00000000       0.06218673 </v>
    </varray>
   </crystal>
   <varray name="positions" >
    <v>       0.26623100       0.23748300       0.19486100 </v>
    <v>       0.77340200       0.22846600       0.74385800 </v>
    <v>       0.70624600       0.77732400       0.26053000 </v>
    <v>       0.22819400       0.75103600       0.77742000 </v>
    <v>       0.25636100       0.24519300       0.72973500 </v>
    <v>       0.80982800       0.24909000       0.22852000 </v>
    <v>       0.72850500       0.75637800       0.78506500 </v>
    <v>       0.22202000       0.75785100       0.30036300 </v>
    <v>       0.00729900       0.99387000       0.00046600 </v>
    <v>       0.49142100       0.00524400       0.49954100 </v>
    <v>       0.50123200       0.99922200       0.00075700 </v>
    <v>       0.99289100       0.00028600       0.50039700 </v>
    <v>       0.52210900       0.49345200       0.00435400 </v>
    <v>       0.98835000       0.50433600       0.49305300 </v>
    <v>       0.01410600       0.50130300       0.99510500 </v>
    <v>       0.48507400       0.49636400       0.51597800 </v>
    <v>       0.48494000       0.74534700       0.98307100 </v>
    <v>       0.95340800       0.75177900       0.45864900 </v>
    <v>       0.99286400       0.24800200       0.97380500 </v>
    <v>       0.42962600       0.25366000       0.47681000 </v>
    <v>       0.05454200       0.74770000       0.02982600 </v>
    <v>       0.51864900       0.74856600       0.52193000 </v>
    <v>       0.54365900       0.24792100       0.04549200 </v>
    <v>       0.00066900       0.25418200       0.53201900 </v>
    <v>       0.26850700       0.46751500       0.95423000 </v>
    <v>       0.94626000       0.53025700       0.73888200 </v>
    <v>       0.53819600       0.02845200       0.75278500 </v>
    <v>       0.04902400       0.02827700       0.25347200 </v>
    <v>       0.75860200       0.97895300       0.03539300 </v>
    <v>       0.24375100       0.96474800       0.55136700 </v>
    <v>       0.25418500       0.02829800       0.94669800 </v>
    <v>       0.73897800       0.04224900       0.45464700 </v>
    <v>       0.44213800       0.96967000       0.24831100 </v>
    <v>       0.95659600       0.96285600       0.74842500 </v>
    <v>       0.76998900       0.54323600       0.04165900 </v>
    <v>       0.22612300       0.53633500       0.54420500 </v>
    <v>       0.56302400       0.46559200       0.76346300 </v>
    <v>       0.06150700       0.46839900       0.24714700 </v>
    <v>       0.63568200       0.48527500       0.33456400 </v>
   </varray>
  </structure>
  <varray name="forces" >
   <v>       0.00052216       0.00014001       0.00013638 </v>
   <v>       0.00006867       0.00007335       0.00025981 </v>
   <v>      -0.00054255       0.00026368       0.00038363 </v>
   <v>      -0.00089627      -0.00005917      -0.00016782 </v>
   <v>      -0.00041864      -0.00071142      -0.00061033 </v>
   <v>       0.00015279      -0.00013933       0.00034719 </v>
   <v>       0.00008005       0.00019108       0.00011642 </v>
   <v>       0.00007162       0.00018369      -0.00003434 </v>
   <v>       0.00060647      -0.00016947       0.00053563 </v>
   <v>       0.00079050       0.00001383      -0.00063274 </v>
   <v>      -0.00018022       0.00066391      -0.00023114 </v>
   <v>       0.00031637      -0.00137700       0.00009599 </v>
   <v>      -0.00194328       0.00036955      -0.00006564 </v>
   <v>      -0.00066426       0.00038855      -0.00071145 </v>
   <v>       0.00093037       0.00015748       0.00154972 </v>
   <v>       0.00045677      -0.00006296       0.00039269 </v>
   <v>       0.00027949       0.00028144       0.00065959 </v>
   <v>      -0.00000414       0.00035541       0.00063566 </v>
   <v>      -0.00014192      -0.00037091      -0.00031116 </v>
   <v>       0.00008534       0.00051249       0.00033698 </v>
   <v>      -0.00006660      -0.00013093      -0.00029615 </v>
   <v>      -0.00004731       0.00009003      -0.00034548 </v>
   <v>       0.00104027       0.00011366      -0.00017581 </v>
   <v>      -0.00030196      -0.00076725      -0.00031395 </v>
   <v>      -0.00013382      -0.00048778      -0.00007268 </v>
   <v>      -0.00040805       0.00006464       0.00049668 </v>
   <v>       0.00035841       0.00030974      -0.00057650 </v>
   <v>      -0.00064109      -0.00005656       0.00040592 </v>
   <v>      -0.00028466      -0.00048398       0.00007704 </v>
   <v>      -0.00016267      -0.00033377      -0.00007028 </v>
   <v>      -0.00033167      -0.00005928       0.00022021 </v>
   <v>      -0.00043469      -0.00023165       0.00051561 </v>
   <v>      -0.00041520       0.00012955       0.00039421 </v>
   <v>       0.00031898       0.00070407      -0.00059503 </v>
   <v>      -0.00002113       0.00002667      -0.00019872 </v>
   <v>       0.00033949       0.00023503      -0.00023908 </v>
   <v>       0.00107312       0.00097436      -0.00086879 </v>
   <v>      -0.00003944      -0.00044040      -0.00054043 </v>
   <v>       0.00058869      -0.00036036      -0.00050183 </v>
  </varray>
  <varray name="stress" >
   <v>      -7.20686936       0.26539924       0.59860464 </v>
   <v>       0.26533081      -4.00108763       0.01846613 </v>
   <v>       0.59856892       0.01853160      -6.93576554 </v>
  </varray>
  <energy>
   <i name="e_fr_energy">  -1409.51427118 </i>
   <i name="e_wo_entrp">  -1409.51427118 </i>
   <i name="e_0_energy">     -0.00000000 </i>
  </energy>
  <time name="totalsc">  485.00  485.83</time>
  <eigenvalues>
   <array>
    <dimension dim="1">band</dimension>
    <dimension dim="2">kpoint</dimension>
    <dimension dim="3">spin</dimension>
    <field>eigene</field>
    <field>occ</field>
    <set>
     <set comment="spin 1">
      <set comment="kpoint 1">
       <r>  -20.8432    1.0000 </r>
       <r>  -20.8327    1.0000 </r>
       <r>  -20.7678    1.0000 </r>
       <r>  -20.7656    1.0000 </r>
       <r>  -20.7509    1.0000 </r>
       <r>  -20.7402    1.0000 </r>
       <r>  -20.7197    1.0000 </r>
       <r>  -20.6844    1.0000 </r>
       <r>  -16.7724    1.0000 </r>
       <r>  -16.7323    1.0000 </r>
       <r>  -16.7045    1.0000 </r>
       <r>  -16.6901    1.0000 </r>
       <r>  -16.6859    1.0000 </r>
       <r>  -16.6611    1.0000 </r>
       <r>  -16.6597    1.0000 </r>
       <r>  -16.6276    1.0000 </r>
       <r>  -16.5864    1.0000 </r>
       <r>  -16.5845    1.0000 </r>
       <r>  -16.5787    1.0000 </r>
       <r>  -16.5426    1.0000 </r>
       <r>  -16.5381    1.0000 </r>
       <r>  -16.5317    1.0000 </r>
       <r>  -16.5080    1.0000 </r>
       <r>  -16.4473    1.0000 </r>
       <r>  -16.4412    1.0000 </r>
       <r>  -16.4292    1.0000 </r>
       <r>  -16.4186    1.0000 </r>
       <r>  -16.4118    1.0000 </r>
       <r>  -16.4054    1.0000 </r>
       <r>  -16.3832    1.0000 </r>
       <r>  -16.3704    1.0000 </r>
       <r>  -16.3569    1.0000 </r>
       <r>  -16.3445    1.0000 </r>
       <r>  -16.3111    1.0000 </r>
       <r>  -16.3027    1.0000 </r>
       <r>  -16.3005    1.0000 </r>
       <r>  -16.2987    1.0000 </r>
       <r>  -16.2975    1.0000 </r>
       <r>  -16.2925    1.0000 </r>
       <r>  -16.2919    1.0000 </r>
       <r>  -16.2865    1.0000 </r>
       <r>  -16.2829    1.0000 </r>
       <r>  -16.2807    1.0000 </r>
       <r>  -16.2797    1.0000 </r>
       <r>  -16.2740    1.0000 </r>
       <r>  -16.2633    1.0000 </r>
       <r>  -16.2587    1.0000 </r>
       <r>  -16.2542    1.0000 </r>
       <r>  -14.5260    1.0000 </r>
       <r>  -14.4325    1.0000 </r>
       <r>  -14.3034    1.0000 </r>
       <r>  -14.1768    1.0000 </r>
       <r>  -14.1347    1.0000 </r>
       <r>  -14.0992    1.0000 </r>
       <r>  -14.0902    1.0000 </r>
       <r>  -14.0791    1.0000 </r>
       <r>  -14.0643    1.0000 </r>
       <r>  -14.0620    1.0000 </r>
       <r>  -14.0460    1.0000 </r>
       <r>  -14.0327    1.0000 </r>
       <r>  -14.0242    1.0000 </r>
       <r>  -14.0071    1.0000 </r>
       <r>  -13.9995    1.0000 </r>
       <r>  -13.9743    1.0000 </r>
       <r>  -13.9517    1.0000 </r>
       <r>  -13.9093    1.0000 </r>
       <r>  -13.8645    1.0000 </r>
       <r>  -13.7744    1.0000 </r>
       <r>  -13.7518    1.0000 </r>
       <r>  -13.7505    1.0000 </r>
       <r>  -13.7184    1.0000 </r>
       <r>   -8.2195    1.0000 </r>
       <r>   -7.7996    1.0000 </r>
       <r>   -7.7961    1.0000 </r>
       <r>   -7.6814    1.0000 </r>
       <r>   -7.3481    1.0000 </r>
       <r>   -7.2854    1.0000 </r>
       <r>   -7.2667    1.0000 </r>
       <r>   -7.2468    1.0000 </r>
       <r>   -7.2437    1.0000 </r>
       <r>   -7.2294    1.0000 </r>
       <r>   -7.2237    1.0000 </r>
       <r>   -7.2164    1.0000 </r>
       <r>   -7.1931    1.0000 </r>
       <r>   -7.1806    1.0000 </r>
       <r>   -7.1772    1.0000 </r>
       <r>   -7.1672    1.0000 </r>
       <r>   -7.1636    1.0000 </r>
       <r>   -7.1609    1.0000 </r>
       <r>   -7.1557    1.0000 </r>
       <r>   -7.1515    1.0000 </r>
       <r>   -7.1460    1.0000 </r>
       <r>   -7.1384    1.0000 </r>
       <r>   -7.1365    1.0000 </r>
       <r>   -7.1274    1.0000 </r>
       <r>   -7.1174    1.0000 </r>
       <r>   -7.1157    1.0000 </r>
       <r>   -7.1084    1.0000 </r>
       <r>   -7.0978    1.0000 </r>
       <r>   -7.0942    1.0000 </r>
       <r>   -7.0774    1.0000 </r>
       <r>   -7.0523    1.0000 </r>
       <r>   -6.5882    1.0000 </r>
       <r>   -3.3636    1.0000 </r>
       <r>   -3.3371    1.0000 </r>
       <r>   -3.2908    1.0000 </r>
       <r>   -3.2744    1.0000 </r>
       <r>   -3.2580    1.0000 </r>
       <r>   -3.1798    1.0000 </r>
       <r>   -3.1771    1.0000 </r>
       <r>   -3.1546    1.0000 </r>
       <r>   -3.0994    1.0000 </r>
       <r>   -3.0858    1.0000 </r>
       <r>   -2.9533    1.0000 </r>
       <r>   -2.8948    1.0000 </r>
       <r>   -2.2478    1.0000 </r>
       <r>   -2.1876    1.0000 </r>
       <r>   -2.1616    1.0000 </r>
       <r>   -2.0914    1.0000 </r>
       <r>   -2.0104    1.0000 </r>
       <r>   -1.9753    1.0000 </r>
       <r>   -1.9494    1.0000 </r>
       <r>   -1.8751    1.0000 </r>
       <r>   -1.8451    1.0000 </r>
       <r>   -1.8314    1.0000 </r>
       <r>   -1.7650    1.0000 </r>
       <r>   -1.7418    1.0000 </r>
       <r>   -1.6977    1.0000 </r>
       <r>   -1.6690    1.0000 </r>
       <r>   -1.6496    1.0000 </r>
       <r>   -1.6075    1.0000 </r>
       <r>   -1.5708    1.0000 </r>
       <r>   -1.5685    1.0000 </r>
       <r>   -1.5596    1.0000 </r>
       <r>   -1.5279    1.0000 </r>
       <r>   -1.4994    1.0000 </r>
       <r>   -1.4910    1.0000 </r>
       <r>   -1.4672    1.0000 </r>
       <r>   -1.4542    1.0000 </r>
       <r>   -1.4295    1.0000 </r>
       <r>   -1.4254    1.0000 </r>
       <r>   -1.4142    1.0000 </r>
       <r>   -1.4076    1.0000 </r>
       <r>   -1.4069    1.0000 </r>
       <r>   -1.3880    1.0000 </r>
       <r>   -1.3643    1.0000 </r>
       <r>   -1.3540    1.0000 </r>
       <r>   -1.3437    1.0000 </r>
       <r>   -1.3411    1.0000 </r>
       <r>   -1.3324    1.0000 </r>
       <r>   -1.3119    1.0000 </r>
       <r>   -1.2938    1.0000 </r>
       <r>   -1.2813    1.0000 </r>
       <r>   -1.2679    1.0000 </r>
       <r>   -1.2562    1.0000 </r>
       <r>   -1.2219    1.0000 </r>
       <r>   -1.1643    1.0000 </r>
       <r>   -1.1342    1.0000 </r>
       <r>   -1.1161    1.0000 </r>
       <r>   -1.1022    1.0000 </r>
       <r>   -1.0595    1.0000 </r>
       <r>   -1.0292    1.0000 </r>
       <r>   -0.9934    1.0000 </r>
       <r>   -0.9644    1.0000 </r>
       <r>   -0.8587    1.0000 </r>
       <r>   -0.8152    1.0000 </r>
       <r>   -0.7883    1.0000 </r>
       <r>   -0.6462    1.0000 </r>
       <r>   -0.3978    1.0000 </r>
       <r>   -0.2039    1.0000 </r>
       <r>   -0.1458    1.0000 </r>
       <r>    0.3715    1.0000 </r>
       <r>    2.5623    0.0000 </r>
       <r>    2.7712    0.0000 </r>
       <r>    2.8358    0.0000 </r>
       <r>    2.8936    0.0000 </r>
       <r>    3.0505    0.0000 </r>
       <r>    3.0958    0.0000 </r>
       <r>    3.1170    0.0000 </r>
       <r>    3.1995    0.0000 </r>
       <r>    3.3185    0.0000 </r>
       <r>    3.4625    0.0000 </r>
       <r>    3.4766    0.0000 </r>
       <r>    3.5546    0.0000 </r>
       <r>    4.0901    0.0000 </r>
       <r>    4.7315    0.0000 </r>
       <r>    4.8517    0.0000 </r>
       <r>    5.5243    0.0000 </r>
       <r>    5.5986    0.0000 </r>
       <r>    5.6830    0.0000 </r>
       <r>    5.8376    0.0000 </r>
       <r>    5.8649    0.0000 </r>
       <r>    5.9402    0.0000 </r>
       <r>    5.9547    0.0000 </r>
       <r>    5.9859    0.0000 </r>
       <r>    6.0567    0.0000 </r>
       <r>    6.1192    0.0000 </r>
       <r>    6.1362    0.0000 </r>
       <r>    6.1847    0.0000 </r>
       <r>    6.2495    0.0000 </r>
       <r>    6.2958    0.0000 </r>
       <r>    6.3326    0.0000 </r>
       <r>    6.3707    0.0000 </r>
       <r>    6.4089    0.0000 </r>
       <r>    6.4514    0.0000 </r>
       <r>    6.5375    0.0000 </r>
       <r>    6.6470    0.0000 </r>
       <r>    6.6757    0.0000 </r>
      </set>
      <set comment="kpoint 2">
       <r>  -20.8432    1.0000 </r>
       <r>  -20.8327    1.0000 </r>
       <r>  -20.7678    1.0000 </r>
       <r>  -20.7656    1.0000 </r>
       <r>  -20.7509    1.0000 </r>
       <r>  -20.7402    1.0000 </r>
       <r>  -20.7197    1.0000 </r>
       <r>  -20.6844    1.0000 </r>
       <r>  -16.7724    1.0000 </r>
       <r>  -16.7319    1.0000 </r>
       <r>  -16.7043    1.0000 </r>
       <r>  -16.6901    1.0000 </r>
       <r>  -16.6859    1.0000 </r>
       <r>  -16.6605    1.0000 </r>
       <r>  -16.6580    1.0000 </r>
       <r>  -16.6276    1.0000 </r>
       <r>  -16.5864    1.0000 </r>
       <r>  -16.5845    1.0000 </r>
       <r>  -16.5788    1.0000 </r>
       <r>  -16.5426    1.0000 </r>
       <r>  -16.5382    1.0000 </r>
       <r>  -16.5318    1.0000 </r>
       <r>  -16.5080    1.0000 </r>
       <r>  -16.4454    1.0000 </r>
       <r>  -16.4356    1.0000 </r>
       <r>  -16.4198    1.0000 </r>
       <r>  -16.4129    1.0000 </r>
       <r>  -16.4083    1.0000 </r>
       <r>  -16.3995    1.0000 </r>
       <r>  -16.3927    1.0000 </r>
       <r>  -16.3743    1.0000 </r>
       <r>  -16.3724    1.0000 </r>
       <r>  -16.3524    1.0000 </r>
       <r>  -16.3111    1.0000 </r>
       <r>  -16.3028    1.0000 </r>
       <r>  -16.3005    1.0000 </r>
       <r>  -16.2987    1.0000 </r>
       <r>  -16.2976    1.0000 </r>
       <r>  -16.2924    1.0000 </r>
       <r>  -16.2920    1.0000 </r>
       <r>  -16.2865    1.0000 </r>
       <r>  -16.2829    1.0000 </r>
       <r>  -16.2807    1.0000 </r>
       <r>  -16.2798    1.0000 </r>
       <r>  -16.2741    1.0000 </r>
       <r>  -16.2633    1.0000 </r>
       <r>  -16.2587    1.0000 </r>
       <r>  -16.2542    1.0000 </r>
       <r>  -14.5159    1.0000 </r>
       <r>  -14.4459    1.0000 </r>
       <r>  -14.2761    1.0000 </r>
       <r>  -14.2345    1.0000 </r>
       <r>  -14.1365    1.0000 </r>
       <r>  -14.1266    1.0000 </r>
       <r>  -14.0967    1.0000 </r>
       <r>  -14.0892    1.0000 </r>
       <r>  -14.0737    1.0000 </r>
       <r>  -14.0584    1.0000 </r>
       <r>  -14.0494    1.0000 </r>
       <r>  -14.0333    1.0000 </r>
       <r>  -14.0130    1.0000 </r>
       <r>  -14.0004    1.0000 </r>
       <r>  -13.9794    1.0000 </r>
       <r>  -13.9389    1.0000 </r>
       <r>  -13.8873    1.0000 </r>
       <r>  -13.8530    1.0000 </r>
       <r>  -13.8506    1.0000 </r>
       <r>  -13.8025    1.0000 </r>
       <r>  -13.7898    1.0000 </r>
       <r>  -13.7663    1.0000 </r>
       <r>  -13.7513    1.0000 </r>
       <r>   -8.0700    1.0000 </r>
       <r>   -7.9799    1.0000 </r>
       <r>   -7.6700    1.0000 </r>
       <r>   -7.5267    1.0000 </r>
       <r>   -7.4631    1.0000 </r>
       <r>   -7.4277    1.0000 </r>
       <r>   -7.2827    1.0000 </r>
       <r>   -7.2630    1.0000 </r>
       <r>   -7.2446    1.0000 </r>
       <r>   -7.2295    1.0000 </r>
       <r>   -7.2243    1.0000 </r>
       <r>   -7.2172    1.0000 </r>
       <r>   -7.1955    1.0000 </r>
       <r>   -7.1812    1.0000 </r>
       <r>   -7.1766    1.0000 </r>
       <r>   -7.1759    1.0000 </r>
       <r>   -7.1660    1.0000 </r>
       <r>   -7.1592    1.0000 </r>
       <r>   -7.1573    1.0000 </r>
       <r>   -7.1542    1.0000 </r>
       <r>   -7.1460    1.0000 </r>
       <r>   -7.1348    1.0000 </r>
       <r>   -7.1334    1.0000 </r>
       <r>   -7.1269    1.0000 </r>
       <r>   -7.1165    1.0000 </r>
       <r>   -7.1123    1.0000 </r>
       <r>   -7.1072    1.0000 </r>
       <r>   -7.0941    1.0000 </r>
       <r>   -7.0826    1.0000 </r>
       <r>   -7.0747    1.0000 </r>
       <r>   -6.9421    1.0000 </r>
       <r>   -6.8541    1.0000 </r>
       <r>   -3.3411    1.0000 </r>
       <r>   -3.3192    1.0000 </r>
       <r>   -3.2487    1.0000 </r>
       <r>   -3.2354    1.0000 </r>
       <r>   -3.2087    1.0000 </r>
       <r>   -3.1873    1.0000 </r>
       <r>   -3.1073    1.0000 </r>
       <r>   -3.0102    1.0000 </r>
       <r>   -2.9244    1.0000 </r>
       <r>   -2.5542    1.0000 </r>
       <r>   -2.4941    1.0000 </r>
       <r>   -2.4585    1.0000 </r>
       <r>   -2.3968    1.0000 </r>
       <r>   -2.3861    1.0000 </r>
       <r>   -2.3263    1.0000 </r>
       <r>   -2.1953    1.0000 </r>
       <r>   -2.1371    1.0000 </r>
       <r>   -2.0832    1.0000 </r>
       <r>   -2.0553    1.0000 </r>
       <r>   -1.9818    1.0000 </r>
       <r>   -1.9643    1.0000 </r>
       <r>   -1.9205    1.0000 </r>
       <r>   -1.8804    1.0000 </r>
       <r>   -1.8505    1.0000 </r>
       <r>   -1.7850    1.0000 </r>
       <r>   -1.7297    1.0000 </r>
       <r>   -1.7103    1.0000 </r>
       <r>   -1.6805    1.0000 </r>
       <r>   -1.6312    1.0000 </r>
       <r>   -1.5894    1.0000 </r>
       <r>   -1.5621    1.0000 </r>
       <r>   -1.5212    1.0000 </r>
       <r>   -1.4979    1.0000 </r>
       <r>   -1.4916    1.0000 </r>
       <r>   -1.4828    1.0000 </r>
       <r>   -1.4529    1.0000 </r>
       <r>   -1.4356    1.0000 </r>
       <r>   -1.4281    1.0000 </r>
       <r>   -1.4233    1.0000 </r>
       <r>   -1.4034    1.0000 </r>
       <r>   -1.3975    1.0000 </r>
       <r>   -1.3880    1.0000 </r>
       <r>   -1.3788    1.0000 </r>
       <r>   -1.3618    1.0000 </r>
       <r>   -1.3325    1.0000 </r>
       <r>   -1.3255    1.0000 </r>
       <r>   -1.2995    1.0000 </r>
       <r>   -1.2902    1.0000 </r>
       <r>   -1.2787    1.0000 </r>
       <r>   -1.2590    1.0000 </r>
       <r>   -1.2347    1.0000 </r>
       <r>   -1.2087    1.0000 </r>
       <r>   -1.1943    1.0000 </r>
       <r>   -1.1797    1.0000 </r>
       <r>   -1.1645    1.0000 </r>
       <r>   -1.1253    1.0000 </r>
       <r>   -1.0892    1.0000 </r>
       <r>   -1.0844    1.0000 </r>
       <r>   -1.0723    1.0000 </r>
       <r>   -1.0262    1.0000 </r>
       <r>   -0.9707    1.0000 </r>
       <r>   -0.9318    1.0000 </r>
       <r>   -0.8778    1.0000 </r>
       <r>   -0.7828    1.0000 </r>
       <r>   -0.6182    1.0000 </r>
       <r>   -0.5220    1.0000 </r>
       <r>   -0.5059    1.0000 </r>
       <r>   -0.0917    1.0000 </r>
       <r>    0.0258    1.0000 </r>
       <r>    2.5431    0.0000 </r>
       <r>    2.8822    0.0000 </r>
       <r>    2.9446    0.0000 </r>
       <r>    2.9585    0.0000 </r>
       <r>    3.1764    0.0000 </r>
       <r>    3.2306    0.0000 </r>
       <r>    3.3041    0.0000 </r>
       <r>    3.3417    0.0000 </r>
       <r>    3.4458    0.0000 </r>
       <r>    3.9904    0.0000 </r>
       <r>    4.2824    0.0000 </r>
       <r>    4.4318    0.0000 </r>
       <r>    4.4847    0.0000 </r>
       <r>    4.6084    0.0000 </r>
       <r>    4.6286    0.0000 </r>
       <r>    4.7875    0.0000 </r>
       <r>    4.8825    0.0000 </r>
       <r>    5.3606    0.0000 </r>
       <r>    5.5935    0.0000 </r>
       <r>    5.6129    0.0000 </r>
       <r>    5.7081    0.0000 </r>
       <r>    5.8644    0.0000 </r>
       <r>    5.9131    0.0000 </r>
       <r>    6.0122    0.0000 </r>
       <r>    6.0365    0.0000 </r>
       <r>    6.1287    0.0000 </r>
       <r>    6.1605    0.0000 </r>
       <r>    6.1912    0.0000 </r>
       <r>    6.2387    0.0000 </r>
       <r>    6.2860    0.0000 </r>
       <r>    6.3306    0.0000 </r>
       <r>    6.3575    0.0000 </r>
       <r>    6.4202    0.0000 </r>
       <r>    6.5311    0.0000 </r>
       <r>    6.5729    0.0000 </r>
       <r>    6.6202    0.0000 </r>
      </set>
      <set comment="kpoint 3">
       <r>  -20.8431    1.0000 </r>
       <r>  -20.8327    1.0000 </r>
       <r>  -20.7678    1.0000 </r>
       <r>  -20.7656    1.0000 </r>
       <r>  -20.7509    1.0000 </r>
       <r>  -20.7402    1.0000 </r>
       <r>  -20.7196    1.0000 </r>
       <r>  -20.6844    1.0000 </r>
       <r>  -16.7715    1.0000 </r>
       <r>  -16.7319    1.0000 </r>
       <r>  -16.7038    1.0000 </r>
       <r>  -16.6900    1.0000 </r>
       <r>  -16.6848    1.0000 </r>
       <r>  -16.6589    1.0000 </r>
       <r>  -16.6584    1.0000 </r>
       <r>  -16.6251    1.0000 </r>
       <r>  -16.5864    1.0000 </r>
       <r>  -16.5844    1.0000 </r>
       <r>  -16.5788    1.0000 </r>
       <r>  -16.5426    1.0000 </r>
       <r>  -16.5382    1.0000 </r>
       <r>  -16.5317    1.0000 </r>
       <r>  -16.5080    1.0000 </r>
       <r>  -16.4431    1.0000 </r>
       <r>  -16.4320    1.0000 </r>
       <r>  -16.4251    1.0000 </r>
       <r>  -16.4220    1.0000 </r>
       <r>  -16.4184    1.0000 </r>
       <r>  -16.4053    1.0000 </r>
       <r>  -16.3885    1.0000 </r>
       <r>  -16.3728    1.0000 </r>
       <r>  -16.3693    1.0000 </r>
       <r>  -16.3447    1.0000 </r>
       <r>  -16.3111    1.0000 </r>
       <r>  -16.3026    1.0000 </r>
       <r>  -16.3004    1.0000 </r>
       <r>  -16.2987    1.0000 </r>
       <r>  -16.2974    1.0000 </r>
       <r>  -16.2924    1.0000 </r>
       <r>  -16.2919    1.0000 </r>
       <r>  -16.2864    1.0000 </r>
       <r>  -16.2830    1.0000 </r>
       <r>  -16.2807    1.0000 </r>
       <r>  -16.2797    1.0000 </r>
       <r>  -16.2740    1.0000 </r>
       <r>  -16.2632    1.0000 </r>
       <r>  -16.2587    1.0000 </r>
       <r>  -16.2542    1.0000 </r>
       <r>  -14.5215    1.0000 </r>
       <r>  -14.4315    1.0000 </r>
       <r>  -14.3190    1.0000 </r>
       <r>  -14.1901    1.0000 </r>
       <r>  -14.1704    1.0000 </r>
       <r>  -14.1471    1.0000 </r>
       <r>  -14.0847    1.0000 </r>
       <r>  -14.0721    1.0000 </r>
       <r>  -14.0588    1.0000 </r>
       <r>  -14.0412    1.0000 </r>
       <r>  -14.0340    1.0000 </r>
       <r>  -14.0313    1.0000 </r>
       <r>  -14.0090    1.0000 </r>
       <r>  -14.0066    1.0000 </r>
       <r>  -13.9729    1.0000 </r>
       <r>  -13.9518    1.0000 </r>
       <r>  -13.8875    1.0000 </r>
       <r>  -13.8537    1.0000 </r>
       <r>  -13.8348    1.0000 </r>
       <r>  -13.8277    1.0000 </r>
       <r>  -13.8175    1.0000 </r>
       <r>  -13.7810    1.0000 </r>
       <r>  -13.7230    1.0000 </r>
       <r>   -8.0055    1.0000 </r>
       <r>   -7.9535    1.0000 </r>
       <r>   -7.6280    1.0000 </r>
       <r>   -7.6136    1.0000 </r>
       <r>   -7.4595    1.0000 </r>
       <r>   -7.4378    1.0000 </r>
       <r>   -7.2847    1.0000 </r>
       <r>   -7.2636    1.0000 </r>
       <r>   -7.2485    1.0000 </r>
       <r>   -7.2287    1.0000 </r>
       <r>   -7.2222    1.0000 </r>
       <r>   -7.2129    1.0000 </r>
       <r>   -7.1881    1.0000 </r>
       <r>   -7.1821    1.0000 </r>
       <r>   -7.1730    1.0000 </r>
       <r>   -7.1701    1.0000 </r>
       <r>   -7.1663    1.0000 </r>
       <r>   -7.1581    1.0000 </r>
       <r>   -7.1537    1.0000 </r>
       <r>   -7.1493    1.0000 </r>
       <r>   -7.1479    1.0000 </r>
       <r>   -7.1425    1.0000 </r>
       <r>   -7.1367    1.0000 </r>
       <r>   -7.1322    1.0000 </r>
       <r>   -7.1224    1.0000 </r>
       <r>   -7.1177    1.0000 </r>
       <r>   -7.1149    1.0000 </r>
       <r>   -7.0995    1.0000 </r>
       <r>   -7.0848    1.0000 </r>
       <r>   -7.0686    1.0000 </r>
       <r>   -7.0552    1.0000 </r>
       <r>   -6.8578    1.0000 </r>
       <r>   -3.2881    1.0000 </r>
       <r>   -3.2378    1.0000 </r>
       <r>   -3.2285    1.0000 </r>
       <r>   -3.1586    1.0000 </r>
       <r>   -3.1374    1.0000 </r>
       <r>   -3.1060    1.0000 </r>
       <r>   -3.0148    1.0000 </r>
       <r>   -2.9794    1.0000 </r>
       <r>   -2.5720    1.0000 </r>
       <r>   -2.5513    1.0000 </r>
       <r>   -2.5054    1.0000 </r>
       <r>   -2.4789    1.0000 </r>
       <r>   -2.4549    1.0000 </r>
       <r>   -2.4116    1.0000 </r>
       <r>   -2.3633    1.0000 </r>
       <r>   -2.3521    1.0000 </r>
       <r>   -2.1850    1.0000 </r>
       <r>   -2.0676    1.0000 </r>
       <r>   -2.0427    1.0000 </r>
       <r>   -2.0194    1.0000 </r>
       <r>   -2.0131    1.0000 </r>
       <r>   -1.9493    1.0000 </r>
       <r>   -1.8832    1.0000 </r>
       <r>   -1.8579    1.0000 </r>
       <r>   -1.8219    1.0000 </r>
       <r>   -1.8069    1.0000 </r>
       <r>   -1.7707    1.0000 </r>
       <r>   -1.6824    1.0000 </r>
       <r>   -1.6713    1.0000 </r>
       <r>   -1.6011    1.0000 </r>
       <r>   -1.5639    1.0000 </r>
       <r>   -1.5131    1.0000 </r>
       <r>   -1.4959    1.0000 </r>
       <r>   -1.4763    1.0000 </r>
       <r>   -1.4676    1.0000 </r>
       <r>   -1.4461    1.0000 </r>
       <r>   -1.4425    1.0000 </r>
       <r>   -1.4283    1.0000 </r>
       <r>   -1.4129    1.0000 </r>
       <r>   -1.4013    1.0000 </r>
       <r>   -1.3971    1.0000 </r>
       <r>   -1.3685    1.0000 </r>
       <r>   -1.3661    1.0000 </r>
       <r>   -1.3522    1.0000 </r>
       <r>   -1.3344    1.0000 </r>
       <r>   -1.3279    1.0000 </r>
       <r>   -1.3160    1.0000 </r>
       <r>   -1.3092    1.0000 </r>
       <r>   -1.2816    1.0000 </r>
       <r>   -1.2692    1.0000 </r>
       <r>   -1.2605    1.0000 </r>
       <r>   -1.2121    1.0000 </r>
       <r>   -1.2059    1.0000 </r>
       <r>   -1.1705    1.0000 </r>
       <r>   -1.1404    1.0000 </r>
       <r>   -1.1269    1.0000 </r>
       <r>   -1.0942    1.0000 </r>
       <r>   -1.0884    1.0000 </r>
       <r>   -1.0791    1.0000 </r>
       <r>   -1.0558    1.0000 </r>
       <r>   -1.0191    1.0000 </r>
       <r>   -0.9205    1.0000 </r>
       <r>   -0.8527    1.0000 </r>
       <r>   -0.8237    1.0000 </r>
       <r>   -0.7659    1.0000 </r>
       <r>   -0.5817    1.0000 </r>
       <r>   -0.5534    1.0000 </r>
       <r>   -0.3099    1.0000 </r>
       <r>    0.0307    1.0000 </r>
       <r>    2.6415    0.0000 </r>
       <r>    2.9275    0.0000 </r>
       <r>    2.9801    0.0000 </r>
       <r>    3.1107    0.0000 </r>
       <r>    3.1243    0.0000 </r>
       <r>    3.2990    0.0000 </r>
       <r>    3.3550    0.0000 </r>
       <r>    3.3853    0.0000 </r>
       <r>    4.0462    0.0000 </r>
       <r>    4.2666    0.0000 </r>
       <r>    4.3636    0.0000 </r>
       <r>    4.5363    0.0000 </r>
       <r>    4.5748    0.0000 </r>
       <r>    4.6053    0.0000 </r>
       <r>    4.6365    0.0000 </r>
       <r>    4.7939    0.0000 </r>
       <r>    4.8321    0.0000 </r>
       <r>    4.9324    0.0000 </r>
       <r>    5.3038    0.0000 </r>
       <r>    5.5139    0.0000 </r>
       <r>    5.6542    0.0000 </r>
       <r>    5.7776    0.0000 </r>
       <r>    5.7996    0.0000 </r>
       <r>    5.8741    0.0000 </r>
       <r>    6.0330    0.0000 </r>
       <r>    6.1196    0.0000 </r>
       <r>    6.1692    0.0000 </r>
       <r>    6.2070    0.0000 </r>
       <r>    6.2543    0.0000 </r>
       <r>    6.3239    0.0000 </r>
       <r>    6.3525    0.0000 </r>
       <r>    6.4194    0.0000 </r>
       <r>    6.5241    0.0000 </r>
       <r>    6.5820    0.0000 </r>
       <r>    6.6077    0.0000 </r>
       <r>    6.6266    0.0000 </r>
      </set>
      <set comment="kpoint 4">
       <r>  -20.8431    1.0000 </r>
       <r>  -20.8327    1.0000 </r>
       <r>  -20.7678    1.0000 </r>
       <r>  -20.7656    1.0000 </r>
       <r>  -20.7510    1.0000 </r>
       <r>  -20.7402    1.0000 </r>
       <r>  -20.7197    1.0000 </r>
       <r>  -20.6844    1.0000 </r>
       <r>  -16.7715    1.0000 </r>
       <r>  -16.7315    1.0000 </r>
       <r>  -16.7036    1.0000 </r>
       <r>  -16.6900    1.0000 </r>
       <r>  -16.6847    1.0000 </r>
       <r>  -16.6590    1.0000 </r>
       <r>  -16.6561    1.0000 </r>
       <r>  -16.6252    1.0000 </r>
       <r>  -16.5864    1.0000 </r>
       <r>  -16.5845    1.0000 </r>
       <r>  -16.5788    1.0000 </r>
       <r>  -16.5427    1.0000 </r>
       <r>  -16.5382    1.0000 </r>
       <r>  -16.5318    1.0000 </r>
       <r>  -16.5080    1.0000 </r>
       <r>  -16.4368    1.0000 </r>
       <r>  -16.4262    1.0000 </r>
       <r>  -16.4234    1.0000 </r>
       <r>  -16.4160    1.0000 </r>
       <r>  -16.4072    1.0000 </r>
       <r>  -16.4015    1.0000 </r>
       <r>  -16.3960    1.0000 </r>
       <r>  -16.3875    1.0000 </r>
       <r>  -16.3747    1.0000 </r>
       <r>  -16.3569    1.0000 </r>
       <r>  -16.3111    1.0000 </r>
       <r>  -16.3027    1.0000 </r>
       <r>  -16.3004    1.0000 </r>
       <r>  -16.2987    1.0000 </r>
       <r>  -16.2975    1.0000 </r>
       <r>  -16.2925    1.0000 </r>
       <r>  -16.2919    1.0000 </r>
       <r>  -16.2865    1.0000 </r>
       <r>  -16.2829    1.0000 </r>
       <r>  -16.2807    1.0000 </r>
       <r>  -16.2798    1.0000 </r>
       <r>  -16.2741    1.0000 </r>
       <r>  -16.2632    1.0000 </r>
       <r>  -16.2587    1.0000 </r>
       <r>  -16.2542    1.0000 </r>
       <r>  -14.5136    1.0000 </r>
       <r>  -14.4434    1.0000 </r>
       <r>  -14.2794    1.0000 </r>
       <r>  -14.2566    1.0000 </r>
       <r>  -14.1887    1.0000 </r>
       <r>  -14.1339    1.0000 </r>
       <r>  -14.1211    1.0000 </r>
       <r>  -14.0997    1.0000 </r>
       <r>  -14.0761    1.0000 </r>
       <r>  -14.0376    1.0000 </r>
       <r>  -14.0333    1.0000 </r>
       <r>  -14.0103    1.0000 </r>
       <r>  -13.9744    1.0000 </r>
       <r>  -13.9382    1.0000 </r>
       <r>  -13.9151    1.0000 </r>
       <r>  -13.9052    1.0000 </r>
       <r>  -13.8821    1.0000 </r>
       <r>  -13.8811    1.0000 </r>
       <r>  -13.8658    1.0000 </r>
       <r>  -13.8276    1.0000 </r>
       <r>  -13.7991    1.0000 </r>
       <r>  -13.7962    1.0000 </r>
       <r>  -13.7852    1.0000 </r>
       <r>   -7.9162    1.0000 </r>
       <r>   -7.7543    1.0000 </r>
       <r>   -7.7245    1.0000 </r>
       <r>   -7.7211    1.0000 </r>
       <r>   -7.4841    1.0000 </r>
       <r>   -7.3024    1.0000 </r>
       <r>   -7.2802    1.0000 </r>
       <r>   -7.2575    1.0000 </r>
       <r>   -7.2529    1.0000 </r>
       <r>   -7.2394    1.0000 </r>
       <r>   -7.2324    1.0000 </r>
       <r>   -7.2128    1.0000 </r>
       <r>   -7.2085    1.0000 </r>
       <r>   -7.1945    1.0000 </r>
       <r>   -7.1838    1.0000 </r>
       <r>   -7.1748    1.0000 </r>
       <r>   -7.1725    1.0000 </r>
       <r>   -7.1650    1.0000 </r>
       <r>   -7.1598    1.0000 </r>
       <r>   -7.1574    1.0000 </r>
       <r>   -7.1488    1.0000 </r>
       <r>   -7.1456    1.0000 </r>
       <r>   -7.1434    1.0000 </r>
       <r>   -7.1329    1.0000 </r>
       <r>   -7.1306    1.0000 </r>
       <r>   -7.1244    1.0000 </r>
       <r>   -7.1153    1.0000 </r>
       <r>   -7.1082    1.0000 </r>
       <r>   -7.0951    1.0000 </r>
       <r>   -7.0855    1.0000 </r>
       <r>   -7.0749    1.0000 </r>
       <r>   -7.0519    1.0000 </r>
       <r>   -3.2042    1.0000 </r>
       <r>   -3.1867    1.0000 </r>
       <r>   -3.1531    1.0000 </r>
       <r>   -3.0520    1.0000 </r>
       <r>   -2.9892    1.0000 </r>
       <r>   -2.7194    1.0000 </r>
       <r>   -2.6877    1.0000 </r>
       <r>   -2.6562    1.0000 </r>
       <r>   -2.5949    1.0000 </r>
       <r>   -2.5877    1.0000 </r>
       <r>   -2.5616    1.0000 </r>
       <r>   -2.4454    1.0000 </r>
       <r>   -2.3945    1.0000 </r>
       <r>   -2.3622    1.0000 </r>
       <r>   -2.3400    1.0000 </r>
       <r>   -2.3300    1.0000 </r>
       <r>   -2.2933    1.0000 </r>
       <r>   -2.2383    1.0000 </r>
       <r>   -2.2176    1.0000 </r>
       <r>   -2.1308    1.0000 </r>
       <r>   -2.0274    1.0000 </r>
       <r>   -1.9941    1.0000 </r>
       <r>   -1.9297    1.0000 </r>
       <r>   -1.9237    1.0000 </r>
       <r>   -1.8298    1.0000 </r>
       <r>   -1.7946    1.0000 </r>
       <r>   -1.7375    1.0000 </r>
       <r>   -1.7290    1.0000 </r>
       <r>   -1.7183    1.0000 </r>
       <r>   -1.6622    1.0000 </r>
       <r>   -1.6334    1.0000 </r>
       <r>   -1.6124    1.0000 </r>
       <r>   -1.6039    1.0000 </r>
       <r>   -1.5725    1.0000 </r>
       <r>   -1.5544    1.0000 </r>
       <r>   -1.5204    1.0000 </r>
       <r>   -1.4871    1.0000 </r>
       <r>   -1.4730    1.0000 </r>
       <r>   -1.4593    1.0000 </r>
       <r>   -1.4171    1.0000 </r>
       <r>   -1.3987    1.0000 </r>
       <r>   -1.3867    1.0000 </r>
       <r>   -1.3760    1.0000 </r>
       <r>   -1.3595    1.0000 </r>
       <r>   -1.3434    1.0000 </r>
       <r>   -1.2932    1.0000 </r>
       <r>   -1.2818    1.0000 </r>
       <r>   -1.2542    1.0000 </r>
       <r>   -1.2437    1.0000 </r>
       <r>   -1.2243    1.0000 </r>
       <r>   -1.2129    1.0000 </r>
       <r>   -1.1944    1.0000 </r>
       <r>   -1.1712    1.0000 </r>
       <r>   -1.1384    1.0000 </r>
       <r>   -1.1286    1.0000 </r>
       <r>   -1.1148    1.0000 </r>
       <r>   -1.1020    1.0000 </r>
       <r>   -1.0933    1.0000 </r>
       <r>   -1.0785    1.0000 </r>
       <r>   -1.0703    1.0000 </r>
       <r>   -1.0125    1.0000 </r>
       <r>   -0.9437    1.0000 </r>
       <r>   -0.9240    1.0000 </r>
       <r>   -0.8802    1.0000 </r>
       <r>   -0.8463    1.0000 </r>
       <r>   -0.7864    1.0000 </r>
       <r>   -0.5076    1.0000 </r>
       <r>   -0.4589    1.0000 </r>
       <r>   -0.3950    1.0000 </r>
       <r>    2.5852    0.0000 </r>
       <r>    3.0973    0.0000 </r>
       <r>    3.1722    0.0000 </r>
       <r>    3.1866    0.0000 </r>
       <r>    3.3717    0.0000 </r>
       <r>    3.9621    0.0000 </r>
       <r>    4.2685    0.0000 </r>
       <r>    4.3305    0.0000 </r>
       <r>    4.3474    0.0000 </r>
       <r>    4.4084    0.0000 </r>
       <r>    4.4264    0.0000 </r>
       <r>    4.4841    0.0000 </r>
       <r>    4.5173    0.0000 </r>
       <r>    4.5420    0.0000 </r>
       <r>    4.5768    0.0000 </r>
       <r>    4.6566    0.0000 </r>
       <r>    4.7344    0.0000 </r>
       <r>    4.7779    0.0000 </r>
       <r>    4.7935    0.0000 </r>
       <r>    4.9057    0.0000 </r>
       <r>    4.9357    0.0000 </r>
       <r>    5.5322    0.0000 </r>
       <r>    5.6941    0.0000 </r>
       <r>    5.8897    0.0000 </r>
       <r>    5.9657    0.0000 </r>
       <r>    5.9886    0.0000 </r>
       <r>    6.0486    0.0000 </r>
       <r>    6.0718    0.0000 </r>
       <r>    6.2324    0.0000 </r>
       <r>    6.2730    0.0000 </r>
       <r>    6.2777    0.0000 </r>
       <r>    6.3779    0.0000 </r>
       <r>    6.4140    0.0000 </r>
       <r>    6.4651    0.0000 </r>
       <r>    6.5086    0.0000 </r>
       <r>    6.6499    0.0000 </r>
      </set>
      <set comment="kpoint 5">
       <r>  -20.8431    1.0000 </r>
       <r>  -20.8327    1.0000 </r>
       <r>  -20.7678    1.0000 </r>
       <r>  -20.7656    1.0000 </r>
       <r>  -20.7509    1.0000 </r>
       <r>  -20.7403    1.0000 </r>
       <r>  -20.7197    1.0000 </r>
       <r>  -20.6844    1.0000 </r>
       <r>  -16.7725    1.0000 </r>
       <r>  -16.7324    1.0000 </r>
       <r>  -16.7029    1.0000 </r>
       <r>  -16.6903    1.0000 </r>
       <r>  -16.6872    1.0000 </r>
       <r>  -16.6611    1.0000 </r>
       <r>  -16.6594    1.0000 </r>
       <r>  -16.6253    1.0000 </r>
       <r>  -16.5864    1.0000 </r>
       <r>  -16.5845    1.0000 </r>
       <r>  -16.5788    1.0000 </r>
       <r>  -16.5426    1.0000 </r>
       <r>  -16.5382    1.0000 </r>
       <r>  -16.5318    1.0000 </r>
       <r>  -16.5080    1.0000 </r>
       <r>  -16.4465    1.0000 </r>
       <r>  -16.4291    1.0000 </r>
       <r>  -16.4213    1.0000 </r>
       <r>  -16.4105    1.0000 </r>
       <r>  -16.4069    1.0000 </r>
       <r>  -16.4047    1.0000 </r>
       <r>  -16.4024    1.0000 </r>
       <r>  -16.3700    1.0000 </r>
       <r>  -16.3645    1.0000 </r>
       <r>  -16.3573    1.0000 </r>
       <r>  -16.3111    1.0000 </r>
       <r>  -16.3028    1.0000 </r>
       <r>  -16.3005    1.0000 </r>
       <r>  -16.2987    1.0000 </r>
       <r>  -16.2975    1.0000 </r>
       <r>  -16.2923    1.0000 </r>
       <r>  -16.2920    1.0000 </r>
       <r>  -16.2865    1.0000 </r>
       <r>  -16.2829    1.0000 </r>
       <r>  -16.2807    1.0000 </r>
       <r>  -16.2797    1.0000 </r>
       <r>  -16.2740    1.0000 </r>
       <r>  -16.2633    1.0000 </r>
       <r>  -16.2588    1.0000 </r>
       <r>  -16.2542    1.0000 </r>
       <r>  -14.5164    1.0000 </r>
       <r>  -14.4420    1.0000 </r>
       <r>  -14.2918    1.0000 </r>
       <r>  -14.2071    1.0000 </r>
       <r>  -14.1398    1.0000 </r>
       <r>  -14.1391    1.0000 </r>
       <r>  -14.0977    1.0000 </r>
       <r>  -14.0894    1.0000 </r>
       <r>  -14.0757    1.0000 </r>
       <r>  -14.0629    1.0000 </r>
       <r>  -14.0609    1.0000 </r>
       <r>  -14.0503    1.0000 </r>
       <r>  -14.0092    1.0000 </r>
       <r>  -13.9682    1.0000 </r>
       <r>  -13.9581    1.0000 </r>
       <r>  -13.9412    1.0000 </r>
       <r>  -13.9081    1.0000 </r>
       <r>  -13.8467    1.0000 </r>
       <r>  -13.8428    1.0000 </r>
       <r>  -13.8197    1.0000 </r>
       <r>  -13.7998    1.0000 </r>
       <r>  -13.7591    1.0000 </r>
       <r>  -13.7431    1.0000 </r>
       <r>   -8.0785    1.0000 </r>
       <r>   -7.9723    1.0000 </r>
       <r>   -7.6726    1.0000 </r>
       <r>   -7.5108    1.0000 </r>
       <r>   -7.4581    1.0000 </r>
       <r>   -7.4456    1.0000 </r>
       <r>   -7.2797    1.0000 </r>
       <r>   -7.2636    1.0000 </r>
       <r>   -7.2471    1.0000 </r>
       <r>   -7.2325    1.0000 </r>
       <r>   -7.2233    1.0000 </r>
       <r>   -7.2083    1.0000 </r>
       <r>   -7.1947    1.0000 </r>
       <r>   -7.1832    1.0000 </r>
       <r>   -7.1783    1.0000 </r>
       <r>   -7.1745    1.0000 </r>
       <r>   -7.1654    1.0000 </r>
       <r>   -7.1578    1.0000 </r>
       <r>   -7.1562    1.0000 </r>
       <r>   -7.1461    1.0000 </r>
       <r>   -7.1440    1.0000 </r>
       <r>   -7.1385    1.0000 </r>
       <r>   -7.1331    1.0000 </r>
       <r>   -7.1255    1.0000 </r>
       <r>   -7.1236    1.0000 </r>
       <r>   -7.1146    1.0000 </r>
       <r>   -7.1129    1.0000 </r>
       <r>   -7.0941    1.0000 </r>
       <r>   -7.0816    1.0000 </r>
       <r>   -7.0721    1.0000 </r>
       <r>   -6.9528    1.0000 </r>
       <r>   -6.8456    1.0000 </r>
       <r>   -3.3451    1.0000 </r>
       <r>   -3.3203    1.0000 </r>
       <r>   -3.3043    1.0000 </r>
       <r>   -3.2359    1.0000 </r>
       <r>   -3.2170    1.0000 </r>
       <r>   -3.1623    1.0000 </r>
       <r>   -3.1186    1.0000 </r>
       <r>   -2.9498    1.0000 </r>
       <r>   -2.8905    1.0000 </r>
       <r>   -2.5613    1.0000 </r>
       <r>   -2.5150    1.0000 </r>
       <r>   -2.4623    1.0000 </r>
       <r>   -2.4284    1.0000 </r>
       <r>   -2.3939    1.0000 </r>
       <r>   -2.3566    1.0000 </r>
       <r>   -2.1655    1.0000 </r>
       <r>   -2.1521    1.0000 </r>
       <r>   -2.0757    1.0000 </r>
       <r>   -2.0480    1.0000 </r>
       <r>   -2.0118    1.0000 </r>
       <r>   -1.9653    1.0000 </r>
       <r>   -1.9170    1.0000 </r>
       <r>   -1.8659    1.0000 </r>
       <r>   -1.8320    1.0000 </r>
       <r>   -1.7588    1.0000 </r>
       <r>   -1.7375    1.0000 </r>
       <r>   -1.6928    1.0000 </r>
       <r>   -1.6636    1.0000 </r>
       <r>   -1.6343    1.0000 </r>
       <r>   -1.5878    1.0000 </r>
       <r>   -1.5555    1.0000 </r>
       <r>   -1.5460    1.0000 </r>
       <r>   -1.5159    1.0000 </r>
       <r>   -1.5148    1.0000 </r>
       <r>   -1.4933    1.0000 </r>
       <r>   -1.4854    1.0000 </r>
       <r>   -1.4513    1.0000 </r>
       <r>   -1.4312    1.0000 </r>
       <r>   -1.4155    1.0000 </r>
       <r>   -1.4098    1.0000 </r>
       <r>   -1.3786    1.0000 </r>
       <r>   -1.3653    1.0000 </r>
       <r>   -1.3462    1.0000 </r>
       <r>   -1.3442    1.0000 </r>
       <r>   -1.3416    1.0000 </r>
       <r>   -1.3220    1.0000 </r>
       <r>   -1.2980    1.0000 </r>
       <r>   -1.2961    1.0000 </r>
       <r>   -1.2797    1.0000 </r>
       <r>   -1.2432    1.0000 </r>
       <r>   -1.2133    1.0000 </r>
       <r>   -1.2041    1.0000 </r>
       <r>   -1.1905    1.0000 </r>
       <r>   -1.1830    1.0000 </r>
       <r>   -1.1569    1.0000 </r>
       <r>   -1.1377    1.0000 </r>
       <r>   -1.1225    1.0000 </r>
       <r>   -1.1059    1.0000 </r>
       <r>   -1.0738    1.0000 </r>
       <r>   -1.0411    1.0000 </r>
       <r>   -1.0058    1.0000 </r>
       <r>   -0.8967    1.0000 </r>
       <r>   -0.8619    1.0000 </r>
       <r>   -0.7649    1.0000 </r>
       <r>   -0.5885    1.0000 </r>
       <r>   -0.5438    1.0000 </r>
       <r>   -0.4598    1.0000 </r>
       <r>   -0.1153    1.0000 </r>
       <r>    0.0613    1.0000 </r>
       <r>    2.4399    0.0000 </r>
       <r>    2.8970    0.0000 </r>
       <r>    2.9545    0.0000 </r>
       <r>    2.9713    0.0000 </r>
       <r>    3.1246    0.0000 </r>
       <r>    3.2187    0.0000 </r>
       <r>    3.3064    0.0000 </r>
       <r>    3.3412    0.0000 </r>
       <r>    3.4646    0.0000 </r>
       <r>    3.8502    0.0000 </r>
       <r>    4.2412    0.0000 </r>
       <r>    4.3809    0.0000 </r>
       <r>    4.5120    0.0000 </r>
       <r>    4.6425    0.0000 </r>
       <r>    4.7601    0.0000 </r>
       <r>    4.7807    0.0000 </r>
       <r>    4.8451    0.0000 </r>
       <r>    5.4785    0.0000 </r>
       <r>    5.5956    0.0000 </r>
       <r>    5.6734    0.0000 </r>
       <r>    5.7267    0.0000 </r>
       <r>    5.8474    0.0000 </r>
       <r>    5.9085    0.0000 </r>
       <r>    5.9726    0.0000 </r>
       <r>    6.0414    0.0000 </r>
       <r>    6.1131    0.0000 </r>
       <r>    6.1479    0.0000 </r>
       <r>    6.2433    0.0000 </r>
       <r>    6.2904    0.0000 </r>
       <r>    6.3382    0.0000 </r>
       <r>    6.3492    0.0000 </r>
       <r>    6.4116    0.0000 </r>
       <r>    6.4592    0.0000 </r>
       <r>    6.4901    0.0000 </r>
       <r>    6.5573    0.0000 </r>
       <r>    6.6042    0.0000 </r>
      </set>
      <set comment="kpoint 6">
       <r>  -20.8431    1.0000 </r>
       <r>  -20.8327    1.0000 </r>
       <r>  -20.7678    1.0000 </r>
       <r>  -20.7656    1.0000 </r>
       <r>  -20.7509    1.0000 </r>
       <r>  -20.7402    1.0000 </r>
       <r>  -20.7197    1.0000 </r>
       <r>  -20.6844    1.0000 </r>
       <r>  -16.7725    1.0000 </r>
       <r>  -16.7319    1.0000 </r>
       <r>  -16.7027    1.0000 </r>
       <r>  -16.6902    1.0000 </r>
       <r>  -16.6871    1.0000 </r>
       <r>  -16.6603    1.0000 </r>
       <r>  -16.6580    1.0000 </r>
       <r>  -16.6253    1.0000 </r>
       <r>  -16.5864    1.0000 </r>
       <r>  -16.5845    1.0000 </r>
       <r>  -16.5788    1.0000 </r>
       <r>  -16.5426    1.0000 </r>
       <r>  -16.5382    1.0000 </r>
       <r>  -16.5318    1.0000 </r>
       <r>  -16.5080    1.0000 </r>
       <r>  -16.4447    1.0000 </r>
       <r>  -16.4131    1.0000 </r>
       <r>  -16.4103    1.0000 </r>
       <r>  -16.4082    1.0000 </r>
       <r>  -16.4043    1.0000 </r>
       <r>  -16.4026    1.0000 </r>
       <r>  -16.3973    1.0000 </r>
       <r>  -16.3888    1.0000 </r>
       <r>  -16.3821    1.0000 </r>
       <r>  -16.3665    1.0000 </r>
       <r>  -16.3111    1.0000 </r>
       <r>  -16.3027    1.0000 </r>
       <r>  -16.3004    1.0000 </r>
       <r>  -16.2987    1.0000 </r>
       <r>  -16.2975    1.0000 </r>
       <r>  -16.2924    1.0000 </r>
       <r>  -16.2920    1.0000 </r>
       <r>  -16.2865    1.0000 </r>
       <r>  -16.2829    1.0000 </r>
       <r>  -16.2807    1.0000 </r>
       <r>  -16.2798    1.0000 </r>
       <r>  -16.2740    1.0000 </r>
       <r>  -16.2633    1.0000 </r>
       <r>  -16.2588    1.0000 </r>
       <r>  -16.2542    1.0000 </r>
       <r>  -14.5131    1.0000 </r>
       <r>  -14.4418    1.0000 </r>
       <r>  -14.2702    1.0000 </r>
       <r>  -14.2296    1.0000 </r>
       <r>  -14.1878    1.0000 </r>
       <r>  -14.1759    1.0000 </r>
       <r>  -14.1038    1.0000 </r>
       <r>  -14.0926    1.0000 </r>
       <r>  -14.0884    1.0000 </r>
       <r>  -14.0682    1.0000 </r>
       <r>  -14.0520    1.0000 </r>
       <r>  -14.0196    1.0000 </r>
       <r>  -13.9719    1.0000 </r>
       <r>  -13.9537    1.0000 </r>
       <r>  -13.9032    1.0000 </r>
       <r>  -13.8841    1.0000 </r>
       <r>  -13.8684    1.0000 </r>
       <r>  -13.8575    1.0000 </r>
       <r>  -13.8429    1.0000 </r>
       <r>  -13.8326    1.0000 </r>
       <r>  -13.8145    1.0000 </r>
       <r>  -13.8097    1.0000 </r>
       <r>  -13.7839    1.0000 </r>
       <r>   -7.9876    1.0000 </r>
       <r>   -7.8252    1.0000 </r>
       <r>   -7.7379    1.0000 </r>
       <r>   -7.7191    1.0000 </r>
       <r>   -7.3495    1.0000 </r>
       <r>   -7.2990    1.0000 </r>
       <r>   -7.2721    1.0000 </r>
       <r>   -7.2611    1.0000 </r>
       <r>   -7.2551    1.0000 </r>
       <r>   -7.2419    1.0000 </r>
       <r>   -7.2246    1.0000 </r>
       <r>   -7.2215    1.0000 </r>
       <r>   -7.2015    1.0000 </r>
       <r>   -7.1902    1.0000 </r>
       <r>   -7.1845    1.0000 </r>
       <r>   -7.1779    1.0000 </r>
       <r>   -7.1713    1.0000 </r>
       <r>   -7.1631    1.0000 </r>
       <r>   -7.1593    1.0000 </r>
       <r>   -7.1486    1.0000 </r>
[...]
        <r>  0.0000  0.0015  0.0001 </r>
        <r>  0.0000  0.0004  0.0009 </r>
        <r>  0.0009  0.0027  0.0006 </r>
        <r>  0.0002  0.0000  0.0012 </r>
        <r>  0.0012  0.0020  0.0012 </r>
        <r>  0.0001  0.0023  0.0006 </r>
        <r>  0.0058  0.0055  0.0017 </r>
        <r>  0.0000  0.0011  0.0001 </r>
        <r>  0.0000  0.0018  0.0004 </r>
       </set>
       <set comment="band 199">
        <r>  0.0004  0.0002  0.0061 </r>
        <r>  0.0021  0.0004  0.0120 </r>
        <r>  0.0000  0.0003  0.0105 </r>
        <r>  0.0153  0.0014  0.0113 </r>
        <r>  0.0013  0.0005  0.0022 </r>
        <r>  0.0001  0.0007  0.0068 </r>
        <r>  0.0001  0.0015  0.0066 </r>
        <r>  0.0003  0.0004  0.0092 </r>
        <r>  0.0000  0.0015  0.0001 </r>
        <r>  0.0000  0.0022  0.0003 </r>
        <r>  0.0000  0.0008  0.0001 </r>
        <r>  0.0000  0.0013  0.0000 </r>
        <r>  0.0000  0.0103  0.0003 </r>
        <r>  0.0001  0.0021  0.0003 </r>
        <r>  0.0000  0.0048  0.0002 </r>
        <r>  0.0002  0.0123  0.0002 </r>
        <r>  0.0010  0.0029  0.0035 </r>
        <r>  0.0007  0.0019  0.0010 </r>
        <r>  0.0000  0.0021  0.0007 </r>
        <r>  0.0001  0.0030  0.0001 </r>
        <r>  0.0007  0.0012  0.0010 </r>
        <r>  0.0005  0.0042  0.0020 </r>
        <r>  0.0000  0.0010  0.0013 </r>
        <r>  0.0012  0.0007  0.0014 </r>
        <r>  0.0003  0.0018  0.0016 </r>
        <r>  0.0014  0.0006  0.0017 </r>
        <r>  0.0007  0.0006  0.0012 </r>
        <r>  0.0001  0.0006  0.0010 </r>
        <r>  0.0000  0.0008  0.0002 </r>
        <r>  0.0005  0.0027  0.0002 </r>
        <r>  0.0000  0.0007  0.0009 </r>
        <r>  0.0001  0.0026  0.0005 </r>
        <r>  0.0001  0.0003  0.0008 </r>
        <r>  0.0008  0.0017  0.0011 </r>
        <r>  0.0013  0.0021  0.0008 </r>
        <r>  0.0039  0.0026  0.0020 </r>
        <r>  0.0007  0.0026  0.0009 </r>
        <r>  0.0002  0.0067  0.0004 </r>
        <r>  0.0001  0.0010  0.0015 </r>
       </set>
       <set comment="band 200">
        <r>  0.0025  0.0007  0.0047 </r>
        <r>  0.0014  0.0002  0.0102 </r>
        <r>  0.0002  0.0013  0.0038 </r>
        <r>  0.0003  0.0001  0.0057 </r>
        <r>  0.0000  0.0004  0.0068 </r>
        <r>  0.0033  0.0011  0.0104 </r>
        <r>  0.0082  0.0009  0.0130 </r>
        <r>  0.0033  0.0010  0.0042 </r>
        <r>  0.0000  0.0034  0.0000 </r>
        <r>  0.0000  0.0010  0.0001 </r>
        <r>  0.0000  0.0020  0.0003 </r>
        <r>  0.0000  0.0025  0.0002 </r>
        <r>  0.0001  0.0105  0.0002 </r>
        <r>  0.0000  0.0087  0.0003 </r>
        <r>  0.0000  0.0005  0.0006 </r>
        <r>  0.0002  0.0046  0.0005 </r>
        <r>  0.0001  0.0014  0.0005 </r>
        <r>  0.0001  0.0048  0.0013 </r>
        <r>  0.0001  0.0023  0.0013 </r>
        <r>  0.0000  0.0042  0.0006 </r>
        <r>  0.0010  0.0008  0.0008 </r>
        <r>  0.0005  0.0028  0.0027 </r>
        <r>  0.0000  0.0005  0.0016 </r>
        <r>  0.0005  0.0009  0.0012 </r>
        <r>  0.0003  0.0017  0.0003 </r>
        <r>  0.0004  0.0017  0.0017 </r>
        <r>  0.0000  0.0024  0.0012 </r>
        <r>  0.0000  0.0035  0.0001 </r>
        <r>  0.0012  0.0027  0.0010 </r>
        <r>  0.0000  0.0014  0.0007 </r>
        <r>  0.0000  0.0004  0.0002 </r>
        <r>  0.0030  0.0005  0.0015 </r>
        <r>  0.0000  0.0010  0.0007 </r>
        <r>  0.0004  0.0029  0.0008 </r>
        <r>  0.0006  0.0038  0.0016 </r>
        <r>  0.0010  0.0012  0.0007 </r>
        <r>  0.0002  0.0053  0.0012 </r>
        <r>  0.0036  0.0015  0.0026 </r>
        <r>  0.0005  0.0011  0.0004 </r>
       </set>
       <set comment="band 201">
        <r>  0.0010  0.0003  0.0012 </r>
        <r>  0.0008  0.0012  0.0021 </r>
        <r>  0.0000  0.0011  0.0054 </r>
        <r>  0.0026  0.0012  0.0037 </r>
        <r>  0.0145  0.0006  0.0113 </r>
        <r>  0.0008  0.0006  0.0042 </r>
        <r>  0.0038  0.0006  0.0099 </r>
        <r>  0.0030  0.0004  0.0068 </r>
        <r>  0.0000  0.0035  0.0000 </r>
        <r>  0.0001  0.0083  0.0000 </r>
        <r>  0.0000  0.0021  0.0003 </r>
        <r>  0.0000  0.0047  0.0001 </r>
        <r>  0.0000  0.0120  0.0002 </r>
        <r>  0.0000  0.0038  0.0001 </r>
        <r>  0.0000  0.0091  0.0001 </r>
        <r>  0.0000  0.0069  0.0002 </r>
        <r>  0.0017  0.0035  0.0027 </r>
        <r>  0.0006  0.0021  0.0014 </r>
        <r>  0.0006  0.0029  0.0007 </r>
        <r>  0.0000  0.0047  0.0004 </r>
        <r>  0.0003  0.0021  0.0009 </r>
        <r>  0.0007  0.0024  0.0016 </r>
        <r>  0.0008  0.0029  0.0017 </r>
        <r>  0.0018  0.0035  0.0024 </r>
        <r>  0.0003  0.0026  0.0007 </r>
        <r>  0.0017  0.0005  0.0022 </r>
        <r>  0.0023  0.0023  0.0034 </r>
        <r>  0.0001  0.0010  0.0002 </r>
        <r>  0.0000  0.0046  0.0005 </r>
        <r>  0.0002  0.0013  0.0004 </r>
        <r>  0.0017  0.0017  0.0012 </r>
        <r>  0.0001  0.0016  0.0001 </r>
        <r>  0.0011  0.0047  0.0009 </r>
        <r>  0.0006  0.0015  0.0002 </r>
        <r>  0.0000  0.0014  0.0001 </r>
        <r>  0.0009  0.0055  0.0019 </r>
        <r>  0.0000  0.0026  0.0012 </r>
        <r>  0.0000  0.0024  0.0007 </r>
        <r>  0.0000  0.0004  0.0004 </r>
       </set>
       <set comment="band 202">
        <r>  0.0014  0.0002  0.0085 </r>
        <r>  0.0016  0.0002  0.0066 </r>
        <r>  0.0114  0.0004  0.0062 </r>
        <r>  0.0005  0.0012  0.0082 </r>
        <r>  0.0028  0.0004  0.0131 </r>
        <r>  0.0006  0.0007  0.0028 </r>
        <r>  0.0048  0.0010  0.0017 </r>
        <r>  0.0016  0.0009  0.0017 </r>
        <r>  0.0000  0.0120  0.0000 </r>
        <r>  0.0000  0.0061  0.0000 </r>
        <r>  0.0000  0.0024  0.0000 </r>
        <r>  0.0000  0.0059  0.0004 </r>
        <r>  0.0000  0.0067  0.0001 </r>
        <r>  0.0000  0.0093  0.0004 </r>
        <r>  0.0000  0.0033  0.0003 </r>
        <r>  0.0000  0.0026  0.0004 </r>
        <r>  0.0000  0.0010  0.0011 </r>
        <r>  0.0031  0.0021  0.0034 </r>
        <r>  0.0008  0.0017  0.0015 </r>
        <r>  0.0000  0.0020  0.0007 </r>
        <r>  0.0005  0.0037  0.0013 </r>
        <r>  0.0014  0.0015  0.0008 </r>
        <r>  0.0001  0.0008  0.0005 </r>
        <r>  0.0000  0.0093  0.0004 </r>
        <r>  0.0008  0.0012  0.0012 </r>
        <r>  0.0008  0.0042  0.0010 </r>
        <r>  0.0000  0.0008  0.0003 </r>
        <r>  0.0005  0.0039  0.0009 </r>
        <r>  0.0000  0.0028  0.0004 </r>
        <r>  0.0001  0.0031  0.0010 </r>
        <r>  0.0006  0.0007  0.0013 </r>
        <r>  0.0010  0.0019  0.0012 </r>
        <r>  0.0007  0.0009  0.0010 </r>
        <r>  0.0017  0.0010  0.0021 </r>
        <r>  0.0006  0.0035  0.0019 </r>
        <r>  0.0011  0.0033  0.0009 </r>
        <r>  0.0004  0.0012  0.0016 </r>
        <r>  0.0013  0.0013  0.0009 </r>
        <r>  0.0010  0.0010  0.0005 </r>
       </set>
       <set comment="band 203">
        <r>  0.0087  0.0020  0.0064 </r>
        <r>  0.0017  0.0013  0.0106 </r>
        <r>  0.0001  0.0008  0.0027 </r>
        <r>  0.0000  0.0005  0.0050 </r>
        <r>  0.0021  0.0002  0.0098 </r>
        <r>  0.0011  0.0012  0.0165 </r>
        <r>  0.0017  0.0001  0.0037 </r>
        <r>  0.0028  0.0008  0.0048 </r>
        <r>  0.0000  0.0037  0.0004 </r>
        <r>  0.0001  0.0038  0.0001 </r>
        <r>  0.0000  0.0023  0.0002 </r>
        <r>  0.0000  0.0044  0.0002 </r>
        <r>  0.0000  0.0080  0.0003 </r>
        <r>  0.0000  0.0024  0.0004 </r>
        <r>  0.0000  0.0055  0.0001 </r>
        <r>  0.0000  0.0244  0.0003 </r>
        <r>  0.0000  0.0068  0.0005 </r>
        <r>  0.0001  0.0019  0.0002 </r>
        <r>  0.0010  0.0016  0.0027 </r>
        <r>  0.0018  0.0019  0.0040 </r>
        <r>  0.0004  0.0010  0.0005 </r>
        <r>  0.0013  0.0055  0.0018 </r>
        <r>  0.0014  0.0019  0.0036 </r>
        <r>  0.0006  0.0019  0.0014 </r>
        <r>  0.0000  0.0016  0.0008 </r>
        <r>  0.0005  0.0004  0.0004 </r>
        <r>  0.0001  0.0016  0.0005 </r>
        <r>  0.0007  0.0015  0.0014 </r>
        <r>  0.0000  0.0007  0.0004 </r>
        <r>  0.0004  0.0007  0.0003 </r>
        <r>  0.0002  0.0012  0.0006 </r>
        <r>  0.0002  0.0017  0.0013 </r>
        <r>  0.0022  0.0004  0.0011 </r>
        <r>  0.0001  0.0035  0.0003 </r>
        <r>  0.0004  0.0019  0.0005 </r>
        <r>  0.0000  0.0008  0.0008 </r>
        <r>  0.0008  0.0042  0.0007 </r>
        <r>  0.0003  0.0028  0.0014 </r>
        <r>  0.0001  0.0022  0.0020 </r>
       </set>
       <set comment="band 204">
        <r>  0.0008  0.0013  0.0233 </r>
        <r>  0.0016  0.0007  0.0154 </r>
        <r>  0.0002  0.0004  0.0108 </r>
        <r>  0.0001  0.0002  0.0108 </r>
        <r>  0.0000  0.0003  0.0087 </r>
        <r>  0.0000  0.0005  0.0180 </r>
        <r>  0.0000  0.0007  0.0054 </r>
        <r>  0.0002  0.0003  0.0141 </r>
        <r>  0.0000  0.0012  0.0002 </r>
        <r>  0.0001  0.0007  0.0001 </r>
        <r>  0.0000  0.0042  0.0006 </r>
        <r>  0.0001  0.0030  0.0008 </r>
        <r>  0.0002  0.0047  0.0005 </r>
        <r>  0.0000  0.0047  0.0009 </r>
        <r>  0.0001  0.0003  0.0004 </r>
        <r>  0.0000  0.0094  0.0011 </r>
        <r>  0.0003  0.0000  0.0008 </r>
        <r>  0.0001  0.0033  0.0014 </r>
        <r>  0.0005  0.0007  0.0011 </r>
        <r>  0.0001  0.0019  0.0019 </r>
        <r>  0.0001  0.0017  0.0007 </r>
        <r>  0.0000  0.0033  0.0013 </r>
        <r>  0.0004  0.0031  0.0021 </r>
        <r>  0.0000  0.0025  0.0016 </r>
        <r>  0.0001  0.0019  0.0021 </r>
        <r>  0.0000  0.0010  0.0007 </r>
        <r>  0.0003  0.0005  0.0013 </r>
        <r>  0.0010  0.0003  0.0013 </r>
        <r>  0.0000  0.0001  0.0016 </r>
        <r>  0.0017  0.0006  0.0012 </r>
        <r>  0.0000  0.0007  0.0015 </r>
        <r>  0.0000  0.0018  0.0011 </r>
        <r>  0.0001  0.0012  0.0006 </r>
        <r>  0.0001  0.0005  0.0009 </r>
        <r>  0.0003  0.0005  0.0004 </r>
        <r>  0.0002  0.0012  0.0005 </r>
        <r>  0.0001  0.0005  0.0013 </r>
        <r>  0.0002  0.0043  0.0017 </r>
        <r>  0.0001  0.0001  0.0019 </r>
       </set>
       <set comment="band 205">
        <r>  0.0023  0.0010  0.0023 </r>
        <r>  0.0066  0.0004  0.0042 </r>
        <r>  0.0008  0.0019  0.0041 </r>
        <r>  0.0015  0.0007  0.0076 </r>
        <r>  0.0004  0.0027  0.0112 </r>
        <r>  0.0029  0.0004  0.0111 </r>
        <r>  0.0029  0.0008  0.0122 </r>
        <r>  0.0010  0.0004  0.0150 </r>
        <r>  0.0000  0.0014  0.0001 </r>
        <r>  0.0000  0.0052  0.0003 </r>
        <r>  0.0000  0.0041  0.0003 </r>
        <r>  0.0000  0.0037  0.0001 </r>
        <r>  0.0000  0.0042  0.0006 </r>
        <r>  0.0000  0.0023  0.0002 </r>
        <r>  0.0000  0.0113  0.0002 </r>
        <r>  0.0000  0.0035  0.0004 </r>
        <r>  0.0007  0.0017  0.0004 </r>
        <r>  0.0003  0.0010  0.0010 </r>
        <r>  0.0030  0.0020  0.0028 </r>
        <r>  0.0001  0.0011  0.0011 </r>
        <r>  0.0007  0.0069  0.0017 </r>
        <r>  0.0013  0.0008  0.0024 </r>
        <r>  0.0012  0.0018  0.0014 </r>
        <r>  0.0000  0.0047  0.0003 </r>
        <r>  0.0005  0.0007  0.0010 </r>
        <r>  0.0012  0.0016  0.0014 </r>
        <r>  0.0009  0.0014  0.0028 </r>
        <r>  0.0013  0.0022  0.0011 </r>
        <r>  0.0009  0.0007  0.0015 </r>
        <r>  0.0003  0.0013  0.0012 </r>
        <r>  0.0002  0.0044  0.0001 </r>
        <r>  0.0000  0.0013  0.0004 </r>
        <r>  0.0001  0.0037  0.0003 </r>
        <r>  0.0005  0.0014  0.0003 </r>
        <r>  0.0006  0.0023  0.0012 </r>
        <r>  0.0009  0.0012  0.0014 </r>
        <r>  0.0010  0.0020  0.0015 </r>
        <r>  0.0005  0.0021  0.0008 </r>
        <r>  0.0002  0.0003  0.0007 </r>
       </set>
       <set comment="band 206">
        <r>  0.0027  0.0001  0.0129 </r>
        <r>  0.0001  0.0001  0.0338 </r>
        <r>  0.0005  0.0007  0.0067 </r>
        <r>  0.0019  0.0004  0.0075 </r>
        <r>  0.0007  0.0011  0.0098 </r>
        <r>  0.0032  0.0012  0.0122 </r>
        <r>  0.0011  0.0006  0.0112 </r>
        <r>  0.0000  0.0002  0.0043 </r>
        <r>  0.0000  0.0038  0.0006 </r>
        <r>  0.0000  0.0016  0.0005 </r>
        <r>  0.0000  0.0087  0.0002 </r>
        <r>  0.0000  0.0131  0.0001 </r>
        <r>  0.0001  0.0015  0.0004 </r>
        <r>  0.0000  0.0049  0.0008 </r>
        <r>  0.0000  0.0043  0.0003 </r>
        <r>  0.0001  0.0004  0.0006 </r>
        <r>  0.0001  0.0023  0.0007 </r>
        <r>  0.0003  0.0009  0.0009 </r>
        <r>  0.0001  0.0032  0.0009 </r>
        <r>  0.0003  0.0031  0.0002 </r>
        <r>  0.0004  0.0002  0.0003 </r>
        <r>  0.0000  0.0014  0.0002 </r>
        <r>  0.0016  0.0014  0.0015 </r>
        <r>  0.0006  0.0008  0.0011 </r>
        <r>  0.0006  0.0013  0.0017 </r>
        <r>  0.0008  0.0013  0.0018 </r>
        <r>  0.0000  0.0029  0.0012 </r>
        <r>  0.0000  0.0036  0.0009 </r>
        <r>  0.0023  0.0004  0.0036 </r>
        <r>  0.0005  0.0018  0.0012 </r>
        <r>  0.0000  0.0032  0.0024 </r>
        <r>  0.0010  0.0016  0.0041 </r>
        <r>  0.0001  0.0012  0.0003 </r>
        <r>  0.0005  0.0013  0.0017 </r>
        <r>  0.0000  0.0003  0.0014 </r>
        <r>  0.0002  0.0010  0.0011 </r>
        <r>  0.0001  0.0004  0.0013 </r>
        <r>  0.0000  0.0016  0.0011 </r>
        <r>  0.0002  0.0005  0.0008 </r>
       </set>
       <set comment="band 207">
        <r>  0.0012  0.0004  0.0183 </r>
        <r>  0.0003  0.0003  0.0217 </r>
        <r>  0.0000  0.0003  0.0072 </r>
        <r>  0.0001  0.0009  0.0329 </r>
        <r>  0.0001  0.0007  0.0136 </r>
        <r>  0.0001  0.0001  0.0037 </r>
        <r>  0.0000  0.0008  0.0184 </r>
        <r>  0.0006  0.0003  0.0096 </r>
        <r>  0.0000  0.0039  0.0001 </r>
        <r>  0.0000  0.0051  0.0008 </r>
        <r>  0.0000  0.0004  0.0009 </r>
        <r>  0.0000  0.0027  0.0001 </r>
        <r>  0.0000  0.0018  0.0006 </r>
        <r>  0.0000  0.0026  0.0001 </r>
        <r>  0.0000  0.0052  0.0002 </r>
        <r>  0.0000  0.0040  0.0005 </r>
        <r>  0.0000  0.0016  0.0009 </r>
        <r>  0.0002  0.0023  0.0009 </r>
        <r>  0.0008  0.0020  0.0014 </r>
        <r>  0.0001  0.0000  0.0022 </r>
        <r>  0.0008  0.0002  0.0013 </r>
        <r>  0.0000  0.0017  0.0003 </r>
        <r>  0.0000  0.0001  0.0005 </r>
        <r>  0.0000  0.0002  0.0001 </r>
        <r>  0.0011  0.0018  0.0031 </r>
        <r>  0.0007  0.0003  0.0020 </r>
        <r>  0.0005  0.0019  0.0023 </r>
        <r>  0.0001  0.0027  0.0002 </r>
        <r>  0.0000  0.0005  0.0015 </r>
        <r>  0.0001  0.0008  0.0026 </r>
        <r>  0.0003  0.0014  0.0036 </r>
        <r>  0.0000  0.0017  0.0003 </r>
        <r>  0.0001  0.0004  0.0018 </r>
        <r>  0.0008  0.0014  0.0041 </r>
        <r>  0.0001  0.0008  0.0006 </r>
        <r>  0.0003  0.0023  0.0012 </r>
        <r>  0.0000  0.0009  0.0020 </r>
        <r>  0.0008  0.0013  0.0007 </r>
        <r>  0.0000  0.0001  0.0004 </r>
       </set>
       <set comment="band 208">
        <r>  0.0003  0.0004  0.0110 </r>
        <r>  0.0005  0.0025  0.0269 </r>
        <r>  0.0031  0.0015  0.0025 </r>
        <r>  0.0000  0.0002  0.0080 </r>
        <r>  0.0000  0.0021  0.0109 </r>
        <r>  0.0065  0.0003  0.0084 </r>
        <r>  0.0003  0.0006  0.0164 </r>
        <r>  0.0001  0.0003  0.0079 </r>
        <r>  0.0000  0.0060  0.0002 </r>
        <r>  0.0000  0.0060  0.0002 </r>
        <r>  0.0001  0.0076  0.0001 </r>
        <r>  0.0001  0.0026  0.0001 </r>
        <r>  0.0000  0.0009  0.0001 </r>
        <r>  0.0001  0.0115  0.0005 </r>
        <r>  0.0000  0.0009  0.0002 </r>
        <r>  0.0001  0.0010  0.0002 </r>
        <r>  0.0000  0.0002  0.0003 </r>
        <r>  0.0003  0.0030  0.0017 </r>
        <r>  0.0001  0.0028  0.0027 </r>
        <r>  0.0005  0.0024  0.0005 </r>
        <r>  0.0001  0.0010  0.0012 </r>
        <r>  0.0002  0.0006  0.0007 </r>
        <r>  0.0001  0.0040  0.0004 </r>
        <r>  0.0014  0.0014  0.0023 </r>
        <r>  0.0006  0.0011  0.0007 </r>
        <r>  0.0002  0.0012  0.0013 </r>
        <r>  0.0002  0.0033  0.0018 </r>
        <r>  0.0008  0.0010  0.0010 </r>
        <r>  0.0038  0.0008  0.0046 </r>
        <r>  0.0001  0.0027  0.0007 </r>
        <r>  0.0003  0.0053  0.0013 </r>
        <r>  0.0009  0.0027  0.0014 </r>
        <r>  0.0001  0.0007  0.0004 </r>
        <r>  0.0001  0.0035  0.0019 </r>
        <r>  0.0000  0.0021  0.0004 </r>
        <r>  0.0011  0.0016  0.0006 </r>
        <r>  0.0015  0.0006  0.0013 </r>
        <r>  0.0001  0.0008  0.0010 </r>
        <r>  0.0001  0.0017  0.0006 </r>
       </set>
      </set>
     </set>
    </set>
   </array>
  </projected>
 </calculation>
 <structure name="finalpos" >
  <crystal>
   <varray name="basis" >
    <v>       8.45648900       0.00000000       8.04030100 </v>
    <v>       0.00000000      11.72984700       0.00000000 </v>
    <v>      -8.45648900       0.00000000       8.04030100 </v>
   </varray>
   <i name="volume">   1595.08833419 </i>
   <varray name="rec_basis" >
    <v>       0.05912619      -0.00000000       0.06218673 </v>
    <v>       0.00000000       0.08525260      -0.00000000 </v>
    <v>      -0.05912619       0.00000000       0.06218673 </v>
   </varray>
  </crystal>
  <varray name="positions" >
   <v>       0.26623100       0.23748300       0.19486100 </v>
   <v>       0.77340200       0.22846600       0.74385800 </v>
   <v>       0.70624600       0.77732400       0.26053000 </v>
   <v>       0.22819400       0.75103600       0.77742000 </v>
   <v>       0.25636100       0.24519300       0.72973500 </v>
   <v>       0.80982800       0.24909000       0.22852000 </v>
   <v>       0.72850500       0.75637800       0.78506500 </v>
   <v>       0.22202000       0.75785100       0.30036300 </v>
   <v>       0.00729900       0.99387000       0.00046600 </v>
   <v>       0.49142100       0.00524400       0.49954100 </v>
   <v>       0.50123200       0.99922200       0.00075700 </v>
   <v>       0.99289100       0.00028600       0.50039700 </v>
   <v>       0.52210900       0.49345200       0.00435400 </v>
   <v>       0.98835000       0.50433600       0.49305300 </v>
   <v>       0.01410600       0.50130300       0.99510500 </v>
   <v>       0.48507400       0.49636400       0.51597800 </v>
   <v>       0.48494000       0.74534700       0.98307100 </v>
   <v>       0.95340800       0.75177900       0.45864900 </v>
   <v>       0.99286400       0.24800200       0.97380500 </v>
   <v>       0.42962600       0.25366000       0.47681000 </v>
   <v>       0.05454200       0.74770000       0.02982600 </v>
   <v>       0.51864900       0.74856600       0.52193000 </v>
   <v>       0.54365900       0.24792100       0.04549200 </v>
   <v>       0.00066900       0.25418200       0.53201900 </v>
   <v>       0.26850700       0.46751500       0.95423000 </v>
   <v>       0.94626000       0.53025700       0.73888200 </v>
   <v>       0.53819600       0.02845200       0.75278500 </v>
   <v>       0.04902400       0.02827700       0.25347200 </v>
   <v>       0.75860200       0.97895300       0.03539300 </v>
   <v>       0.24375100       0.96474800       0.55136700 </v>
   <v>       0.25418500       0.02829800       0.94669800 </v>
   <v>       0.73897800       0.04224900       0.45464700 </v>
   <v>       0.44213800       0.96967000       0.24831100 </v>
   <v>       0.95659600       0.96285600       0.74842500 </v>
   <v>       0.76998900       0.54323600       0.04165900 </v>
   <v>       0.22612300       0.53633500       0.54420500 </v>
   <v>       0.56302400       0.46559200       0.76346300 </v>
   <v>       0.06150700       0.46839900       0.24714700 </v>
   <v>       0.63568200       0.48527500       0.33456400 </v>
  </varray>
 </structure>
</modeling>
