CsPbBr3 cubic bulk                      
           1
     8.456489    0.000000    8.040301
     0.000000   11.729847    0.000000
    -8.456489    0.000000    8.040301
   Cs   Pb   Br
   8   8  23
Direct configuration=     1
   0.26623100  0.23748300  0.19486100
   0.77340200  0.22846600  0.74385800
   0.70624600  0.77732400  0.26053000
   0.22819400  0.75103600  0.77742000
   0.25636100  0.24519300  0.72973500
   0.80982800  0.24909000  0.22852000
   0.72850500  0.75637800  0.78506500
   0.22202000  0.75785100  0.30036300
   0.00729900  0.99387000  0.00046600
   0.49142100  0.00524400  0.49954100
   0.50123200  0.99922200  0.00075700
   0.99289100  0.00028600  0.50039700
   0.52210900  0.49345200  0.00435400
   0.98835000  0.50433600  0.49305300
   0.01410600  0.50130300  0.99510500
   0.48507400  0.49636400  0.51597800
   0.48494000  0.74534700  0.98307100
   0.95340800  0.75177900  0.45864900
   0.99286400  0.24800200  0.97380500
   0.42962600  0.25366000  0.47681000
   0.05454200  0.74770000  0.02982600
   0.51864900  0.74856600  0.52193000
   0.54365900  0.24792100  0.04549200
   0.00066900  0.25418200  0.53201900
   0.26850700  0.46751500  0.95423000
   0.94626000  0.53025700  0.73888200
   0.53819600  0.02845200  0.75278500
   0.04902400  0.02827700  0.25347200
   0.75860200  0.97895300  0.03539300
   0.24375100  0.96474800  0.55136700
   0.25418500  0.02829800  0.94669800
   0.73897800  0.04224900  0.45464700
   0.44213800  0.96967000  0.24831100
   0.95659600  0.96285600  0.74842500
   0.76998900  0.54323600  0.04165900
   0.22612300  0.53633500  0.54420500
   0.56302400  0.46559200  0.76346300
   0.06150700  0.46839900  0.24714700
   0.63568200  0.48527500  0.33456400
