  20  20   1   0
  0.4000644E+02  0.8396970E-09  0.8113860E-09  0.1174383E-08  0.5000000E-15
   1.0000000000000000E-004
  CAR 
 CsPbBr3 cubic bulk                      
      8.63653676    -22.14234103  301      0.55708134      1.00000000
    -22.142  0.0000E+00  0.0000E+00
    -22.040  0.0000E+00  0.0000E+00
    -21.937  0.0000E+00  0.0000E+00
    -21.835  0.0000E+00  0.0000E+00
    -21.732  0.0000E+00  0.0000E+00
    -21.629  0.0000E+00  0.0000E+00
    -21.527  0.0000E+00  0.0000E+00
    -21.424  0.0000E+00  0.0000E+00
    -21.322  0.0000E+00  0.0000E+00
    -21.219  0.0000E+00  0.0000E+00
    -21.116  0.0000E+00  0.0000E+00
    -21.014  0.0000E+00  0.0000E+00
    -20.911  0.0000E+00  0.0000E+00
    -20.809  0.0000E+00  0.0000E+00
    -20.706  0.7797E+02  0.8000E+01
    -20.603  0.0000E+00  0.8000E+01
    -20.501  0.0000E+00  0.8000E+01
    -20.398  0.0000E+00  0.8000E+01
    -20.296  0.0000E+00  0.8000E+01
    -20.193  0.0000E+00  0.8000E+01
    -20.090  0.0000E+00  0.8000E+01
    -19.988  0.0000E+00  0.8000E+01
    -19.885  0.0000E+00  0.8000E+01
    -19.783  0.0000E+00  0.8000E+01
    -19.680  0.0000E+00  0.8000E+01
    -19.577  0.0000E+00  0.8000E+01
    -19.475  0.0000E+00  0.8000E+01
    -19.372  0.0000E+00  0.8000E+01
    -19.270  0.0000E+00  0.8000E+01
    -19.167  0.0000E+00  0.8000E+01
    -19.064  0.0000E+00  0.8000E+01
    -18.962  0.0000E+00  0.8000E+01
    -18.859  0.0000E+00  0.8000E+01
    -18.757  0.0000E+00  0.8000E+01
    -18.654  0.0000E+00  0.8000E+01
    -18.551  0.0000E+00  0.8000E+01
    -18.449  0.0000E+00  0.8000E+01
    -18.346  0.0000E+00  0.8000E+01
    -18.244  0.0000E+00  0.8000E+01
    -18.141  0.0000E+00  0.8000E+01
    -18.038  0.0000E+00  0.8000E+01
    -17.936  0.0000E+00  0.8000E+01
    -17.833  0.0000E+00  0.8000E+01
    -17.731  0.0000E+00  0.8000E+01
    -17.628  0.0000E+00  0.8000E+01
    -17.526  0.0000E+00  0.8000E+01
    -17.423  0.0000E+00  0.8000E+01
    -17.320  0.0000E+00  0.8000E+01
    -17.218  0.0000E+00  0.8000E+01
    -17.115  0.0000E+00  0.8000E+01
    -17.013  0.0000E+00  0.8000E+01
    -16.910  0.0000E+00  0.8000E+01
    -16.807  0.0000E+00  0.8000E+01
    -16.705  0.0000E+00  0.8000E+01
    -16.602  0.0000E+00  0.8000E+01
    -16.500  0.2405E-15  0.8000E+01
    -16.397  0.7630E+02  0.1583E+02
    -16.294  0.5328E+02  0.2447E+02
    -16.192  0.0000E+00  0.4800E+02
    -16.089  0.0000E+00  0.4800E+02
    -15.987  0.0000E+00  0.4800E+02
    -15.884  0.0000E+00  0.4800E+02
    -15.781  0.0000E+00  0.4800E+02
    -15.679  0.0000E+00  0.4800E+02
    -15.576  0.0000E+00  0.4800E+02
    -15.474  0.0000E+00  0.4800E+02
    -15.371  0.0000E+00  0.4800E+02
    -15.268  0.0000E+00  0.4800E+02
    -15.166  0.0000E+00  0.4800E+02
    -15.063  0.0000E+00  0.4800E+02
    -14.961  0.0000E+00  0.4800E+02
    -14.858  0.0000E+00  0.4800E+02
    -14.755  0.0000E+00  0.4800E+02
    -14.653  0.0000E+00  0.4800E+02
    -14.550  0.0000E+00  0.4800E+02
    -14.448  0.0000E+00  0.4800E+02
    -14.345  0.5046E-04  0.4800E+02
    -14.242  0.7568E+01  0.4878E+02
    -14.140  0.2266E+02  0.5110E+02
    -14.037  0.2599E+02  0.5467E+02
    -13.935  0.5190E+02  0.6021E+02
    -13.832  0.4076E+02  0.6563E+02
    -13.729  0.3465E+02  0.7100E+02
    -13.627  0.0000E+00  0.7200E+02
    -13.524  0.0000E+00  0.7200E+02
    -13.422  0.0000E+00  0.7200E+02
    -13.319  0.0000E+00  0.7200E+02
    -13.216  0.0000E+00  0.7200E+02
    -13.114  0.0000E+00  0.7200E+02
    -13.011  0.0000E+00  0.7200E+02
    -12.909  0.0000E+00  0.7200E+02
    -12.806  0.0000E+00  0.7200E+02
    -12.703  0.0000E+00  0.7200E+02
    -12.601  0.0000E+00  0.7200E+02
    -12.498  0.0000E+00  0.7200E+02
    -12.396  0.0000E+00  0.7200E+02
    -12.293  0.0000E+00  0.7200E+02
    -12.191  0.0000E+00  0.7200E+02
    -12.088  0.0000E+00  0.7200E+02
    -11.985  0.0000E+00  0.7200E+02
    -11.883  0.0000E+00  0.7200E+02
    -11.780  0.0000E+00  0.7200E+02
    -11.678  0.0000E+00  0.7200E+02
    -11.575  0.0000E+00  0.7200E+02
    -11.472  0.0000E+00  0.7200E+02
    -11.370  0.0000E+00  0.7200E+02
    -11.267  0.0000E+00  0.7200E+02
    -11.165  0.0000E+00  0.7200E+02
    -11.062  0.0000E+00  0.7200E+02
    -10.959  0.0000E+00  0.7200E+02
    -10.857  0.0000E+00  0.7200E+02
    -10.754  0.0000E+00  0.7200E+02
    -10.652  0.0000E+00  0.7200E+02
    -10.549  0.0000E+00  0.7200E+02
    -10.446  0.0000E+00  0.7200E+02
    -10.344  0.0000E+00  0.7200E+02
    -10.241  0.0000E+00  0.7200E+02
    -10.139  0.0000E+00  0.7200E+02
    -10.036  0.0000E+00  0.7200E+02
     -9.933  0.0000E+00  0.7200E+02
     -9.831  0.0000E+00  0.7200E+02
     -9.728  0.0000E+00  0.7200E+02
     -9.626  0.0000E+00  0.7200E+02
     -9.523  0.0000E+00  0.7200E+02
     -9.420  0.0000E+00  0.7200E+02
     -9.318  0.0000E+00  0.7200E+02
     -9.215  0.0000E+00  0.7200E+02
     -9.113  0.0000E+00  0.7200E+02
     -9.010  0.0000E+00  0.7200E+02
     -8.907  0.0000E+00  0.7200E+02
     -8.805  0.0000E+00  0.7200E+02
     -8.702  0.0000E+00  0.7200E+02
     -8.600  0.0000E+00  0.7200E+02
     -8.497  0.0000E+00  0.7200E+02
     -8.394  0.0000E+00  0.7200E+02
     -8.292  0.0000E+00  0.7200E+02
     -8.189  0.3415E-10  0.7200E+02
     -8.087  0.1083E+01  0.7211E+02
     -7.984  0.5479E-12  0.7211E+02
     -7.881  0.6498E+01  0.7278E+02
     -7.779  0.4330E+01  0.7322E+02
     -7.676  0.8655E+01  0.7411E+02
     -7.574  0.2506E+01  0.7437E+02
     -7.471  0.2389E-01  0.7556E+02
     -7.368  0.6498E+01  0.7644E+02
     -7.266  0.1300E+02  0.7778E+02
     -7.163  0.3998E+02  0.8188E+02
     -7.061  0.1429E+03  0.1028E+03
     -6.958  0.3741E+01  0.1032E+03
     -6.855  0.2990E+01  0.1035E+03
     -6.753  0.0000E+00  0.1039E+03
     -6.650  0.0000E+00  0.1039E+03
     -6.548  0.7855E-09  0.1039E+03
     -6.445  0.1083E+01  0.1040E+03
     -6.343  0.0000E+00  0.1040E+03
     -6.240  0.0000E+00  0.1040E+03
     -6.137  0.0000E+00  0.1040E+03
     -6.035  0.0000E+00  0.1040E+03
     -5.932  0.0000E+00  0.1040E+03
     -5.830  0.0000E+00  0.1040E+03
     -5.727  0.0000E+00  0.1040E+03
     -5.624  0.0000E+00  0.1040E+03
     -5.522  0.0000E+00  0.1040E+03
     -5.419  0.0000E+00  0.1040E+03
     -5.317  0.0000E+00  0.1040E+03
     -5.214  0.0000E+00  0.1040E+03
     -5.111  0.0000E+00  0.1040E+03
     -5.009  0.0000E+00  0.1040E+03
     -4.906  0.0000E+00  0.1040E+03
     -4.804  0.0000E+00  0.1040E+03
     -4.701  0.0000E+00  0.1040E+03
     -4.598  0.0000E+00  0.1040E+03
     -4.496  0.0000E+00  0.1040E+03
     -4.393  0.0000E+00  0.1040E+03
     -4.291  0.0000E+00  0.1040E+03
     -4.188  0.0000E+00  0.1040E+03
     -4.085  0.0000E+00  0.1040E+03
     -3.983  0.0000E+00  0.1040E+03
     -3.880  0.0000E+00  0.1040E+03
     -3.778  0.0000E+00  0.1040E+03
     -3.675  0.0000E+00  0.1040E+03
     -3.572  0.0000E+00  0.1040E+03
     -3.470  0.0000E+00  0.1040E+03
     -3.367  0.0000E+00  0.1040E+03
     -3.265  0.1058E+01  0.1041E+03
     -3.162  0.2168E+02  0.1064E+03
     -3.059  0.1480E+02  0.1082E+03
     -2.957  0.4658E+01  0.1087E+03
     -2.854  0.8664E+01  0.1100E+03
     -2.752  0.2117E+02  0.1122E+03
     -2.649  0.7900E+01  0.1135E+03
     -2.546  0.7455E-14  0.1140E+03
     -2.444  0.1036E+02  0.1151E+03
     -2.341  0.1949E+02  0.1176E+03
     -2.239  0.4332E+01  0.1182E+03
     -2.136  0.1105E+02  0.1194E+03
     -2.033  0.2965E+02  0.1228E+03
     -1.931  0.2791E+02  0.1263E+03
     -1.828  0.8015E+01  0.1272E+03
     -1.726  0.9829E+01  0.1282E+03
     -1.623  0.3664E+02  0.1324E+03
     -1.520  0.7835E+01  0.1346E+03
     -1.418  0.3843E+02  0.1394E+03
     -1.315  0.7239E+02  0.1474E+03
     -1.213  0.5286E+02  0.1541E+03
     -1.110  0.4380E+02  0.1596E+03
     -1.008  0.4696E+02  0.1670E+03
     -0.905  0.5414E+01  0.1680E+03
     -0.802  0.8896E+01  0.1689E+03
     -0.700  0.1083E+02  0.1710E+03
     -0.597  0.1017E+02  0.1720E+03
     -0.495  0.1495E+02  0.1740E+03
     -0.392  0.5646E-06  0.1742E+03
     -0.289  0.4332E+01  0.1747E+03
     -0.187  0.5170E-14  0.1747E+03
     -0.084  0.3230E+01  0.1750E+03
      0.018  0.8091E+01  0.1758E+03
      0.121  0.0000E+00  0.1759E+03
      0.224  0.0000E+00  0.1759E+03
      0.326  0.0000E+00  0.1759E+03
      0.429  0.2369E-13  0.1759E+03
      0.531  0.1083E+01  0.1760E+03
      0.634  0.0000E+00  0.1760E+03
      0.737  0.0000E+00  0.1760E+03
      0.839  0.0000E+00  0.1760E+03
      0.942  0.0000E+00  0.1760E+03
      1.044  0.0000E+00  0.1760E+03
      1.147  0.0000E+00  0.1760E+03
      1.250  0.0000E+00  0.1760E+03
      1.352  0.0000E+00  0.1760E+03
      1.455  0.0000E+00  0.1760E+03
      1.557  0.0000E+00  0.1760E+03
      1.660  0.0000E+00  0.1760E+03
      1.763  0.0000E+00  0.1760E+03
      1.865  0.0000E+00  0.1760E+03
      1.968  0.0000E+00  0.1760E+03
      2.070  0.0000E+00  0.1760E+03
      2.173  0.0000E+00  0.1760E+03
      2.276  0.0000E+00  0.1760E+03
      2.378  0.0000E+00  0.1760E+03
      2.481  0.0000E+00  0.1760E+03
      2.583  0.0000E+00  0.1760E+03
      2.686  0.0000E+00  0.1760E+03
      2.789  0.1083E+01  0.1761E+03
      2.891  0.1158E+01  0.1762E+03
      2.994  0.3550E+01  0.1767E+03
      3.096  0.5229E+01  0.1775E+03
      3.199  0.1083E+01  0.1782E+03
      3.302  0.1249E+02  0.1795E+03
      3.404  0.5415E+01  0.1801E+03
      3.507  0.4043E+01  0.1805E+03
      3.609  0.3249E+01  0.1809E+03
      3.712  0.4332E+01  0.1813E+03
      3.815  0.8393E+01  0.1822E+03
      3.917  0.5103E+01  0.1830E+03
      4.020  0.1317E+01  0.1841E+03
      4.122  0.1083E+02  0.1853E+03
      4.225  0.2165E+01  0.1856E+03
      4.327  0.4333E+01  0.1860E+03
      4.430  0.2165E+01  0.1862E+03
      4.533  0.8664E+01  0.1871E+03
      4.635  0.8664E+01  0.1880E+03
      4.738  0.8673E+01  0.1889E+03
      4.840  0.4330E+01  0.1898E+03
      4.943  0.6775E+01  0.1905E+03
      5.046  0.3204E-03  0.1906E+03
      5.148  0.1504E+02  0.1921E+03
      5.251  0.7619E+01  0.1931E+03
      5.353  0.1516E+02  0.1950E+03
      5.456  0.4314E+01  0.1954E+03
      5.559  0.6395E-05  0.1954E+03
      5.661  0.6498E+01  0.1961E+03
      5.764  0.1139E+01  0.1962E+03
      5.866  0.1344E+02  0.1978E+03
      5.969  0.1140E+01  0.1982E+03
      6.072  0.8808E+01  0.1996E+03
      6.174  0.1513E+02  0.2014E+03
      6.277  0.1035E+02  0.2027E+03
      6.379  0.1781E+02  0.2047E+03
      6.482  0.1780E+02  0.2072E+03
      6.585  0.1336E+02  0.2096E+03
      6.687  0.2407E+02  0.2122E+03
      6.790  0.2143E+02  0.2145E+03
      6.892  0.1775E+02  0.2176E+03
      6.995  0.2009E+02  0.2203E+03
      7.098  0.1617E+02  0.2231E+03
      7.200  0.3247E-06  0.2236E+03
      7.303  0.4332E+01  0.2240E+03
      7.405  0.0000E+00  0.2240E+03
      7.508  0.0000E+00  0.2240E+03
      7.611  0.0000E+00  0.2240E+03
      7.713  0.0000E+00  0.2240E+03
      7.816  0.0000E+00  0.2240E+03
      7.918  0.0000E+00  0.2240E+03
      8.021  0.0000E+00  0.2240E+03
      8.124  0.0000E+00  0.2240E+03
      8.226  0.0000E+00  0.2240E+03
      8.329  0.0000E+00  0.2240E+03
      8.431  0.0000E+00  0.2240E+03
      8.534  0.0000E+00  0.2240E+03
      8.637  0.0000E+00  0.2240E+03
      8.63653676    -22.14234103  301      0.55708134      1.00000000
    -22.142  0.0000E+00  0.0000E+00  0.0000E+00
    -22.040  0.0000E+00  0.0000E+00  0.0000E+00
    -21.937  0.0000E+00  0.0000E+00  0.0000E+00
    -21.835  0.0000E+00  0.0000E+00  0.0000E+00
    -21.732  0.0000E+00  0.0000E+00  0.0000E+00
    -21.629  0.0000E+00  0.0000E+00  0.0000E+00
    -21.527  0.0000E+00  0.0000E+00  0.0000E+00
    -21.424  0.0000E+00  0.0000E+00  0.0000E+00
    -21.322  0.0000E+00  0.0000E+00  0.0000E+00
    -21.219  0.0000E+00  0.0000E+00  0.0000E+00
    -21.116  0.0000E+00  0.0000E+00  0.0000E+00
    -21.014  0.0000E+00  0.0000E+00  0.0000E+00
    -20.911  0.0000E+00  0.0000E+00  0.0000E+00
    -20.809  0.0000E+00  0.0000E+00  0.0000E+00
    -20.706  0.1730E+02  0.4573E-05  0.2292E-05
    -20.603  0.0000E+00  0.0000E+00  0.0000E+00
    -20.501  0.0000E+00  0.0000E+00  0.0000E+00
    -20.398  0.0000E+00  0.0000E+00  0.0000E+00
    -20.296  0.0000E+00  0.0000E+00  0.0000E+00
    -20.193  0.0000E+00  0.0000E+00  0.0000E+00
    -20.090  0.0000E+00  0.0000E+00  0.0000E+00
    -19.988  0.0000E+00  0.0000E+00  0.0000E+00
    -19.885  0.0000E+00  0.0000E+00  0.0000E+00
    -19.783  0.0000E+00  0.0000E+00  0.0000E+00
    -19.680  0.0000E+00  0.0000E+00  0.0000E+00
    -19.577  0.0000E+00  0.0000E+00  0.0000E+00
    -19.475  0.0000E+00  0.0000E+00  0.0000E+00
    -19.372  0.0000E+00  0.0000E+00  0.0000E+00
    -19.270  0.0000E+00  0.0000E+00  0.0000E+00
    -19.167  0.0000E+00  0.0000E+00  0.0000E+00
    -19.064  0.0000E+00  0.0000E+00  0.0000E+00
    -18.962  0.0000E+00  0.0000E+00  0.0000E+00
    -18.859  0.0000E+00  0.0000E+00  0.0000E+00
    -18.757  0.0000E+00  0.0000E+00  0.0000E+00
    -18.654  0.0000E+00  0.0000E+00  0.0000E+00
    -18.551  0.0000E+00  0.0000E+00  0.0000E+00
    -18.449  0.0000E+00  0.0000E+00  0.0000E+00
    -18.346  0.0000E+00  0.0000E+00  0.0000E+00
    -18.244  0.0000E+00  0.0000E+00  0.0000E+00
    -18.141  0.0000E+00  0.0000E+00  0.0000E+00
    -18.038  0.0000E+00  0.0000E+00  0.0000E+00
    -17.936  0.0000E+00  0.0000E+00  0.0000E+00
    -17.833  0.0000E+00  0.0000E+00  0.0000E+00
    -17.731  0.0000E+00  0.0000E+00  0.0000E+00
    -17.628  0.0000E+00  0.0000E+00  0.0000E+00
    -17.526  0.0000E+00  0.0000E+00  0.0000E+00
    -17.423  0.0000E+00  0.0000E+00  0.0000E+00
    -17.320  0.0000E+00  0.0000E+00  0.0000E+00
    -17.218  0.0000E+00  0.0000E+00  0.0000E+00
    -17.115  0.0000E+00  0.0000E+00  0.0000E+00
    -17.013  0.0000E+00  0.0000E+00  0.0000E+00
    -16.910  0.0000E+00  0.0000E+00  0.0000E+00
    -16.807  0.0000E+00  0.0000E+00  0.0000E+00
    -16.705  0.0000E+00  0.0000E+00  0.0000E+00
    -16.602  0.0000E+00  0.0000E+00  0.0000E+00
    -16.500  0.2275E-22  0.5895E-21  0.6976E-22
    -16.397  0.1113E-03  0.7354E-04  0.1691E-04
    -16.294  0.1177E-04  0.2536E-04  0.2559E-05
    -16.192  0.0000E+00  0.0000E+00  0.0000E+00
    -16.089  0.0000E+00  0.0000E+00  0.0000E+00
    -15.987  0.0000E+00  0.0000E+00  0.0000E+00
    -15.884  0.0000E+00  0.0000E+00  0.0000E+00
    -15.781  0.0000E+00  0.0000E+00  0.0000E+00
    -15.679  0.0000E+00  0.0000E+00  0.0000E+00
    -15.576  0.0000E+00  0.0000E+00  0.0000E+00
    -15.474  0.0000E+00  0.0000E+00  0.0000E+00
    -15.371  0.0000E+00  0.0000E+00  0.0000E+00
    -15.268  0.0000E+00  0.0000E+00  0.0000E+00
    -15.166  0.0000E+00  0.0000E+00  0.0000E+00
    -15.063  0.0000E+00  0.0000E+00  0.0000E+00
    -14.961  0.0000E+00  0.0000E+00  0.0000E+00
    -14.858  0.0000E+00  0.0000E+00  0.0000E+00
    -14.755  0.0000E+00  0.0000E+00  0.0000E+00
    -14.653  0.0000E+00  0.0000E+00  0.0000E+00
    -14.550  0.0000E+00  0.0000E+00  0.0000E+00
    -14.448  0.0000E+00  0.0000E+00  0.0000E+00
    -14.345  0.2257E-07  0.1491E-09  0.2614E-10
    -14.242  0.2452E-02  0.5678E-03  0.1084E-04
    -14.140  0.3755E-02  0.3485E-02  0.9084E-04
    -14.037  0.5428E-03  0.5033E-02  0.2286E-03
    -13.935  0.2657E-02  0.6149E-02  0.5434E-03
    -13.832  0.1173E-02  0.4297E-02  0.4563E-03
    -13.729  0.1093E-02  0.2394E-02  0.3495E-03
    -13.627  0.0000E+00  0.0000E+00  0.0000E+00
    -13.524  0.0000E+00  0.0000E+00  0.0000E+00
    -13.422  0.0000E+00  0.0000E+00  0.0000E+00
    -13.319  0.0000E+00  0.0000E+00  0.0000E+00
    -13.216  0.0000E+00  0.0000E+00  0.0000E+00
    -13.114  0.0000E+00  0.0000E+00  0.0000E+00
    -13.011  0.0000E+00  0.0000E+00  0.0000E+00
    -12.909  0.0000E+00  0.0000E+00  0.0000E+00
    -12.806  0.0000E+00  0.0000E+00  0.0000E+00
    -12.703  0.0000E+00  0.0000E+00  0.0000E+00
    -12.601  0.0000E+00  0.0000E+00  0.0000E+00
    -12.498  0.0000E+00  0.0000E+00  0.0000E+00
    -12.396  0.0000E+00  0.0000E+00  0.0000E+00
    -12.293  0.0000E+00  0.0000E+00  0.0000E+00
    -12.191  0.0000E+00  0.0000E+00  0.0000E+00
    -12.088  0.0000E+00  0.0000E+00  0.0000E+00
    -11.985  0.0000E+00  0.0000E+00  0.0000E+00
    -11.883  0.0000E+00  0.0000E+00  0.0000E+00
    -11.780  0.0000E+00  0.0000E+00  0.0000E+00
    -11.678  0.0000E+00  0.0000E+00  0.0000E+00
    -11.575  0.0000E+00  0.0000E+00  0.0000E+00
    -11.472  0.0000E+00  0.0000E+00  0.0000E+00
    -11.370  0.0000E+00  0.0000E+00  0.0000E+00
    -11.267  0.0000E+00  0.0000E+00  0.0000E+00
    -11.165  0.0000E+00  0.0000E+00  0.0000E+00
    -11.062  0.0000E+00  0.0000E+00  0.0000E+00
    -10.959  0.0000E+00  0.0000E+00  0.0000E+00
    -10.857  0.0000E+00  0.0000E+00  0.0000E+00
    -10.754  0.0000E+00  0.0000E+00  0.0000E+00
    -10.652  0.0000E+00  0.0000E+00  0.0000E+00
    -10.549  0.0000E+00  0.0000E+00  0.0000E+00
    -10.446  0.0000E+00  0.0000E+00  0.0000E+00
    -10.344  0.0000E+00  0.0000E+00  0.0000E+00
    -10.241  0.0000E+00  0.0000E+00  0.0000E+00
    -10.139  0.0000E+00  0.0000E+00  0.0000E+00
    -10.036  0.0000E+00  0.0000E+00  0.0000E+00
     -9.933  0.0000E+00  0.0000E+00  0.0000E+00
     -9.831  0.0000E+00  0.0000E+00  0.0000E+00
     -9.728  0.0000E+00  0.0000E+00  0.0000E+00
     -9.626  0.0000E+00  0.0000E+00  0.0000E+00
     -9.523  0.0000E+00  0.0000E+00  0.0000E+00
     -9.420  0.0000E+00  0.0000E+00  0.0000E+00
     -9.318  0.0000E+00  0.0000E+00  0.0000E+00
     -9.215  0.0000E+00  0.0000E+00  0.0000E+00
     -9.113  0.0000E+00  0.0000E+00  0.0000E+00
     -9.010  0.0000E+00  0.0000E+00  0.0000E+00
     -8.907  0.0000E+00  0.0000E+00  0.0000E+00
     -8.805  0.0000E+00  0.0000E+00  0.0000E+00
     -8.702  0.0000E+00  0.0000E+00  0.0000E+00
     -8.600  0.0000E+00  0.0000E+00  0.0000E+00
     -8.497  0.0000E+00  0.0000E+00  0.0000E+00
     -8.394  0.0000E+00  0.0000E+00  0.0000E+00
     -8.292  0.0000E+00  0.0000E+00  0.0000E+00
     -8.189  0.2157E-27  0.1974E-16  0.1944E-15
     -8.087  0.6841E-17  0.6261E-06  0.6165E-05
     -7.984  0.1603E-31  0.5428E-15  0.1669E-17
     -7.881  0.1581E-06  0.5076E-02  0.3246E-04
     -7.779  0.3145E-17  0.7449E-02  0.1766E-04
     -7.676  0.1121E-04  0.2204E-01  0.4223E-04
     -7.574  0.1497E-05  0.1491E-01  0.9422E-05
     -7.471  0.5502E-14  0.2410E-03  0.8333E-07
     -7.368  0.1100E-04  0.7539E-01  0.3972E-04
     -7.266  0.4766E-04  0.3412E+00  0.6082E-04
     -7.163  0.5700E-04  0.7254E+01  0.5123E-04
     -7.061  0.3997E-04  0.2409E+02  0.7083E-04
     -6.958  0.2585E-04  0.7626E-01  0.1775E-04
     -6.855  0.2584E-04  0.2033E-01  0.1589E-04
     -6.753  0.0000E+00  0.0000E+00  0.0000E+00
     -6.650  0.0000E+00  0.0000E+00  0.0000E+00
     -6.548  0.1001E-13  0.2176E-11  0.5324E-15
     -6.445  0.1380E-04  0.3000E-02  0.7339E-06
     -6.343  0.0000E+00  0.0000E+00  0.0000E+00
     -6.240  0.0000E+00  0.0000E+00  0.0000E+00
     -6.137  0.0000E+00  0.0000E+00  0.0000E+00
     -6.035  0.0000E+00  0.0000E+00  0.0000E+00
     -5.932  0.0000E+00  0.0000E+00  0.0000E+00
     -5.830  0.0000E+00  0.0000E+00  0.0000E+00
     -5.727  0.0000E+00  0.0000E+00  0.0000E+00
     -5.624  0.0000E+00  0.0000E+00  0.0000E+00
     -5.522  0.0000E+00  0.0000E+00  0.0000E+00
     -5.419  0.0000E+00  0.0000E+00  0.0000E+00
     -5.317  0.0000E+00  0.0000E+00  0.0000E+00
     -5.214  0.0000E+00  0.0000E+00  0.0000E+00
     -5.111  0.0000E+00  0.0000E+00  0.0000E+00
     -5.009  0.0000E+00  0.0000E+00  0.0000E+00
     -4.906  0.0000E+00  0.0000E+00  0.0000E+00
     -4.804  0.0000E+00  0.0000E+00  0.0000E+00
     -4.701  0.0000E+00  0.0000E+00  0.0000E+00
     -4.598  0.0000E+00  0.0000E+00  0.0000E+00
     -4.496  0.0000E+00  0.0000E+00  0.0000E+00
     -4.393  0.0000E+00  0.0000E+00  0.0000E+00
     -4.291  0.0000E+00  0.0000E+00  0.0000E+00
     -4.188  0.0000E+00  0.0000E+00  0.0000E+00
     -4.085  0.0000E+00  0.0000E+00  0.0000E+00
     -3.983  0.0000E+00  0.0000E+00  0.0000E+00
     -3.880  0.0000E+00  0.0000E+00  0.0000E+00
     -3.778  0.0000E+00  0.0000E+00  0.0000E+00
     -3.675  0.0000E+00  0.0000E+00  0.0000E+00
     -3.572  0.0000E+00  0.0000E+00  0.0000E+00
     -3.470  0.0000E+00  0.0000E+00  0.0000E+00
     -3.367  0.0000E+00  0.0000E+00  0.0000E+00
     -3.265  0.2524E-06  0.1945E-02  0.1165E-04
     -3.162  0.1698E-03  0.2453E-01  0.2079E-02
     -3.059  0.7025E-04  0.9044E-02  0.1374E-02
     -2.957  0.1377E-04  0.1553E-02  0.3560E-03
     -2.854  0.2435E-03  0.1337E-01  0.7265E-03
     -2.752  0.5581E-03  0.2341E-01  0.2201E-02
     -2.649  0.4324E-03  0.1007E-01  0.9269E-03
     -2.546  0.4365E-18  0.1306E-16  0.8403E-18
     -2.444  0.8150E-03  0.1924E-01  0.1038E-02
     -2.341  0.1478E-02  0.1513E-01  0.3044E-02
     -2.239  0.7802E-03  0.2879E-02  0.4123E-03
     -2.136  0.3305E-02  0.1789E-01  0.1196E-02
     -2.033  0.1763E-01  0.3443E-01  0.5801E-02
     -1.931  0.2283E-01  0.4866E-01  0.5168E-02
     -1.828  0.1047E-02  0.4006E-01  0.1127E-02
     -1.726  0.1312E-02  0.5833E-01  0.2697E-02
     -1.623  0.3822E-02  0.1509E+00  0.1297E-01
     -1.520  0.5541E-03  0.2818E-01  0.2202E-02
     -1.418  0.4510E-02  0.6914E-01  0.1539E-01
     -1.315  0.5087E-02  0.9671E-01  0.2781E-01
     -1.213  0.5520E-02  0.7073E-01  0.1747E-01
     -1.110  0.2117E-02  0.7793E-01  0.1239E-01
     -1.008  0.1408E-02  0.7595E-01  0.1413E-01
     -0.905  0.2713E-03  0.8544E-02  0.1556E-02
     -0.802  0.1392E-03  0.1230E-01  0.3356E-02
     -0.700  0.5348E-03  0.1136E-01  0.2157E-02
     -0.597  0.6739E-03  0.5059E-02  0.1111E-02
     -0.495  0.4094E-03  0.5014E-02  0.1452E-02
     -0.392  0.3577E-22  0.2020E-09  0.7818E-10
     -0.289  0.2914E-15  0.1701E-02  0.5482E-03
     -0.187  0.3461E-20  0.1683E-17  0.8387E-18
     -0.084  0.7250E-06  0.4818E-03  0.4317E-03
      0.018  0.1190E-06  0.1385E-02  0.8309E-03
      0.121  0.0000E+00  0.0000E+00  0.0000E+00
      0.224  0.0000E+00  0.0000E+00  0.0000E+00
      0.326  0.0000E+00  0.0000E+00  0.0000E+00
      0.429  0.1892E-30  0.3093E-18  0.1700E-17
      0.531  0.8650E-17  0.1414E-04  0.7775E-04
      0.634  0.0000E+00  0.0000E+00  0.0000E+00
      0.737  0.0000E+00  0.0000E+00  0.0000E+00
      0.839  0.0000E+00  0.0000E+00  0.0000E+00
      0.942  0.0000E+00  0.0000E+00  0.0000E+00
      1.044  0.0000E+00  0.0000E+00  0.0000E+00
      1.147  0.0000E+00  0.0000E+00  0.0000E+00
      1.250  0.0000E+00  0.0000E+00  0.0000E+00
      1.352  0.0000E+00  0.0000E+00  0.0000E+00
      1.455  0.0000E+00  0.0000E+00  0.0000E+00
      1.557  0.0000E+00  0.0000E+00  0.0000E+00
      1.660  0.0000E+00  0.0000E+00  0.0000E+00
      1.763  0.0000E+00  0.0000E+00  0.0000E+00
      1.865  0.0000E+00  0.0000E+00  0.0000E+00
      1.968  0.0000E+00  0.0000E+00  0.0000E+00
      2.070  0.0000E+00  0.0000E+00  0.0000E+00
      2.173  0.0000E+00  0.0000E+00  0.0000E+00
      2.276  0.0000E+00  0.0000E+00  0.0000E+00
      2.378  0.0000E+00  0.0000E+00  0.0000E+00
      2.481  0.0000E+00  0.0000E+00  0.0000E+00
      2.583  0.0000E+00  0.0000E+00  0.0000E+00
      2.686  0.0000E+00  0.0000E+00  0.0000E+00
      2.789  0.1234E-12  0.2071E-04  0.8571E-03
      2.891  0.3043E-04  0.1773E-03  0.6815E-03
      2.994  0.4369E-03  0.5013E-03  0.1685E-02
      3.096  0.3733E-03  0.1116E-02  0.1901E-02
      3.199  0.2491E-03  0.1886E-03  0.3664E-03
      3.302  0.7726E-03  0.4391E-02  0.3950E-02
      3.404  0.3194E-03  0.1812E-02  0.1095E-02
      3.507  0.5651E-03  0.1395E-02  0.1409E-02
      3.609  0.9354E-06  0.7647E-03  0.1547E-02
      3.712  0.2894E-08  0.6361E-03  0.4722E-02
      3.815  0.7428E-03  0.1778E-02  0.7119E-02
      3.917  0.5243E-03  0.1593E-02  0.3149E-02
      4.020  0.1518E-03  0.2332E-03  0.7168E-03
      4.122  0.8257E-03  0.4485E-02  0.3328E-02
      4.225  0.1680E-03  0.9256E-03  0.5272E-03
      4.327  0.7158E-03  0.1542E-02  0.1431E-02
      4.430  0.2316E-04  0.2949E-03  0.3170E-02
      4.533  0.8052E-03  0.2782E-02  0.1023E-01
      4.635  0.1084E-02  0.2270E-02  0.6608E-02
      4.738  0.9591E-03  0.3600E-02  0.4643E-02
      4.840  0.1326E-02  0.1768E-02  0.2203E-02
      4.943  0.4688E-02  0.1243E-02  0.1038E-01
      5.046  0.9700E-15  0.5575E-07  0.3498E-06
      5.148  0.9940E-03  0.4869E-02  0.1990E-01
      5.251  0.1516E-01  0.4985E-02  0.8835E-02
      5.353  0.1520E-01  0.1296E-01  0.1063E-01
      5.456  0.1784E-02  0.5374E-03  0.6598E-02
      5.559  0.4079E-21  0.1698E-09  0.1915E-07
      5.661  0.1868E-01  0.3662E-02  0.1305E-01
      5.764  0.2811E-03  0.1178E-03  0.2182E-02
      5.866  0.9121E-02  0.2730E-02  0.2507E-01
      5.969  0.9049E-03  0.6172E-03  0.2154E-02
      6.072  0.6661E-02  0.3510E-02  0.2482E-01
      6.174  0.7484E-01  0.1366E-01  0.1571E+00
      6.277  0.4391E-02  0.3728E-02  0.1339E+00
      6.379  0.6877E-01  0.3171E-01  0.3167E+00
      6.482  0.2523E-01  0.2509E-01  0.4695E+00
      6.585  0.1438E-01  0.9975E-02  0.3604E+00
      6.687  0.5579E-01  0.3999E-01  0.6073E+00
      6.790  0.2796E-01  0.3256E-01  0.5931E+00
      6.892  0.1218E-01  0.3175E-01  0.5379E+00
      6.995  0.1659E-01  0.3380E-01  0.6641E+00
      7.098  0.1294E-01  0.4735E-01  0.4017E+00
      7.200  0.1151E-10  0.3630E-09  0.1282E-07
      7.303  0.1471E-03  0.4677E-02  0.1590E+00
      7.405  0.0000E+00  0.0000E+00  0.0000E+00
      7.508  0.0000E+00  0.0000E+00  0.0000E+00
      7.611  0.0000E+00  0.0000E+00  0.0000E+00
      7.713  0.0000E+00  0.0000E+00  0.0000E+00
      7.816  0.0000E+00  0.0000E+00  0.0000E+00
      7.918  0.0000E+00  0.0000E+00  0.0000E+00
      8.021  0.0000E+00  0.0000E+00  0.0000E+00
      8.124  0.0000E+00  0.0000E+00  0.0000E+00
      8.226  0.0000E+00  0.0000E+00  0.0000E+00
      8.329  0.0000E+00  0.0000E+00  0.0000E+00
      8.431  0.0000E+00  0.0000E+00  0.0000E+00
      8.534  0.0000E+00  0.0000E+00  0.0000E+00
      8.637  0.0000E+00  0.0000E+00  0.0000E+00
      8.63653676    -22.14234103  301      0.55708134      1.00000000
    -22.142  0.0000E+00  0.0000E+00  0.0000E+00
    -22.040  0.0000E+00  0.0000E+00  0.0000E+00
    -21.937  0.0000E+00  0.0000E+00  0.0000E+00
    -21.835  0.0000E+00  0.0000E+00  0.0000E+00
    -21.732  0.0000E+00  0.0000E+00  0.0000E+00
    -21.629  0.0000E+00  0.0000E+00  0.0000E+00
    -21.527  0.0000E+00  0.0000E+00  0.0000E+00
    -21.424  0.0000E+00  0.0000E+00  0.0000E+00
    -21.322  0.0000E+00  0.0000E+00  0.0000E+00
    -21.219  0.0000E+00  0.0000E+00  0.0000E+00
    -21.116  0.0000E+00  0.0000E+00  0.0000E+00
    -21.014  0.0000E+00  0.0000E+00  0.0000E+00
    -20.911  0.0000E+00  0.0000E+00  0.0000E+00
    -20.809  0.0000E+00  0.0000E+00  0.0000E+00
    -20.706  0.1730E+02  0.4557E-05  0.2292E-05
    -20.603  0.0000E+00  0.0000E+00  0.0000E+00
    -20.501  0.0000E+00  0.0000E+00  0.0000E+00
    -20.398  0.0000E+00  0.0000E+00  0.0000E+00
    -20.296  0.0000E+00  0.0000E+00  0.0000E+00
    -20.193  0.0000E+00  0.0000E+00  0.0000E+00
    -20.090  0.0000E+00  0.0000E+00  0.0000E+00
    -19.988  0.0000E+00  0.0000E+00  0.0000E+00
    -19.885  0.0000E+00  0.0000E+00  0.0000E+00
    -19.783  0.0000E+00  0.0000E+00  0.0000E+00
    -19.680  0.0000E+00  0.0000E+00  0.0000E+00
    -19.577  0.0000E+00  0.0000E+00  0.0000E+00
    -19.475  0.0000E+00  0.0000E+00  0.0000E+00
    -19.372  0.0000E+00  0.0000E+00  0.0000E+00
    -19.270  0.0000E+00  0.0000E+00  0.0000E+00
    -19.167  0.0000E+00  0.0000E+00  0.0000E+00
    -19.064  0.0000E+00  0.0000E+00  0.0000E+00
    -18.962  0.0000E+00  0.0000E+00  0.0000E+00
    -18.859  0.0000E+00  0.0000E+00  0.0000E+00
    -18.757  0.0000E+00  0.0000E+00  0.0000E+00
    -18.654  0.0000E+00  0.0000E+00  0.0000E+00
    -18.551  0.0000E+00  0.0000E+00  0.0000E+00
    -18.449  0.0000E+00  0.0000E+00  0.0000E+00
    -18.346  0.0000E+00  0.0000E+00  0.0000E+00
    -18.244  0.0000E+00  0.0000E+00  0.0000E+00
    -18.141  0.0000E+00  0.0000E+00  0.0000E+00
    -18.038  0.0000E+00  0.0000E+00  0.0000E+00
    -17.936  0.0000E+00  0.0000E+00  0.0000E+00
    -17.833  0.0000E+00  0.0000E+00  0.0000E+00
    -17.731  0.0000E+00  0.0000E+00  0.0000E+00
    -17.628  0.0000E+00  0.0000E+00  0.0000E+00
    -17.526  0.0000E+00  0.0000E+00  0.0000E+00
    -17.423  0.0000E+00  0.0000E+00  0.0000E+00
    -17.320  0.0000E+00  0.0000E+00  0.0000E+00
    -17.218  0.0000E+00  0.0000E+00  0.0000E+00
    -17.115  0.0000E+00  0.0000E+00  0.0000E+00
    -17.013  0.0000E+00  0.0000E+00  0.0000E+00
    -16.910  0.0000E+00  0.0000E+00  0.0000E+00
    -16.807  0.0000E+00  0.0000E+00  0.0000E+00
    -16.705  0.0000E+00  0.0000E+00  0.0000E+00
    -16.602  0.0000E+00  0.0000E+00  0.0000E+00
    -16.500  0.2275E-22  0.5895E-21  0.6976E-22
    -16.397  0.1112E-03  0.7353E-04  0.1691E-04
    -16.294  0.1176E-04  0.2536E-04  0.2559E-05
    -16.192  0.0000E+00  0.0000E+00  0.0000E+00
    -16.089  0.0000E+00  0.0000E+00  0.0000E+00
    -15.987  0.0000E+00  0.0000E+00  0.0000E+00
    -15.884  0.0000E+00  0.0000E+00  0.0000E+00
    -15.781  0.0000E+00  0.0000E+00  0.0000E+00
    -15.679  0.0000E+00  0.0000E+00  0.0000E+00
    -15.576  0.0000E+00  0.0000E+00  0.0000E+00
    -15.474  0.0000E+00  0.0000E+00  0.0000E+00
    -15.371  0.0000E+00  0.0000E+00  0.0000E+00
    -15.268  0.0000E+00  0.0000E+00  0.0000E+00
    -15.166  0.0000E+00  0.0000E+00  0.0000E+00
    -15.063  0.0000E+00  0.0000E+00  0.0000E+00
    -14.961  0.0000E+00  0.0000E+00  0.0000E+00
    -14.858  0.0000E+00  0.0000E+00  0.0000E+00
    -14.755  0.0000E+00  0.0000E+00  0.0000E+00
    -14.653  0.0000E+00  0.0000E+00  0.0000E+00
    -14.550  0.0000E+00  0.0000E+00  0.0000E+00
    -14.448  0.0000E+00  0.0000E+00  0.0000E+00
    -14.345  0.2257E-07  0.1491E-09  0.2614E-10
    -14.242  0.2452E-02  0.5678E-03  0.1084E-04
    -14.140  0.3754E-02  0.3485E-02  0.9084E-04
    -14.037  0.5428E-03  0.5033E-02  0.2286E-03
    -13.935  0.2656E-02  0.6148E-02  0.5434E-03
    -13.832  0.1173E-02  0.4296E-02  0.4563E-03
    -13.729  0.1093E-02  0.2394E-02  0.3495E-03
    -13.627  0.0000E+00  0.0000E+00  0.0000E+00
    -13.524  0.0000E+00  0.0000E+00  0.0000E+00
    -13.422  0.0000E+00  0.0000E+00  0.0000E+00
    -13.319  0.0000E+00  0.0000E+00  0.0000E+00
    -13.216  0.0000E+00  0.0000E+00  0.0000E+00
    -13.114  0.0000E+00  0.0000E+00  0.0000E+00
    -13.011  0.0000E+00  0.0000E+00  0.0000E+00