 running on   64 total cores
 distrk:  each k-point on   64 cores,    1 groups
 distr:  one band on    8 cores,    8 groups
 using from now: INCAR     
 vasp.5.4.4.18Apr17-6-g9f103f2a35 (build Jun 22 2020 09:27:21) complex           
 POSCAR found type information on POSCAR  Cs Pb Br
 POSCAR found :  3 types and      20 ions
 scaLAPACK will be used
 LDA part: xc-table for Pade appr. of Perdew
 POSCAR found type information on POSCAR  Cs Pb Br
 POSCAR found :  3 types and      20 ions
 POSCAR, INCAR and KPOINTS ok, starting setup
 FFT: planning ...
 WAVECAR not read
 WARNING: random wavefunctions but no delay for mixing, default for NELMDL
 entering main loop
       N       E                     dE             d eps       ncg     rms          rms(c)
DAV:   1     0.657630059046E+03    0.65763E+03   -0.56107E+04  2328   0.923E+02
DAV:   2    -0.574977875820E+03   -0.12326E+04   -0.11773E+04  2720   0.285E+02
DAV:   3    -0.748979232305E+03   -0.17400E+03   -0.17287E+03  3056   0.128E+02
DAV:   4    -0.754528593194E+03   -0.55494E+01   -0.55306E+01  2728   0.298E+01
DAV:   5    -0.754784106637E+03   -0.25551E+00   -0.25532E+00  2928   0.511E+00    0.707E+00
DAV:   6    -0.715012666215E+03    0.39771E+02   -0.11810E+01  2984   0.283E+01    0.503E+00
DAV:   7    -0.714783961303E+03    0.22870E+00   -0.38018E+00  2832   0.482E+00    0.258E+00
DAV:   8    -0.714878463535E+03   -0.94502E-01   -0.18026E-01  2712   0.169E+00    0.148E+00
DAV:   9    -0.714918690610E+03   -0.40227E-01   -0.80357E-02  2456   0.118E+00    0.327E-01
DAV:  10    -0.714919419359E+03   -0.72875E-03   -0.45037E-03  3208   0.317E-01    0.182E-01
DAV:  11    -0.714920770844E+03   -0.13515E-02   -0.14796E-03  2480   0.156E-01    0.635E-02
DAV:  12    -0.714920905688E+03   -0.13484E-03   -0.42922E-04  2640   0.872E-02    0.228E-02
DAV:  13    -0.714920912088E+03   -0.64009E-05   -0.38166E-05  2824   0.244E-02    0.729E-03
DAV:  14    -0.714920922864E+03   -0.10776E-04   -0.30896E-06  2272   0.565E-03    0.199E-03
DAV:  15    -0.714920928982E+03   -0.61179E-05   -0.11365E-06  1680   0.389E-03    0.128E-03
DAV:  16    -0.714920926661E+03    0.23215E-05   -0.57896E-07  1640   0.239E-03    0.687E-04
DAV:  17    -0.714920924296E+03    0.23646E-05   -0.86836E-08  1392   0.123E-03    0.345E-04
DAV:  18    -0.714920924043E+03    0.25334E-06   -0.50331E-07  1464   0.138E-03
   1 F= -.71492092E+03 E0= -.71492092E+03  d E =-.143340E-27
Application 1865622 resources: utime ~9284s, stime ~65s, Rss ~78928, inblocks ~1416, outblocks ~51592
