<?xml version="1.0" encoding="ISO-8859-1"?>
<modeling>
 <generator>
  <i name="program" type="string">vasp </i>
  <i name="version" type="string">5.4.4.18Apr17-6-g9f103f2a35  </i>
  <i name="subversion" type="string">(build Jun 22 2020 09:27:21) complex            parallel </i>
  <i name="platform" type="string">tx2_gcc-7.3_libsci-18.07_cray-fftw-3.3.8 </i>
  <i name="date" type="string">2021 09 20 </i>
  <i name="time" type="string">15:16:12 </i>
 </generator>
 <incar>
  <i type="string" name="SYSTEM"> CsPbBr3 cubic bulk</i>
  <i type="string" name="PREC">accurate</i>
  <i type="string" name="ALGO"> NORMAL   ! Electronic minimisation algo</i>
  <i type="logical" name="ADDGRID"> T  </i>
  <i type="int" name="NELM">   200</i>
  <i type="int" name="IBRION">     2</i>
  <i name="EDIFF">      0.00000100</i>
  <i name="EDIFFG">     -0.01000000</i>
  <i type="int" name="NSW">     0</i>
  <i type="int" name="ISIF">     3</i>
  <i type="int" name="ISYM">     2</i>
  <i name="ENCUT">    300.00000000</i>
  <i name="POTIM">      0.50000000</i>
  <i type="string" name="LREAL"> AUTO</i>
  <i type="int" name="ISMEAR">     0</i>
  <i name="SIGMA">      0.01000000</i>
  <i type="logical" name="LWAVE"> F  </i>
  <i type="logical" name="LCHARG"> F  </i>
  <i type="logical" name="LVHAR"> T  </i>
  <i type="int" name="LORBIT">    10</i>
  <i type="logical" name="LASPH"> T  </i>
  <v type="int" name="KPOINT_BSE">    -1     0     0     0</v>
  <i type="int" name="NELM">   200</i>
  <i type="string" name="METAGGA"> SCAN       ! PBE exchange-correlation</i>
  <i type="logical" name="LASPH"> T  </i>
 </incar>
 <structure name="primitive_cell" >
  <crystal>
   <varray name="basis" >
    <v>      -5.93794076      -5.93716824       0.00000000 </v>
    <v>      -5.73978075       5.73494829       0.00000000 </v>
    <v>       0.00000000       0.00000000     -11.74383265 </v>
   </varray>
   <i name="volume">    800.12877698 </i>
   <varray name="rec_basis" >
    <v>      -0.08417429      -0.08424522      -0.00000000 </v>
    <v>      -0.08714236       0.08715370       0.00000000 </v>
    <v>      -0.00000000       0.00000000      -0.08515108 </v>
   </varray>
  </crystal>
  <varray name="positions" >
   <v>      -0.43808859       0.01759570      -0.25000000 </v>
   <v>       0.29691847       0.20035365      -0.03623799 </v>
   <v>       0.29691847       0.20035365      -0.46376201 </v>
   <v>       0.49377924      -0.43044269      -0.25000000 </v>
   <v>      -0.00628130      -0.07025750      -0.25000000 </v>
   <v>      -0.20274430       0.30000799      -0.03605117 </v>
   <v>      -0.20274430       0.30000799      -0.46394883 </v>
   <v>      -0.29691847      -0.20035365       0.03623799 </v>
   <v>      -0.29691847      -0.20035365       0.46376201 </v>
   <v>       0.00000000       0.00000000       0.00000000 </v>
   <v>       0.00000000       0.00000000      -0.50000000 </v>
   <v>      -0.50000000      -0.50000000       0.00000000 </v>
   <v>      -0.50000000      -0.50000000      -0.50000000 </v>
   <v>       0.20274430      -0.30000799       0.03605117 </v>
   <v>       0.20274430      -0.30000799       0.46394883 </v>
   <v>       0.06206043       0.48210641      -0.25000000 </v>
   <v>       0.43808859      -0.01759570       0.25000000 </v>
   <v>      -0.49377924       0.43044269       0.25000000 </v>
   <v>       0.00628130       0.07025750       0.25000000 </v>
   <v>      -0.06206043      -0.48210641       0.25000000 </v>
  </varray>
 </structure>
 <varray name="primitive_index" >
  <v type="int" >        1 </v>
  <v type="int" >       19 </v>
  <v type="int" >       20 </v>
  <v type="int" >       15 </v>
  <v type="int" >       13 </v>
  <v type="int" >        9 </v>
  <v type="int" >       10 </v>
  <v type="int" >       17 </v>
  <v type="int" >       18 </v>
  <v type="int" >        5 </v>
  <v type="int" >        6 </v>
  <v type="int" >        7 </v>
  <v type="int" >        8 </v>
  <v type="int" >       11 </v>
  <v type="int" >       12 </v>
  <v type="int" >        3 </v>
  <v type="int" >        2 </v>
  <v type="int" >       16 </v>
  <v type="int" >       14 </v>
  <v type="int" >        4 </v>
 </varray>
 <kpoints>
  <generation param="Gamma">
   <v type="int" name="divisions">       3        3        2 </v>
   <v name="usershift">      0.00000000       0.00000000       0.00000000 </v>
   <v name="genvec1">      0.33333333       0.00000000       0.00000000 </v>
   <v name="genvec2">     -0.00000000       0.33333333       0.00000000 </v>
   <v name="genvec3">      0.00000000       0.00000000       0.50000000 </v>
   <v name="shift">      0.00000000       0.00000000       0.00000000 </v>
  </generation>
  <varray name="kpointlist" >
   <v>       0.00000000       0.00000000       0.00000000 </v>
   <v>       0.33333333       0.00000000       0.00000000 </v>
   <v>       0.00000000       0.33333333       0.00000000 </v>
   <v>       0.33333333       0.33333333       0.00000000 </v>
   <v>      -0.33333333       0.33333333       0.00000000 </v>
   <v>       0.00000000       0.00000000       0.50000000 </v>
   <v>       0.33333333       0.00000000       0.50000000 </v>
   <v>       0.00000000       0.33333333       0.50000000 </v>
   <v>       0.33333333       0.33333333       0.50000000 </v>
   <v>      -0.33333333       0.33333333       0.50000000 </v>
  </varray>
  <varray name="weights" >
   <v>       0.05555556 </v>
   <v>       0.11111111 </v>
   <v>       0.11111111 </v>
   <v>       0.11111111 </v>
   <v>       0.11111111 </v>
   <v>       0.05555556 </v>
   <v>       0.11111111 </v>
   <v>       0.11111111 </v>
   <v>       0.11111111 </v>
   <v>       0.11111111 </v>
  </varray>
 </kpoints>
 <parameters>
  <separator name="general" >
   <i type="string" name="SYSTEM">CsPbBr3 cubic bulk</i>
   <i type="logical" name="LCOMPAT"> F  </i>
  </separator>
  <separator name="electronic" >
   <i type="string" name="PREC">accura</i>
   <i name="ENMAX">    300.00000000</i>
   <i name="ENAUG">    503.85200000</i>
   <i name="EDIFF">      0.00000100</i>
   <i type="int" name="IALGO">    38</i>
   <i type="int" name="IWAVPR">    10</i>
   <i type="int" name="NBANDS">   112</i>
   <i name="NELECT">    176.00000000</i>
   <i type="int" name="TURBO">     0</i>
   <i type="int" name="IRESTART">     0</i>
   <i type="int" name="NREBOOT">     0</i>
   <i type="int" name="NMIN">     0</i>
   <i name="EREF">      0.00000000</i>
   <separator name="electronic smearing" >
    <i type="int" name="ISMEAR">     0</i>
    <i name="SIGMA">      0.01000000</i>
    <i name="KSPACING">      0.50000000</i>
    <i type="logical" name="KGAMMA"> T  </i>
   </separator>
   <separator name="electronic projectors" >
    <i type="logical" name="LREAL"> T  </i>
    <v name="ROPT">     -0.00025000     -0.00025000     -0.00025000</v>
    <i type="int" name="LMAXPAW">  -100</i>
    <i type="int" name="LMAXMIX">     2</i>
    <i type="logical" name="NLSPLINE"> F  </i>
   </separator>
   <separator name="electronic startup" >
    <i type="int" name="ISTART">     0</i>
    <i type="int" name="ICHARG">     2</i>
    <i type="int" name="INIWAV">     1</i>
   </separator>
   <separator name="electronic spin" >
    <i type="int" name="ISPIN">     1</i>
    <i type="logical" name="LNONCOLLINEAR"> F  </i>
    <v name="MAGMOM">      1.00000000      1.00000000      1.00000000      1.00000000      1.00000000      1.00000000      1.00000000      1.00000000      1.00000000      1.00000000      1.00000000      1.00000000      1.00000000      1.00000000      1.00000000      1.00000000      1.00000000      1.00000000      1.00000000      1.00000000
</v>
    <i name="NUPDOWN">     -1.00000000</i>
    <i type="logical" name="LSORBIT"> F  </i>
    <v name="SAXIS">      0.00000000      0.00000000      1.00000000</v>
    <i type="logical" name="LSPIRAL"> F  </i>
    <v name="QSPIRAL">      0.00000000      0.00000000      0.00000000</v>
    <i type="logical" name="LZEROZ"> F  </i>
   </separator>
   <separator name="electronic exchange-correlation" >
    <i type="logical" name="LASPH"> T  </i>
    <i type="logical" name="LMETAGGA"> F  </i>
   </separator>
   <separator name="electronic convergence" >
    <i type="int" name="NELM">   200</i>
    <i type="int" name="NELMDL">     0</i>
    <i type="int" name="NELMIN">     2</i>
    <i name="ENINI">    300.00000000</i>
    <separator name="electronic convergence detail" >
     <i type="logical" name="LDIAG"> T  </i>
     <i type="logical" name="LSUBROT"> F  </i>
     <i name="WEIMIN">      0.00000000</i>
     <i name="EBREAK">      0.00000000</i>
     <i name="DEPER">      0.30000000</i>
     <i type="int" name="NRMM">     4</i>
     <i name="TIME">      0.40000000</i>
    </separator>
   </separator>
   <separator name="electronic mixer" >
    <i name="AMIX">      0.40000000</i>
    <i name="BMIX">      1.00000000</i>
    <i name="AMIN">      0.10000000</i>
    <i name="AMIX_MAG">      1.60000000</i>
    <i name="BMIX_MAG">      1.00000000</i>
    <separator name="electronic mixer details" >
     <i type="int" name="IMIX">     4</i>
     <i type="logical" name="MIXFIRST"> F  </i>
     <i type="int" name="MAXMIX">   -45</i>
     <i name="WC">    100.00000000</i>
     <i type="int" name="INIMIX">     1</i>
     <i type="int" name="MIXPRE">     1</i>
     <i type="int" name="MREMOVE">     5</i>
    </separator>
   </separator>
   <separator name="electronic dipolcorrection" >
    <i type="logical" name="LDIPOL"> F  </i>
    <i type="logical" name="LMONO"> F  </i>
    <i type="int" name="IDIPOL">     0</i>
    <i name="EPSILON">      1.00000000</i>
    <v name="DIPOL">   -100.00000000   -100.00000000   -100.00000000</v>
    <i name="EFIELD">      0.00000000</i>
   </separator>
  </separator>
  <separator name="grids" >
   <i type="int" name="NGX">    48</i>
   <i type="int" name="NGY">    48</i>
   <i type="int" name="NGZ">    70</i>
   <i type="int" name="NGXF">    96</i>
   <i type="int" name="NGYF">    96</i>
   <i type="int" name="NGZF">   140</i>
   <i type="logical" name="ADDGRID"> T  </i>
  </separator>
  <separator name="ionic" >
   <i type="int" name="NSW">     0</i>
   <i type="int" name="IBRION">    -1</i>
   <i type="int" name="MDALGO">     0</i>
   <i type="int" name="ISIF">     3</i>
   <i name="PSTRESS">      0.00000000</i>
   <i name="EDIFFG">     -0.01000000</i>
   <i type="int" name="NFREE">     1</i>
   <i name="POTIM">      0.50000000</i>
   <i name="SMASS">     -3.00000000</i>
   <i name="SCALEE">      1.00000000</i>
  </separator>
  <separator name="ionic md" >
   <i name="TEBEG">      0.00010000</i>
   <i name="TEEND">      0.00010000</i>
   <i type="int" name="NBLOCK">     1</i>
   <i type="int" name="KBLOCK">     1</i>
   <i type="int" name="NPACO">   256</i>
   <i name="APACO">     16.00000000</i>
  </separator>
  <separator name="symmetry" >
   <i type="int" name="ISYM">     2</i>
   <i name="SYMPREC">      0.00001000</i>
  </separator>
  <separator name="dos" >
   <i type="int" name="LORBIT">    10</i>
   <v name="RWIGS">     -1.00000000     -1.00000000     -1.00000000</v>
   <i type="int" name="NEDOS">   301</i>
   <i name="EMIN">     10.00000000</i>
   <i name="EMAX">    -10.00000000</i>
   <i name="EFERMI">      0.00000000</i>
  </separator>
  <separator name="writing" >
   <i type="int" name="NWRITE">     2</i>
   <i type="logical" name="LWAVE"> F  </i>
   <i type="logical" name="LDOWNSAMPLE"> F  </i>
   <i type="logical" name="LCHARG"> F  </i>
   <i type="logical" name="LPARD"> F  </i>
   <i type="logical" name="LVTOT"> F  </i>
   <i type="logical" name="LVHAR"> T  </i>
   <i type="logical" name="LELF"> F  </i>
   <i type="logical" name="LOPTICS"> F  </i>
   <v name="STM">      0.00000000      0.00000000      0.00000000      0.00000000      0.00000000      0.00000000      0.00000000</v>
  </separator>
  <separator name="performance" >
   <i type="int" name="NPAR">     8</i>
   <i type="int" name="NSIM">     4</i>
   <i type="int" name="NBLK">    -1</i>
   <i type="logical" name="LPLANE"> T  </i>
   <i type="logical" name="LSCALAPACK"> T  </i>
   <i type="logical" name="LSCAAWARE"> F  </i>
   <i type="logical" name="LSCALU"> F  </i>
   <i type="logical" name="LASYNC"> F  </i>
   <i type="logical" name="LORBITALREAL"> F  </i>
  </separator>
  <separator name="miscellaneous" >
   <i type="int" name="IDIOT">     3</i>
   <i type="int" name="ISPECIAL">     0</i>
   <i type="logical" name="LMUSIC"> F  </i>
   <v name="POMASS">    132.90000000    207.20000000     79.90400000</v>
   <v name="DARWINR">      0.00000000      0.00000000      0.00000000</v>
   <v name="DARWINV">      1.00000000      1.00000000      1.00000000</v>
   <i type="logical" name="LCORR"> T  </i>
  </separator>
  <i type="logical" name="GGA_COMPAT"> T  </i>
  <i type="logical" name="LBERRY"> F  </i>
  <i type="int" name="ICORELEVEL">     0</i>
  <i type="logical" name="LDAU"> F  </i>
  <i type="int" name="I_CONSTRAINED_M">     0</i>
  <separator name="electronic exchange-correlation" >
   <i type="string" name="GGA">--</i>
   <i type="int" name="VOSKOWN">     0</i>
   <i type="logical" name="LHFCALC"> F  </i>
   <i type="string" name="PRECFOCK"></i>
   <i type="logical" name="LSYMGRAD"> F  </i>
   <i type="logical" name="LHFONE"> F  </i>
   <i type="logical" name="LRHFCALC"> F  </i>
   <i type="logical" name="LTHOMAS"> F  </i>
   <i type="logical" name="LMODELHF"> F  </i>
   <i name="ENCUT4O">     -1.00000000</i>
   <i type="int" name="EXXOEP">     0</i>
   <i type="int" name="FOURORBIT">     0</i>
   <i name="AEXX">      0.00000000</i>
   <i name="HFALPHA">      0.00000000</i>
   <i name="MCALPHA">      0.00000000</i>
   <i name="ALDAX">      1.00000000</i>
   <i name="AGGAX">      1.00000000</i>
   <i name="ALDAC">      1.00000000</i>
   <i name="AGGAC">      1.00000000</i>
   <i type="int" name="NKREDX">     1</i>
   <i type="int" name="NKREDY">     1</i>
   <i type="int" name="NKREDZ">     1</i>
   <i type="logical" name="SHIFTRED"> F  </i>
   <i type="logical" name="ODDONLY"> F  </i>
   <i type="logical" name="EVENONLY"> F  </i>
   <i type="int" name="LMAXFOCK">     0</i>
   <i type="int" name="NMAXFOCKAE">     0</i>
   <i type="logical" name="LFOCKAEDFT"> F  </i>
   <i name="HFSCREEN">      0.00000000</i>
   <i name="HFSCREENC">      0.00000000</i>
   <i type="int" name="NBANDSGWLOW">     0</i>
  </separator>
  <separator name="vdW DFT" >
   <i type="logical" name="LUSE_VDW"> F  </i>
   <i name="Zab_VDW">     -0.84910000</i>
   <i name="PARAM1">      0.12340000</i>
   <i name="PARAM2">      1.00000000</i>
   <i name="PARAM3">      0.00000000</i>
  </separator>
  <separator name="model GW" >
   <i type="int" name="MODEL_GW">     0</i>
   <i name="MODEL_EPS0">     24.00386331</i>
   <i name="MODEL_ALPHA">      1.00000000</i>
  </separator>
  <separator name="linear response parameters" >
   <i type="logical" name="LEPSILON"> F  </i>
   <i type="logical" name="LRPA"> F  </i>
   <i type="logical" name="LNABLA"> F  </i>
   <i type="logical" name="LVEL"> F  </i>
   <i type="int" name="KINTER">     0</i>
   <i name="CSHIFT">      0.10000000</i>
   <i name="OMEGAMAX">     -1.00000000</i>
   <i name="DEG_THRESHOLD">      0.00200000</i>
   <i name="RTIME">     -0.10000000</i>
   <i name="WPLASMAI">      0.00000000</i>
   <v name="DFIELD">      0.00000000      0.00000000      0.00000000</v>
   <v name="WPLASMA">      0.00000000      0.00000000      0.00000000      0.00000000      0.00000000      0.00000000      0.00000000      0.00000000      0.00000000</v>
  </separator>
  <separator name="orbital magnetization" >
   <i type="logical" name="NUCIND"> F  </i>
   <v name="MAGPOS">      0.00000000      0.00000000      0.00000000</v>
   <i type="logical" name="LNICSALL"> T  </i>
   <i type="logical" name="ORBITALMAG"> F  </i>
   <i type="logical" name="LMAGBLOCH"> F  </i>
   <i type="logical" name="LCHIMAG"> F  </i>
   <i type="logical" name="LGAUGE"> T  </i>
   <i type="int" name="MAGATOM">     0</i>
   <v name="MAGDIPOL">      0.00000000      0.00000000      0.00000000</v>
   <v name="AVECCONST">      0.00000000      0.00000000      0.00000000</v>
  </separator>
  <separator name="response functions" >
   <i type="logical" name="LADDER"> F  </i>
   <i type="logical" name="LRPAFORCE"> F  </i>
   <i type="logical" name="LFXC"> F  </i>
   <i type="logical" name="LHARTREE"> T  </i>
   <i type="int" name="IBSE">     0</i>
   <v type="int" name="KPOINT">    -1     0     0     0</v>
   <i type="logical" name="LTCTE"> F  </i>
   <i type="logical" name="LTETE"> F  </i>
   <i type="logical" name="LTRIPLET"> F  </i>
   <i type="logical" name="LFXCEPS"> F  </i>
   <i type="logical" name="LFXHEG"> F  </i>
   <i type="int" name="NATURALO">     2</i>
   <i type="logical" name="L2ORDER"> F  </i>
   <i type="logical" name="LMP2LT"> F  </i>
   <i type="logical" name="LUSEW"> F  </i>
   <i name="ENCUTGW">     -2.00000000</i>
   <i name="ENCUTGWSOFT">     -2.00000000</i>
   <i name="ENCUTLF">     -1.00000000</i>
   <i type="int" name="LMAXMP2">    -1</i>
   <i name="SCISSOR">      0.00000000</i>
   <i type="int" name="NOMEGA">     0</i>
   <i type="int" name="NOMEGAR">     0</i>
   <i type="int" name="NBANDSGW">    -1</i>
   <i type="int" name="NBANDSO">    -1</i>
   <i type="int" name="NBANDSV">    -1</i>
   <i type="int" name="NELM">   200</i>
   <i type="int" name="NELMHF">     1</i>
   <i type="int" name="DIM">     3</i>
   <i type="int" name="ANTIRES">     0</i>
   <i name="OMEGAMAX">    -30.00000000</i>
   <i name="OMEGAMIN">    -30.00000000</i>
   <i name="OMEGATL">   -200.00000000</i>
   <i type="int" name="OMEGAGRID">   140</i>
   <i name="CSHIFT">     -0.10000000</i>
   <i type="logical" name="SELFENERGY"> F  </i>
   <i type="logical" name="LSPECTRAL"> F  </i>
   <i type="logical" name="LSPECTRALGW"> F  </i>
   <i type="logical" name="LSINGLES"> F  </i>
   <i type="logical" name="LFERMIGW"> F  </i>
   <i type="logical" name="ODDONLYGW"> F  </i>
   <i type="logical" name="EVENONLYGW"> F  </i>
   <i type="int" name="NKREDLFX">     1</i>
   <i type="int" name="NKREDLFY">     1</i>
   <i type="int" name="NKREDLFZ">     1</i>
   <i type="int" name="MAXMEM">  2800</i>
   <i type="int" name="TELESCOPE">     0</i>
   <i type="int" name="TAUPAR">     1</i>
   <i type="int" name="OMEGAPAR">    -1</i>
   <i name="LAMBDA">      1.00000000</i>
  </separator>
  <separator name="External order field" >
   <i name="OFIELD_KAPPA">      0.00000000</i>
   <v name="OFIELD_K">      0.00000000      0.00000000      0.00000000</v>
   <i name="OFIELD_Q6_NEAR">      0.00000000</i>
   <i name="OFIELD_Q6_FAR">      0.00000000</i>
   <i name="OFIELD_A">      0.00000000</i>
  </separator>
 </parameters>
 <atominfo>
  <atoms>      20 </atoms>
  <types>       3 </types>
  <array name="atoms" >
   <dimension dim="1">ion</dimension>
   <field type="string">element</field>
   <field type="int">atomtype</field>
   <set>
    <rc><c>Cs</c><c>   1</c></rc>
    <rc><c>Cs</c><c>   1</c></rc>
    <rc><c>Cs</c><c>   1</c></rc>
    <rc><c>Cs</c><c>   1</c></rc>
    <rc><c>Pb</c><c>   2</c></rc>
    <rc><c>Pb</c><c>   2</c></rc>
    <rc><c>Pb</c><c>   2</c></rc>
    <rc><c>Pb</c><c>   2</c></rc>
    <rc><c>Br</c><c>   3</c></rc>
    <rc><c>Br</c><c>   3</c></rc>
    <rc><c>Br</c><c>   3</c></rc>
    <rc><c>Br</c><c>   3</c></rc>
    <rc><c>Br</c><c>   3</c></rc>
    <rc><c>Br</c><c>   3</c></rc>
    <rc><c>Br</c><c>   3</c></rc>
    <rc><c>Br</c><c>   3</c></rc>
    <rc><c>Br</c><c>   3</c></rc>
    <rc><c>Br</c><c>   3</c></rc>
    <rc><c>Br</c><c>   3</c></rc>
    <rc><c>Br</c><c>   3</c></rc>
   </set>
  </array>
  <array name="atomtypes" >
   <dimension dim="1">type</dimension>
   <field type="int">atomspertype</field>
   <field type="string">element</field>
   <field>mass</field>
   <field>valence</field>
   <field type="string">pseudopotential</field>
   <set>
    <rc><c>   4</c><c>Cs</c><c>    132.90000000</c><c>      9.00000000</c><c>  PAW_PBE Cs_sv 08Apr2002               </c></rc>
    <rc><c>   4</c><c>Pb</c><c>    207.20000000</c><c>     14.00000000</c><c>  PAW_PBE Pb_d 06Sep2000                </c></rc>
    <rc><c>  12</c><c>Br</c><c>     79.90400000</c><c>      7.00000000</c><c>  PAW_PBE Br 06Sep2000                  </c></rc>
   </set>
  </array>
 </atominfo>
 <structure name="initialpos" >
  <crystal>
   <varray name="basis" >
    <v>      -5.93794076      -5.93716824       0.00000000 </v>
    <v>      -5.73978075       5.73494829       0.00000000 </v>
    <v>       0.00000000       0.00000000     -11.74383265 </v>
   </varray>
   <i name="volume">    800.12877698 </i>
   <varray name="rec_basis" >
    <v>      -0.08417429      -0.08424522      -0.00000000 </v>
    <v>      -0.08714236       0.08715370       0.00000000 </v>
    <v>      -0.00000000       0.00000000      -0.08515108 </v>
   </varray>
  </crystal>
  <varray name="positions" >
   <v>       0.56191141       0.01759570       0.75000000 </v>
   <v>       0.43808859       0.98240430       0.25000000 </v>
   <v>       0.06206043       0.48210641       0.75000000 </v>
   <v>       0.93793957       0.51789359       0.25000000 </v>
   <v>       0.00000000       0.00000000       0.00000000 </v>
   <v>       0.00000000       0.00000000       0.50000000 </v>
   <v>       0.50000000       0.50000000       0.00000000 </v>
   <v>       0.50000000       0.50000000       0.50000000 </v>
   <v>       0.79725570       0.30000799       0.96394883 </v>
   <v>       0.79725570       0.30000799       0.53605117 </v>
   <v>       0.20274430       0.69999201       0.03605117 </v>
   <v>       0.20274430       0.69999201       0.46394883 </v>
   <v>       0.99371870       0.92974250       0.75000000 </v>
   <v>       0.00628130       0.07025750       0.25000000 </v>
   <v>       0.49377924       0.56955731       0.75000000 </v>
   <v>       0.50622076       0.43044269       0.25000000 </v>
   <v>       0.70308153       0.79964635       0.03623799 </v>
   <v>       0.70308153       0.79964635       0.46376201 </v>
   <v>       0.29691847       0.20035365       0.96376201 </v>
   <v>       0.29691847       0.20035365       0.53623799 </v>
  </varray>
 </structure>
 <calculation>
  <scstep>
   <time name="dav">    4.84    4.85</time>
   <time name="total">    6.13    6.14</time>
   <energy>
    <i name="alphaZ">    450.93857906 </i>
    <i name="ewald">  -9240.11910682 </i>
    <i name="hartreedc">  -3648.04279216 </i>
    <i name="XCdc">    462.08417713 </i>
    <i name="pawpsdc">  10816.98087266 </i>
    <i name="pawaedc"> -11353.96092700 </i>
    <i name="eentropy">     -0.00000284 </i>
    <i name="bandstr">   -120.53084026 </i>
    <i name="atom">  13290.28009929 </i>
    <i name="e_fr_energy">    657.63005905 </i>
    <i name="e_wo_entrp">    657.63006189 </i>
    <i name="e_0_energy">    657.63006047 </i>
   </energy>
  </scstep>
  <scstep>
   <time name="dav">    5.41    5.44</time>
   <time name="total">    5.41    5.44</time>
   <energy>
    <i name="e_fr_energy">   -574.97787582 </i>
    <i name="e_wo_entrp">   -574.97787582 </i>
    <i name="e_0_energy">   -574.97787582 </i>
   </energy>
  </scstep>
  <scstep>
   <time name="dav">    5.83    5.87</time>
   <time name="total">    5.83    5.87</time>
   <energy>
    <i name="e_fr_energy">   -748.97923230 </i>
    <i name="e_wo_entrp">   -748.97923230 </i>
    <i name="e_0_energy">   -748.97923230 </i>
   </energy>
  </scstep>
  <scstep>
   <time name="dav">    5.42    5.44</time>
   <time name="total">    5.42    5.44</time>
   <energy>
    <i name="e_fr_energy">   -754.52859319 </i>
    <i name="e_wo_entrp">   -754.52859319 </i>
    <i name="e_0_energy">   -754.52859319 </i>
   </energy>
  </scstep>
  <scstep>
   <time name="dav">    5.67    5.68</time>
   <time name="total">    6.63    6.64</time>
   <energy>
    <i name="e_fr_energy">   -754.78410664 </i>
    <i name="e_wo_entrp">   -754.78410664 </i>
    <i name="e_0_energy">   -754.78410664 </i>
   </energy>
  </scstep>
  <scstep>
   <time name="dav">    5.71    5.71</time>
   <time name="total">    7.95    7.97</time>
   <energy>
    <i name="e_fr_energy">   -715.01266621 </i>
    <i name="e_wo_entrp">   -715.01266621 </i>
    <i name="e_0_energy">   -715.01266621 </i>
   </energy>
  </scstep>
  <scstep>
   <time name="dav">    5.51    5.51</time>
   <time name="total">    7.72    7.77</time>
   <energy>
    <i name="e_fr_energy">   -714.78396130 </i>
    <i name="e_wo_entrp">   -714.78396130 </i>
    <i name="e_0_energy">   -714.78396130 </i>
   </energy>
  </scstep>
  <scstep>
   <time name="dav">    5.35    5.35</time>
   <time name="total">    7.59    7.61</time>
   <energy>
    <i name="e_fr_energy">   -714.87846353 </i>
    <i name="e_wo_entrp">   -714.87846353 </i>
    <i name="e_0_energy">   -714.87846353 </i>
   </energy>
  </scstep>
  <scstep>
   <time name="dav">    5.00    5.00</time>
   <time name="total">    7.23    7.24</time>
   <energy>
    <i name="e_fr_energy">   -714.91869061 </i>
    <i name="e_wo_entrp">   -714.91869061 </i>
    <i name="e_0_energy">   -714.91869061 </i>
   </energy>
  </scstep>
  <scstep>
   <time name="dav">    6.01    6.01</time>
   <time name="total">    8.23    8.24</time>
   <energy>
    <i name="e_fr_energy">   -714.91941936 </i>
    <i name="e_wo_entrp">   -714.91941936 </i>
    <i name="e_0_energy">   -714.91941936 </i>
   </energy>
  </scstep>
  <scstep>
   <time name="dav">    5.03    5.03</time>
   <time name="total">    7.25    7.27</time>
   <energy>
    <i name="e_fr_energy">   -714.92077084 </i>
    <i name="e_wo_entrp">   -714.92077084 </i>
    <i name="e_0_energy">   -714.92077084 </i>
   </energy>
  </scstep>
  <scstep>
   <time name="dav">    5.26    5.26</time>
   <time name="total">    7.48    7.52</time>
   <energy>
    <i name="e_fr_energy">   -714.92090569 </i>
    <i name="e_wo_entrp">   -714.92090569 </i>
    <i name="e_0_energy">   -714.92090569 </i>
   </energy>
  </scstep>
  <scstep>
   <time name="dav">    5.50    5.50</time>
   <time name="total">    7.72    7.76</time>
   <energy>
    <i name="e_fr_energy">   -714.92091209 </i>
    <i name="e_wo_entrp">   -714.92091209 </i>
    <i name="e_0_energy">   -714.92091209 </i>
   </energy>
  </scstep>
  <scstep>
   <time name="dav">    4.84    4.84</time>
   <time name="total">    7.04    7.08</time>
   <energy>
    <i name="e_fr_energy">   -714.92092286 </i>
    <i name="e_wo_entrp">   -714.92092286 </i>
    <i name="e_0_energy">   -714.92092286 </i>
   </energy>
  </scstep>
  <scstep>
   <time name="dav">    4.09    4.09</time>
   <time name="total">    6.32    6.34</time>
   <energy>
    <i name="e_fr_energy">   -714.92092898 </i>
    <i name="e_wo_entrp">   -714.92092898 </i>
    <i name="e_0_energy">   -714.92092898 </i>
   </energy>
  </scstep>
  <scstep>
   <time name="dav">    4.05    4.05</time>
   <time name="total">    6.30    6.31</time>
   <energy>
    <i name="e_fr_energy">   -714.92092666 </i>
    <i name="e_wo_entrp">   -714.92092666 </i>
    <i name="e_0_energy">   -714.92092666 </i>
   </energy>
  </scstep>
  <scstep>
   <time name="dav">    3.73    3.73</time>
   <time name="total">    5.95    5.96</time>
   <energy>
    <i name="e_fr_energy">   -714.92092430 </i>
    <i name="e_wo_entrp">   -714.92092430 </i>
    <i name="e_0_energy">   -714.92092430 </i>
   </energy>
  </scstep>
  <scstep>
   <time name="dav">    3.81    3.81</time>
   <time name="total">    5.13    5.14</time>
   <energy>
    <i name="alphaZ">    450.93857906 </i>
    <i name="ewald">  -9240.11910682 </i>
    <i name="hartreedc">  -3660.77333946 </i>
    <i name="XCdc">    481.56237529 </i>
    <i name="pawpsdc">  11548.93996252 </i>
    <i name="pawaedc"> -12085.03885484 </i>
    <i name="eentropy">     -0.00000000 </i>
    <i name="bandstr">  -1500.71063909 </i>
    <i name="atom">  13290.28009929 </i>
    <i name="e_fr_energy">   -714.92092404 </i>
    <i name="e_wo_entrp">   -714.92092404 </i>
    <i name="e_0_energy">   -714.92092404 </i>
   </energy>
  </scstep>
  <structure>
   <crystal>
    <varray name="basis" >
     <v>      -5.93794076      -5.93716824       0.00000000 </v>
     <v>      -5.73978075       5.73494829       0.00000000 </v>
     <v>       0.00000000       0.00000000     -11.74383265 </v>
    </varray>
    <i name="volume">    800.12877698 </i>
    <varray name="rec_basis" >
     <v>      -0.08417429      -0.08424522      -0.00000000 </v>
     <v>      -0.08714236       0.08715370       0.00000000 </v>
     <v>      -0.00000000       0.00000000      -0.08515108 </v>
    </varray>
   </crystal>
   <varray name="positions" >
    <v>       0.56191141       0.01759570       0.75000000 </v>
    <v>       0.43808859       0.98240430       0.25000000 </v>
    <v>       0.06206043       0.48210641       0.75000000 </v>
    <v>       0.93793957       0.51789359       0.25000000 </v>
    <v>       0.00000000       0.00000000       0.00000000 </v>
    <v>       0.00000000       0.00000000       0.50000000 </v>
    <v>       0.50000000       0.50000000       0.00000000 </v>
    <v>       0.50000000       0.50000000       0.50000000 </v>
    <v>       0.79725570       0.30000799       0.96394883 </v>
    <v>       0.79725570       0.30000799       0.53605117 </v>
    <v>       0.20274430       0.69999201       0.03605117 </v>
    <v>       0.20274430       0.69999201       0.46394883 </v>
    <v>       0.99371870       0.92974250       0.75000000 </v>
    <v>       0.00628130       0.07025750       0.25000000 </v>
    <v>       0.49377924       0.56955731       0.75000000 </v>
    <v>       0.50622076       0.43044269       0.25000000 </v>
    <v>       0.70308153       0.79964635       0.03623799 </v>
    <v>       0.70308153       0.79964635       0.46376201 </v>
    <v>       0.29691847       0.20035365       0.96376201 </v>
    <v>       0.29691847       0.20035365       0.53623799 </v>
   </varray>
  </structure>
  <varray name="forces" >
   <v>      -0.00767535       0.00249373       0.00000000 </v>
   <v>       0.00767535      -0.00249373       0.00000000 </v>
   <v>       0.00313672      -0.00720487      -0.00000000 </v>
   <v>      -0.00313672       0.00720487       0.00000000 </v>
   <v>       0.00000000       0.00000000      -0.00000000 </v>
   <v>       0.00000000       0.00000000      -0.00000000 </v>
   <v>       0.00000000       0.00000000      -0.00000000 </v>
   <v>       0.00000000       0.00000000      -0.00000000 </v>
   <v>      -0.00556940       0.00281552      -0.00274213 </v>
   <v>      -0.00556940       0.00281552       0.00274213 </v>
   <v>       0.00556940      -0.00281552       0.00274213 </v>
   <v>       0.00556940      -0.00281552      -0.00274213 </v>
   <v>       0.01986224      -0.00425144      -0.00000000 </v>
   <v>      -0.01986224       0.00425144       0.00000000 </v>
   <v>      -0.00789161       0.02093098       0.00000000 </v>
   <v>       0.00789161      -0.02093098       0.00000000 </v>
   <v>      -0.00545760       0.00849979       0.00495836 </v>
   <v>      -0.00545760       0.00849979      -0.00495836 </v>
   <v>       0.00545760      -0.00849979      -0.00495836 </v>
   <v>       0.00545760      -0.00849979       0.00495836 </v>
  </varray>
  <varray name="stress" >
   <v>      -1.45884758       0.16256602       0.00000000 </v>
   <v>       0.16256575      -1.34450436       0.00000000 </v>
   <v>       0.00000000       0.00000000      -0.75926960 </v>
  </varray>
  <energy>
   <i name="e_fr_energy">   -714.92092404 </i>
   <i name="e_wo_entrp">   -714.92092404 </i>
   <i name="e_0_energy">     -0.00000000 </i>
  </energy>
  <time name="totalsc">  138.91  139.43</time>
  <eigenvalues>
   <array>
    <dimension dim="1">band</dimension>
    <dimension dim="2">kpoint</dimension>
    <dimension dim="3">spin</dimension>
    <field>eigene</field>
    <field>occ</field>
    <set>
     <set comment="spin 1">
      <set comment="kpoint 1">
       <r>  -20.7433    1.0000 </r>
       <r>  -20.7418    1.0000 </r>
       <r>  -20.7358    1.0000 </r>
       <r>  -20.7345    1.0000 </r>
       <r>  -16.4420    1.0000 </r>
       <r>  -16.4327    1.0000 </r>
       <r>  -16.4326    1.0000 </r>
       <r>  -16.4160    1.0000 </r>
       <r>  -16.3834    1.0000 </r>
       <r>  -16.3511    1.0000 </r>
       <r>  -16.3452    1.0000 </r>
       <r>  -16.3450    1.0000 </r>
       <r>  -16.2825    1.0000 </r>
       <r>  -16.2820    1.0000 </r>
       <r>  -16.2815    1.0000 </r>
       <r>  -16.2809    1.0000 </r>
       <r>  -16.2804    1.0000 </r>
       <r>  -16.2802    1.0000 </r>
       <r>  -16.2795    1.0000 </r>
       <r>  -16.2792    1.0000 </r>
       <r>  -16.2737    1.0000 </r>
       <r>  -16.2733    1.0000 </r>
       <r>  -16.2724    1.0000 </r>
       <r>  -16.2720    1.0000 </r>
       <r>  -14.3174    1.0000 </r>
       <r>  -14.1348    1.0000 </r>
       <r>  -14.0027    1.0000 </r>
       <r>  -13.9971    1.0000 </r>
       <r>  -13.9888    1.0000 </r>
       <r>  -13.9785    1.0000 </r>
       <r>  -13.9778    1.0000 </r>
       <r>  -13.9701    1.0000 </r>
       <r>  -13.9352    1.0000 </r>
       <r>  -13.7200    1.0000 </r>
       <r>  -13.7179    1.0000 </r>
       <r>  -13.7133    1.0000 </r>
       <r>   -8.1430    1.0000 </r>
       <r>   -7.6415    1.0000 </r>
       <r>   -7.1869    1.0000 </r>
       <r>   -7.1732    1.0000 </r>
       <r>   -7.1731    1.0000 </r>
       <r>   -7.1710    1.0000 </r>
       <r>   -7.1480    1.0000 </r>
       <r>   -7.1477    1.0000 </r>
       <r>   -7.1455    1.0000 </r>
       <r>   -7.1398    1.0000 </r>
       <r>   -7.1325    1.0000 </r>
       <r>   -7.1282    1.0000 </r>
       <r>   -7.1149    1.0000 </r>
       <r>   -7.1071    1.0000 </r>
       <r>   -7.0861    1.0000 </r>
       <r>   -6.5049    1.0000 </r>
       <r>   -3.2777    1.0000 </r>
       <r>   -3.2479    1.0000 </r>
       <r>   -3.2228    1.0000 </r>
       <r>   -3.1403    1.0000 </r>
       <r>   -3.1189    1.0000 </r>
       <r>   -3.0624    1.0000 </r>
       <r>   -2.1075    1.0000 </r>
       <r>   -1.8917    1.0000 </r>
       <r>   -1.8421    1.0000 </r>
       <r>   -1.8416    1.0000 </r>
       <r>   -1.8275    1.0000 </r>
       <r>   -1.7543    1.0000 </r>
       <r>   -1.5959    1.0000 </r>
       <r>   -1.4908    1.0000 </r>
       <r>   -1.4730    1.0000 </r>
       <r>   -1.4593    1.0000 </r>
       <r>   -1.3948    1.0000 </r>
       <r>   -1.3936    1.0000 </r>
       <r>   -1.3817    1.0000 </r>
       <r>   -1.3658    1.0000 </r>
       <r>   -1.3335    1.0000 </r>
       <r>   -1.3186    1.0000 </r>
       <r>   -1.3142    1.0000 </r>
       <r>   -1.2966    1.0000 </r>
       <r>   -1.2913    1.0000 </r>
       <r>   -1.1962    1.0000 </r>
       <r>   -1.1046    1.0000 </r>
       <r>   -1.0887    1.0000 </r>
       <r>   -1.0787    1.0000 </r>
       <r>   -1.0294    1.0000 </r>
       <r>   -0.9900    1.0000 </r>
       <r>   -0.9602    1.0000 </r>
       <r>   -0.7832    1.0000 </r>
       <r>   -0.6032    1.0000 </r>
       <r>   -0.1320    1.0000 </r>
       <r>    0.4822    1.0000 </r>
       <r>    2.7630    0.0000 </r>
       <r>    2.8293    0.0000 </r>
       <r>    2.9016    0.0000 </r>
       <r>    3.1413    0.0000 </r>
       <r>    3.3389    0.0000 </r>
       <r>    3.5633    0.0000 </r>
       <r>    4.9477    0.0000 </r>
       <r>    5.7150    0.0000 </r>
       <r>    5.8581    0.0000 </r>
       <r>    5.9585    0.0000 </r>
       <r>    6.0849    0.0000 </r>
       <r>    6.1060    0.0000 </r>
       <r>    6.1588    0.0000 </r>
       <r>    6.2772    0.0000 </r>
       <r>    6.3811    0.0000 </r>
       <r>    6.3874    0.0000 </r>
       <r>    6.5593    0.0000 </r>
       <r>    6.5672    0.0000 </r>
       <r>    6.6211    0.0000 </r>
       <r>    6.7892    0.0000 </r>
       <r>    6.8551    0.0000 </r>
       <r>    6.8939    0.0000 </r>
       <r>    6.9511    0.0000 </r>
       <r>    7.0778    0.0000 </r>
      </set>
      <set comment="kpoint 2">
       <r>  -20.7429    1.0000 </r>
       <r>  -20.7414    1.0000 </r>
       <r>  -20.7361    1.0000 </r>
       <r>  -20.7348    1.0000 </r>
       <r>  -16.4354    1.0000 </r>
       <r>  -16.4224    1.0000 </r>
       <r>  -16.4120    1.0000 </r>
       <r>  -16.4119    1.0000 </r>
       <r>  -16.3752    1.0000 </r>
       <r>  -16.3682    1.0000 </r>
       <r>  -16.3681    1.0000 </r>
       <r>  -16.3590    1.0000 </r>
       <r>  -16.2824    1.0000 </r>
       <r>  -16.2817    1.0000 </r>
       <r>  -16.2817    1.0000 </r>
       <r>  -16.2810    1.0000 </r>
       <r>  -16.2804    1.0000 </r>
       <r>  -16.2802    1.0000 </r>
       <r>  -16.2795    1.0000 </r>
       <r>  -16.2793    1.0000 </r>
       <r>  -16.2734    1.0000 </r>
       <r>  -16.2729    1.0000 </r>
       <r>  -16.2728    1.0000 </r>
       <r>  -16.2723    1.0000 </r>
       <r>  -14.2681    1.0000 </r>
       <r>  -14.1350    1.0000 </r>
       <r>  -14.0982    1.0000 </r>
       <r>  -14.0202    1.0000 </r>
       <r>  -14.0018    1.0000 </r>
       <r>  -13.9984    1.0000 </r>
       <r>  -13.9129    1.0000 </r>
       <r>  -13.9057    1.0000 </r>
       <r>  -13.8193    1.0000 </r>
       <r>  -13.7831    1.0000 </r>
       <r>  -13.7774    1.0000 </r>
       <r>  -13.7425    1.0000 </r>
       <r>   -7.9329    1.0000 </r>
       <r>   -7.4549    1.0000 </r>
       <r>   -7.4281    1.0000 </r>
       <r>   -7.1917    1.0000 </r>
       <r>   -7.1624    1.0000 </r>
       <r>   -7.1614    1.0000 </r>
       <r>   -7.1581    1.0000 </r>
       <r>   -7.1416    1.0000 </r>
       <r>   -7.1385    1.0000 </r>
       <r>   -7.1288    1.0000 </r>
       <r>   -7.1268    1.0000 </r>
       <r>   -7.1173    1.0000 </r>
       <r>   -7.1117    1.0000 </r>
       <r>   -7.1064    1.0000 </r>
       <r>   -7.1032    1.0000 </r>
       <r>   -6.8497    1.0000 </r>
       <r>   -3.2283    1.0000 </r>
       <r>   -3.1318    1.0000 </r>
       <r>   -2.9487    1.0000 </r>
       <r>   -2.8208    1.0000 </r>
       <r>   -2.7011    1.0000 </r>
       <r>   -2.6779    1.0000 </r>
       <r>   -2.2046    1.0000 </r>
       <r>   -2.0897    1.0000 </r>
       <r>   -2.0353    1.0000 </r>
       <r>   -1.9464    1.0000 </r>
       <r>   -1.9441    1.0000 </r>
       <r>   -1.9049    1.0000 </r>
       <r>   -1.7841    1.0000 </r>
       <r>   -1.6676    1.0000 </r>
       <r>   -1.6305    1.0000 </r>
       <r>   -1.5807    1.0000 </r>
       <r>   -1.4218    1.0000 </r>
       <r>   -1.3922    1.0000 </r>
       <r>   -1.3707    1.0000 </r>
       <r>   -1.3645    1.0000 </r>
       <r>   -1.3434    1.0000 </r>
       <r>   -1.3423    1.0000 </r>
       <r>   -1.2734    1.0000 </r>
       <r>   -1.2648    1.0000 </r>
       <r>   -1.2167    1.0000 </r>
       <r>   -1.1687    1.0000 </r>
       <r>   -1.1672    1.0000 </r>
       <r>   -1.1654    1.0000 </r>
       <r>   -1.0964    1.0000 </r>
       <r>   -1.0861    1.0000 </r>
       <r>   -1.0249    1.0000 </r>
       <r>   -0.9814    1.0000 </r>
       <r>   -0.7768    1.0000 </r>
       <r>   -0.6393    1.0000 </r>
       <r>   -0.4912    1.0000 </r>
       <r>   -0.0562    1.0000 </r>
       <r>    2.9995    0.0000 </r>
       <r>    3.3409    0.0000 </r>
       <r>    3.5809    0.0000 </r>
       <r>    3.7748    0.0000 </r>
       <r>    3.9280    0.0000 </r>
       <r>    4.1456    0.0000 </r>
       <r>    5.1165    0.0000 </r>
       <r>    5.1581    0.0000 </r>
       <r>    5.2347    0.0000 </r>
       <r>    5.4245    0.0000 </r>
       <r>    5.8559    0.0000 </r>
       <r>    5.8682    0.0000 </r>
       <r>    6.2054    0.0000 </r>
       <r>    6.2762    0.0000 </r>
       <r>    6.4275    0.0000 </r>
       <r>    6.4753    0.0000 </r>
       <r>    6.5451    0.0000 </r>
       <r>    6.5656    0.0000 </r>
       <r>    6.5912    0.0000 </r>
       <r>    6.7589    0.0000 </r>
       <r>    6.8846    0.0000 </r>
       <r>    7.0385    0.0000 </r>
       <r>    7.1129    0.0000 </r>
       <r>    7.1145    0.0000 </r>
      </set>
      <set comment="kpoint 3">
       <r>  -20.7429    1.0000 </r>
       <r>  -20.7414    1.0000 </r>
       <r>  -20.7361    1.0000 </r>
       <r>  -20.7347    1.0000 </r>
       <r>  -16.4353    1.0000 </r>
       <r>  -16.4222    1.0000 </r>
       <r>  -16.4121    1.0000 </r>
       <r>  -16.4118    1.0000 </r>
       <r>  -16.3752    1.0000 </r>
       <r>  -16.3682    1.0000 </r>
       <r>  -16.3681    1.0000 </r>
       <r>  -16.3590    1.0000 </r>
       <r>  -16.2823    1.0000 </r>
       <r>  -16.2818    1.0000 </r>
       <r>  -16.2816    1.0000 </r>
       <r>  -16.2810    1.0000 </r>
       <r>  -16.2804    1.0000 </r>
       <r>  -16.2801    1.0000 </r>
       <r>  -16.2795    1.0000 </r>
       <r>  -16.2794    1.0000 </r>
       <r>  -16.2734    1.0000 </r>
       <r>  -16.2730    1.0000 </r>
       <r>  -16.2727    1.0000 </r>
       <r>  -16.2723    1.0000 </r>
       <r>  -14.2668    1.0000 </r>
       <r>  -14.1303    1.0000 </r>
       <r>  -14.0963    1.0000 </r>
       <r>  -14.0141    1.0000 </r>
       <r>  -14.0025    1.0000 </r>
       <r>  -13.9992    1.0000 </r>
       <r>  -13.9218    1.0000 </r>
       <r>  -13.9119    1.0000 </r>
       <r>  -13.8169    1.0000 </r>
       <r>  -13.7852    1.0000 </r>
       <r>  -13.7795    1.0000 </r>
       <r>  -13.7415    1.0000 </r>
       <r>   -7.9303    1.0000 </r>
       <r>   -7.4416    1.0000 </r>
       <r>   -7.4255    1.0000 </r>
       <r>   -7.1693    1.0000 </r>
       <r>   -7.1655    1.0000 </r>
       <r>   -7.1638    1.0000 </r>
       <r>   -7.1568    1.0000 </r>
       <r>   -7.1456    1.0000 </r>
       <r>   -7.1419    1.0000 </r>
       <r>   -7.1378    1.0000 </r>
       <r>   -7.1265    1.0000 </r>
       <r>   -7.1173    1.0000 </r>
       <r>   -7.1140    1.0000 </r>
       <r>   -7.1034    1.0000 </r>
       <r>   -7.1006    1.0000 </r>
       <r>   -6.8511    1.0000 </r>
       <r>   -3.2285    1.0000 </r>
       <r>   -3.1305    1.0000 </r>
       <r>   -2.9429    1.0000 </r>
       <r>   -2.8208    1.0000 </r>
       <r>   -2.7273    1.0000 </r>
       <r>   -2.6471    1.0000 </r>
       <r>   -2.2723    1.0000 </r>
       <r>   -2.0638    1.0000 </r>
       <r>   -2.0463    1.0000 </r>
       <r>   -1.9851    1.0000 </r>
       <r>   -1.9422    1.0000 </r>
       <r>   -1.8514    1.0000 </r>
       <r>   -1.7763    1.0000 </r>
       <r>   -1.6716    1.0000 </r>
       <r>   -1.5959    1.0000 </r>
       <r>   -1.5906    1.0000 </r>
       <r>   -1.4215    1.0000 </r>
       <r>   -1.4024    1.0000 </r>
       <r>   -1.3744    1.0000 </r>
       <r>   -1.3327    1.0000 </r>
       <r>   -1.3150    1.0000 </r>
       <r>   -1.2965    1.0000 </r>
       <r>   -1.2691    1.0000 </r>
       <r>   -1.2656    1.0000 </r>
       <r>   -1.2228    1.0000 </r>
       <r>   -1.2076    1.0000 </r>
       <r>   -1.1645    1.0000 </r>
       <r>   -1.1564    1.0000 </r>
       <r>   -1.0927    1.0000 </r>
       <r>   -1.0789    1.0000 </r>
       <r>   -1.0120    1.0000 </r>
       <r>   -0.9834    1.0000 </r>
       <r>   -0.8684    1.0000 </r>
       <r>   -0.6689    1.0000 </r>
       <r>   -0.5181    1.0000 </r>
       <r>   -0.1009    1.0000 </r>
       <r>    2.9950    0.0000 </r>
       <r>    3.3274    0.0000 </r>
       <r>    3.6441    0.0000 </r>
       <r>    3.6849    0.0000 </r>
       <r>    4.0178    0.0000 </r>
       <r>    4.0682    0.0000 </r>
       <r>    5.0713    0.0000 </r>
       <r>    5.1405    0.0000 </r>
       <r>    5.3106    0.0000 </r>
       <r>    5.4391    0.0000 </r>
       <r>    5.7776    0.0000 </r>
       <r>    5.8677    0.0000 </r>
       <r>    6.1578    0.0000 </r>
       <r>    6.2086    0.0000 </r>
       <r>    6.2348    0.0000 </r>
       <r>    6.4777    0.0000 </r>
       <r>    6.5309    0.0000 </r>
       <r>    6.6852    0.0000 </r>
       <r>    6.7203    0.0000 </r>
       <r>    6.9229    0.0000 </r>
       <r>    6.9864    0.0000 </r>
       <r>    6.9915    0.0000 </r>
       <r>    7.0017    0.0000 </r>
       <r>    7.0196    0.0000 </r>
      </set>
      <set comment="kpoint 4">
       <r>  -20.7427    1.0000 </r>
       <r>  -20.7413    1.0000 </r>
       <r>  -20.7362    1.0000 </r>
       <r>  -20.7348    1.0000 </r>
       <r>  -16.4399    1.0000 </r>
       <r>  -16.4312    1.0000 </r>
       <r>  -16.4111    1.0000 </r>
       <r>  -16.3937    1.0000 </r>
       <r>  -16.3927    1.0000 </r>
       <r>  -16.3737    1.0000 </r>
       <r>  -16.3612    1.0000 </r>
       <r>  -16.3494    1.0000 </r>
       <r>  -16.2823    1.0000 </r>
       <r>  -16.2817    1.0000 </r>
       <r>  -16.2816    1.0000 </r>
       <r>  -16.2811    1.0000 </r>
       <r>  -16.2803    1.0000 </r>
       <r>  -16.2801    1.0000 </r>
       <r>  -16.2795    1.0000 </r>
       <r>  -16.2793    1.0000 </r>
       <r>  -16.2733    1.0000 </r>
       <r>  -16.2729    1.0000 </r>
       <r>  -16.2728    1.0000 </r>
       <r>  -16.2724    1.0000 </r>
       <r>  -14.2170    1.0000 </r>
       <r>  -14.1211    1.0000 </r>
       <r>  -14.0561    1.0000 </r>
       <r>  -14.0056    1.0000 </r>
       <r>  -14.0009    1.0000 </r>
       <r>  -13.9861    1.0000 </r>
       <r>  -13.9836    1.0000 </r>
       <r>  -13.9313    1.0000 </r>
       <r>  -13.8880    1.0000 </r>
       <r>  -13.8361    1.0000 </r>
       <r>  -13.7445    1.0000 </r>
       <r>  -13.7100    1.0000 </r>
       <r>   -7.8029    1.0000 </r>
       <r>   -7.5599    1.0000 </r>
       <r>   -7.2918    1.0000 </r>
       <r>   -7.1627    1.0000 </r>
       <r>   -7.1541    1.0000 </r>
       <r>   -7.1504    1.0000 </r>
       <r>   -7.1474    1.0000 </r>
       <r>   -7.1405    1.0000 </r>
       <r>   -7.1351    1.0000 </r>
       <r>   -7.1312    1.0000 </r>
       <r>   -7.1258    1.0000 </r>
       <r>   -7.1191    1.0000 </r>
       <r>   -7.1115    1.0000 </r>
       <r>   -7.1104    1.0000 </r>
       <r>   -7.0943    1.0000 </r>
       <r>   -6.9652    1.0000 </r>
       <r>   -3.2180    1.0000 </r>
       <r>   -3.1742    1.0000 </r>
       <r>   -3.1684    1.0000 </r>
       <r>   -3.0298    1.0000 </r>
       <r>   -2.7884    1.0000 </r>
       <r>   -2.6402    1.0000 </r>
       <r>   -2.1783    1.0000 </r>
       <r>   -2.0500    1.0000 </r>
       <r>   -2.0470    1.0000 </r>
       <r>   -2.0403    1.0000 </r>
       <r>   -1.9476    1.0000 </r>
       <r>   -1.7117    1.0000 </r>
       <r>   -1.6823    1.0000 </r>
       <r>   -1.6318    1.0000 </r>
       <r>   -1.5065    1.0000 </r>
       <r>   -1.4803    1.0000 </r>
       <r>   -1.4224    1.0000 </r>
       <r>   -1.3845    1.0000 </r>
       <r>   -1.3700    1.0000 </r>
       <r>   -1.3479    1.0000 </r>
       <r>   -1.3306    1.0000 </r>
       <r>   -1.3288    1.0000 </r>
       <r>   -1.2800    1.0000 </r>
       <r>   -1.2655    1.0000 </r>
       <r>   -1.2595    1.0000 </r>
       <r>   -1.2295    1.0000 </r>
       <r>   -1.2186    1.0000 </r>
       <r>   -1.1784    1.0000 </r>
       <r>   -1.1769    1.0000 </r>
       <r>   -1.0996    1.0000 </r>
       <r>   -1.0343    1.0000 </r>
       <r>   -1.0072    1.0000 </r>
       <r>   -0.7971    1.0000 </r>
       <r>   -0.6212    1.0000 </r>
       <r>   -0.3556    1.0000 </r>
       <r>   -0.0492    1.0000 </r>
       <r>    3.0772    0.0000 </r>
       <r>    3.1046    0.0000 </r>
       <r>    3.2472    0.0000 </r>
       <r>    3.4978    0.0000 </r>
       <r>    3.9233    0.0000 </r>
       <r>    4.2687    0.0000 </r>
       <r>    4.8711    0.0000 </r>
       <r>    5.2792    0.0000 </r>
       <r>    5.5940    0.0000 </r>
       <r>    5.9824    0.0000 </r>
       <r>    6.0129    0.0000 </r>
       <r>    6.0360    0.0000 </r>
       <r>    6.1995    0.0000 </r>
       <r>    6.3986    0.0000 </r>
       <r>    6.4185    0.0000 </r>
       <r>    6.6104    0.0000 </r>
       <r>    6.6470    0.0000 </r>
       <r>    6.7357    0.0000 </r>
       <r>    6.7904    0.0000 </r>
       <r>    6.8281    0.0000 </r>
       <r>    6.9742    0.0000 </r>
       <r>    6.9908    0.0000 </r>
       <r>    7.0236    0.0000 </r>
       <r>    7.2372    0.0000 </r>
      </set>
      <set comment="kpoint 5">
       <r>  -20.7427    1.0000 </r>
       <r>  -20.7413    1.0000 </r>
       <r>  -20.7362    1.0000 </r>
       <r>  -20.7348    1.0000 </r>
       <r>  -16.4398    1.0000 </r>
       <r>  -16.4313    1.0000 </r>
       <r>  -16.4109    1.0000 </r>
       <r>  -16.3936    1.0000 </r>
       <r>  -16.3928    1.0000 </r>
       <r>  -16.3739    1.0000 </r>
       <r>  -16.3612    1.0000 </r>
       <r>  -16.3495    1.0000 </r>
       <r>  -16.2824    1.0000 </r>
       <r>  -16.2817    1.0000 </r>
       <r>  -16.2817    1.0000 </r>
       <r>  -16.2810    1.0000 </r>
       <r>  -16.2803    1.0000 </r>
       <r>  -16.2802    1.0000 </r>
       <r>  -16.2795    1.0000 </r>
       <r>  -16.2794    1.0000 </r>
       <r>  -16.2733    1.0000 </r>
       <r>  -16.2729    1.0000 </r>
       <r>  -16.2728    1.0000 </r>
       <r>  -16.2724    1.0000 </r>
       <r>  -14.2169    1.0000 </r>
       <r>  -14.1213    1.0000 </r>
       <r>  -14.0562    1.0000 </r>
       <r>  -14.0044    1.0000 </r>
       <r>  -14.0021    1.0000 </r>
       <r>  -13.9858    1.0000 </r>
       <r>  -13.9832    1.0000 </r>
       <r>  -13.9314    1.0000 </r>
       <r>  -13.8880    1.0000 </r>
       <r>  -13.8361    1.0000 </r>
       <r>  -13.7442    1.0000 </r>
       <r>  -13.7104    1.0000 </r>
       <r>   -7.8021    1.0000 </r>
       <r>   -7.5609    1.0000 </r>
       <r>   -7.2911    1.0000 </r>
       <r>   -7.1626    1.0000 </r>
       <r>   -7.1560    1.0000 </r>
       <r>   -7.1479    1.0000 </r>
       <r>   -7.1470    1.0000 </r>
       <r>   -7.1415    1.0000 </r>
       <r>   -7.1364    1.0000 </r>
       <r>   -7.1271    1.0000 </r>
       <r>   -7.1263    1.0000 </r>
       <r>   -7.1233    1.0000 </r>
       <r>   -7.1133    1.0000 </r>
       <r>   -7.1098    1.0000 </r>
       <r>   -7.0908    1.0000 </r>
       <r>   -6.9666    1.0000 </r>
       <r>   -3.2168    1.0000 </r>
       <r>   -3.1757    1.0000 </r>
       <r>   -3.1671    1.0000 </r>
       <r>   -3.0277    1.0000 </r>
       <r>   -2.7892    1.0000 </r>
       <r>   -2.6418    1.0000 </r>
       <r>   -2.1784    1.0000 </r>
       <r>   -2.0503    1.0000 </r>
       <r>   -2.0464    1.0000 </r>
       <r>   -2.0413    1.0000 </r>
       <r>   -1.9480    1.0000 </r>
       <r>   -1.7112    1.0000 </r>
       <r>   -1.6834    1.0000 </r>
       <r>   -1.6313    1.0000 </r>
       <r>   -1.5059    1.0000 </r>
       <r>   -1.4783    1.0000 </r>
       <r>   -1.4228    1.0000 </r>
       <r>   -1.3827    1.0000 </r>
       <r>   -1.3707    1.0000 </r>
       <r>   -1.3486    1.0000 </r>
       <r>   -1.3317    1.0000 </r>
       <r>   -1.3277    1.0000 </r>
       <r>   -1.2798    1.0000 </r>
       <r>   -1.2663    1.0000 </r>
       <r>   -1.2601    1.0000 </r>
       <r>   -1.2295    1.0000 </r>
       <r>   -1.2182    1.0000 </r>
       <r>   -1.1780    1.0000 </r>
       <r>   -1.1772    1.0000 </r>
       <r>   -1.0983    1.0000 </r>
       <r>   -1.0352    1.0000 </r>
       <r>   -1.0069    1.0000 </r>
       <r>   -0.7966    1.0000 </r>
       <r>   -0.6229    1.0000 </r>
       <r>   -0.3554    1.0000 </r>
       <r>   -0.0496    1.0000 </r>
       <r>    3.0780    0.0000 </r>
       <r>    3.1001    0.0000 </r>
       <r>    3.2464    0.0000 </r>
       <r>    3.4934    0.0000 </r>
       <r>    3.9276    0.0000 </r>
       <r>    4.2734    0.0000 </r>
       <r>    4.8746    0.0000 </r>
       <r>    5.2825    0.0000 </r>
       <r>    5.5908    0.0000 </r>
       <r>    5.9823    0.0000 </r>
       <r>    6.0168    0.0000 </r>
       <r>    6.0331    0.0000 </r>
       <r>    6.1966    0.0000 </r>
       <r>    6.4008    0.0000 </r>
       <r>    6.4159    0.0000 </r>
       <r>    6.6110    0.0000 </r>
       <r>    6.6444    0.0000 </r>
       <r>    6.7363    0.0000 </r>
       <r>    6.7911    0.0000 </r>
       <r>    6.8278    0.0000 </r>
       <r>    6.9787    0.0000 </r>
       <r>    6.9888    0.0000 </r>
       <r>    7.0240    0.0000 </r>
       <r>    7.2375    0.0000 </r>
      </set>
      <set comment="kpoint 6">
       <r>  -20.7426    1.0000 </r>
       <r>  -20.7424    1.0000 </r>
       <r>  -20.7351    1.0000 </r>
       <r>  -20.7351    1.0000 </r>
       <r>  -16.4327    1.0000 </r>
       <r>  -16.4327    1.0000 </r>
       <r>  -16.4129    1.0000 </r>
       <r>  -16.4129    1.0000 </r>
       <r>  -16.3841    1.0000 </r>
       <r>  -16.3841    1.0000 </r>
       <r>  -16.3451    1.0000 </r>
       <r>  -16.3451    1.0000 </r>
       <r>  -16.2822    1.0000 </r>
       <r>  -16.2822    1.0000 </r>
       <r>  -16.2811    1.0000 </r>
       <r>  -16.2811    1.0000 </r>
       <r>  -16.2800    1.0000 </r>
       <r>  -16.2800    1.0000 </r>
       <r>  -16.2796    1.0000 </r>
       <r>  -16.2796    1.0000 </r>
       <r>  -16.2734    1.0000 </r>
       <r>  -16.2734    1.0000 </r>
       <r>  -16.2722    1.0000 </r>
       <r>  -16.2722    1.0000 </r>
       <r>  -14.2601    1.0000 </r>
       <r>  -14.2601    1.0000 </r>
       <r>  -13.9842    1.0000 </r>
       <r>  -13.9842    1.0000 </r>
       <r>  -13.9740    1.0000 </r>
       <r>  -13.9740    1.0000 </r>
       <r>  -13.9649    1.0000 </r>
       <r>  -13.9649    1.0000 </r>
       <r>  -13.8267    1.0000 </r>
       <r>  -13.8267    1.0000 </r>
       <r>  -13.7155    1.0000 </r>
       <r>  -13.7155    1.0000 </r>
       <r>   -7.9115    1.0000 </r>
       <r>   -7.9115    1.0000 </r>
       <r>   -7.1809    1.0000 </r>
       <r>   -7.1807    1.0000 </r>
       <r>   -7.1653    1.0000 </r>
       <r>   -7.1653    1.0000 </r>
       <r>   -7.1449    1.0000 </r>
       <r>   -7.1449    1.0000 </r>
       <r>   -7.1326    1.0000 </r>
       <r>   -7.1325    1.0000 </r>
       <r>   -7.1251    1.0000 </r>
       <r>   -7.1249    1.0000 </r>
       <r>   -7.1161    1.0000 </r>
       <r>   -7.1159    1.0000 </r>
       <r>   -6.8649    1.0000 </r>
       <r>   -6.8649    1.0000 </r>
       <r>   -3.1956    1.0000 </r>
       <r>   -3.1956    1.0000 </r>
       <r>   -3.1818    1.0000 </r>
       <r>   -3.1818    1.0000 </r>
       <r>   -2.4454    1.0000 </r>
       <r>   -2.4454    1.0000 </r>
       <r>   -2.3023    1.0000 </r>
       <r>   -2.3023    1.0000 </r>
       <r>   -1.9807    1.0000 </r>
       <r>   -1.9807    1.0000 </r>
       <r>   -1.7774    1.0000 </r>
       <r>   -1.7774    1.0000 </r>
       <r>   -1.7434    1.0000 </r>
       <r>   -1.7433    1.0000 </r>
       <r>   -1.4578    1.0000 </r>
       <r>   -1.4578    1.0000 </r>
       <r>   -1.4515    1.0000 </r>
       <r>   -1.4515    1.0000 </r>
       <r>   -1.3356    1.0000 </r>
       <r>   -1.3356    1.0000 </r>
       <r>   -1.3129    1.0000 </r>
       <r>   -1.3129    1.0000 </r>
       <r>   -1.2833    1.0000 </r>
       <r>   -1.2833    1.0000 </r>
       <r>   -1.1639    1.0000 </r>
       <r>   -1.1639    1.0000 </r>
       <r>   -1.1558    1.0000 </r>
       <r>   -1.1558    1.0000 </r>
       <r>   -1.0726    1.0000 </r>
       <r>   -1.0726    1.0000 </r>
       <r>   -1.0693    1.0000 </r>
       <r>   -1.0693    1.0000 </r>
       <r>   -0.8053    1.0000 </r>
       <r>   -0.8053    1.0000 </r>
       <r>    0.0140    1.0000 </r>
       <r>    0.0140    1.0000 </r>
       <r>    2.9663    0.0000 </r>
       <r>    2.9663    0.0000 </r>
       <r>    3.1157    0.0000 </r>
       <r>    3.1157    0.0000 </r>
       <r>    4.3504    0.0000 </r>
       <r>    4.3504    0.0000 </r>
       <r>    4.9171    0.0000 </r>
       <r>    4.9171    0.0000 </r>
       <r>    5.6259    0.0000 </r>
       <r>    5.6259    0.0000 </r>
       <r>    6.0832    0.0000 </r>
       <r>    6.0832    0.0000 </r>
       <r>    6.0989    0.0000 </r>
       <r>    6.0989    0.0000 </r>
       <r>    6.3493    0.0000 </r>
       <r>    6.3493    0.0000 </r>
       <r>    6.3670    0.0000 </r>
       <r>    6.3670    0.0000 </r>
       <r>    6.7113    0.0000 </r>
       <r>    6.7113    0.0000 </r>
       <r>    6.9056    0.0000 </r>
       <r>    6.9063    0.0000 </r>
       <r>    7.0438    0.0000 </r>
       <r>    7.0891    0.0000 </r>
      </set>
      <set comment="kpoint 7">
       <r>  -20.7423    1.0000 </r>
       <r>  -20.7420    1.0000 </r>
       <r>  -20.7355    1.0000 </r>
       <r>  -20.7355    1.0000 </r>
       <r>  -16.4119    1.0000 </r>
       <r>  -16.4119    1.0000 </r>
       <r>  -16.4056    1.0000 </r>
       <r>  -16.4056    1.0000 </r>
       <r>  -16.3912    1.0000 </r>
       <r>  -16.3912    1.0000 </r>
       <r>  -16.3682    1.0000 </r>
       <r>  -16.3682    1.0000 </r>
       <r>  -16.2821    1.0000 </r>
       <r>  -16.2821    1.0000 </r>
       <r>  -16.2813    1.0000 </r>
       <r>  -16.2813    1.0000 </r>
       <r>  -16.2800    1.0000 </r>
       <r>  -16.2800    1.0000 </r>
       <r>  -16.2798    1.0000 </r>
       <r>  -16.2798    1.0000 </r>
       <r>  -16.2732    1.0000 </r>
       <r>  -16.2732    1.0000 </r>
       <r>  -16.2725    1.0000 </r>
       <r>  -16.2725    1.0000 </r>
       <r>  -14.2166    1.0000 </r>
       <r>  -14.2166    1.0000 </r>
       <r>  -14.1044    1.0000 </r>
       <r>  -14.1044    1.0000 </r>
       <r>  -13.9095    1.0000 </r>
       <r>  -13.9095    1.0000 </r>
       <r>  -13.8814    1.0000 </r>
       <r>  -13.8814    1.0000 </r>
       <r>  -13.8378    1.0000 </r>
       <r>  -13.8378    1.0000 </r>
       <r>  -13.7803    1.0000 </r>
       <r>  -13.7803    1.0000 </r>
       <r>   -7.6998    1.0000 </r>
       <r>   -7.6998    1.0000 </r>
       <r>   -7.2338    1.0000 </r>
       <r>   -7.2338    1.0000 </r>
       <r>   -7.1647    1.0000 </r>
       <r>   -7.1645    1.0000 </r>
       <r>   -7.1621    1.0000 </r>
       <r>   -7.1620    1.0000 </r>
       <r>   -7.1373    1.0000 </r>
       <r>   -7.1373    1.0000 </r>
       <r>   -7.1239    1.0000 </r>
       <r>   -7.1239    1.0000 </r>
       <r>   -7.1205    1.0000 </r>
       <r>   -7.1204    1.0000 </r>
       <r>   -7.0765    1.0000 </r>
       <r>   -7.0764    1.0000 </r>
       <r>   -2.8884    1.0000 </r>
       <r>   -2.8884    1.0000 </r>
       <r>   -2.7789    1.0000 </r>
       <r>   -2.7789    1.0000 </r>
       <r>   -2.4140    1.0000 </r>
       <r>   -2.4140    1.0000 </r>
       <r>   -2.3430    1.0000 </r>
       <r>   -2.3430    1.0000 </r>
       <r>   -2.1245    1.0000 </r>
       <r>   -2.1245    1.0000 </r>
       <r>   -2.0133    1.0000 </r>
       <r>   -2.0133    1.0000 </r>
       <r>   -1.6962    1.0000 </r>
       <r>   -1.6962    1.0000 </r>
       <r>   -1.6239    1.0000 </r>
       <r>   -1.6239    1.0000 </r>
       <r>   -1.5078    1.0000 </r>
       <r>   -1.5078    1.0000 </r>
       <r>   -1.4711    1.0000 </r>
       <r>   -1.4711    1.0000 </r>
       <r>   -1.3495    1.0000 </r>
       <r>   -1.3495    1.0000 </r>
       <r>   -1.3347    1.0000 </r>
       <r>   -1.3347    1.0000 </r>
       <r>   -1.1286    1.0000 </r>
       <r>   -1.1286    1.0000 </r>
       <r>   -1.0914    1.0000 </r>
       <r>   -1.0914    1.0000 </r>
       <r>   -1.0798    1.0000 </r>
       <r>   -1.0798    1.0000 </r>
       <r>   -1.0558    1.0000 </r>
       <r>   -1.0558    1.0000 </r>
       <r>   -0.7826    1.0000 </r>
       <r>   -0.7826    1.0000 </r>
       <r>   -0.5208    1.0000 </r>
       <r>   -0.5208    1.0000 </r>
       <r>    3.7433    0.0000 </r>
       <r>    3.7433    0.0000 </r>
       <r>    3.9320    0.0000 </r>
       <r>    3.9320    0.0000 </r>
       <r>    4.4951    0.0000 </r>
       <r>    4.4951    0.0000 </r>
       <r>    4.7610    0.0000 </r>
       <r>    4.7610    0.0000 </r>
       <r>    5.2553    0.0000 </r>
       <r>    5.2553    0.0000 </r>
       <r>    5.2810    0.0000 </r>
       <r>    5.2810    0.0000 </r>
       <r>    6.1318    0.0000 </r>
       <r>    6.1318    0.0000 </r>
       <r>    6.4143    0.0000 </r>
       <r>    6.4143    0.0000 </r>
       <r>    6.5460    0.0000 </r>
       <r>    6.5460    0.0000 </r>
       <r>    6.6634    0.0000 </r>
       <r>    6.6634    0.0000 </r>
       <r>    6.7820    0.0000 </r>
       <r>    6.7820    0.0000 </r>
       <r>    6.9504    0.0000 </r>
       <r>    6.9521    0.0000 </r>
      </set>
      <set comment="kpoint 8">
       <r>  -20.7423    1.0000 </r>
       <r>  -20.7420    1.0000 </r>
       <r>  -20.7354    1.0000 </r>
       <r>  -20.7354    1.0000 </r>
       <r>  -16.4120    1.0000 </r>
       <r>  -16.4120    1.0000 </r>
       <r>  -16.4055    1.0000 </r>
       <r>  -16.4055    1.0000 </r>
       <r>  -16.3911    1.0000 </r>
       <r>  -16.3911    1.0000 </r>
       <r>  -16.3683    1.0000 </r>
       <r>  -16.3683    1.0000 </r>
       <r>  -16.2820    1.0000 </r>
       <r>  -16.2820    1.0000 </r>
       <r>  -16.2813    1.0000 </r>
       <r>  -16.2813    1.0000 </r>
       <r>  -16.2799    1.0000 </r>
       <r>  -16.2799    1.0000 </r>
       <r>  -16.2798    1.0000 </r>
       <r>  -16.2798    1.0000 </r>
       <r>  -16.2732    1.0000 </r>
       <r>  -16.2732    1.0000 </r>
       <r>  -16.2725    1.0000 </r>
       <r>  -16.2725    1.0000 </r>
       <r>  -14.2154    1.0000 </r>
       <r>  -14.2154    1.0000 </r>
       <r>  -14.1004    1.0000 </r>
       <r>  -14.1004    1.0000 </r>
       <r>  -13.9174    1.0000 </r>
       <r>  -13.9174    1.0000 </r>
       <r>  -13.8793    1.0000 </r>
       <r>  -13.8793    1.0000 </r>
       <r>  -13.8368    1.0000 </r>
       <r>  -13.8368    1.0000 </r>
       <r>  -13.7824    1.0000 </r>
       <r>  -13.7824    1.0000 </r>
       <r>   -7.6972    1.0000 </r>
       <r>   -7.6972    1.0000 </r>
       <r>   -7.2152    1.0000 </r>
       <r>   -7.2151    1.0000 </r>
       <r>   -7.1741    1.0000 </r>
       <r>   -7.1741    1.0000 </r>
       <r>   -7.1518    1.0000 </r>
       <r>   -7.1518    1.0000 </r>
       <r>   -7.1316    1.0000 </r>
       <r>   -7.1315    1.0000 </r>
       <r>   -7.1256    1.0000 </r>
       <r>   -7.1256    1.0000 </r>
       <r>   -7.1070    1.0000 </r>
       <r>   -7.1069    1.0000 </r>
       <r>   -7.1043    1.0000 </r>
       <r>   -7.1042    1.0000 </r>
       <r>   -2.8860    1.0000 </r>
       <r>   -2.8860    1.0000 </r>
       <r>   -2.7743    1.0000 </r>
       <r>   -2.7743    1.0000 </r>
       <r>   -2.4347    1.0000 </r>
       <r>   -2.4347    1.0000 </r>
       <r>   -2.3507    1.0000 </r>
       <r>   -2.3507    1.0000 </r>
       <r>   -2.1708    1.0000 </r>
       <r>   -2.1708    1.0000 </r>
       <r>   -2.0001    1.0000 </r>
       <r>   -2.0001    1.0000 </r>
       <r>   -1.6637    1.0000 </r>
       <r>   -1.6637    1.0000 </r>
       <r>   -1.6227    1.0000 </r>
       <r>   -1.6227    1.0000 </r>
       <r>   -1.4963    1.0000 </r>
       <r>   -1.4963    1.0000 </r>
       <r>   -1.4209    1.0000 </r>
       <r>   -1.4209    1.0000 </r>
       <r>   -1.3065    1.0000 </r>
       <r>   -1.3065    1.0000 </r>
       <r>   -1.2848    1.0000 </r>
       <r>   -1.2848    1.0000 </r>
       <r>   -1.1613    1.0000 </r>
       <r>   -1.1613    1.0000 </r>
       <r>   -1.1097    1.0000 </r>
       <r>   -1.1097    1.0000 </r>
       <r>   -1.0838    1.0000 </r>
       <r>   -1.0838    1.0000 </r>
       <r>   -1.0483    1.0000 </r>
       <r>   -1.0483    1.0000 </r>
       <r>   -0.8549    1.0000 </r>
       <r>   -0.8549    1.0000 </r>
       <r>   -0.5897    1.0000 </r>
       <r>   -0.5897    1.0000 </r>
       <r>    3.8156    0.0000 </r>
       <r>    3.8156    0.0000 </r>
       <r>    3.8418    0.0000 </r>
       <r>    3.8418    0.0000 </r>
       <r>    4.4830    0.0000 </r>
       <r>    4.4830    0.0000 </r>
       <r>    4.7589    0.0000 </r>
       <r>    4.7589    0.0000 </r>
       <r>    5.2292    0.0000 </r>
       <r>    5.2292    0.0000 </r>
       <r>    5.2863    0.0000 </r>
       <r>    5.2863    0.0000 </r>
       <r>    6.1087    0.0000 </r>
       <r>    6.1087    0.0000 </r>
       <r>    6.3605    0.0000 </r>
       <r>    6.3605    0.0000 </r>
       <r>    6.4893    0.0000 </r>
       <r>    6.4893    0.0000 </r>
       <r>    6.7181    0.0000 </r>
       <r>    6.7181    0.0000 </r>
       <r>    6.8852    0.0000 </r>
       <r>    6.8852    0.0000 </r>
       <r>    7.0381    0.0000 </r>
       <r>    7.0381    0.0000 </r>
      </set>
      <set comment="kpoint 9">
       <r>  -20.7421    1.0000 </r>
       <r>  -20.7419    1.0000 </r>
       <r>  -20.7355    1.0000 </r>
       <r>  -20.7355    1.0000 </r>
       <r>  -16.4202    1.0000 </r>
       <r>  -16.4202    1.0000 </r>
       <r>  -16.4072    1.0000 </r>
       <r>  -16.4072    1.0000 </r>
       <r>  -16.3830    1.0000 </r>
       <r>  -16.3830    1.0000 </r>
       <r>  -16.3668    1.0000 </r>
       <r>  -16.3668    1.0000 </r>
       <r>  -16.2820    1.0000 </r>
       <r>  -16.2820    1.0000 </r>
       <r>  -16.2814    1.0000 </r>
       <r>  -16.2814    1.0000 </r>
       <r>  -16.2799    1.0000 </r>
       <r>  -16.2799    1.0000 </r>
       <r>  -16.2797    1.0000 </r>
       <r>  -16.2797    1.0000 </r>
       <r>  -16.2731    1.0000 </r>
       <r>  -16.2731    1.0000 </r>
       <r>  -16.2727    1.0000 </r>
       <r>  -16.2727    1.0000 </r>
       <r>  -14.1700    1.0000 </r>
       <r>  -14.1700    1.0000 </r>
       <r>  -14.0844    1.0000 </r>
       <r>  -14.0844    1.0000 </r>
       <r>  -13.9865    1.0000 </r>
       <r>  -13.9865    1.0000 </r>
       <r>  -13.9027    1.0000 </r>
       <r>  -13.9027    1.0000 </r>
       <r>  -13.8139    1.0000 </r>
       <r>  -13.8139    1.0000 </r>
       <r>  -13.7812    1.0000 </r>
       <r>  -13.7812    1.0000 </r>
       <r>   -7.5667    1.0000 </r>
       <r>   -7.5667    1.0000 </r>
       <r>   -7.3218    1.0000 </r>
       <r>   -7.3218    1.0000 </r>
       <r>   -7.1611    1.0000 </r>
       <r>   -7.1609    1.0000 </r>
       <r>   -7.1452    1.0000 </r>
       <r>   -7.1451    1.0000 </r>
       <r>   -7.1279    1.0000 </r>
       <r>   -7.1278    1.0000 </r>
       <r>   -7.1260    1.0000 </r>
       <r>   -7.1259    1.0000 </r>
       <r>   -7.1183    1.0000 </r>
       <r>   -7.1183    1.0000 </r>
       <r>   -7.0956    1.0000 </r>
       <r>   -7.0956    1.0000 </r>
       <r>   -3.1082    1.0000 </r>
       <r>   -3.1082    1.0000 </r>
       <r>   -2.7504    1.0000 </r>
       <r>   -2.7504    1.0000 </r>
       <r>   -2.4900    1.0000 </r>
       <r>   -2.4900    1.0000 </r>
       <r>   -2.3607    1.0000 </r>
       <r>   -2.3607    1.0000 </r>
       <r>   -2.1082    1.0000 </r>
       <r>   -2.1082    1.0000 </r>
       <r>   -1.9687    1.0000 </r>
       <r>   -1.9687    1.0000 </r>
       <r>   -1.6908    1.0000 </r>
       <r>   -1.6908    1.0000 </r>
       <r>   -1.6124    1.0000 </r>
       <r>   -1.6124    1.0000 </r>
       <r>   -1.4642    1.0000 </r>
       <r>   -1.4642    1.0000 </r>
       <r>   -1.3879    1.0000 </r>
       <r>   -1.3879    1.0000 </r>
       <r>   -1.3233    1.0000 </r>
       <r>   -1.3233    1.0000 </r>
       <r>   -1.2442    1.0000 </r>
       <r>   -1.2442    1.0000 </r>
       <r>   -1.2100    1.0000 </r>
       <r>   -1.2100    1.0000 </r>
       <r>   -1.1441    1.0000 </r>
       <r>   -1.1441    1.0000 </r>
       <r>   -1.0886    1.0000 </r>
       <r>   -1.0886    1.0000 </r>
       <r>   -1.0386    1.0000 </r>
       <r>   -1.0386    1.0000 </r>
       <r>   -0.7689    1.0000 </r>
       <r>   -0.7689    1.0000 </r>
       <r>   -0.5030    1.0000 </r>
       <r>   -0.5030    1.0000 </r>
       <r>    3.2922    0.0000 </r>
       <r>    3.2922    0.0000 </r>
       <r>    4.0725    0.0000 </r>
       <r>    4.0725    0.0000 </r>
       <r>    4.5609    0.0000 </r>
       <r>    4.5609    0.0000 </r>
       <r>    4.6911    0.0000 </r>
       <r>    4.6911    0.0000 </r>
       <r>    5.0942    0.0000 </r>
       <r>    5.0942    0.0000 </r>
       <r>    5.8183    0.0000 </r>
       <r>    5.8183    0.0000 </r>
       <r>    6.3542    0.0000 </r>
       <r>    6.3542    0.0000 </r>
       <r>    6.4853    0.0000 </r>
       <r>    6.4853    0.0000 </r>
       <r>    6.6586    0.0000 </r>
       <r>    6.6586    0.0000 </r>
       <r>    6.8107    0.0000 </r>
       <r>    6.8107    0.0000 </r>
       <r>    6.8887    0.0000 </r>
       <r>    6.8887    0.0000 </r>
       <r>    7.0028    0.0000 </r>
       <r>    7.0028    0.0000 </r>
      </set>
      <set comment="kpoint 10">
       <r>  -20.7421    1.0000 </r>
       <r>  -20.7419    1.0000 </r>
       <r>  -20.7355    1.0000 </r>
       <r>  -20.7355    1.0000 </r>
       <r>  -16.4201    1.0000 </r>
       <r>  -16.4201    1.0000 </r>
       <r>  -16.4073    1.0000 </r>
       <r>  -16.4073    1.0000 </r>
       <r>  -16.3830    1.0000 </r>
       <r>  -16.3830    1.0000 </r>
       <r>  -16.3670    1.0000 </r>
       <r>  -16.3670    1.0000 </r>
       <r>  -16.2820    1.0000 </r>
       <r>  -16.2820    1.0000 </r>
       <r>  -16.2813    1.0000 </r>
       <r>  -16.2813    1.0000 </r>
       <r>  -16.2799    1.0000 </r>
       <r>  -16.2799    1.0000 </r>
       <r>  -16.2798    1.0000 </r>
       <r>  -16.2798    1.0000 </r>
       <r>  -16.2731    1.0000 </r>
       <r>  -16.2731    1.0000 </r>
       <r>  -16.2726    1.0000 </r>
       <r>  -16.2726    1.0000 </r>
       <r>  -14.1700    1.0000 </r>
       <r>  -14.1700    1.0000 </r>
       <r>  -14.0846    1.0000 </r>
       <r>  -14.0846    1.0000 </r>
       <r>  -13.9862    1.0000 </r>
       <r>  -13.9862    1.0000 </r>
       <r>  -13.9027    1.0000 </r>
       <r>  -13.9027    1.0000 </r>
       <r>  -13.8137    1.0000 </r>
       <r>  -13.8137    1.0000 </r>
       <r>  -13.7815    1.0000 </r>
       <r>  -13.7815    1.0000 </r>
       <r>   -7.5659    1.0000 </r>
       <r>   -7.5659    1.0000 </r>
       <r>   -7.3229    1.0000 </r>
       <r>   -7.3229    1.0000 </r>
       <r>   -7.1612    1.0000 </r>
       <r>   -7.1611    1.0000 </r>
       <r>   -7.1442    1.0000 </r>
       <r>   -7.1441    1.0000 </r>
       <r>   -7.1310    1.0000 </r>
       <r>   -7.1309    1.0000 </r>
       <r>   -7.1224    1.0000 </r>
       <r>   -7.1224    1.0000 </r>
       <r>   -7.1184    1.0000 </r>
       <r>   -7.1183    1.0000 </r>
       <r>   -7.0968    1.0000 </r>
       <r>   -7.0967    1.0000 </r>
       <r>   -3.1069    1.0000 </r>
       <r>   -3.1069    1.0000 </r>
       <r>   -2.7509    1.0000 </r>
       <r>   -2.7509    1.0000 </r>
       <r>   -2.4903    1.0000 </r>
       <r>   -2.4903    1.0000 </r>
       <r>   -2.3608    1.0000 </r>
       <r>   -2.3608    1.0000 </r>
       <r>   -2.1083    1.0000 </r>
       <r>   -2.1083    1.0000 </r>
       <r>   -1.9692    1.0000 </r>
       <r>   -1.9692    1.0000 </r>
       <r>   -1.6916    1.0000 </r>
       <r>   -1.6916    1.0000 </r>
       <r>   -1.6120    1.0000 </r>
       <r>   -1.6120    1.0000 </r>
       <r>   -1.4648    1.0000 </r>
       <r>   -1.4648    1.0000 </r>
       <r>   -1.3855    1.0000 </r>
       <r>   -1.3855    1.0000 </r>
       <r>   -1.3221    1.0000 </r>
       <r>   -1.3221    1.0000 </r>
       <r>   -1.2448    1.0000 </r>
       <r>   -1.2448    1.0000 </r>
       <r>   -1.2106    1.0000 </r>
       <r>   -1.2106    1.0000 </r>
       <r>   -1.1441    1.0000 </r>
       <r>   -1.1441    1.0000 </r>
       <r>   -1.0895    1.0000 </r>
       <r>   -1.0895    1.0000 </r>
       <r>   -1.0380    1.0000 </r>
       <r>   -1.0380    1.0000 </r>
       <r>   -0.7686    1.0000 </r>
       <r>   -0.7686    1.0000 </r>
       <r>   -0.5040    1.0000 </r>
       <r>   -0.5040    1.0000 </r>
       <r>    3.2877    0.0000 </r>
       <r>    3.2877    0.0000 </r>
       <r>    4.0763    0.0000 </r>
       <r>    4.0763    0.0000 </r>
       <r>    4.5608    0.0000 </r>
       <r>    4.5608    0.0000 </r>
       <r>    4.6931    0.0000 </r>
       <r>    4.6931    0.0000 </r>
       <r>    5.0973    0.0000 </r>
       <r>    5.0973    0.0000 </r>
       <r>    5.8144    0.0000 </r>
       <r>    5.8144    0.0000 </r>
       <r>    6.3552    0.0000 </r>
       <r>    6.3552    0.0000 </r>
       <r>    6.4847    0.0000 </r>
       <r>    6.4847    0.0000 </r>
       <r>    6.6571    0.0000 </r>
       <r>    6.6572    0.0000 </r>
       <r>    6.8112    0.0000 </r>
       <r>    6.8112    0.0000 </r>
       <r>    6.8876    0.0000 </r>
       <r>    6.8876    0.0000 </r>
       <r>    7.0034    0.0000 </r>
       <r>    7.0034    0.0000 </r>
      </set>
     </set>
    </set>
   </array>
  </eigenvalues>
  <separator name="orbital magnetization" >
   <v name="MAGDIPOLOUT">      0.00000000      0.00000000      0.00000000</v>
  </separator>
  <dos>
   <i name="efermi">      0.55708134 </i>
   <total>
    <array>
     <dimension dim="1">gridpoints</dimension>
     <dimension dim="2">spin</dimension>
     <field>energy</field>
     <field>total</field>
     <field>integrated</field>
     <set>
      <set comment="spin 1">
       <r>   -22.1423     0.0000     0.0000 </r>
       <r>   -22.0397     0.0000     0.0000 </r>
       <r>   -21.9371     0.0000     0.0000 </r>
       <r>   -21.8346     0.0000     0.0000 </r>
       <r>   -21.7320     0.0000     0.0000 </r>
       <r>   -21.6294     0.0000     0.0000 </r>
       <r>   -21.5268     0.0000     0.0000 </r>
       <r>   -21.4242     0.0000     0.0000 </r>
       <r>   -21.3216     0.0000     0.0000 </r>
       <r>   -21.2190     0.0000     0.0000 </r>
       <r>   -21.1164     0.0000     0.0000 </r>
       <r>   -21.0138     0.0000     0.0000 </r>
       <r>   -20.9112     0.0000     0.0000 </r>
       <r>   -20.8086     0.0000     0.0000 </r>
       <r>   -20.7060    77.9749     7.9999 </r>
       <r>   -20.6034     0.0000     8.0000 </r>
       <r>   -20.5008     0.0000     8.0000 </r>
       <r>   -20.3982     0.0000     8.0000 </r>
       <r>   -20.2956     0.0000     8.0000 </r>
       <r>   -20.1930     0.0000     8.0000 </r>
       <r>   -20.0904     0.0000     8.0000 </r>
       <r>   -19.9878     0.0000     8.0000 </r>
       <r>   -19.8852     0.0000     8.0000 </r>
       <r>   -19.7826     0.0000     8.0000 </r>
       <r>   -19.6800     0.0000     8.0000 </r>
       <r>   -19.5774     0.0000     8.0000 </r>
       <r>   -19.4748     0.0000     8.0000 </r>
       <r>   -19.3722     0.0000     8.0000 </r>
       <r>   -19.2696     0.0000     8.0000 </r>
       <r>   -19.1670     0.0000     8.0000 </r>
       <r>   -19.0645     0.0000     8.0000 </r>
       <r>   -18.9619     0.0000     8.0000 </r>
       <r>   -18.8593     0.0000     8.0000 </r>
       <r>   -18.7567     0.0000     8.0000 </r>
       <r>   -18.6541     0.0000     8.0000 </r>
       <r>   -18.5515     0.0000     8.0000 </r>
       <r>   -18.4489     0.0000     8.0000 </r>
       <r>   -18.3463     0.0000     8.0000 </r>
       <r>   -18.2437     0.0000     8.0000 </r>
       <r>   -18.1411     0.0000     8.0000 </r>
       <r>   -18.0385     0.0000     8.0000 </r>
       <r>   -17.9359     0.0000     8.0000 </r>
       <r>   -17.8333     0.0000     8.0000 </r>
       <r>   -17.7307     0.0000     8.0000 </r>
       <r>   -17.6281     0.0000     8.0000 </r>
       <r>   -17.5255     0.0000     8.0000 </r>
       <r>   -17.4229     0.0000     8.0000 </r>
       <r>   -17.3203     0.0000     8.0000 </r>
       <r>   -17.2177     0.0000     8.0000 </r>
       <r>   -17.1151     0.0000     8.0000 </r>
       <r>   -17.0125     0.0000     8.0000 </r>
       <r>   -16.9099     0.0000     8.0000 </r>
       <r>   -16.8073     0.0000     8.0000 </r>
       <r>   -16.7047     0.0000     8.0000 </r>
       <r>   -16.6021     0.0000     8.0000 </r>
       <r>   -16.4995     0.0000     8.0000 </r>
       <r>   -16.3970    76.2959    15.8277 </r>
       <r>   -16.2944    53.2751    24.4661 </r>
       <r>   -16.1918     0.0000    48.0000 </r>
       <r>   -16.0892     0.0000    48.0000 </r>
       <r>   -15.9866     0.0000    48.0000 </r>
       <r>   -15.8840     0.0000    48.0000 </r>
       <r>   -15.7814     0.0000    48.0000 </r>
       <r>   -15.6788     0.0000    48.0000 </r>
       <r>   -15.5762     0.0000    48.0000 </r>
       <r>   -15.4736     0.0000    48.0000 </r>
       <r>   -15.3710     0.0000    48.0000 </r>
       <r>   -15.2684     0.0000    48.0000 </r>
       <r>   -15.1658     0.0000    48.0000 </r>
       <r>   -15.0632     0.0000    48.0000 </r>
       <r>   -14.9606     0.0000    48.0000 </r>
       <r>   -14.8580     0.0000    48.0000 </r>
       <r>   -14.7554     0.0000    48.0000 </r>
       <r>   -14.6528     0.0000    48.0000 </r>
       <r>   -14.5502     0.0000    48.0000 </r>
       <r>   -14.4476     0.0000    48.0000 </r>
       <r>   -14.3450     0.0001    48.0000 </r>
       <r>   -14.2424     7.5681    48.7765 </r>
       <r>   -14.1398    22.6576    51.1025 </r>
       <r>   -14.0372    25.9938    54.6669 </r>
       <r>   -13.9346    51.8975    60.2135 </r>
       <r>   -13.8320    40.7637    65.6269 </r>
       <r>   -13.7294    34.6457    70.9990 </r>
       <r>   -13.6269     0.0000    72.0000 </r>
       <r>   -13.5243     0.0000    72.0000 </r>
       <r>   -13.4217     0.0000    72.0000 </r>
       <r>   -13.3191     0.0000    72.0000 </r>
       <r>   -13.2165     0.0000    72.0000 </r>
       <r>   -13.1139     0.0000    72.0000 </r>
       <r>   -13.0113     0.0000    72.0000 </r>
       <r>   -12.9087     0.0000    72.0000 </r>
       <r>   -12.8061     0.0000    72.0000 </r>
       <r>   -12.7035     0.0000    72.0000 </r>
       <r>   -12.6009     0.0000    72.0000 </r>
       <r>   -12.4983     0.0000    72.0000 </r>
       <r>   -12.3957     0.0000    72.0000 </r>
       <r>   -12.2931     0.0000    72.0000 </r>
       <r>   -12.1905     0.0000    72.0000 </r>
       <r>   -12.0879     0.0000    72.0000 </r>
       <r>   -11.9853     0.0000    72.0000 </r>
       <r>   -11.8827     0.0000    72.0000 </r>
       <r>   -11.7801     0.0000    72.0000 </r>
       <r>   -11.6775     0.0000    72.0000 </r>
       <r>   -11.5749     0.0000    72.0000 </r>
       <r>   -11.4723     0.0000    72.0000 </r>
       <r>   -11.3697     0.0000    72.0000 </r>
       <r>   -11.2671     0.0000    72.0000 </r>
       <r>   -11.1645     0.0000    72.0000 </r>
       <r>   -11.0619     0.0000    72.0000 </r>
       <r>   -10.9593     0.0000    72.0000 </r>
       <r>   -10.8568     0.0000    72.0000 </r>
       <r>   -10.7542     0.0000    72.0000 </r>
       <r>   -10.6516     0.0000    72.0000 </r>
       <r>   -10.5490     0.0000    72.0000 </r>
       <r>   -10.4464     0.0000    72.0000 </r>
       <r>   -10.3438     0.0000    72.0000 </r>
       <r>   -10.2412     0.0000    72.0000 </r>
       <r>   -10.1386     0.0000    72.0000 </r>
       <r>   -10.0360     0.0000    72.0000 </r>
       <r>    -9.9334     0.0000    72.0000 </r>
       <r>    -9.8308     0.0000    72.0000 </r>
       <r>    -9.7282     0.0000    72.0000 </r>
       <r>    -9.6256     0.0000    72.0000 </r>
       <r>    -9.5230     0.0000    72.0000 </r>
       <r>    -9.4204     0.0000    72.0000 </r>
       <r>    -9.3178     0.0000    72.0000 </r>
       <r>    -9.2152     0.0000    72.0000 </r>
       <r>    -9.1126     0.0000    72.0000 </r>
       <r>    -9.0100     0.0000    72.0000 </r>
       <r>    -8.9074     0.0000    72.0000 </r>
       <r>    -8.8048     0.0000    72.0000 </r>
       <r>    -8.7022     0.0000    72.0000 </r>
       <r>    -8.5996     0.0000    72.0000 </r>
       <r>    -8.4970     0.0000    72.0000 </r>
       <r>    -8.3944     0.0000    72.0000 </r>
       <r>    -8.2918     0.0000    72.0000 </r>
       <r>    -8.1892     0.0000    72.0000 </r>
       <r>    -8.0867     1.0830    72.1111 </r>
       <r>    -7.9841     0.0000    72.1111 </r>
       <r>    -7.8815     6.4979    72.7778 </r>
[...]
        <r>  0.0002  0.0005  0.0004 </r>
        <r>  0.0021  0.1210  0.0013 </r>
        <r>  0.0010  0.0584  0.0008 </r>
        <r>  0.0021  0.1156  0.0013 </r>
        <r>  0.0010  0.0559  0.0007 </r>
        <r>  0.0094  0.0232  0.0057 </r>
        <r>  0.0044  0.0106  0.0030 </r>
        <r>  0.0097  0.0257  0.0050 </r>
        <r>  0.0047  0.0132  0.0022 </r>
        <r>  0.0000  0.0042  0.0024 </r>
        <r>  0.0011  0.0080  0.0003 </r>
        <r>  0.0000  0.0017  0.0020 </r>
        <r>  0.0005  0.0067  0.0003 </r>
        <r>  0.0005  0.0092  0.0007 </r>
        <r>  0.0003  0.0047  0.0004 </r>
        <r>  0.0004  0.0084  0.0005 </r>
        <r>  0.0002  0.0039  0.0002 </r>
       </set>
       <set comment="band 93">
        <r>  0.0000  0.0007  0.0015 </r>
        <r>  0.0000  0.0001  0.0002 </r>
        <r>  0.0005  0.0002  0.0006 </r>
        <r>  0.0000  0.0000  0.0007 </r>
        <r>  0.0023  0.0626  0.0012 </r>
        <r>  0.0020  0.0700  0.0011 </r>
        <r>  0.0028  0.0871  0.0015 </r>
        <r>  0.0025  0.0982  0.0013 </r>
        <r>  0.0008  0.0032  0.0010 </r>
        <r>  0.0009  0.0037  0.0011 </r>
        <r>  0.0004  0.0071  0.0011 </r>
        <r>  0.0005  0.0077  0.0012 </r>
        <r>  0.0097  0.0011  0.0040 </r>
        <r>  0.0000  0.0551  0.0006 </r>
        <r>  0.0118  0.0015  0.0052 </r>
        <r>  0.0000  0.0705  0.0004 </r>
        <r>  0.0000  0.0012  0.0019 </r>
        <r>  0.0000  0.0013  0.0021 </r>
        <r>  0.0000  0.0015  0.0018 </r>
        <r>  0.0000  0.0016  0.0020 </r>
       </set>
       <set comment="band 94">
        <r>  0.0000  0.0001  0.0002 </r>
        <r>  0.0000  0.0007  0.0015 </r>
        <r>  0.0000  0.0000  0.0007 </r>
        <r>  0.0005  0.0002  0.0006 </r>
        <r>  0.0020  0.0700  0.0011 </r>
        <r>  0.0023  0.0626  0.0012 </r>
        <r>  0.0025  0.0982  0.0013 </r>
        <r>  0.0028  0.0871  0.0015 </r>
        <r>  0.0005  0.0077  0.0012 </r>
        <r>  0.0004  0.0071  0.0011 </r>
        <r>  0.0009  0.0037  0.0011 </r>
        <r>  0.0008  0.0032  0.0010 </r>
        <r>  0.0000  0.0551  0.0006 </r>
        <r>  0.0097  0.0011  0.0040 </r>
        <r>  0.0000  0.0705  0.0004 </r>
        <r>  0.0118  0.0015  0.0052 </r>
        <r>  0.0000  0.0016  0.0020 </r>
        <r>  0.0000  0.0015  0.0018 </r>
        <r>  0.0000  0.0013  0.0021 </r>
        <r>  0.0000  0.0012  0.0019 </r>
       </set>
       <set comment="band 95">
        <r>  0.0000  0.0001  0.0005 </r>
        <r>  0.0003  0.0003  0.0004 </r>
        <r>  0.0000  0.0002  0.0003 </r>
        <r>  0.0001  0.0010  0.0010 </r>
        <r>  0.0042  0.0619  0.0018 </r>
        <r>  0.0019  0.1316  0.0010 </r>
        <r>  0.0029  0.0419  0.0014 </r>
        <r>  0.0018  0.0863  0.0008 </r>
        <r>  0.0005  0.0032  0.0011 </r>
        <r>  0.0007  0.0070  0.0025 </r>
        <r>  0.0001  0.0039  0.0016 </r>
        <r>  0.0003  0.0078  0.0029 </r>
        <r>  0.0004  0.0654  0.0004 </r>
        <r>  0.0119  0.0026  0.0054 </r>
        <r>  0.0003  0.0463  0.0007 </r>
        <r>  0.0087  0.0019  0.0038 </r>
        <r>  0.0001  0.0017  0.0005 </r>
        <r>  0.0003  0.0052  0.0008 </r>
        <r>  0.0002  0.0054  0.0007 </r>
        <r>  0.0004  0.0088  0.0010 </r>
       </set>
       <set comment="band 96">
        <r>  0.0003  0.0003  0.0004 </r>
        <r>  0.0000  0.0001  0.0005 </r>
        <r>  0.0001  0.0010  0.0010 </r>
        <r>  0.0000  0.0002  0.0003 </r>
        <r>  0.0019  0.1316  0.0010 </r>
        <r>  0.0042  0.0619  0.0018 </r>
        <r>  0.0018  0.0863  0.0008 </r>
        <r>  0.0029  0.0419  0.0014 </r>
        <r>  0.0003  0.0078  0.0029 </r>
        <r>  0.0001  0.0039  0.0016 </r>
        <r>  0.0007  0.0070  0.0025 </r>
        <r>  0.0005  0.0032  0.0011 </r>
        <r>  0.0119  0.0026  0.0054 </r>
        <r>  0.0004  0.0654  0.0004 </r>
        <r>  0.0087  0.0019  0.0038 </r>
        <r>  0.0003  0.0463  0.0007 </r>
        <r>  0.0004  0.0088  0.0010 </r>
        <r>  0.0002  0.0054  0.0007 </r>
        <r>  0.0003  0.0052  0.0008 </r>
        <r>  0.0001  0.0017  0.0005 </r>
       </set>
       <set comment="band 97">
        <r>  0.0002  0.0002  0.0013 </r>
        <r>  0.0002  0.0003  0.0012 </r>
        <r>  0.0001  0.0003  0.0020 </r>
        <r>  0.0001  0.0003  0.0018 </r>
        <r>  0.0000  0.0016  0.0004 </r>
        <r>  0.0041  0.1355  0.0014 </r>
        <r>  0.0011  0.0003  0.0008 </r>
        <r>  0.0035  0.1657  0.0014 </r>
        <r>  0.0000  0.0004  0.0002 </r>
        <r>  0.0066  0.0758  0.0029 </r>
        <r>  0.0001  0.0003  0.0002 </r>
        <r>  0.0066  0.0757  0.0028 </r>
        <r>  0.0003  0.0032  0.0019 </r>
        <r>  0.0003  0.0034  0.0017 </r>
        <r>  0.0014  0.0067  0.0024 </r>
        <r>  0.0016  0.0063  0.0023 </r>
        <r>  0.0000  0.0001  0.0001 </r>
        <r>  0.0001  0.0023  0.0038 </r>
        <r>  0.0000  0.0002  0.0001 </r>
        <r>  0.0001  0.0024  0.0038 </r>
       </set>
       <set comment="band 98">
        <r>  0.0002  0.0003  0.0012 </r>
        <r>  0.0002  0.0002  0.0013 </r>
        <r>  0.0001  0.0003  0.0018 </r>
        <r>  0.0001  0.0003  0.0020 </r>
        <r>  0.0041  0.1355  0.0014 </r>
        <r>  0.0000  0.0016  0.0004 </r>
        <r>  0.0035  0.1657  0.0014 </r>
        <r>  0.0011  0.0003  0.0008 </r>
        <r>  0.0066  0.0757  0.0028 </r>
        <r>  0.0001  0.0003  0.0002 </r>
        <r>  0.0066  0.0758  0.0029 </r>
        <r>  0.0000  0.0004  0.0002 </r>
        <r>  0.0003  0.0034  0.0017 </r>
        <r>  0.0003  0.0032  0.0019 </r>
        <r>  0.0016  0.0063  0.0023 </r>
        <r>  0.0014  0.0067  0.0024 </r>
        <r>  0.0001  0.0024  0.0038 </r>
        <r>  0.0000  0.0002  0.0001 </r>
        <r>  0.0001  0.0023  0.0038 </r>
        <r>  0.0000  0.0001  0.0001 </r>
       </set>
       <set comment="band 99">
        <r>  0.0000  0.0000  0.0035 </r>
        <r>  0.0000  0.0002  0.0009 </r>
        <r>  0.0000  0.0001  0.0018 </r>
        <r>  0.0001  0.0003  0.0018 </r>
        <r>  0.0001  0.0413  0.0006 </r>
        <r>  0.0000  0.1179  0.0005 </r>
        <r>  0.0000  0.0386  0.0005 </r>
        <r>  0.0000  0.1100  0.0004 </r>
        <r>  0.0000  0.0007  0.0012 </r>
        <r>  0.0000  0.0014  0.0035 </r>
        <r>  0.0000  0.0006  0.0015 </r>
        <r>  0.0000  0.0012  0.0038 </r>
        <r>  0.0000  0.0011  0.0042 </r>
        <r>  0.0005  0.0017  0.0008 </r>
        <r>  0.0000  0.0003  0.0041 </r>
        <r>  0.0001  0.0037  0.0004 </r>
        <r>  0.0000  0.0257  0.0012 </r>
        <r>  0.0000  0.0742  0.0022 </r>
        <r>  0.0001  0.0267  0.0006 </r>
        <r>  0.0001  0.0751  0.0016 </r>
       </set>
       <set comment="band 100">
        <r>  0.0000  0.0002  0.0009 </r>
        <r>  0.0000  0.0000  0.0035 </r>
        <r>  0.0001  0.0003  0.0018 </r>
        <r>  0.0000  0.0001  0.0018 </r>
        <r>  0.0000  0.1179  0.0005 </r>
        <r>  0.0001  0.0413  0.0006 </r>
        <r>  0.0000  0.1100  0.0004 </r>
        <r>  0.0000  0.0386  0.0005 </r>
        <r>  0.0000  0.0012  0.0038 </r>
        <r>  0.0000  0.0006  0.0015 </r>
        <r>  0.0000  0.0014  0.0035 </r>
        <r>  0.0000  0.0007  0.0012 </r>
        <r>  0.0005  0.0017  0.0008 </r>
        <r>  0.0000  0.0011  0.0042 </r>
        <r>  0.0001  0.0037  0.0004 </r>
        <r>  0.0000  0.0003  0.0041 </r>
        <r>  0.0001  0.0751  0.0016 </r>
        <r>  0.0001  0.0267  0.0006 </r>
        <r>  0.0000  0.0742  0.0022 </r>
        <r>  0.0000  0.0257  0.0012 </r>
       </set>
       <set comment="band 101">
        <r>  0.0000  0.0017  0.0126 </r>
        <r>  0.0126  0.0043  0.0063 </r>
        <r>  0.0000  0.0012  0.0156 </r>
        <r>  0.0124  0.0042  0.0063 </r>
        <r>  0.0003  0.0096  0.0003 </r>
        <r>  0.0003  0.0096  0.0003 </r>
        <r>  0.0002  0.0038  0.0002 </r>
        <r>  0.0002  0.0038  0.0002 </r>
        <r>  0.0008  0.0048  0.0009 </r>
        <r>  0.0008  0.0048  0.0009 </r>
        <r>  0.0024  0.0036  0.0021 </r>
        <r>  0.0024  0.0036  0.0021 </r>
        <r>  0.0000  0.0070  0.0004 </r>
        <r>  0.0022  0.0054  0.0030 </r>
        <r>  0.0000  0.0051  0.0002 </r>
        <r>  0.0027  0.0073  0.0027 </r>
        <r>  0.0057  0.0038  0.0024 </r>
        <r>  0.0057  0.0038  0.0024 </r>
        <r>  0.0033  0.0017  0.0019 </r>
        <r>  0.0033  0.0017  0.0020 </r>
       </set>
       <set comment="band 102">
        <r>  0.0126  0.0043  0.0063 </r>
        <r>  0.0000  0.0017  0.0126 </r>
        <r>  0.0124  0.0042  0.0063 </r>
        <r>  0.0000  0.0012  0.0156 </r>
        <r>  0.0003  0.0096  0.0003 </r>
        <r>  0.0003  0.0096  0.0003 </r>
        <r>  0.0002  0.0038  0.0002 </r>
        <r>  0.0002  0.0038  0.0002 </r>
        <r>  0.0024  0.0036  0.0021 </r>
        <r>  0.0024  0.0036  0.0021 </r>
        <r>  0.0008  0.0048  0.0009 </r>
        <r>  0.0008  0.0048  0.0009 </r>
        <r>  0.0022  0.0054  0.0030 </r>
        <r>  0.0000  0.0070  0.0004 </r>
        <r>  0.0027  0.0073  0.0027 </r>
        <r>  0.0000  0.0051  0.0002 </r>
        <r>  0.0033  0.0017  0.0020 </r>
        <r>  0.0033  0.0017  0.0019 </r>
        <r>  0.0057  0.0038  0.0024 </r>
        <r>  0.0057  0.0038  0.0024 </r>
       </set>
       <set comment="band 103">
        <r>  0.0053  0.0018  0.0385 </r>
        <r>  0.0000  0.0003  0.0047 </r>
        <r>  0.0012  0.0012  0.0594 </r>
        <r>  0.0000  0.0005  0.0020 </r>
        <r>  0.0000  0.0024  0.0004 </r>
        <r>  0.0000  0.0024  0.0004 </r>
        <r>  0.0000  0.0096  0.0004 </r>
        <r>  0.0000  0.0096  0.0004 </r>
        <r>  0.0003  0.0034  0.0022 </r>
        <r>  0.0003  0.0034  0.0022 </r>
        <r>  0.0007  0.0049  0.0013 </r>
        <r>  0.0007  0.0049  0.0013 </r>
        <r>  0.0001  0.0126  0.0066 </r>
        <r>  0.0000  0.0006  0.0001 </r>
        <r>  0.0020  0.0064  0.0071 </r>
        <r>  0.0000  0.0030  0.0007 </r>
        <r>  0.0005  0.0012  0.0013 </r>
        <r>  0.0005  0.0012  0.0013 </r>
        <r>  0.0005  0.0033  0.0019 </r>
        <r>  0.0005  0.0033  0.0019 </r>
       </set>
       <set comment="band 104">
        <r>  0.0000  0.0003  0.0047 </r>
        <r>  0.0053  0.0018  0.0385 </r>
        <r>  0.0000  0.0005  0.0020 </r>
        <r>  0.0012  0.0012  0.0594 </r>
        <r>  0.0000  0.0024  0.0004 </r>
        <r>  0.0000  0.0024  0.0004 </r>
        <r>  0.0000  0.0096  0.0004 </r>
        <r>  0.0000  0.0096  0.0004 </r>
        <r>  0.0007  0.0049  0.0013 </r>
        <r>  0.0007  0.0049  0.0013 </r>
        <r>  0.0003  0.0034  0.0022 </r>
        <r>  0.0003  0.0034  0.0022 </r>
        <r>  0.0000  0.0006  0.0001 </r>
        <r>  0.0001  0.0126  0.0066 </r>
        <r>  0.0000  0.0030  0.0007 </r>
        <r>  0.0020  0.0064  0.0071 </r>
        <r>  0.0005  0.0033  0.0019 </r>
        <r>  0.0005  0.0033  0.0019 </r>
        <r>  0.0005  0.0012  0.0013 </r>
        <r>  0.0005  0.0012  0.0013 </r>
       </set>
       <set comment="band 105">
        <r>  0.0012  0.0006  0.0466 </r>
        <r>  0.0000  0.0004  0.0227 </r>
        <r>  0.0037  0.0031  0.0222 </r>
        <r>  0.0000  0.0009  0.0245 </r>
        <r>  0.0001  0.0063  0.0008 </r>
        <r>  0.0001  0.0063  0.0008 </r>
        <r>  0.0001  0.0040  0.0007 </r>
        <r>  0.0001  0.0040  0.0007 </r>
        <r>  0.0004  0.0061  0.0029 </r>
        <r>  0.0004  0.0061  0.0029 </r>
        <r>  0.0015  0.0007  0.0025 </r>
        <r>  0.0015  0.0007  0.0025 </r>
        <r>  0.0023  0.0043  0.0045 </r>
        <r>  0.0000  0.0011  0.0012 </r>
        <r>  0.0005  0.0073  0.0027 </r>
        <r>  0.0000  0.0011  0.0009 </r>
        <r>  0.0012  0.0014  0.0023 </r>
        <r>  0.0012  0.0014  0.0023 </r>
        <r>  0.0012  0.0018  0.0025 </r>
        <r>  0.0012  0.0018  0.0025 </r>
       </set>
       <set comment="band 106">
        <r>  0.0000  0.0004  0.0227 </r>
        <r>  0.0012  0.0006  0.0466 </r>
        <r>  0.0000  0.0009  0.0245 </r>
        <r>  0.0037  0.0031  0.0222 </r>
        <r>  0.0001  0.0063  0.0008 </r>
        <r>  0.0001  0.0063  0.0008 </r>
        <r>  0.0001  0.0040  0.0007 </r>
        <r>  0.0001  0.0040  0.0007 </r>
        <r>  0.0015  0.0007  0.0025 </r>
        <r>  0.0015  0.0007  0.0025 </r>
        <r>  0.0004  0.0061  0.0029 </r>
        <r>  0.0004  0.0061  0.0029 </r>
        <r>  0.0000  0.0011  0.0012 </r>
        <r>  0.0023  0.0043  0.0045 </r>
        <r>  0.0000  0.0011  0.0009 </r>
        <r>  0.0005  0.0073  0.0027 </r>
        <r>  0.0012  0.0018  0.0025 </r>
        <r>  0.0012  0.0018  0.0025 </r>
        <r>  0.0012  0.0014  0.0023 </r>
        <r>  0.0012  0.0014  0.0023 </r>
       </set>
       <set comment="band 107">
        <r>  0.0005  0.0047  0.0437 </r>
        <r>  0.0000  0.0011  0.0328 </r>
        <r>  0.0020  0.0023  0.0198 </r>
        <r>  0.0000  0.0002  0.0256 </r>
        <r>  0.0001  0.0050  0.0009 </r>
        <r>  0.0001  0.0049  0.0009 </r>
        <r>  0.0001  0.0064  0.0010 </r>
        <r>  0.0001  0.0062  0.0010 </r>
        <r>  0.0009  0.0026  0.0044 </r>
        <r>  0.0009  0.0026  0.0044 </r>
        <r>  0.0005  0.0016  0.0015 </r>
        <r>  0.0005  0.0016  0.0015 </r>
        <r>  0.0002  0.0041  0.0003 </r>
        <r>  0.0000  0.0009  0.0019 </r>
        <r>  0.0017  0.0073  0.0022 </r>
        <r>  0.0000  0.0038  0.0008 </r>
        <r>  0.0010  0.0024  0.0036 </r>
        <r>  0.0010  0.0024  0.0035 </r>
        <r>  0.0007  0.0041  0.0051 </r>
        <r>  0.0007  0.0041  0.0050 </r>
       </set>
       <set comment="band 108">
        <r>  0.0000  0.0011  0.0328 </r>
        <r>  0.0005  0.0047  0.0437 </r>
        <r>  0.0000  0.0002  0.0256 </r>
        <r>  0.0020  0.0023  0.0198 </r>
        <r>  0.0001  0.0049  0.0009 </r>
        <r>  0.0001  0.0050  0.0009 </r>
        <r>  0.0001  0.0062  0.0010 </r>
        <r>  0.0001  0.0064  0.0010 </r>
        <r>  0.0005  0.0016  0.0015 </r>
        <r>  0.0005  0.0016  0.0015 </r>
        <r>  0.0009  0.0026  0.0044 </r>
        <r>  0.0009  0.0026  0.0044 </r>
        <r>  0.0000  0.0009  0.0019 </r>
        <r>  0.0002  0.0041  0.0003 </r>
        <r>  0.0000  0.0038  0.0008 </r>
        <r>  0.0017  0.0073  0.0022 </r>
        <r>  0.0007  0.0041  0.0050 </r>
        <r>  0.0007  0.0041  0.0051 </r>
        <r>  0.0010  0.0024  0.0035 </r>
        <r>  0.0010  0.0024  0.0036 </r>
       </set>
       <set comment="band 109">
        <r>  0.0009  0.0063  0.0345 </r>
        <r>  0.0000  0.0002  0.0133 </r>
        <r>  0.0003  0.0059  0.0345 </r>
        <r>  0.0000  0.0010  0.0268 </r>
        <r>  0.0000  0.0045  0.0010 </r>
        <r>  0.0000  0.0044  0.0010 </r>
        <r>  0.0000  0.0056  0.0007 </r>
        <r>  0.0000  0.0055  0.0007 </r>
        <r>  0.0022  0.0038  0.0050 </r>
        <r>  0.0022  0.0038  0.0050 </r>
        <r>  0.0013  0.0016  0.0013 </r>
        <r>  0.0012  0.0016  0.0013 </r>
        <r>  0.0048  0.0024  0.0044 </r>
        <r>  0.0000  0.0048  0.0014 </r>
        <r>  0.0001  0.0083  0.0042 </r>
        <r>  0.0000  0.0028  0.0011 </r>
        <r>  0.0001  0.0032  0.0006 </r>
        <r>  0.0001  0.0032  0.0006 </r>
        <r>  0.0003  0.0033  0.0038 </r>
        <r>  0.0003  0.0033  0.0038 </r>
       </set>
       <set comment="band 110">
        <r>  0.0000  0.0002  0.0133 </r>
        <r>  0.0009  0.0062  0.0345 </r>
        <r>  0.0000  0.0010  0.0268 </r>
        <r>  0.0004  0.0059  0.0345 </r>
        <r>  0.0000  0.0044  0.0010 </r>
        <r>  0.0000  0.0045  0.0010 </r>
        <r>  0.0000  0.0055  0.0007 </r>
        <r>  0.0000  0.0056  0.0007 </r>
        <r>  0.0012  0.0016  0.0013 </r>
        <r>  0.0013  0.0016  0.0013 </r>
        <r>  0.0022  0.0038  0.0050 </r>
        <r>  0.0022  0.0038  0.0050 </r>
        <r>  0.0000  0.0048  0.0014 </r>
        <r>  0.0048  0.0024  0.0044 </r>
        <r>  0.0000  0.0028  0.0011 </r>
        <r>  0.0001  0.0083  0.0042 </r>
        <r>  0.0003  0.0033  0.0038 </r>
        <r>  0.0003  0.0033  0.0038 </r>
        <r>  0.0001  0.0032  0.0006 </r>
        <r>  0.0001  0.0032  0.0006 </r>
       </set>
       <set comment="band 111">
        <r>  0.0017  0.0017  0.0345 </r>
        <r>  0.0037  0.0025  0.0315 </r>
        <r>  0.0008  0.0018  0.0186 </r>
        <r>  0.0018  0.0027  0.0311 </r>
        <r>  0.0002  0.0009  0.0011 </r>
        <r>  0.0000  0.0105  0.0007 </r>
        <r>  0.0000  0.0052  0.0009 </r>
        <r>  0.0001  0.0011  0.0017 </r>
        <r>  0.0001  0.0014  0.0017 </r>
        <r>  0.0016  0.0032  0.0041 </r>
        <r>  0.0000  0.0028  0.0015 </r>
        <r>  0.0015  0.0045  0.0039 </r>
        <r>  0.0001  0.0050  0.0008 </r>
        <r>  0.0001  0.0112  0.0014 </r>
        <r>  0.0004  0.0025  0.0027 </r>
        <r>  0.0008  0.0056  0.0026 </r>
        <r>  0.0014  0.0026  0.0045 </r>
        <r>  0.0003  0.0070  0.0035 </r>
        <r>  0.0011  0.0013  0.0031 </r>
        <r>  0.0000  0.0057  0.0021 </r>
       </set>
       <set comment="band 112">
        <r>  0.0037  0.0025  0.0314 </r>
        <r>  0.0017  0.0017  0.0344 </r>
        <r>  0.0018  0.0027  0.0312 </r>
        <r>  0.0008  0.0018  0.0187 </r>
        <r>  0.0000  0.0105  0.0007 </r>
        <r>  0.0002  0.0009  0.0011 </r>
        <r>  0.0001  0.0011  0.0017 </r>
        <r>  0.0000  0.0052  0.0008 </r>
        <r>  0.0015  0.0046  0.0040 </r>
        <r>  0.0000  0.0028  0.0015 </r>
        <r>  0.0016  0.0032  0.0041 </r>
        <r>  0.0001  0.0014  0.0017 </r>
        <r>  0.0001  0.0112  0.0014 </r>
        <r>  0.0001  0.0050  0.0008 </r>
        <r>  0.0008  0.0056  0.0026 </r>
        <r>  0.0004  0.0025  0.0027 </r>
        <r>  0.0000  0.0057  0.0021 </r>
        <r>  0.0011  0.0013  0.0031 </r>
        <r>  0.0003  0.0070  0.0035 </r>
        <r>  0.0014  0.0026  0.0045 </r>
       </set>
      </set>
     </set>
    </set>
   </array>
  </projected>
 </calculation>
 <structure name="finalpos" >
  <crystal>
   <varray name="basis" >
    <v>      -5.93794076      -5.93716824       0.00000000 </v>
    <v>      -5.73978075       5.73494829       0.00000000 </v>
    <v>       0.00000000       0.00000000     -11.74383265 </v>
   </varray>
   <i name="volume">    800.12877698 </i>
   <varray name="rec_basis" >
    <v>      -0.08417429      -0.08424522      -0.00000000 </v>
    <v>      -0.08714236       0.08715370       0.00000000 </v>
    <v>      -0.00000000       0.00000000      -0.08515108 </v>
   </varray>
  </crystal>
  <varray name="positions" >
   <v>       0.56191141       0.01759570       0.75000000 </v>
   <v>       0.43808859       0.98240430       0.25000000 </v>
   <v>       0.06206043       0.48210641       0.75000000 </v>
   <v>       0.93793957       0.51789359       0.25000000 </v>
   <v>       0.00000000       0.00000000       0.00000000 </v>
   <v>       0.00000000       0.00000000       0.50000000 </v>
   <v>       0.50000000       0.50000000       0.00000000 </v>
   <v>       0.50000000       0.50000000       0.50000000 </v>
   <v>       0.79725570       0.30000799       0.96394883 </v>
   <v>       0.79725570       0.30000799       0.53605117 </v>
   <v>       0.20274430       0.69999201       0.03605117 </v>
   <v>       0.20274430       0.69999201       0.46394883 </v>
   <v>       0.99371870       0.92974250       0.75000000 </v>
   <v>       0.00628130       0.07025750       0.25000000 </v>
   <v>       0.49377924       0.56955731       0.75000000 </v>
   <v>       0.50622076       0.43044269       0.25000000 </v>
   <v>       0.70308153       0.79964635       0.03623799 </v>
   <v>       0.70308153       0.79964635       0.46376201 </v>
   <v>       0.29691847       0.20035365       0.96376201 </v>
   <v>       0.29691847       0.20035365       0.53623799 </v>
  </varray>
 </structure>
</modeling>
