CsPbBr3 cubic bulk                      
           1
    -5.937941   -5.937168    0.000000
    -5.739781    5.734948    0.000000
     0.000000    0.000000  -11.743833
   Cs   Pb   Br
   4   4  12
Direct configuration=     1
   0.56191141  0.01759570  0.75000000
   0.43808859  0.98240430  0.25000000
   0.06206043  0.48210641  0.75000000
   0.93793957  0.51789359  0.25000000
   0.00000000  0.00000000  0.00000000
   0.00000000  0.00000000  0.50000000
   0.50000000  0.50000000  0.00000000
   0.50000000  0.50000000  0.50000000
   0.79725570  0.30000799  0.96394883
   0.79725570  0.30000799  0.53605117
   0.20274430  0.69999201  0.03605117
   0.20274430  0.69999201  0.46394883
   0.99371870  0.92974250  0.75000000
   0.00628130  0.07025750  0.25000000
   0.49377924  0.56955731  0.75000000
   0.50622076  0.43044269  0.25000000
   0.70308153  0.79964635  0.03623799
   0.70308153  0.79964635  0.46376201
   0.29691847  0.20035365  0.96376201
   0.29691847  0.20035365  0.53623799
