  40  40   1   0
  0.4040437E+02  0.1173535E-08  0.1173535E-08  0.1173535E-08  0.5000000E-15
   1.0000000000000000E-004
  CAR 
 CsPbBr3 cubic bulk                      
      8.14263313    -22.36319493  301      0.84665592      1.00000000
    -22.363  0.0000E+00  0.0000E+00
    -22.262  0.0000E+00  0.0000E+00
    -22.160  0.0000E+00  0.0000E+00
    -22.058  0.0000E+00  0.0000E+00
    -21.956  0.0000E+00  0.0000E+00
    -21.855  0.0000E+00  0.0000E+00
    -21.753  0.0000E+00  0.0000E+00
    -21.651  0.0000E+00  0.0000E+00
    -21.550  0.0000E+00  0.0000E+00
    -21.448  0.0000E+00  0.0000E+00
    -21.346  0.0000E+00  0.0000E+00
    -21.245  0.0000E+00  0.0000E+00
    -21.143  0.0000E+00  0.0000E+00
    -21.041  0.0000E+00  0.0000E+00
    -20.940  0.1573E+03  0.1600E+02
    -20.838  0.0000E+00  0.1600E+02
    -20.736  0.0000E+00  0.1600E+02
    -20.635  0.0000E+00  0.1600E+02
    -20.533  0.0000E+00  0.1600E+02
    -20.431  0.0000E+00  0.1600E+02
    -20.329  0.0000E+00  0.1600E+02
    -20.228  0.0000E+00  0.1600E+02
    -20.126  0.0000E+00  0.1600E+02
    -20.024  0.0000E+00  0.1600E+02
    -19.923  0.0000E+00  0.1600E+02
    -19.821  0.0000E+00  0.1600E+02
    -19.719  0.0000E+00  0.1600E+02
    -19.618  0.0000E+00  0.1600E+02
    -19.516  0.0000E+00  0.1600E+02
    -19.414  0.0000E+00  0.1600E+02
    -19.313  0.0000E+00  0.1600E+02
    -19.211  0.0000E+00  0.1600E+02
    -19.109  0.0000E+00  0.1600E+02
    -19.008  0.0000E+00  0.1600E+02
    -18.906  0.0000E+00  0.1600E+02
    -18.804  0.0000E+00  0.1600E+02
    -18.702  0.0000E+00  0.1600E+02
    -18.601  0.0000E+00  0.1600E+02
    -18.499  0.0000E+00  0.1600E+02
    -18.397  0.0000E+00  0.1600E+02
    -18.296  0.0000E+00  0.1600E+02
    -18.194  0.0000E+00  0.1600E+02
    -18.092  0.0000E+00  0.1600E+02
    -17.991  0.0000E+00  0.1600E+02
    -17.889  0.0000E+00  0.1600E+02
    -17.787  0.0000E+00  0.1600E+02
    -17.686  0.0000E+00  0.1600E+02
    -17.584  0.0000E+00  0.1600E+02
    -17.482  0.0000E+00  0.1600E+02
    -17.381  0.0000E+00  0.1600E+02
    -17.279  0.0000E+00  0.1600E+02
    -17.177  0.0000E+00  0.1600E+02
    -17.076  0.0000E+00  0.1600E+02
    -16.974  0.0000E+00  0.1600E+02
    -16.872  0.0000E+00  0.1600E+02
    -16.770  0.0000E+00  0.1600E+02
    -16.669  0.0000E+00  0.1600E+02
    -16.567  0.0000E+00  0.1600E+02
    -16.465  0.0000E+00  0.1600E+02
    -16.364  0.1175E+02  0.1719E+02
    -16.262  0.2214E+03  0.4527E+02
    -16.160  0.3401E+03  0.8258E+02
    -16.059  0.0000E+00  0.9600E+02
    -15.957  0.0000E+00  0.9600E+02
    -15.855  0.0000E+00  0.9600E+02
    -15.754  0.0000E+00  0.9600E+02
    -15.652  0.0000E+00  0.9600E+02
    -15.550  0.0000E+00  0.9600E+02
    -15.449  0.0000E+00  0.9600E+02
    -15.347  0.0000E+00  0.9600E+02
    -15.245  0.0000E+00  0.9600E+02
    -15.143  0.0000E+00  0.9600E+02
    -15.042  0.0000E+00  0.9600E+02
    -14.940  0.0000E+00  0.9600E+02
    -14.838  0.0000E+00  0.9600E+02
    -14.737  0.0000E+00  0.9600E+02
    -14.635  0.0000E+00  0.9600E+02
    -14.533  0.0000E+00  0.9600E+02
    -14.432  0.1638E-14  0.9600E+02
    -14.330  0.2481E+01  0.9625E+02
    -14.228  0.2948E+02  0.1007E+03
    -14.127  0.3070E+02  0.1039E+03
    -14.025  0.3000E+02  0.1096E+03
    -13.923  0.6609E+02  0.1235E+03
    -13.822  0.9727E+02  0.1336E+03
    -13.720  0.5900E+02  0.1412E+03
    -13.618  0.2704E+02  0.1440E+03
    -13.517  0.0000E+00  0.1440E+03
    -13.415  0.0000E+00  0.1440E+03
    -13.313  0.0000E+00  0.1440E+03
    -13.211  0.0000E+00  0.1440E+03
    -13.110  0.0000E+00  0.1440E+03
    -13.008  0.0000E+00  0.1440E+03
    -12.906  0.0000E+00  0.1440E+03
    -12.805  0.0000E+00  0.1440E+03
    -12.703  0.0000E+00  0.1440E+03
    -12.601  0.0000E+00  0.1440E+03
    -12.500  0.0000E+00  0.1440E+03
    -12.398  0.0000E+00  0.1440E+03
    -12.296  0.0000E+00  0.1440E+03
    -12.195  0.0000E+00  0.1440E+03
    -12.093  0.0000E+00  0.1440E+03
    -11.991  0.0000E+00  0.1440E+03
    -11.890  0.0000E+00  0.1440E+03
    -11.788  0.0000E+00  0.1440E+03
    -11.686  0.0000E+00  0.1440E+03
    -11.584  0.0000E+00  0.1440E+03
    -11.483  0.0000E+00  0.1440E+03
    -11.381  0.0000E+00  0.1440E+03
    -11.279  0.0000E+00  0.1440E+03
    -11.178  0.0000E+00  0.1440E+03
    -11.076  0.0000E+00  0.1440E+03
    -10.974  0.0000E+00  0.1440E+03
    -10.873  0.0000E+00  0.1440E+03
    -10.771  0.0000E+00  0.1440E+03
    -10.669  0.0000E+00  0.1440E+03
    -10.568  0.0000E+00  0.1440E+03
    -10.466  0.0000E+00  0.1440E+03
    -10.364  0.0000E+00  0.1440E+03
    -10.263  0.0000E+00  0.1440E+03
    -10.161  0.0000E+00  0.1440E+03
    -10.059  0.0000E+00  0.1440E+03
     -9.957  0.0000E+00  0.1440E+03
     -9.856  0.0000E+00  0.1440E+03
     -9.754  0.0000E+00  0.1440E+03
     -9.652  0.0000E+00  0.1440E+03
     -9.551  0.0000E+00  0.1440E+03
     -9.449  0.0000E+00  0.1440E+03
     -9.347  0.0000E+00  0.1440E+03
     -9.246  0.0000E+00  0.1440E+03
     -9.144  0.0000E+00  0.1440E+03
     -9.042  0.0000E+00  0.1440E+03
     -8.941  0.0000E+00  0.1440E+03
     -8.839  0.0000E+00  0.1440E+03
     -8.737  0.0000E+00  0.1440E+03
     -8.636  0.0000E+00  0.1440E+03
     -8.534  0.0000E+00  0.1440E+03
     -8.432  0.0000E+00  0.1440E+03
     -8.331  0.0000E+00  0.1440E+03
     -8.229  0.1075E+01  0.1441E+03
     -8.127  0.0000E+00  0.1442E+03
     -8.025  0.1111E-11  0.1443E+03
     -7.924  0.1475E+02  0.1457E+03
     -7.822  0.0000E+00  0.1458E+03
     -7.720  0.7137E+01  0.1465E+03
     -7.619  0.7376E+01  0.1495E+03
     -7.517  0.5586E-11  0.1495E+03
     -7.415  0.3345E+02  0.1529E+03
     -7.314  0.4356E+03  0.1988E+03
     -7.212  0.0000E+00  0.2025E+03
     -7.110  0.1009E+02  0.2035E+03
     -7.009  0.7376E+01  0.2062E+03
     -6.907  0.0000E+00  0.2062E+03
     -6.805  0.2730E-14  0.2062E+03
     -6.704  0.1475E+02  0.2077E+03
     -6.602  0.0000E+00  0.2078E+03
     -6.500  0.0000E+00  0.2078E+03
     -6.398  0.0000E+00  0.2078E+03
     -6.297  0.2459E+01  0.2080E+03
     -6.195  0.0000E+00  0.2080E+03
     -6.093  0.0000E+00  0.2080E+03
     -5.992  0.0000E+00  0.2080E+03
     -5.890  0.0000E+00  0.2080E+03
     -5.788  0.0000E+00  0.2080E+03
     -5.687  0.0000E+00  0.2080E+03
     -5.585  0.0000E+00  0.2080E+03
     -5.483  0.0000E+00  0.2080E+03
     -5.382  0.0000E+00  0.2080E+03
     -5.280  0.0000E+00  0.2080E+03
     -5.178  0.0000E+00  0.2080E+03
     -5.077  0.0000E+00  0.2080E+03
     -4.975  0.0000E+00  0.2080E+03
     -4.873  0.0000E+00  0.2080E+03
     -4.772  0.0000E+00  0.2080E+03
     -4.670  0.0000E+00  0.2080E+03
     -4.568  0.0000E+00  0.2080E+03
     -4.466  0.0000E+00  0.2080E+03
     -4.365  0.0000E+00  0.2080E+03
     -4.263  0.0000E+00  0.2080E+03
     -4.161  0.0000E+00  0.2080E+03
     -4.060  0.0000E+00  0.2080E+03
     -3.958  0.0000E+00  0.2080E+03
     -3.856  0.0000E+00  0.2080E+03
     -3.755  0.0000E+00  0.2080E+03
     -3.653  0.0000E+00  0.2080E+03
     -3.551  0.0000E+00  0.2080E+03
     -3.450  0.2730E-15  0.2080E+03
     -3.348  0.8894E+01  0.2089E+03
     -3.246  0.5856E+02  0.2162E+03
     -3.145  0.2960E+02  0.2193E+03
     -3.043  0.2456E+01  0.2200E+03
     -2.941  0.0000E+00  0.2200E+03
     -2.839  0.0000E+00  0.2200E+03
     -2.738  0.0000E+00  0.2200E+03
     -2.636  0.2757E+02  0.2228E+03
     -2.534  0.3912E+02  0.2270E+03
     -2.433  0.6671E+02  0.2338E+03
     -2.331  0.3835E-03  0.2345E+03
     -2.229  0.7370E+02  0.2420E+03
     -2.128  0.2652E+02  0.2447E+03
     -2.026  0.1837E+02  0.2466E+03
     -1.924  0.2809E+02  0.2526E+03
     -1.823  0.1140E+02  0.2547E+03
     -1.721  0.2950E+02  0.2597E+03
     -1.619  0.2149E+02  0.2619E+03
     -1.518  0.6638E+02  0.2743E+03
     -1.416  0.3661E+02  0.2780E+03
     -1.314  0.1146E+03  0.2922E+03
     -1.212  0.1227E+03  0.3082E+03
     -1.111  0.4919E+02  0.3160E+03
     -1.009  0.1508E+03  0.3321E+03
     -0.907  0.1522E+02  0.3348E+03
     -0.806  0.6221E+02  0.3416E+03
     -0.704  0.0000E+00  0.3428E+03
     -0.602  0.4460E-07  0.3428E+03
     -0.501  0.7376E+01  0.3435E+03
     -0.399  0.1532E+02  0.3451E+03
     -0.297  0.9790E-01  0.3465E+03
     -0.196  0.2458E+02  0.3495E+03
     -0.094  0.0000E+00  0.3495E+03
      0.008  0.0000E+00  0.3495E+03
      0.109  0.6263E+01  0.3501E+03
      0.211  0.6606E-08  0.3503E+03
      0.313  0.1475E+02  0.3518E+03
      0.414  0.0000E+00  0.3518E+03
      0.516  0.0000E+00  0.3518E+03
      0.618  0.0000E+00  0.3518E+03
      0.720  0.3548E-14  0.3518E+03
      0.821  0.2459E+01  0.3520E+03
      0.923  0.0000E+00  0.3520E+03
      1.025  0.0000E+00  0.3520E+03
      1.126  0.0000E+00  0.3520E+03
      1.228  0.0000E+00  0.3520E+03
      1.330  0.0000E+00  0.3520E+03
      1.431  0.0000E+00  0.3520E+03
      1.533  0.0000E+00  0.3520E+03
      1.635  0.0000E+00  0.3520E+03
      1.736  0.0000E+00  0.3520E+03
      1.838  0.0000E+00  0.3520E+03
      1.940  0.0000E+00  0.3520E+03
      2.041  0.0000E+00  0.3520E+03
      2.143  0.0000E+00  0.3520E+03
      2.245  0.0000E+00  0.3520E+03
      2.347  0.0000E+00  0.3520E+03
      2.448  0.0000E+00  0.3520E+03
      2.550  0.0000E+00  0.3520E+03
      2.652  0.0000E+00  0.3520E+03
      2.753  0.1491E-09  0.3520E+03
      2.855  0.7372E+01  0.3527E+03
      2.957  0.0000E+00  0.3528E+03
      3.058  0.2206E+02  0.3550E+03
      3.160  0.0000E+00  0.3558E+03
      3.262  0.1027E+02  0.3568E+03
      3.363  0.2459E+01  0.3602E+03
      3.465  0.1098E+00  0.3603E+03
      3.567  0.9833E+01  0.3632E+03
      3.668  0.3443E-10  0.3633E+03
      3.770  0.7376E+01  0.3640E+03
      3.872  0.0000E+00  0.3640E+03
      3.974  0.0000E+00  0.3640E+03
      4.075  0.0000E+00  0.3640E+03
      4.177  0.0000E+00  0.3640E+03
      4.279  0.0000E+00  0.3640E+03
      4.380  0.0000E+00  0.3640E+03
      4.482  0.1330E+02  0.3654E+03
      4.584  0.5981E+01  0.3661E+03
      4.685  0.1290E+02  0.3693E+03
      4.787  0.1975E+02  0.3738E+03
      4.889  0.2766E+02  0.3771E+03
      4.990  0.7242E+01  0.3810E+03
      5.092  0.3413E+02  0.3867E+03
      5.194  0.9827E+01  0.3882E+03
      5.295  0.0000E+00  0.3882E+03
      5.397  0.0000E+00  0.3882E+03
      5.499  0.1475E+02  0.3897E+03
      5.600  0.0000E+00  0.3898E+03
      5.702  0.2103E+01  0.3900E+03
      5.804  0.3577E+01  0.3904E+03
      5.906  0.2336E+02  0.3931E+03
      6.007  0.7376E+01  0.3940E+03
      6.109  0.3903E+02  0.3980E+03
      6.211  0.4619E+02  0.4034E+03
      6.312  0.4600E+02  0.4082E+03
      6.414  0.1153E+02  0.4104E+03
      6.516  0.3785E+02  0.4168E+03
      6.617  0.7429E+02  0.4248E+03
      6.719  0.4044E+02  0.4304E+03
      6.821  0.2459E+01  0.4320E+03
      6.922  0.0000E+00  0.4320E+03
      7.024  0.0000E+00  0.4320E+03
      7.126  0.0000E+00  0.4320E+03
      7.227  0.0000E+00  0.4320E+03
      7.329  0.0000E+00  0.4320E+03
      7.431  0.0000E+00  0.4320E+03
      7.533  0.0000E+00  0.4320E+03
      7.634  0.0000E+00  0.4320E+03
      7.736  0.0000E+00  0.4320E+03
      7.838  0.0000E+00  0.4320E+03
      7.939  0.0000E+00  0.4320E+03
      8.041  0.0000E+00  0.4320E+03
      8.143  0.0000E+00  0.4320E+03
      8.14263313    -22.36319493  301      0.84665592      1.00000000
    -22.363  0.0000E+00  0.0000E+00  0.0000E+00
    -22.262  0.0000E+00  0.0000E+00  0.0000E+00
    -22.160  0.0000E+00  0.0000E+00  0.0000E+00
    -22.058  0.0000E+00  0.0000E+00  0.0000E+00
    -21.956  0.0000E+00  0.0000E+00  0.0000E+00
    -21.855  0.0000E+00  0.0000E+00  0.0000E+00
    -21.753  0.0000E+00  0.0000E+00  0.0000E+00
    -21.651  0.0000E+00  0.0000E+00  0.0000E+00
    -21.550  0.0000E+00  0.0000E+00  0.0000E+00
    -21.448  0.0000E+00  0.0000E+00  0.0000E+00
    -21.346  0.0000E+00  0.0000E+00  0.0000E+00
    -21.245  0.0000E+00  0.0000E+00  0.0000E+00
    -21.143  0.0000E+00  0.0000E+00  0.0000E+00
    -21.041  0.0000E+00  0.0000E+00  0.0000E+00
    -20.940  0.1746E+02  0.3400E-05  0.2683E-05
    -20.838  0.0000E+00  0.0000E+00  0.0000E+00
    -20.736  0.0000E+00  0.0000E+00  0.0000E+00
    -20.635  0.0000E+00  0.0000E+00  0.0000E+00
    -20.533  0.0000E+00  0.0000E+00  0.0000E+00
    -20.431  0.0000E+00  0.0000E+00  0.0000E+00
    -20.329  0.0000E+00  0.0000E+00  0.0000E+00
    -20.228  0.0000E+00  0.0000E+00  0.0000E+00
    -20.126  0.0000E+00  0.0000E+00  0.0000E+00
    -20.024  0.0000E+00  0.0000E+00  0.0000E+00
    -19.923  0.0000E+00  0.0000E+00  0.0000E+00
    -19.821  0.0000E+00  0.0000E+00  0.0000E+00
    -19.719  0.0000E+00  0.0000E+00  0.0000E+00
    -19.618  0.0000E+00  0.0000E+00  0.0000E+00
    -19.516  0.0000E+00  0.0000E+00  0.0000E+00
    -19.414  0.0000E+00  0.0000E+00  0.0000E+00
    -19.313  0.0000E+00  0.0000E+00  0.0000E+00
    -19.211  0.0000E+00  0.0000E+00  0.0000E+00
    -19.109  0.0000E+00  0.0000E+00  0.0000E+00
    -19.008  0.0000E+00  0.0000E+00  0.0000E+00
    -18.906  0.0000E+00  0.0000E+00  0.0000E+00
    -18.804  0.0000E+00  0.0000E+00  0.0000E+00
    -18.702  0.0000E+00  0.0000E+00  0.0000E+00
    -18.601  0.0000E+00  0.0000E+00  0.0000E+00
    -18.499  0.0000E+00  0.0000E+00  0.0000E+00
    -18.397  0.0000E+00  0.0000E+00  0.0000E+00
    -18.296  0.0000E+00  0.0000E+00  0.0000E+00
    -18.194  0.0000E+00  0.0000E+00  0.0000E+00
    -18.092  0.0000E+00  0.0000E+00  0.0000E+00
    -17.991  0.0000E+00  0.0000E+00  0.0000E+00
    -17.889  0.0000E+00  0.0000E+00  0.0000E+00
    -17.787  0.0000E+00  0.0000E+00  0.0000E+00
    -17.686  0.0000E+00  0.0000E+00  0.0000E+00
    -17.584  0.0000E+00  0.0000E+00  0.0000E+00
    -17.482  0.0000E+00  0.0000E+00  0.0000E+00
    -17.381  0.0000E+00  0.0000E+00  0.0000E+00
    -17.279  0.0000E+00  0.0000E+00  0.0000E+00
    -17.177  0.0000E+00  0.0000E+00  0.0000E+00
    -17.076  0.0000E+00  0.0000E+00  0.0000E+00
    -16.974  0.0000E+00  0.0000E+00  0.0000E+00
    -16.872  0.0000E+00  0.0000E+00  0.0000E+00
    -16.770  0.0000E+00  0.0000E+00  0.0000E+00
    -16.669  0.0000E+00  0.0000E+00  0.0000E+00
    -16.567  0.0000E+00  0.0000E+00  0.0000E+00
    -16.465  0.0000E+00  0.0000E+00  0.0000E+00
    -16.364  0.7369E-05  0.3332E-05  0.6772E-06
    -16.262  0.5027E-04  0.7810E-04  0.1251E-04
    -16.160  0.2177E-04  0.1476E-04  0.1494E-05
    -16.059  0.0000E+00  0.0000E+00  0.0000E+00
    -15.957  0.0000E+00  0.0000E+00  0.0000E+00
    -15.855  0.0000E+00  0.0000E+00  0.0000E+00
    -15.754  0.0000E+00  0.0000E+00  0.0000E+00
    -15.652  0.0000E+00  0.0000E+00  0.0000E+00
    -15.550  0.0000E+00  0.0000E+00  0.0000E+00
    -15.449  0.0000E+00  0.0000E+00  0.0000E+00
    -15.347  0.0000E+00  0.0000E+00  0.0000E+00
    -15.245  0.0000E+00  0.0000E+00  0.0000E+00
    -15.143  0.0000E+00  0.0000E+00  0.0000E+00
    -15.042  0.0000E+00  0.0000E+00  0.0000E+00
    -14.940  0.0000E+00  0.0000E+00  0.0000E+00
    -14.838  0.0000E+00  0.0000E+00  0.0000E+00
    -14.737  0.0000E+00  0.0000E+00  0.0000E+00
    -14.635  0.0000E+00  0.0000E+00  0.0000E+00
    -14.533  0.0000E+00  0.0000E+00  0.0000E+00
    -14.432  0.2067E-18  0.1589E-20  0.4293E-21
    -14.330  0.3122E-03  0.2911E-05  0.6569E-06
    -14.228  0.1640E-02  0.1248E-02  0.2760E-04
    -14.127  0.6543E-03  0.1946E-02  0.5298E-04
    -14.025  0.1998E-04  0.2000E-02  0.1249E-03
    -13.923  0.8209E-03  0.1755E-02  0.2931E-03
    -13.822  0.6556E-03  0.3027E-02  0.3272E-03
    -13.720  0.6085E-03  0.7691E-03  0.1238E-03
    -13.618  0.2121E-03  0.4501E-03  0.4962E-04
    -13.517  0.0000E+00  0.0000E+00  0.0000E+00
    -13.415  0.0000E+00  0.0000E+00  0.0000E+00
    -13.313  0.0000E+00  0.0000E+00  0.0000E+00
    -13.211  0.0000E+00  0.0000E+00  0.0000E+00
    -13.110  0.0000E+00  0.0000E+00  0.0000E+00
    -13.008  0.0000E+00  0.0000E+00  0.0000E+00
    -12.906  0.0000E+00  0.0000E+00  0.0000E+00
    -12.805  0.0000E+00  0.0000E+00  0.0000E+00
    -12.703  0.0000E+00  0.0000E+00  0.0000E+00
    -12.601  0.0000E+00  0.0000E+00  0.0000E+00
    -12.500  0.0000E+00  0.0000E+00  0.0000E+00
    -12.398  0.0000E+00  0.0000E+00  0.0000E+00
    -12.296  0.0000E+00  0.0000E+00  0.0000E+00
    -12.195  0.0000E+00  0.0000E+00  0.0000E+00
    -12.093  0.0000E+00  0.0000E+00  0.0000E+00
    -11.991  0.0000E+00  0.0000E+00  0.0000E+00
    -11.890  0.0000E+00  0.0000E+00  0.0000E+00
    -11.788  0.0000E+00  0.0000E+00  0.0000E+00
    -11.686  0.0000E+00  0.0000E+00  0.0000E+00
    -11.584  0.0000E+00  0.0000E+00  0.0000E+00
    -11.483  0.0000E+00  0.0000E+00  0.0000E+00
    -11.381  0.0000E+00  0.0000E+00  0.0000E+00
    -11.279  0.0000E+00  0.0000E+00  0.0000E+00
    -11.178  0.0000E+00  0.0000E+00  0.0000E+00
    -11.076  0.0000E+00  0.0000E+00  0.0000E+00
    -10.974  0.0000E+00  0.0000E+00  0.0000E+00
    -10.873  0.0000E+00  0.0000E+00  0.0000E+00
    -10.771  0.0000E+00  0.0000E+00  0.0000E+00
    -10.669  0.0000E+00  0.0000E+00  0.0000E+00
    -10.568  0.0000E+00  0.0000E+00  0.0000E+00
    -10.466  0.0000E+00  0.0000E+00  0.0000E+00
    -10.364  0.0000E+00  0.0000E+00  0.0000E+00
    -10.263  0.0000E+00  0.0000E+00  0.0000E+00
    -10.161  0.0000E+00  0.0000E+00  0.0000E+00
    -10.059  0.0000E+00  0.0000E+00  0.0000E+00
     -9.957  0.0000E+00  0.0000E+00  0.0000E+00
     -9.856  0.0000E+00  0.0000E+00  0.0000E+00
     -9.754  0.0000E+00  0.0000E+00  0.0000E+00
     -9.652  0.0000E+00  0.0000E+00  0.0000E+00
     -9.551  0.0000E+00  0.0000E+00  0.0000E+00
     -9.449  0.0000E+00  0.0000E+00  0.0000E+00
     -9.347  0.0000E+00  0.0000E+00  0.0000E+00
     -9.246  0.0000E+00  0.0000E+00  0.0000E+00
     -9.144  0.0000E+00  0.0000E+00  0.0000E+00
     -9.042  0.0000E+00  0.0000E+00  0.0000E+00
     -8.941  0.0000E+00  0.0000E+00  0.0000E+00
     -8.839  0.0000E+00  0.0000E+00  0.0000E+00
     -8.737  0.0000E+00  0.0000E+00  0.0000E+00
     -8.636  0.0000E+00  0.0000E+00  0.0000E+00
     -8.534  0.0000E+00  0.0000E+00  0.0000E+00
     -8.432  0.0000E+00  0.0000E+00  0.0000E+00
     -8.331  0.0000E+00  0.0000E+00  0.0000E+00
     -8.229  0.5096E-20  0.1171E-05  0.5249E-08
     -8.127  0.0000E+00  0.0000E+00  0.0000E+00
     -8.025  0.8795E-19  0.3469E-15  0.2374E-18
     -7.924  0.4039E-06  0.4435E-02  0.1161E-05
     -7.822  0.0000E+00  0.0000E+00  0.0000E+00
     -7.720  0.3635E-06  0.1113E-01  0.4210E-05
     -7.619  0.4871E-06  0.1420E-01  0.7199E-05
     -7.517  0.3654E-17  0.6688E-13  0.6506E-17
     -7.415  0.2070E-04  0.5599E+00  0.3489E-04
     -7.314  0.2017E-04  0.4156E+02  0.3618E-04
     -7.212  0.0000E+00  0.0000E+00  0.0000E+00
     -7.110  0.1619E-04  0.1897E-01  0.1887E-04
     -7.009  0.9039E-06  0.1412E-01  0.1180E-04
     -6.907  0.0000E+00  0.0000E+00  0.0000E+00
     -6.805  0.7345E-20  0.1082E-17  0.2626E-20
     -6.704  0.4072E-04  0.4450E-02  0.1654E-04
     -6.602  0.0000E+00  0.0000E+00  0.0000E+00
     -6.500  0.0000E+00  0.0000E+00  0.0000E+00
     -6.398  0.0000E+00  0.0000E+00  0.0000E+00
     -6.297  0.1083E-04  0.1746E-03  0.1508E-05
     -6.195  0.0000E+00  0.0000E+00  0.0000E+00
     -6.093  0.0000E+00  0.0000E+00  0.0000E+00
     -5.992  0.0000E+00  0.0000E+00  0.0000E+00
     -5.890  0.0000E+00  0.0000E+00  0.0000E+00
     -5.788  0.0000E+00  0.0000E+00  0.0000E+00
     -5.687  0.0000E+00  0.0000E+00  0.0000E+00
     -5.585  0.0000E+00  0.0000E+00  0.0000E+00
     -5.483  0.0000E+00  0.0000E+00  0.0000E+00
     -5.382  0.0000E+00  0.0000E+00  0.0000E+00
     -5.280  0.0000E+00  0.0000E+00  0.0000E+00
     -5.178  0.0000E+00  0.0000E+00  0.0000E+00
     -5.077  0.0000E+00  0.0000E+00  0.0000E+00
     -4.975  0.0000E+00  0.0000E+00  0.0000E+00
     -4.873  0.0000E+00  0.0000E+00  0.0000E+00
     -4.772  0.0000E+00  0.0000E+00  0.0000E+00
     -4.670  0.0000E+00  0.0000E+00  0.0000E+00
     -4.568  0.0000E+00  0.0000E+00  0.0000E+00
     -4.466  0.0000E+00  0.0000E+00  0.0000E+00
     -4.365  0.0000E+00  0.0000E+00  0.0000E+00
     -4.263  0.0000E+00  0.0000E+00  0.0000E+00
     -4.161  0.0000E+00  0.0000E+00  0.0000E+00
     -4.060  0.0000E+00  0.0000E+00  0.0000E+00
     -3.958  0.0000E+00  0.0000E+00  0.0000E+00
     -3.856  0.0000E+00  0.0000E+00  0.0000E+00
     -3.755  0.0000E+00  0.0000E+00  0.0000E+00
     -3.653  0.0000E+00  0.0000E+00  0.0000E+00
     -3.551  0.0000E+00  0.0000E+00  0.0000E+00
     -3.450  0.6995E-25  0.2884E-18  0.6927E-21
     -3.348  0.4501E-06  0.7668E-02  0.8729E-04
     -3.246  0.4529E-05  0.1545E-01  0.1887E-02
     -3.145  0.1696E-05  0.3162E-03  0.1085E-02
     -3.043  0.8678E-18  0.4786E-05  0.3250E-05
     -2.941  0.0000E+00  0.0000E+00  0.0000E+00
     -2.839  0.0000E+00  0.0000E+00  0.0000E+00
     -2.738  0.0000E+00  0.0000E+00  0.0000E+00
     -2.636  0.1268E-03  0.2090E-01  0.3460E-03
     -2.534  0.2292E-03  0.1996E-01  0.8672E-03
     -2.433  0.1083E-02  0.2324E-01  0.3435E-02
     -2.331  0.2363E-07  0.4728E-07  0.1245E-07
     -2.229  0.4311E-02  0.2696E-01  0.4142E-02
     -2.128  0.7383E-02  0.1355E-02  0.3296E-02
     -2.026  0.4056E-02  0.1876E-01  0.1358E-02
     -1.924  0.8461E-02  0.3287E-01  0.1172E-02
     -1.823  0.1028E-02  0.2590E-01  0.6425E-03
     -1.721  0.3318E-03  0.5475E-01  0.3146E-02
     -1.619  0.4739E-03  0.2789E-01  0.3170E-02
     -1.518  0.8042E-03  0.9052E-01  0.7780E-02
     -1.416  0.1319E-03  0.1324E-01  0.6431E-02
     -1.314  0.2012E-02  0.4641E-01  0.2080E-01
     -1.212  0.2769E-02  0.6944E-01  0.1317E-01
     -1.111  0.5096E-02  0.2297E-01  0.3361E-02
     -1.009  0.7436E-03  0.5865E-01  0.1679E-01
     -0.907  0.1350E-03  0.5693E-02  0.2303E-02
     -0.806  0.5906E-03  0.1346E-01  0.6076E-02
     -0.704  0.0000E+00  0.0000E+00  0.0000E+00
     -0.602  0.4398E-20  0.3290E-12  0.9941E-12
     -0.501  0.7909E-05  0.1713E-03  0.1699E-03
     -0.399  0.2048E-04  0.8418E-03  0.4949E-03
     -0.297  0.7668E-10  0.8269E-05  0.1738E-05
     -0.196  0.2720E-04  0.1474E-02  0.1832E-03
     -0.094  0.0000E+00  0.0000E+00  0.0000E+00
      0.008  0.0000E+00  0.0000E+00  0.0000E+00
      0.109  0.3077E-06  0.1152E-03  0.4609E-03
      0.211  0.4716E-17  0.9597E-13  0.5672E-13
      0.313  0.2530E-05  0.2307E-03  0.2060E-03
      0.414  0.0000E+00  0.0000E+00  0.0000E+00
      0.516  0.0000E+00  0.0000E+00  0.0000E+00
      0.618  0.0000E+00  0.0000E+00  0.0000E+00
      0.720  0.3944E-31  0.1138E-20  0.1866E-20
      0.821  0.2733E-16  0.7883E-06  0.1293E-05
      0.923  0.0000E+00  0.0000E+00  0.0000E+00
      1.025  0.0000E+00  0.0000E+00  0.0000E+00
      1.126  0.0000E+00  0.0000E+00  0.0000E+00
      1.228  0.0000E+00  0.0000E+00  0.0000E+00
      1.330  0.0000E+00  0.0000E+00  0.0000E+00
      1.431  0.0000E+00  0.0000E+00  0.0000E+00
      1.533  0.0000E+00  0.0000E+00  0.0000E+00
      1.635  0.0000E+00  0.0000E+00  0.0000E+00
      1.736  0.0000E+00  0.0000E+00  0.0000E+00
      1.838  0.0000E+00  0.0000E+00  0.0000E+00
      1.940  0.0000E+00  0.0000E+00  0.0000E+00
      2.041  0.0000E+00  0.0000E+00  0.0000E+00
      2.143  0.0000E+00  0.0000E+00  0.0000E+00
      2.245  0.0000E+00  0.0000E+00  0.0000E+00
      2.347  0.0000E+00  0.0000E+00  0.0000E+00
      2.448  0.0000E+00  0.0000E+00  0.0000E+00
      2.550  0.0000E+00  0.0000E+00  0.0000E+00
      2.652  0.0000E+00  0.0000E+00  0.0000E+00
      2.753  0.1064E-25  0.2252E-17  0.5000E-13
      2.855  0.1003E-04  0.8179E-05  0.2711E-02
      2.957  0.0000E+00  0.0000E+00  0.0000E+00
      3.058  0.4819E-03  0.1627E-03  0.4610E-02
      3.160  0.0000E+00  0.0000E+00  0.0000E+00
      3.262  0.3657E-03  0.5594E-03  0.1253E-02
      3.363  0.1354E-04  0.6950E-04  0.1414E-03
      3.465  0.1817E-05  0.1098E-04  0.4942E-05
      3.567  0.4276E-03  0.4724E-03  0.6043E-03
      3.668  0.1045E-14  0.2067E-14  0.1911E-14
      3.770  0.1537E-03  0.5969E-03  0.3485E-03
      3.872  0.0000E+00  0.0000E+00  0.0000E+00
      3.974  0.0000E+00  0.0000E+00  0.0000E+00
      4.075  0.0000E+00  0.0000E+00  0.0000E+00
      4.177  0.0000E+00  0.0000E+00  0.0000E+00
      4.279  0.0000E+00  0.0000E+00  0.0000E+00
      4.380  0.0000E+00  0.0000E+00  0.0000E+00
      4.482  0.4191E-05  0.7918E-05  0.1390E-01
      4.584  0.1103E-03  0.1766E-03  0.2513E-02
      4.685  0.1419E-01  0.5070E-03  0.4871E-02
      4.787  0.9496E-03  0.2220E-02  0.1193E-01
      4.889  0.3001E-02  0.5988E-02  0.8211E-02
      4.990  0.6300E-03  0.1534E-02  0.1947E-02
      5.092  0.1810E-01  0.1251E-01  0.4786E-02
      5.194  0.3010E-01  0.6624E-02  0.1892E-02
      5.295  0.0000E+00  0.0000E+00  0.0000E+00
      5.397  0.0000E+00  0.0000E+00  0.0000E+00
      5.499  0.3249E-01  0.7910E-02  0.9597E-03
      5.600  0.0000E+00  0.0000E+00  0.0000E+00
      5.702  0.1762E-05  0.4985E-05  0.3159E-01
      5.804  0.4620E-02  0.1261E-02  0.3933E-01
      5.906  0.8948E-01  0.2535E-01  0.5250E-01
      6.007  0.5170E-10  0.6448E-04  0.3152E-02
      6.109  0.6449E-01  0.1749E-01  0.4423E+00
      6.211  0.6479E-01  0.5230E-02  0.1158E+00
      6.312  0.2090E-01  0.6480E-02  0.3470E+00
      6.414  0.4420E-02  0.4165E-02  0.8035E-01
      6.516  0.8653E-02  0.9983E-02  0.2882E+00
      6.617  0.1702E+00  0.6393E-01  0.9072E+00
      6.719  0.1806E-01  0.5646E-01  0.5970E+00
      6.821  0.1125E-04  0.1102E-03  0.5707E-01
      6.922  0.0000E+00  0.0000E+00  0.0000E+00
      7.024  0.0000E+00  0.0000E+00  0.0000E+00
      7.126  0.0000E+00  0.0000E+00  0.0000E+00
      7.227  0.0000E+00  0.0000E+00  0.0000E+00
      7.329  0.0000E+00  0.0000E+00  0.0000E+00
      7.431  0.0000E+00  0.0000E+00  0.0000E+00
      7.533  0.0000E+00  0.0000E+00  0.0000E+00
      7.634  0.0000E+00  0.0000E+00  0.0000E+00
      7.736  0.0000E+00  0.0000E+00  0.0000E+00
      7.838  0.0000E+00  0.0000E+00  0.0000E+00
      7.939  0.0000E+00  0.0000E+00  0.0000E+00
      8.041  0.0000E+00  0.0000E+00  0.0000E+00
      8.143  0.0000E+00  0.0000E+00  0.0000E+00
      8.14263313    -22.36319493  301      0.84665592      1.00000000
    -22.363  0.0000E+00  0.0000E+00  0.0000E+00
    -22.262  0.0000E+00  0.0000E+00  0.0000E+00
    -22.160  0.0000E+00  0.0000E+00  0.0000E+00
    -22.058  0.0000E+00  0.0000E+00  0.0000E+00
    -21.956  0.0000E+00  0.0000E+00  0.0000E+00
    -21.855  0.0000E+00  0.0000E+00  0.0000E+00
    -21.753  0.0000E+00  0.0000E+00  0.0000E+00
    -21.651  0.0000E+00  0.0000E+00  0.0000E+00
    -21.550  0.0000E+00  0.0000E+00  0.0000E+00
    -21.448  0.0000E+00  0.0000E+00  0.0000E+00
    -21.346  0.0000E+00  0.0000E+00  0.0000E+00
    -21.245  0.0000E+00  0.0000E+00  0.0000E+00
    -21.143  0.0000E+00  0.0000E+00  0.0000E+00
    -21.041  0.0000E+00  0.0000E+00  0.0000E+00
    -20.940  0.1746E+02  0.3400E-05  0.2683E-05
    -20.838  0.0000E+00  0.0000E+00  0.0000E+00
    -20.736  0.0000E+00  0.0000E+00  0.0000E+00
    -20.635  0.0000E+00  0.0000E+00  0.0000E+00
    -20.533  0.0000E+00  0.0000E+00  0.0000E+00
    -20.431  0.0000E+00  0.0000E+00  0.0000E+00
    -20.329  0.0000E+00  0.0000E+00  0.0000E+00
    -20.228  0.0000E+00  0.0000E+00  0.0000E+00
    -20.126  0.0000E+00  0.0000E+00  0.0000E+00
    -20.024  0.0000E+00  0.0000E+00  0.0000E+00
    -19.923  0.0000E+00  0.0000E+00  0.0000E+00
    -19.821  0.0000E+00  0.0000E+00  0.0000E+00
    -19.719  0.0000E+00  0.0000E+00  0.0000E+00
    -19.618  0.0000E+00  0.0000E+00  0.0000E+00
    -19.516  0.0000E+00  0.0000E+00  0.0000E+00
    -19.414  0.0000E+00  0.0000E+00  0.0000E+00
    -19.313  0.0000E+00  0.0000E+00  0.0000E+00
    -19.211  0.0000E+00  0.0000E+00  0.0000E+00
    -19.109  0.0000E+00  0.0000E+00  0.0000E+00
    -19.008  0.0000E+00  0.0000E+00  0.0000E+00
    -18.906  0.0000E+00  0.0000E+00  0.0000E+00
    -18.804  0.0000E+00  0.0000E+00  0.0000E+00
    -18.702  0.0000E+00  0.0000E+00  0.0000E+00
    -18.601  0.0000E+00  0.0000E+00  0.0000E+00
    -18.499  0.0000E+00  0.0000E+00  0.0000E+00
    -18.397  0.0000E+00  0.0000E+00  0.0000E+00
    -18.296  0.0000E+00  0.0000E+00  0.0000E+00
    -18.194  0.0000E+00  0.0000E+00  0.0000E+00
    -18.092  0.0000E+00  0.0000E+00  0.0000E+00
    -17.991  0.0000E+00  0.0000E+00  0.0000E+00
    -17.889  0.0000E+00  0.0000E+00  0.0000E+00
    -17.787  0.0000E+00  0.0000E+00  0.0000E+00
    -17.686  0.0000E+00  0.0000E+00  0.0000E+00
    -17.584  0.0000E+00  0.0000E+00  0.0000E+00
    -17.482  0.0000E+00  0.0000E+00  0.0000E+00
    -17.381  0.0000E+00  0.0000E+00  0.0000E+00
    -17.279  0.0000E+00  0.0000E+00  0.0000E+00
    -17.177  0.0000E+00  0.0000E+00  0.0000E+00
    -17.076  0.0000E+00  0.0000E+00  0.0000E+00
    -16.974  0.0000E+00  0.0000E+00  0.0000E+00
    -16.872  0.0000E+00  0.0000E+00  0.0000E+00
    -16.770  0.0000E+00  0.0000E+00  0.0000E+00
    -16.669  0.0000E+00  0.0000E+00  0.0000E+00
    -16.567  0.0000E+00  0.0000E+00  0.0000E+00
    -16.465  0.0000E+00  0.0000E+00  0.0000E+00
    -16.364  0.7369E-05  0.3332E-05  0.6772E-06
    -16.262  0.5027E-04  0.7810E-04  0.1251E-04
    -16.160  0.2177E-04  0.1476E-04  0.1494E-05
    -16.059  0.0000E+00  0.0000E+00  0.0000E+00
    -15.957  0.0000E+00  0.0000E+00  0.0000E+00
    -15.855  0.0000E+00  0.0000E+00  0.0000E+00
    -15.754  0.0000E+00  0.0000E+00  0.0000E+00
    -15.652  0.0000E+00  0.0000E+00  0.0000E+00
    -15.550  0.0000E+00  0.0000E+00  0.0000E+00
    -15.449  0.0000E+00  0.0000E+00  0.0000E+00
    -15.347  0.0000E+00  0.0000E+00  0.0000E+00
    -15.245  0.0000E+00  0.0000E+00  0.0000E+00
    -15.143  0.0000E+00  0.0000E+00  0.0000E+00
    -15.042  0.0000E+00  0.0000E+00  0.0000E+00
    -14.940  0.0000E+00  0.0000E+00  0.0000E+00
    -14.838  0.0000E+00  0.0000E+00  0.0000E+00
    -14.737  0.0000E+00  0.0000E+00  0.0000E+00
    -14.635  0.0000E+00  0.0000E+00  0.0000E+00
    -14.533  0.0000E+00  0.0000E+00  0.0000E+00
    -14.432  0.2067E-18  0.1589E-20  0.4293E-21
    -14.330  0.3122E-03  0.2911E-05  0.6569E-06
    -14.228  0.1640E-02  0.1248E-02  0.2760E-04
    -14.127  0.6543E-03  0.1946E-02  0.5298E-04
    -14.025  0.1998E-04  0.2000E-02  0.1249E-03
    -13.923  0.8209E-03  0.1755E-02  0.2931E-03
    -13.822  0.6556E-03  0.3027E-02  0.3272E-03
    -13.720  0.6086E-03  0.7691E-03  0.1238E-03
    -13.618  0.2121E-03  0.4501E-03  0.4962E-04
    -13.517  0.0000E+00  0.0000E+00  0.0000E+00
    -13.415  0.0000E+00  0.0000E+00  0.0000E+00
    -13.313  0.0000E+00  0.0000E+00  0.0000E+00