       N       E                     dE             d eps       ncg     rms          rms(c)
DAV:   1     0.134188127373E+04    0.13419E+04   -0.11293E+05  2696   0.958E+02
DAV:   2    -0.113062990594E+04   -0.24725E+04   -0.23842E+04  3120   0.295E+02
DAV:   3    -0.149588406450E+04   -0.36525E+03   -0.36302E+03  3504   0.135E+02
DAV:   4    -0.150781372556E+04   -0.11930E+02   -0.11888E+02  3088   0.318E+01
DAV:   5    -0.150836988066E+04   -0.55616E+00   -0.55588E+00  3400   0.537E+00    0.104E+01
DAV:   6    -0.142954177718E+04    0.78828E+02   -0.22983E+01  3376   0.283E+01    0.737E+00
DAV:   7    -0.142906627861E+04    0.47550E+00   -0.76011E+00  3224   0.491E+00    0.362E+00
DAV:   8    -0.142925015476E+04   -0.18388E+00   -0.37370E-01  3144   0.175E+00    0.208E+00
DAV:   9    -0.142933253598E+04   -0.82381E-01   -0.15474E-01  2880   0.120E+00    0.466E-01
DAV:  10    -0.142933375234E+04   -0.12164E-02   -0.91651E-03  3656   0.342E-01    0.270E-01
DAV:  11    -0.142933662403E+04   -0.28717E-02   -0.27666E-03  3032   0.164E-01    0.973E-02
DAV:  12    -0.142933724081E+04   -0.61678E-03   -0.93445E-04  2944   0.986E-02    0.368E-02
DAV:  13    -0.142933728084E+04   -0.40033E-04   -0.77495E-05  3232   0.240E-02    0.122E-02
DAV:  14    -0.142933728874E+04   -0.78988E-05   -0.74481E-06  2640   0.523E-03    0.479E-03
DAV:  15    -0.142933728686E+04    0.18822E-05   -0.59127E-07  1784   0.255E-03    0.841E-04
DAV:  16    -0.142933728383E+04    0.30333E-05   -0.18688E-07  1696   0.142E-03    0.568E-04
DAV:  17    -0.142933727966E+04    0.41695E-05   -0.50469E-08  1680   0.969E-04    0.223E-04
DAV:  18    -0.142933727891E+04    0.74386E-06   -0.28133E-08  1680   0.561E-04
   1 F= -.14293373E+04 E0= -.14293373E+04  d E =-.609202E-25
