CsPbBr3 cubic bulk                      
           1
    11.735352    0.000000    0.000000
     0.000000   11.735352    0.000000
     0.000000    0.000000   11.735352
   Cs   Pb   Br
   8   8  24
Direct configuration=     1
   0.25000000  0.25000000  0.25000000
   0.25000000  0.25000000  0.75000000
   0.25000000  0.75000000  0.25000000
   0.25000000  0.75000000  0.75000000
   0.75000000  0.25000000  0.25000000
   0.75000000  0.25000000  0.75000000
   0.75000000  0.75000000  0.25000000
   0.75000000  0.75000000  0.75000000
   0.00000000  0.00000000  0.00000000
   0.00000000  0.00000000  0.50000000
   0.00000000  0.50000000  0.00000000
   0.00000000  0.50000000  0.50000000
   0.50000000  0.00000000  0.00000000
   0.50000000  0.00000000  0.50000000
   0.50000000  0.50000000  0.00000000
   0.50000000  0.50000000  0.50000000
   0.97750000  0.25000000  0.02500000
   0.97750000  0.25000000  0.47500000
   0.02250000  0.75000000  0.97500000
   0.02250000  0.75000000  0.52500000
   0.52250000  0.25000000  0.97500000
   0.52250000  0.25000000  0.52500000
   0.47750000  0.75000000  0.02500000
   0.47750000  0.75000000  0.47500000
   0.02500000  0.97500000  0.25000000
   0.97500000  0.02500000  0.75000000
   0.97500000  0.52500000  0.25000000
   0.02500000  0.47500000  0.75000000
   0.47500000  0.02500000  0.25000000
   0.52500000  0.97500000  0.75000000
   0.52500000  0.47500000  0.25000000
   0.47500000  0.52500000  0.75000000
   0.25000000  0.02250000  0.97500000
   0.25000000  0.02250000  0.52500000
   0.25000000  0.47750000  0.02500000
   0.25000000  0.47750000  0.47500000
   0.75000000  0.97750000  0.02500000
   0.75000000  0.97750000  0.47500000
   0.75000000  0.52250000  0.97500000
   0.75000000  0.52250000  0.52500000
