  20  20   1   0
  0.4011931E+02  0.8588418E-09  0.1182145E-08  0.7903140E-09  0.5000000E-15
   1.0000000000000000E-004
  CAR 
 CsPbBr3 cubic bulk                      
      8.63157265    -22.15446280  301      0.44761823      1.00000000
    -22.154  0.0000E+00  0.0000E+00
    -22.052  0.0000E+00  0.0000E+00
    -21.949  0.0000E+00  0.0000E+00
    -21.847  0.0000E+00  0.0000E+00
    -21.744  0.0000E+00  0.0000E+00
    -21.641  0.0000E+00  0.0000E+00
    -21.539  0.0000E+00  0.0000E+00
    -21.436  0.0000E+00  0.0000E+00
    -21.334  0.0000E+00  0.0000E+00
    -21.231  0.0000E+00  0.0000E+00
    -21.128  0.0000E+00  0.0000E+00
    -21.026  0.0000E+00  0.0000E+00
    -20.923  0.0000E+00  0.0000E+00
    -20.820  0.0000E+00  0.0000E+00
    -20.718  0.7796E+02  0.8000E+01
    -20.615  0.0000E+00  0.8000E+01
    -20.513  0.0000E+00  0.8000E+01
    -20.410  0.0000E+00  0.8000E+01
    -20.307  0.0000E+00  0.8000E+01
    -20.205  0.0000E+00  0.8000E+01
    -20.102  0.0000E+00  0.8000E+01
    -19.999  0.0000E+00  0.8000E+01
    -19.897  0.0000E+00  0.8000E+01
    -19.794  0.0000E+00  0.8000E+01
    -19.692  0.0000E+00  0.8000E+01
    -19.589  0.0000E+00  0.8000E+01
    -19.486  0.0000E+00  0.8000E+01
    -19.384  0.0000E+00  0.8000E+01
    -19.281  0.0000E+00  0.8000E+01
    -19.178  0.0000E+00  0.8000E+01
    -19.076  0.0000E+00  0.8000E+01
    -18.973  0.0000E+00  0.8000E+01
    -18.871  0.0000E+00  0.8000E+01
    -18.768  0.0000E+00  0.8000E+01
    -18.665  0.0000E+00  0.8000E+01
    -18.563  0.0000E+00  0.8000E+01
    -18.460  0.0000E+00  0.8000E+01
    -18.358  0.0000E+00  0.8000E+01
    -18.255  0.0000E+00  0.8000E+01
    -18.152  0.0000E+00  0.8000E+01
    -18.050  0.0000E+00  0.8000E+01
    -17.947  0.0000E+00  0.8000E+01
    -17.844  0.0000E+00  0.8000E+01
    -17.742  0.0000E+00  0.8000E+01
    -17.639  0.0000E+00  0.8000E+01
    -17.537  0.0000E+00  0.8000E+01
    -17.434  0.0000E+00  0.8000E+01
    -17.331  0.0000E+00  0.8000E+01
    -17.229  0.0000E+00  0.8000E+01
    -17.126  0.0000E+00  0.8000E+01
    -17.023  0.0000E+00  0.8000E+01
    -16.921  0.0000E+00  0.8000E+01
    -16.818  0.0000E+00  0.8000E+01
    -16.716  0.0000E+00  0.8000E+01
    -16.613  0.0000E+00  0.8000E+01
    -16.510  0.3573E-02  0.8000E+01
    -16.408  0.1395E+03  0.2242E+02
    -16.305  0.2333E+03  0.4794E+02
    -16.202  0.0000E+00  0.4800E+02
    -16.100  0.0000E+00  0.4800E+02
    -15.997  0.0000E+00  0.4800E+02
    -15.895  0.0000E+00  0.4800E+02
    -15.792  0.0000E+00  0.4800E+02
    -15.689  0.0000E+00  0.4800E+02
    -15.587  0.0000E+00  0.4800E+02
    -15.484  0.0000E+00  0.4800E+02
    -15.382  0.0000E+00  0.4800E+02
    -15.279  0.0000E+00  0.4800E+02
    -15.176  0.0000E+00  0.4800E+02
    -15.074  0.0000E+00  0.4800E+02
    -14.971  0.0000E+00  0.4800E+02
    -14.868  0.0000E+00  0.4800E+02
    -14.766  0.0000E+00  0.4800E+02
    -14.663  0.0000E+00  0.4800E+02
    -14.561  0.0000E+00  0.4800E+02
    -14.458  0.0000E+00  0.4800E+02
    -14.355  0.4770E-06  0.4800E+02
    -14.253  0.7452E+01  0.4876E+02
    -14.150  0.2271E+02  0.5111E+02
    -14.047  0.2596E+02  0.5466E+02
    -13.945  0.4712E+02  0.6017E+02
    -13.842  0.4525E+02  0.6609E+02
    -13.740  0.3629E+02  0.7117E+02
    -13.637  0.0000E+00  0.7200E+02
    -13.534  0.0000E+00  0.7200E+02
    -13.432  0.0000E+00  0.7200E+02
    -13.329  0.0000E+00  0.7200E+02
    -13.227  0.0000E+00  0.7200E+02
    -13.124  0.0000E+00  0.7200E+02
    -13.021  0.0000E+00  0.7200E+02
    -12.919  0.0000E+00  0.7200E+02
    -12.816  0.0000E+00  0.7200E+02
    -12.713  0.0000E+00  0.7200E+02
    -12.611  0.0000E+00  0.7200E+02
    -12.508  0.0000E+00  0.7200E+02
    -12.406  0.0000E+00  0.7200E+02
    -12.303  0.0000E+00  0.7200E+02
    -12.200  0.0000E+00  0.7200E+02
    -12.098  0.0000E+00  0.7200E+02
    -11.995  0.0000E+00  0.7200E+02
    -11.892  0.0000E+00  0.7200E+02
    -11.790  0.0000E+00  0.7200E+02
    -11.687  0.0000E+00  0.7200E+02
    -11.585  0.0000E+00  0.7200E+02
    -11.482  0.0000E+00  0.7200E+02
    -11.379  0.0000E+00  0.7200E+02
    -11.277  0.0000E+00  0.7200E+02
    -11.174  0.0000E+00  0.7200E+02
    -11.071  0.0000E+00  0.7200E+02
    -10.969  0.0000E+00  0.7200E+02
    -10.866  0.0000E+00  0.7200E+02
    -10.764  0.0000E+00  0.7200E+02
    -10.661  0.0000E+00  0.7200E+02
    -10.558  0.0000E+00  0.7200E+02
    -10.456  0.0000E+00  0.7200E+02
    -10.353  0.0000E+00  0.7200E+02
    -10.251  0.0000E+00  0.7200E+02
    -10.148  0.0000E+00  0.7200E+02
    -10.045  0.0000E+00  0.7200E+02
     -9.943  0.0000E+00  0.7200E+02
     -9.840  0.0000E+00  0.7200E+02
     -9.737  0.0000E+00  0.7200E+02
     -9.635  0.0000E+00  0.7200E+02
     -9.532  0.0000E+00  0.7200E+02
     -9.430  0.0000E+00  0.7200E+02
     -9.327  0.0000E+00  0.7200E+02
     -9.224  0.0000E+00  0.7200E+02
     -9.122  0.0000E+00  0.7200E+02
     -9.019  0.0000E+00  0.7200E+02
     -8.916  0.0000E+00  0.7200E+02
     -8.814  0.0000E+00  0.7200E+02
     -8.711  0.0000E+00  0.7200E+02
     -8.609  0.0000E+00  0.7200E+02
     -8.506  0.0000E+00  0.7200E+02
     -8.403  0.0000E+00  0.7200E+02
     -8.301  0.0000E+00  0.7200E+02
     -8.198  0.3806E-09  0.7200E+02
     -8.096  0.1083E+01  0.7211E+02
     -7.993  0.3451E-08  0.7211E+02
     -7.890  0.6496E+01  0.7278E+02
     -7.788  0.4331E+01  0.7322E+02
     -7.685  0.8662E+01  0.7411E+02
     -7.582  0.1209E+02  0.7535E+02
     -7.480  0.2182E+01  0.7578E+02
     -7.377  0.4332E+01  0.7644E+02
     -7.275  0.1343E+02  0.7782E+02
     -7.172  0.5444E+02  0.8381E+02
     -7.069  0.1332E+03  0.1028E+03
     -6.967  0.4331E+01  0.1032E+03
     -6.864  0.6496E+01  0.1039E+03
     -6.761  0.0000E+00  0.1039E+03
     -6.659  0.0000E+00  0.1039E+03
     -6.556  0.8201E+00  0.1040E+03
     -6.454  0.0000E+00  0.1040E+03
     -6.351  0.0000E+00  0.1040E+03
     -6.248  0.0000E+00  0.1040E+03
     -6.146  0.0000E+00  0.1040E+03
     -6.043  0.0000E+00  0.1040E+03
     -5.940  0.0000E+00  0.1040E+03
     -5.838  0.0000E+00  0.1040E+03
     -5.735  0.0000E+00  0.1040E+03
     -5.633  0.0000E+00  0.1040E+03
     -5.530  0.0000E+00  0.1040E+03
     -5.427  0.0000E+00  0.1040E+03
     -5.325  0.0000E+00  0.1040E+03
     -5.222  0.0000E+00  0.1040E+03
     -5.120  0.0000E+00  0.1040E+03
     -5.017  0.0000E+00  0.1040E+03
     -4.914  0.0000E+00  0.1040E+03
     -4.812  0.0000E+00  0.1040E+03
     -4.709  0.0000E+00  0.1040E+03
     -4.606  0.0000E+00  0.1040E+03
     -4.504  0.0000E+00  0.1040E+03
     -4.401  0.0000E+00  0.1040E+03
     -4.299  0.0000E+00  0.1040E+03
     -4.196  0.0000E+00  0.1040E+03
     -4.093  0.0000E+00  0.1040E+03
     -3.991  0.0000E+00  0.1040E+03
     -3.888  0.0000E+00  0.1040E+03
     -3.785  0.0000E+00  0.1040E+03
     -3.683  0.0000E+00  0.1040E+03
     -3.580  0.0000E+00  0.1040E+03
     -3.478  0.0000E+00  0.1040E+03
     -3.375  0.0000E+00  0.1040E+03
     -3.272  0.1541E+01  0.1042E+03
     -3.170  0.1659E+02  0.1059E+03
     -3.067  0.1221E+02  0.1081E+03
     -2.965  0.6494E+01  0.1089E+03
     -2.862  0.7259E+01  0.1096E+03
     -2.759  0.1166E+02  0.1114E+03
     -2.657  0.4354E+01  0.1133E+03
     -2.554  0.2165E+01  0.1140E+03
     -2.451  0.1018E+02  0.1150E+03
     -2.349  0.2136E+02  0.1177E+03
     -2.246  0.4332E+01  0.1182E+03
     -2.144  0.1379E+02  0.1196E+03
     -2.041  0.1930E+02  0.1228E+03
     -1.938  0.2822E+02  0.1263E+03
     -1.836  0.3451E+01  0.1269E+03
     -1.733  0.8748E+01  0.1281E+03
     -1.630  0.3275E+02  0.1334E+03
     -1.528  0.5899E+01  0.1347E+03
     -1.425  0.4101E+02  0.1402E+03
     -1.323  0.5719E+02  0.1482E+03
     -1.220  0.3938E+02  0.1537E+03
     -1.117  0.4481E+02  0.1598E+03
     -1.015  0.4683E+02  0.1666E+03
     -0.912  0.6354E+01  0.1681E+03
     -0.809  0.1180E+02  0.1694E+03
     -0.707  0.8571E+01  0.1712E+03
     -0.604  0.1187E+02  0.1724E+03
     -0.502  0.1566E+02  0.1741E+03
     -0.399  0.1327E+01  0.1744E+03
     -0.296  0.0000E+00  0.1747E+03
     -0.194  0.1593E+00  0.1747E+03
     -0.091  0.7609E+01  0.1756E+03
      0.011  0.2165E+01  0.1759E+03
      0.114  0.0000E+00  0.1759E+03
      0.217  0.0000E+00  0.1759E+03
      0.319  0.0000E+00  0.1759E+03
      0.422  0.1074E+01  0.1760E+03
      0.525  0.0000E+00  0.1760E+03
      0.627  0.0000E+00  0.1760E+03
      0.730  0.0000E+00  0.1760E+03
      0.832  0.0000E+00  0.1760E+03
      0.935  0.0000E+00  0.1760E+03
      1.038  0.0000E+00  0.1760E+03
      1.140  0.0000E+00  0.1760E+03
      1.243  0.0000E+00  0.1760E+03
      1.346  0.0000E+00  0.1760E+03
      1.448  0.0000E+00  0.1760E+03
      1.551  0.0000E+00  0.1760E+03
      1.653  0.0000E+00  0.1760E+03
      1.756  0.0000E+00  0.1760E+03
      1.859  0.0000E+00  0.1760E+03
      1.961  0.0000E+00  0.1760E+03
      2.064  0.0000E+00  0.1760E+03
      2.167  0.0000E+00  0.1760E+03
      2.269  0.0000E+00  0.1760E+03
      2.372  0.0000E+00  0.1760E+03
      2.474  0.0000E+00  0.1760E+03
      2.577  0.0000E+00  0.1760E+03
      2.680  0.1080E+01  0.1761E+03
      2.782  0.1083E+01  0.1762E+03
      2.885  0.2036E+01  0.1764E+03
      2.987  0.6875E+01  0.1771E+03
      3.090  0.5413E+01  0.1780E+03
      3.193  0.6496E+01  0.1787E+03
      3.295  0.1299E+02  0.1800E+03
      3.398  0.1082E+01  0.1801E+03
      3.501  0.5414E+01  0.1809E+03
      3.603  0.6256E+01  0.1815E+03
      3.706  0.3183E+01  0.1819E+03
      3.808  0.2579E+01  0.1825E+03
      3.911  0.8662E+01  0.1836E+03
      4.014  0.1327E+02  0.1849E+03
      4.116  0.2165E+01  0.1853E+03
      4.219  0.6494E+01  0.1860E+03
      4.322  0.2165E+01  0.1862E+03
      4.424  0.5806E+01  0.1868E+03
      4.527  0.8662E+01  0.1880E+03
      4.629  0.8660E+01  0.1889E+03
      4.732  0.8659E+01  0.1898E+03
      4.835  0.4337E+01  0.1902E+03
      4.937  0.2559E+01  0.1907E+03
      5.040  0.1172E+02  0.1922E+03
      5.142  0.6496E+01  0.1930E+03
      5.245  0.1226E+02  0.1943E+03
      5.348  0.8662E+01  0.1952E+03
      5.450  0.5537E+00  0.1953E+03
      5.553  0.4331E+01  0.1959E+03
      5.656  0.2548E+01  0.1962E+03
      5.758  0.1191E+02  0.1974E+03
      5.861  0.8412E+01  0.1983E+03
      5.963  0.9389E+01  0.1993E+03
      6.066  0.4830E+01  0.1998E+03
      6.169  0.1897E+02  0.2023E+03
      6.271  0.5366E+01  0.2030E+03
      6.374  0.2078E+02  0.2051E+03
      6.477  0.2302E+02  0.2080E+03
      6.579  0.9498E+01  0.2096E+03
      6.682  0.2796E+02  0.2126E+03
      6.784  0.1223E+02  0.2147E+03
      6.887  0.2292E+02  0.2172E+03
      6.990  0.1793E+02  0.2195E+03
      7.092  0.2150E+02  0.2221E+03
      7.195  0.8659E+01  0.2236E+03
      7.298  0.4331E+01  0.2240E+03
      7.400  0.0000E+00  0.2240E+03
      7.503  0.0000E+00  0.2240E+03
      7.605  0.0000E+00  0.2240E+03
      7.708  0.0000E+00  0.2240E+03
      7.811  0.0000E+00  0.2240E+03
      7.913  0.0000E+00  0.2240E+03
      8.016  0.0000E+00  0.2240E+03
      8.118  0.0000E+00  0.2240E+03
      8.221  0.0000E+00  0.2240E+03
      8.324  0.0000E+00  0.2240E+03
      8.426  0.0000E+00  0.2240E+03
      8.529  0.0000E+00  0.2240E+03
      8.632  0.0000E+00  0.2240E+03
      8.63157265    -22.15446280  301      0.44761823      1.00000000
    -22.154  0.0000E+00  0.0000E+00  0.0000E+00
    -22.052  0.0000E+00  0.0000E+00  0.0000E+00
    -21.949  0.0000E+00  0.0000E+00  0.0000E+00
    -21.847  0.0000E+00  0.0000E+00  0.0000E+00
    -21.744  0.0000E+00  0.0000E+00  0.0000E+00
    -21.641  0.0000E+00  0.0000E+00  0.0000E+00
    -21.539  0.0000E+00  0.0000E+00  0.0000E+00
    -21.436  0.0000E+00  0.0000E+00  0.0000E+00
    -21.334  0.0000E+00  0.0000E+00  0.0000E+00
    -21.231  0.0000E+00  0.0000E+00  0.0000E+00
    -21.128  0.0000E+00  0.0000E+00  0.0000E+00
    -21.026  0.0000E+00  0.0000E+00  0.0000E+00
    -20.923  0.0000E+00  0.0000E+00  0.0000E+00
    -20.820  0.0000E+00  0.0000E+00  0.0000E+00
    -20.718  0.1730E+02  0.1105E-04  0.2393E-05
    -20.615  0.0000E+00  0.0000E+00  0.0000E+00
    -20.513  0.0000E+00  0.0000E+00  0.0000E+00
    -20.410  0.0000E+00  0.0000E+00  0.0000E+00
    -20.307  0.0000E+00  0.0000E+00  0.0000E+00
    -20.205  0.0000E+00  0.0000E+00  0.0000E+00
    -20.102  0.0000E+00  0.0000E+00  0.0000E+00
    -19.999  0.0000E+00  0.0000E+00  0.0000E+00
    -19.897  0.0000E+00  0.0000E+00  0.0000E+00
    -19.794  0.0000E+00  0.0000E+00  0.0000E+00
    -19.692  0.0000E+00  0.0000E+00  0.0000E+00
    -19.589  0.0000E+00  0.0000E+00  0.0000E+00
    -19.486  0.0000E+00  0.0000E+00  0.0000E+00
    -19.384  0.0000E+00  0.0000E+00  0.0000E+00
    -19.281  0.0000E+00  0.0000E+00  0.0000E+00
    -19.178  0.0000E+00  0.0000E+00  0.0000E+00
    -19.076  0.0000E+00  0.0000E+00  0.0000E+00
    -18.973  0.0000E+00  0.0000E+00  0.0000E+00
    -18.871  0.0000E+00  0.0000E+00  0.0000E+00
    -18.768  0.0000E+00  0.0000E+00  0.0000E+00
    -18.665  0.0000E+00  0.0000E+00  0.0000E+00
    -18.563  0.0000E+00  0.0000E+00  0.0000E+00
    -18.460  0.0000E+00  0.0000E+00  0.0000E+00
    -18.358  0.0000E+00  0.0000E+00  0.0000E+00
    -18.255  0.0000E+00  0.0000E+00  0.0000E+00
    -18.152  0.0000E+00  0.0000E+00  0.0000E+00
    -18.050  0.0000E+00  0.0000E+00  0.0000E+00
    -17.947  0.0000E+00  0.0000E+00  0.0000E+00
    -17.844  0.0000E+00  0.0000E+00  0.0000E+00
    -17.742  0.0000E+00  0.0000E+00  0.0000E+00
    -17.639  0.0000E+00  0.0000E+00  0.0000E+00
    -17.537  0.0000E+00  0.0000E+00  0.0000E+00
    -17.434  0.0000E+00  0.0000E+00  0.0000E+00
    -17.331  0.0000E+00  0.0000E+00  0.0000E+00
    -17.229  0.0000E+00  0.0000E+00  0.0000E+00
    -17.126  0.0000E+00  0.0000E+00  0.0000E+00
    -17.023  0.0000E+00  0.0000E+00  0.0000E+00
    -16.921  0.0000E+00  0.0000E+00  0.0000E+00
    -16.818  0.0000E+00  0.0000E+00  0.0000E+00
    -16.716  0.0000E+00  0.0000E+00  0.0000E+00
    -16.613  0.0000E+00  0.0000E+00  0.0000E+00
    -16.510  0.8550E-08  0.4363E-08  0.8928E-09
    -16.408  0.1154E-03  0.1119E-03  0.2158E-04
    -16.305  0.8231E-04  0.4466E-04  0.5527E-05
    -16.202  0.0000E+00  0.0000E+00  0.0000E+00
    -16.100  0.0000E+00  0.0000E+00  0.0000E+00
    -15.997  0.0000E+00  0.0000E+00  0.0000E+00
    -15.895  0.0000E+00  0.0000E+00  0.0000E+00
    -15.792  0.0000E+00  0.0000E+00  0.0000E+00
    -15.689  0.0000E+00  0.0000E+00  0.0000E+00
    -15.587  0.0000E+00  0.0000E+00  0.0000E+00
    -15.484  0.0000E+00  0.0000E+00  0.0000E+00
    -15.382  0.0000E+00  0.0000E+00  0.0000E+00
    -15.279  0.0000E+00  0.0000E+00  0.0000E+00
    -15.176  0.0000E+00  0.0000E+00  0.0000E+00
    -15.074  0.0000E+00  0.0000E+00  0.0000E+00
    -14.971  0.0000E+00  0.0000E+00  0.0000E+00
    -14.868  0.0000E+00  0.0000E+00  0.0000E+00
    -14.766  0.0000E+00  0.0000E+00  0.0000E+00
    -14.663  0.0000E+00  0.0000E+00  0.0000E+00
    -14.561  0.0000E+00  0.0000E+00  0.0000E+00
    -14.458  0.0000E+00  0.0000E+00  0.0000E+00
    -14.355  0.2175E-09  0.1999E-11  0.2334E-12
    -14.253  0.2481E-02  0.5662E-03  0.9395E-05
    -14.150  0.3658E-02  0.3929E-02  0.8027E-04
    -14.047  0.5839E-03  0.4491E-02  0.2147E-03
    -13.945  0.3140E-02  0.6537E-02  0.5655E-03
    -13.842  0.8828E-03  0.4232E-02  0.4368E-03
    -13.740  0.9668E-03  0.2494E-02  0.4040E-03
    -13.637  0.0000E+00  0.0000E+00  0.0000E+00
    -13.534  0.0000E+00  0.0000E+00  0.0000E+00
    -13.432  0.0000E+00  0.0000E+00  0.0000E+00
    -13.329  0.0000E+00  0.0000E+00  0.0000E+00
    -13.227  0.0000E+00  0.0000E+00  0.0000E+00
    -13.124  0.0000E+00  0.0000E+00  0.0000E+00
    -13.021  0.0000E+00  0.0000E+00  0.0000E+00
    -12.919  0.0000E+00  0.0000E+00  0.0000E+00
    -12.816  0.0000E+00  0.0000E+00  0.0000E+00
    -12.713  0.0000E+00  0.0000E+00  0.0000E+00
    -12.611  0.0000E+00  0.0000E+00  0.0000E+00
    -12.508  0.0000E+00  0.0000E+00  0.0000E+00
    -12.406  0.0000E+00  0.0000E+00  0.0000E+00
    -12.303  0.0000E+00  0.0000E+00  0.0000E+00
    -12.200  0.0000E+00  0.0000E+00  0.0000E+00
    -12.098  0.0000E+00  0.0000E+00  0.0000E+00
    -11.995  0.0000E+00  0.0000E+00  0.0000E+00
    -11.892  0.0000E+00  0.0000E+00  0.0000E+00
    -11.790  0.0000E+00  0.0000E+00  0.0000E+00
    -11.687  0.0000E+00  0.0000E+00  0.0000E+00
    -11.585  0.0000E+00  0.0000E+00  0.0000E+00
    -11.482  0.0000E+00  0.0000E+00  0.0000E+00
    -11.379  0.0000E+00  0.0000E+00  0.0000E+00
    -11.277  0.0000E+00  0.0000E+00  0.0000E+00
    -11.174  0.0000E+00  0.0000E+00  0.0000E+00
    -11.071  0.0000E+00  0.0000E+00  0.0000E+00
    -10.969  0.0000E+00  0.0000E+00  0.0000E+00
    -10.866  0.0000E+00  0.0000E+00  0.0000E+00
    -10.764  0.0000E+00  0.0000E+00  0.0000E+00
    -10.661  0.0000E+00  0.0000E+00  0.0000E+00
    -10.558  0.0000E+00  0.0000E+00  0.0000E+00
    -10.456  0.0000E+00  0.0000E+00  0.0000E+00
    -10.353  0.0000E+00  0.0000E+00  0.0000E+00
    -10.251  0.0000E+00  0.0000E+00  0.0000E+00
    -10.148  0.0000E+00  0.0000E+00  0.0000E+00
    -10.045  0.0000E+00  0.0000E+00  0.0000E+00
     -9.943  0.0000E+00  0.0000E+00  0.0000E+00
     -9.840  0.0000E+00  0.0000E+00  0.0000E+00
     -9.737  0.0000E+00  0.0000E+00  0.0000E+00
     -9.635  0.0000E+00  0.0000E+00  0.0000E+00
     -9.532  0.0000E+00  0.0000E+00  0.0000E+00
     -9.430  0.0000E+00  0.0000E+00  0.0000E+00
     -9.327  0.0000E+00  0.0000E+00  0.0000E+00
     -9.224  0.0000E+00  0.0000E+00  0.0000E+00
     -9.122  0.0000E+00  0.0000E+00  0.0000E+00
     -9.019  0.0000E+00  0.0000E+00  0.0000E+00
     -8.916  0.0000E+00  0.0000E+00  0.0000E+00
     -8.814  0.0000E+00  0.0000E+00  0.0000E+00
     -8.711  0.0000E+00  0.0000E+00  0.0000E+00
     -8.609  0.0000E+00  0.0000E+00  0.0000E+00
     -8.506  0.0000E+00  0.0000E+00  0.0000E+00
     -8.403  0.0000E+00  0.0000E+00  0.0000E+00
     -8.301  0.0000E+00  0.0000E+00  0.0000E+00
     -8.198  0.9041E-28  0.3096E-13  0.2861E-14
     -8.096  0.2572E-18  0.8806E-04  0.8138E-05
     -7.993  0.5591E-27  0.3188E-11  0.1254E-13
     -7.890  0.3651E-06  0.5442E-02  0.4064E-04
     -7.788  0.1009E-19  0.5840E-02  0.3063E-04
     -7.685  0.1146E-04  0.2233E-01  0.4926E-04
     -7.582  0.1584E-04  0.5155E-01  0.5613E-04
     -7.480  0.1040E-08  0.1529E-01  0.7484E-05
     -7.377  0.1161E-04  0.7180E-01  0.1643E-04
     -7.275  0.5150E-04  0.2951E+00  0.4649E-04
     -7.172  0.4163E-04  0.9306E+01  0.6779E-04
     -7.069  0.4597E-04  0.2496E+02  0.6033E-04
     -6.967  0.1638E-04  0.1331E+00  0.2803E-04
     -6.864  0.5377E-04  0.6360E-01  0.2368E-04
     -6.761  0.0000E+00  0.0000E+00  0.0000E+00
     -6.659  0.0000E+00  0.0000E+00  0.0000E+00
     -6.556  0.8558E-05  0.2358E-02  0.5054E-06
     -6.454  0.0000E+00  0.0000E+00  0.0000E+00
     -6.351  0.0000E+00  0.0000E+00  0.0000E+00
     -6.248  0.0000E+00  0.0000E+00  0.0000E+00
     -6.146  0.0000E+00  0.0000E+00  0.0000E+00
     -6.043  0.0000E+00  0.0000E+00  0.0000E+00
     -5.940  0.0000E+00  0.0000E+00  0.0000E+00
     -5.838  0.0000E+00  0.0000E+00  0.0000E+00
     -5.735  0.0000E+00  0.0000E+00  0.0000E+00
     -5.633  0.0000E+00  0.0000E+00  0.0000E+00
     -5.530  0.0000E+00  0.0000E+00  0.0000E+00
     -5.427  0.0000E+00  0.0000E+00  0.0000E+00
     -5.325  0.0000E+00  0.0000E+00  0.0000E+00
     -5.222  0.0000E+00  0.0000E+00  0.0000E+00
     -5.120  0.0000E+00  0.0000E+00  0.0000E+00
     -5.017  0.0000E+00  0.0000E+00  0.0000E+00
     -4.914  0.0000E+00  0.0000E+00  0.0000E+00
     -4.812  0.0000E+00  0.0000E+00  0.0000E+00
     -4.709  0.0000E+00  0.0000E+00  0.0000E+00
     -4.606  0.0000E+00  0.0000E+00  0.0000E+00
     -4.504  0.0000E+00  0.0000E+00  0.0000E+00
     -4.401  0.0000E+00  0.0000E+00  0.0000E+00
     -4.299  0.0000E+00  0.0000E+00  0.0000E+00
     -4.196  0.0000E+00  0.0000E+00  0.0000E+00
     -4.093  0.0000E+00  0.0000E+00  0.0000E+00
     -3.991  0.0000E+00  0.0000E+00  0.0000E+00
     -3.888  0.0000E+00  0.0000E+00  0.0000E+00
     -3.785  0.0000E+00  0.0000E+00  0.0000E+00
     -3.683  0.0000E+00  0.0000E+00  0.0000E+00
     -3.580  0.0000E+00  0.0000E+00  0.0000E+00
     -3.478  0.0000E+00  0.0000E+00  0.0000E+00
     -3.375  0.0000E+00  0.0000E+00  0.0000E+00
     -3.272  0.2820E-04  0.3002E-02  0.3008E-04
     -3.170  0.1156E-03  0.1873E-01  0.1617E-02
     -3.067  0.3416E-03  0.1435E-01  0.1560E-02
     -2.965  0.2170E-03  0.5514E-02  0.7314E-03
     -2.862  0.3703E-03  0.1230E-01  0.5839E-03
     -2.759  0.1711E-03  0.1319E-01  0.9935E-03
     -2.657  0.4023E-03  0.3771E-02  0.6337E-03
     -2.554  0.1234E-18  0.3143E-02  0.2765E-03
     -2.451  0.3566E-03  0.2003E-01  0.1080E-02
     -2.349  0.2287E-02  0.1658E-01  0.2905E-02
     -2.246  0.7795E-03  0.2075E-02  0.3829E-03
     -2.144  0.4532E-02  0.1583E-01  0.1341E-02
     -2.041  0.1174E-01  0.3029E-01  0.2534E-02
     -1.938  0.1894E-01  0.5361E-01  0.5771E-02
     -1.836  0.1142E-02  0.2126E-01  0.2867E-03
     -1.733  0.6178E-03  0.5793E-01  0.2312E-02
     -1.630  0.1226E-02  0.1089E+00  0.1401E-01
     -1.528  0.1586E-03  0.1990E-01  0.1490E-02
     -1.425  0.5190E-02  0.6737E-01  0.1746E-01
     -1.323  0.5337E-02  0.8634E-01  0.2219E-01
     -1.220  0.5399E-02  0.5729E-01  0.1132E-01
     -1.117  0.1503E-02  0.9621E-01  0.1230E-01
     -1.015  0.1884E-02  0.5524E-01  0.1244E-01
     -0.912  0.2780E-03  0.9852E-02  0.1670E-02
     -0.809  0.3843E-03  0.1662E-01  0.4347E-02
     -0.707  0.3689E-03  0.1193E-01  0.1310E-02
     -0.604  0.7309E-03  0.4970E-02  0.1559E-02
     -0.502  0.6460E-03  0.6200E-02  0.1839E-02
     -0.399  0.1252E-15  0.9309E-03  0.1661E-04
     -0.296  0.0000E+00  0.0000E+00  0.0000E+00
     -0.194  0.1755E-05  0.6419E-04  0.2200E-04
     -0.091  0.1819E-12  0.1129E-02  0.1271E-02
      0.011  0.5589E-05  0.4667E-03  0.3098E-03
      0.114  0.0000E+00  0.0000E+00  0.0000E+00
      0.217  0.0000E+00  0.0000E+00  0.0000E+00
      0.319  0.0000E+00  0.0000E+00  0.0000E+00
      0.422  0.2256E-17  0.6623E-04  0.1269E-03
      0.525  0.0000E+00  0.0000E+00  0.0000E+00
      0.627  0.0000E+00  0.0000E+00  0.0000E+00
      0.730  0.0000E+00  0.0000E+00  0.0000E+00
      0.832  0.0000E+00  0.0000E+00  0.0000E+00
      0.935  0.0000E+00  0.0000E+00  0.0000E+00
      1.038  0.0000E+00  0.0000E+00  0.0000E+00
      1.140  0.0000E+00  0.0000E+00  0.0000E+00
      1.243  0.0000E+00  0.0000E+00  0.0000E+00
      1.346  0.0000E+00  0.0000E+00  0.0000E+00
      1.448  0.0000E+00  0.0000E+00  0.0000E+00
      1.551  0.0000E+00  0.0000E+00  0.0000E+00
      1.653  0.0000E+00  0.0000E+00  0.0000E+00
      1.756  0.0000E+00  0.0000E+00  0.0000E+00
      1.859  0.0000E+00  0.0000E+00  0.0000E+00
      1.961  0.0000E+00  0.0000E+00  0.0000E+00
      2.064  0.0000E+00  0.0000E+00  0.0000E+00
      2.167  0.0000E+00  0.0000E+00  0.0000E+00
      2.269  0.0000E+00  0.0000E+00  0.0000E+00
      2.372  0.0000E+00  0.0000E+00  0.0000E+00
      2.474  0.0000E+00  0.0000E+00  0.0000E+00
      2.577  0.0000E+00  0.0000E+00  0.0000E+00
      2.680  0.4951E-17  0.6266E-04  0.1071E-02
      2.782  0.4461E-04  0.2342E-03  0.4882E-03
      2.885  0.3078E-03  0.2159E-03  0.1179E-02
      2.987  0.2820E-03  0.1259E-02  0.3353E-02
      3.090  0.2598E-03  0.3767E-02  0.1866E-02
      3.193  0.4925E-03  0.9332E-03  0.1833E-02
      3.295  0.1073E-02  0.6750E-02  0.3984E-02
      3.398  0.8050E-04  0.1523E-03  0.2083E-03
      3.501  0.8577E-03  0.2056E-02  0.2278E-02
      3.603  0.6057E-03  0.1458E-02  0.5856E-02
      3.706  0.1415E-03  0.6185E-03  0.2508E-02
      3.808  0.6771E-03  0.3827E-03  0.1823E-02
      3.911  0.1360E-03  0.9186E-03  0.4616E-02
      4.014  0.6692E-03  0.3352E-02  0.5785E-02
      4.116  0.2698E-03  0.2349E-03  0.9714E-03
      4.219  0.2357E-03  0.1992E-02  0.1608E-02
      4.322  0.6506E-04  0.4083E-03  0.2773E-02
      4.424  0.5264E-03  0.2128E-02  0.6134E-02
      4.527  0.5374E-04  0.3730E-02  0.8224E-02
      4.629  0.1065E-02  0.1825E-02  0.3436E-02
      4.732  0.1817E-02  0.3254E-02  0.4398E-02
      4.835  0.3862E-05  0.4260E-03  0.5350E-02
      4.937  0.2801E-02  0.7422E-03  0.2407E-02
      5.040  0.1733E-02  0.2360E-02  0.1353E-01
      5.142  0.2453E-02  0.3385E-02  0.6728E-02
      5.245  0.1574E-01  0.7358E-02  0.1043E-01
      5.348  0.5112E-02  0.4918E-02  0.6987E-02
      5.450  0.1485E-03  0.7366E-04  0.4793E-03
      5.553  0.1548E-07  0.7901E-04  0.9558E-02
      5.656  0.1808E-01  0.3058E-02  0.6180E-02
      5.758  0.1384E-01  0.3867E-02  0.2490E-01
      5.861  0.8483E-02  0.1670E-02  0.1829E-01
      5.963  0.1407E-02  0.2184E-02  0.1943E-01
      6.066  0.3711E-01  0.1696E-01  0.1273E-01
      6.169  0.3167E-01  0.8861E-02  0.1454E+00
      6.271  0.6464E-02  0.4868E-02  0.1455E+00
      6.374  0.5577E-01  0.4128E-01  0.3747E+00
      6.477  0.5643E-01  0.3167E-01  0.5571E+00
      6.579  0.2745E-01  0.4164E-02  0.2431E+00
      6.682  0.3358E-01  0.4242E-01  0.7835E+00
      6.784  0.4170E-01  0.1486E-01  0.2826E+00
      6.887  0.8714E-02  0.5804E-01  0.7081E+00
      6.990  0.1623E-01  0.1354E-01  0.7031E+00
      7.092  0.3881E-01  0.3584E-01  0.6750E+00
      7.195  0.6255E-02  0.2869E-01  0.1711E+00
      7.298  0.4407E-05  0.3323E-02  0.6155E-01
      7.400  0.0000E+00  0.0000E+00  0.0000E+00
      7.503  0.0000E+00  0.0000E+00  0.0000E+00
      7.605  0.0000E+00  0.0000E+00  0.0000E+00
      7.708  0.0000E+00  0.0000E+00  0.0000E+00
      7.811  0.0000E+00  0.0000E+00  0.0000E+00
      7.913  0.0000E+00  0.0000E+00  0.0000E+00
      8.016  0.0000E+00  0.0000E+00  0.0000E+00
      8.118  0.0000E+00  0.0000E+00  0.0000E+00
      8.221  0.0000E+00  0.0000E+00  0.0000E+00
      8.324  0.0000E+00  0.0000E+00  0.0000E+00
      8.426  0.0000E+00  0.0000E+00  0.0000E+00
      8.529  0.0000E+00  0.0000E+00  0.0000E+00
      8.632  0.0000E+00  0.0000E+00  0.0000E+00
      8.63157265    -22.15446280  301      0.44761823      1.00000000
    -22.154  0.0000E+00  0.0000E+00  0.0000E+00
    -22.052  0.0000E+00  0.0000E+00  0.0000E+00
    -21.949  0.0000E+00  0.0000E+00  0.0000E+00
    -21.847  0.0000E+00  0.0000E+00  0.0000E+00
    -21.744  0.0000E+00  0.0000E+00  0.0000E+00
    -21.641  0.0000E+00  0.0000E+00  0.0000E+00
    -21.539  0.0000E+00  0.0000E+00  0.0000E+00
    -21.436  0.0000E+00  0.0000E+00  0.0000E+00
    -21.334  0.0000E+00  0.0000E+00  0.0000E+00
    -21.231  0.0000E+00  0.0000E+00  0.0000E+00
    -21.128  0.0000E+00  0.0000E+00  0.0000E+00
    -21.026  0.0000E+00  0.0000E+00  0.0000E+00
    -20.923  0.0000E+00  0.0000E+00  0.0000E+00
    -20.820  0.0000E+00  0.0000E+00  0.0000E+00
    -20.718  0.1730E+02  0.1105E-04  0.2397E-05
    -20.615  0.0000E+00  0.0000E+00  0.0000E+00
    -20.513  0.0000E+00  0.0000E+00  0.0000E+00
    -20.410  0.0000E+00  0.0000E+00  0.0000E+00
    -20.307  0.0000E+00  0.0000E+00  0.0000E+00
    -20.205  0.0000E+00  0.0000E+00  0.0000E+00
    -20.102  0.0000E+00  0.0000E+00  0.0000E+00
    -19.999  0.0000E+00  0.0000E+00  0.0000E+00
    -19.897  0.0000E+00  0.0000E+00  0.0000E+00
    -19.794  0.0000E+00  0.0000E+00  0.0000E+00
    -19.692  0.0000E+00  0.0000E+00  0.0000E+00
    -19.589  0.0000E+00  0.0000E+00  0.0000E+00
    -19.486  0.0000E+00  0.0000E+00  0.0000E+00
    -19.384  0.0000E+00  0.0000E+00  0.0000E+00
    -19.281  0.0000E+00  0.0000E+00  0.0000E+00
    -19.178  0.0000E+00  0.0000E+00  0.0000E+00
    -19.076  0.0000E+00  0.0000E+00  0.0000E+00
    -18.973  0.0000E+00  0.0000E+00  0.0000E+00
    -18.871  0.0000E+00  0.0000E+00  0.0000E+00
    -18.768  0.0000E+00  0.0000E+00  0.0000E+00
    -18.665  0.0000E+00  0.0000E+00  0.0000E+00
    -18.563  0.0000E+00  0.0000E+00  0.0000E+00
    -18.460  0.0000E+00  0.0000E+00  0.0000E+00
    -18.358  0.0000E+00  0.0000E+00  0.0000E+00
    -18.255  0.0000E+00  0.0000E+00  0.0000E+00
    -18.152  0.0000E+00  0.0000E+00  0.0000E+00
    -18.050  0.0000E+00  0.0000E+00  0.0000E+00
    -17.947  0.0000E+00  0.0000E+00  0.0000E+00
    -17.844  0.0000E+00  0.0000E+00  0.0000E+00
    -17.742  0.0000E+00  0.0000E+00  0.0000E+00
    -17.639  0.0000E+00  0.0000E+00  0.0000E+00
    -17.537  0.0000E+00  0.0000E+00  0.0000E+00
    -17.434  0.0000E+00  0.0000E+00  0.0000E+00
    -17.331  0.0000E+00  0.0000E+00  0.0000E+00
    -17.229  0.0000E+00  0.0000E+00  0.0000E+00
    -17.126  0.0000E+00  0.0000E+00  0.0000E+00
    -17.023  0.0000E+00  0.0000E+00  0.0000E+00
    -16.921  0.0000E+00  0.0000E+00  0.0000E+00
    -16.818  0.0000E+00  0.0000E+00  0.0000E+00
    -16.716  0.0000E+00  0.0000E+00  0.0000E+00
    -16.613  0.0000E+00  0.0000E+00  0.0000E+00
    -16.510  0.1526E-08  0.4510E-08  0.1002E-08
    -16.408  0.1130E-03  0.1115E-03  0.2167E-04
    -16.305  0.8139E-04  0.4455E-04  0.5502E-05
    -16.202  0.0000E+00  0.0000E+00  0.0000E+00
    -16.100  0.0000E+00  0.0000E+00  0.0000E+00
    -15.997  0.0000E+00  0.0000E+00  0.0000E+00
    -15.895  0.0000E+00  0.0000E+00  0.0000E+00
    -15.792  0.0000E+00  0.0000E+00  0.0000E+00
    -15.689  0.0000E+00  0.0000E+00  0.0000E+00
    -15.587  0.0000E+00  0.0000E+00  0.0000E+00
    -15.484  0.0000E+00  0.0000E+00  0.0000E+00
    -15.382  0.0000E+00  0.0000E+00  0.0000E+00
    -15.279  0.0000E+00  0.0000E+00  0.0000E+00
    -15.176  0.0000E+00  0.0000E+00  0.0000E+00
    -15.074  0.0000E+00  0.0000E+00  0.0000E+00
    -14.971  0.0000E+00  0.0000E+00  0.0000E+00
    -14.868  0.0000E+00  0.0000E+00  0.0000E+00
    -14.766  0.0000E+00  0.0000E+00  0.0000E+00
    -14.663  0.0000E+00  0.0000E+00  0.0000E+00
    -14.561  0.0000E+00  0.0000E+00  0.0000E+00
    -14.458  0.0000E+00  0.0000E+00  0.0000E+00
    -14.355  0.2175E-09  0.1999E-11  0.2334E-12
    -14.253  0.2481E-02  0.5662E-03  0.9395E-05
    -14.150  0.4194E-02  0.3134E-02  0.8340E-04
    -14.047  0.6232E-03  0.5831E-02  0.2165E-03
    -13.945  0.1526E-02  0.4364E-02  0.4173E-03
    -13.842  0.1767E-02  0.5381E-02  0.5134E-03
    -13.740  0.1018E-02  0.2344E-02  0.3345E-03
    -13.637  0.0000E+00  0.0000E+00  0.0000E+00
    -13.534  0.0000E+00  0.0000E+00  0.0000E+00
    -13.432  0.0000E+00  0.0000E+00  0.0000E+00
    -13.329  0.0000E+00  0.0000E+00  0.0000E+00
    -13.227  0.0000E+00  0.0000E+00  0.0000E+00
    -13.124  0.0000E+00  0.0000E+00  0.0000E+00
    -13.021  0.0000E+00  0.0000E+00  0.0000E+00