 vasp.5.4.4.18Apr17-6-g9f103f2a35 (build Jun 29 2021 12:58:12) complex           
 executed on tx2_gcc-7.3_libsci-1 date 2021.09.21  08:28:54
 running on   64 total cores
 distrk:  each k-point on   64 cores,    1 groups
 distr:  one band on NCORES_PER_BAND=   8 cores,    8 groups


--------------------------------------------------------------------------------------------------------


 INCAR:
 POTCAR:    PAW_PBE Cs_sv 08Apr2002               
 POTCAR:    PAW_PBE Pb_d 06Sep2000                
 POTCAR:    PAW_PBE Br 06Sep2000                  
 POTCAR:    PAW_PBE Cs_sv 08Apr2002               
   SHA256 =  c1463496f0f6037ed62c6012a8013a89ee9ad6ffb38599dcd6c079e7ed31779b Cs
   COPYR  = (c) Copyright 08Apr2002 Georg Kresse                                
   COPYR  = This file is part of the software VASP. Any use, copying, and all ot
   COPYR  = If you do not have a valid VASP license, you may not use, copy or di
   VRHFIN =Cs: 5s5p6s                                                           
   LEXCH  = PE                                                                  
   EATOM  =   555.6835 eV,   40.8416 Ry                                         
                                                                                
   TITEL  = PAW_PBE Cs_sv 08Apr2002                                             
   LULTRA =        F    use ultrasoft PP ?                                      
   IUNSCR =        1    unscreen: 0-lin 1-nonlin 2-no                           
   RPACOR =    2.200    partial core radius                                     
   POMASS =  132.900; ZVAL   =    9.000    mass and valenz                      
   RCORE  =    2.500    outmost cutoff radius                                   
   RWIGS  =    2.500; RWIGS  =    1.323    wigner-seitz radius (au A)           
   ENMAX  =  220.318; ENMIN  =  165.238 eV                                      
   RCLOC  =    2.207    cutoff for local pot                                    
   LCOR   =        T    correct aug charges                                     
   LPAW   =        T    paw PP                                                  
   EAUG   =  407.933                                                            
   DEXC   =    0.000                                                            
   RMAX   =    2.554    core radius for proj-oper                               
   RAUG   =    1.300    factor for augmentation sphere                          
   RDEP   =    2.590    radius for radial grids                                 
   RDEPT  =    2.117    core radius for aug-charge                              
                                                                                
   Atomic configuration                                                         
   13 entries                                                                   
     n  l   j            E        occ.                                          
     1  0  0.50    -35790.1377   2.0000                                         
     2  0  0.50     -5613.6201   2.0000                                         
     2  1  1.50     -5035.0101   6.0000                                         
     3  0  0.50     -1167.0767   2.0000                                         
     3  1  1.50      -980.9754   6.0000                                         
     3  2  2.50      -708.0703  10.0000                                         
     4  0  0.50      -220.2386   2.0000                                         
     4  1  1.50      -160.7596   6.0000                                         
     4  2  2.50       -74.2354  10.0000                                         
     5  0  0.50       -26.7287   2.0000                                         
     6  0  0.50        -2.0862   1.0000                                         
     5  1  1.50       -13.5159   6.0000                                         
     5  2  2.50        -0.4136   0.0000                                         
   Description                                                                  
     l       E           TYP  RCUT    TYP  RCUT                                 
     0    -26.7287425     23  1.900                                             
     0     -2.0862306     23  1.900                                             
     1    -13.5158719     23  2.500                                             
     1     -2.7211652     23  2.500                                             
     2     -0.4136171     23  2.500                                             
  local pseudopotential read in
  partial core-charges read in
  partial kinetic energy density read in
  atomic valenz-charges read in
  non local Contribution for L=           0  read in
    real space projection operators read in
  non local Contribution for L=           0  read in
    real space projection operators read in
  non local Contribution for L=           1  read in
    real space projection operators read in
  non local Contribution for L=           1  read in
    real space projection operators read in
  non local Contribution for L=           2  read in
    real space projection operators read in
    PAW grid and wavefunctions read in

   number of l-projection  operators is LMAX  =           5
   number of lm-projection operators is LMMAX =          13

 POTCAR:    PAW_PBE Pb_d 06Sep2000                
   SHA256 =  fb885b08f0fba73a15f6a6b0e39bd200c13ec96ef97cf3ecd8e63bade5137abd Pb
   COPYR  = (c) Copyright 06Sep2000 Georg Kresse                                
   COPYR  = This file is part of the software VASP. Any use, copying, and all ot
   COPYR  = If you do not have a valid VASP license, you may not use, copy or di
   VRHFIN =Pb:                                                                  
   LEXCH  = PE                                                                  
   EATOM  =  1661.6185 eV,  122.1255 Ry                                         
                                                                                
   TITEL  = PAW_PBE Pb_d 06Sep2000                                              
   LULTRA =        F    use ultrasoft PP ?                                      
   IUNSCR =        1    unscreen: 0-lin 1-nonlin 2-no                           
   RPACOR =    2.200    partial core radius                                     
   POMASS =  207.200; ZVAL   =   14.000    mass and valenz                      
   RCORE  =    2.500    outmost cutoff radius                                   
   RWIGS  =    3.260; RWIGS  =    1.725    wigner-seitz radius (au A)           
   ENMAX  =  237.835; ENMIN  =  178.376 eV                                      
   ICORE  =        3    local potential                                         
   LCOR   =        T    correct aug charges                                     
   LPAW   =        T    paw PP                                                  
   EAUG   =  391.914                                                            
   DEXC   =    0.000                                                            
   RMAX   =    2.565    core radius for proj-oper                               
   RAUG   =    1.300    factor for augmentation sphere                          
   RDEP   =    2.643    radius for radial grids                                 
   RDEPT  =    2.092    core radius for aug-charge                              
                                                                                
   Atomic configuration                                                         
   16 entries                                                                   
     n  l   j            E        occ.                                          
     1  0  0.50    -88091.8466   2.0000                                         
     2  0  0.50    -15753.4197   2.0000                                         
     2  1  1.50    -13508.1797   6.0000                                         
     3  0  0.50     -3781.7194   2.0000                                         
     3  1  1.50     -3138.2529   6.0000                                         
     3  2  2.50     -2483.2977  10.0000                                         
     4  0  0.50      -856.2895   2.0000                                         
     4  1  1.50      -645.4942   6.0000                                         
     4  2  2.50      -401.8768  10.0000                                         
     4  3  3.50      -132.9059  14.0000                                         
     5  0  0.50      -144.0950   2.0000                                         
     5  1  1.50       -85.7879   6.0000                                         
     5  2  2.50       -21.1769  10.0000                                         
     6  0  0.50       -12.0372   2.0000                                         
     6  1  1.50        -3.4971   2.0000                                         
     5  3  2.50        -2.7212   0.0000                                         
   Description                                                                  
     l       E           TYP  RCUT    TYP  RCUT                                 
     2    -21.1768523     23  2.500                                             
     2      1.3605826     23  2.500                                             
     0    -12.0371562     23  2.500                                             
     0     13.6058260     23  2.500                                             
     1     -3.4971339     23  2.500                                             
     1     13.6058260     23  2.500                                             
     3     -1.3605826      7  2.500                                             
  local pseudopotential read in
  partial core-charges read in
  partial kinetic energy density read in
  atomic valenz-charges read in
  non local Contribution for L=           2  read in
    real space projection operators read in
  non local Contribution for L=           2  read in
    real space projection operators read in
  non local Contribution for L=           0  read in
    real space projection operators read in
  non local Contribution for L=           0  read in
    real space projection operators read in
  non local Contribution for L=           1  read in
    real space projection operators read in
  non local Contribution for L=           1  read in
    real space projection operators read in
    PAW grid and wavefunctions read in

   number of l-projection  operators is LMAX  =           6
   number of lm-projection operators is LMMAX =          18

 POTCAR:    PAW_PBE Br 06Sep2000                  
   SHA256 =  96a73d2954943bbee26f4990d676cc6c3bf44b8dd2c75cd4b3b825d8403f0103 Br
   COPYR  = (c) Copyright 06Sep2000 Georg Kresse                                
   COPYR  = This file is part of the software VASP. Any use, copying, and all ot
   COPYR  = If you do not have a valid VASP license, you may not use, copy or di
   VRHFIN =Br: s2p5                                                             
   LEXCH  = PE                                                                  
   EATOM  =   368.4488 eV,   27.0802 Ry                                         
                                                                                
   TITEL  = PAW_PBE Br 06Sep2000                                                
   LULTRA =        F    use ultrasoft PP ?                                      
   IUNSCR =        1    unscreen: 0-lin 1-nonlin 2-no                           
   RPACOR =    1.900    partial core radius                                     
   POMASS =   79.904; ZVAL   =    7.000    mass and valenz                      
   RCORE  =    2.100    outmost cutoff radius                                   
   RWIGS  =    2.200; RWIGS  =    1.164    wigner-seitz radius (au A)           
   ENMAX  =  216.285; ENMIN  =  162.214 eV                                      
   ICORE  =        3    local potential                                         
   LCOR   =        T    correct aug charges                                     
   LPAW   =        T    paw PP                                                  
   EAUG   =  503.852                                                            
   DEXC   =    0.000                                                            
   RMAX   =    2.139    core radius for proj-oper                               
   RAUG   =    1.300    factor for augmentation sphere                          
   RDEP   =    2.186    radius for radial grids                                 
   RDEPT  =    1.890    core radius for aug-charge                              
                                                                                
   Atomic configuration                                                         
   10 entries                                                                   
     n  l   j            E        occ.                                          
     1  0  0.50    -13316.2796   2.0000                                         
     2  0  0.50     -1732.8239   2.0000                                         
     2  1  1.50     -1528.2193   6.0000                                         
     3  0  0.50      -238.0460   2.0000                                         
     3  1  1.50      -173.4609   6.0000                                         
     3  2  2.50       -66.7132  10.0000                                         
     4  0  0.50       -20.1334   2.0000                                         
     4  1  0.50        -7.8591   5.0000                                         
     4  2  2.50        -8.1635   0.0000                                         
     4  3  2.50        -8.1635   0.0000                                         
   Description                                                                  
     l       E           TYP  RCUT    TYP  RCUT                                 
     0    -20.1333652     23  2.100                                             
     0    -21.4939478     23  2.100                                             
     1     -7.8591052     23  2.100                                             
     1     -3.1608434     23  2.100                                             
     2     -8.1634956     23  2.100                                             
     3     -1.3605826      7  2.100                                             
  local pseudopotential read in
  partial core-charges read in
  partial kinetic energy density read in
  atomic valenz-charges read in
  non local Contribution for L=           0  read in
    real space projection operators read in
  non local Contribution for L=           0  read in
    real space projection operators read in
  non local Contribution for L=           1  read in
    real space projection operators read in
  non local Contribution for L=           1  read in
    real space projection operators read in
  non local Contribution for L=           2  read in
    real space projection operators read in
    PAW grid and wavefunctions read in

   number of l-projection  operators is LMAX  =           5
   number of lm-projection operators is LMMAX =          13

 Optimization of the real space projectors (new method)

 maximal supplied QI-value         = 15.12
 optimisation between [QCUT,QGAM] = [  8.77, 17.69] = [ 21.53, 87.61] Ry 
 Optimized for a Real-space Cutoff    1.85 Angstroem

   l    n(q)    QCUT    max X(q) W(low)/X(q) W(high)/X(q)  e(spline) 
   0     10     8.768    25.322    0.81E-04    0.51E-04    0.48E-06
   0     10     8.768    99.187    0.78E-04    0.50E-04    0.47E-06
   1      9     8.768    11.761    0.21E-03    0.20E-03    0.37E-06
   1      9     8.768     8.275    0.24E-03    0.22E-03    0.41E-06
   2      9     8.768     3.829    0.23E-04    0.15E-03    0.18E-06
 Optimization of the real space projectors (new method)

 maximal supplied QI-value         = 15.12
 optimisation between [QCUT,QGAM] = [  8.77, 17.69] = [ 21.53, 87.61] Ry 
 Optimized for a Real-space Cutoff    1.59 Angstroem

   l    n(q)    QCUT    max X(q) W(low)/X(q) W(high)/X(q)  e(spline) 
   2      7     8.768     3.846    0.48E-04    0.11E-03    0.11E-06
   2      7     8.768     8.593    0.20E-03    0.22E-04    0.24E-06
   0      8     8.768    20.082    0.68E-04    0.88E-04    0.41E-07
   0      8     8.768     8.597    0.89E-04    0.13E-03    0.59E-07
   1      8     8.768    33.223    0.15E-03    0.53E-04    0.87E-07
   1      8     8.768    15.899    0.14E-03    0.44E-04    0.78E-07
 Optimization of the real space projectors (new method)

 maximal supplied QI-value         = 17.95
 optimisation between [QCUT,QGAM] = [  8.80, 17.59] = [ 21.67, 86.68] Ry 
 Optimized for a Real-space Cutoff    1.59 Angstroem

   l    n(q)    QCUT    max X(q) W(low)/X(q) W(high)/X(q)  e(spline) 
   0      8     8.797   175.082    0.82E-04    0.14E-03    0.89E-07
   0      8     8.797   174.004    0.79E-04    0.14E-03    0.86E-07
   1      8     8.797    54.315    0.16E-03    0.14E-04    0.30E-06
   1      8     8.797    42.441    0.16E-03    0.14E-04    0.30E-06
   2      7     8.797     3.596    0.92E-04    0.15E-03    0.85E-07
  PAW_PBE Cs_sv 08Apr2002               :
 energy of atom  1       EATOM= -555.6835
 kinetic energy error for atom=    0.0069 (will be added to EATOM!!)
  PAW_PBE Pb_d 06Sep2000                :
 energy of atom  2       EATOM=-1661.6185
 kinetic energy error for atom=    0.0498 (will be added to EATOM!!)
  PAW_PBE Br 06Sep2000                  :
 energy of atom  3       EATOM= -368.4488
 kinetic energy error for atom=    0.0072 (will be added to EATOM!!)


 POSCAR: Cs4 Pb4 Br12                            
  positions in direct lattice
  velocities in cartesian coordinates

 METAGGA = SCAN     LMAXTAU =  6    LMIXTAU =  F

 exchange correlation table for  LEXCH =        8
   RHO(1)=    0.500       N(1)  =     2000
   RHO(2)=  100.500       N(2)  =     4000

 VTST: version 3.2, (02/03/18)

 CHAIN: initializing optimizer
 
 OPT: Using VASP Conjugate-Gradient optimizer
 CHAIN: Read ICHAIN            0

 POSCAR: Cs4 Pb4 Br12                            
  positions in direct lattice
  velocities in cartesian coordinates



--------------------------------------------------------------------------------------------------------


 ion  position               nearest neighbor table
   1  0.069  0.250  0.474-
   2  0.431  0.750  0.974-
   3  0.569  0.250  0.026-
   4  0.931  0.750  0.526-
   5  0.000  0.000  0.000-  10 3.00  11 3.00  15 3.01  18 3.01  17 3.02  16 3.02
   6  0.500  0.000  0.500-  12 3.00   9 3.00  16 3.01  17 3.01  18 3.02  15 3.02
   7  0.500  0.500  0.500-  12 3.00   9 3.00  13 3.01  19 3.01  14 3.02  20 3.02
   8  0.000  0.500  0.000-  10 3.00  11 3.00  20 3.01  14 3.01  19 3.02  13 3.02
   9  0.510  0.750  0.436-   6 3.00   7 3.00
  10  0.990  0.250  0.936-   5 3.00   8 3.00
  11  0.010  0.750  0.064-   5 3.00   8 3.00
  12  0.490  0.250  0.564-   6 3.00   7 3.00
  13  0.300  0.466  0.191-   7 3.01   8 3.02
  14  0.200  0.534  0.691-   8 3.01   7 3.02
  15  0.800  0.034  0.309-   5 3.01   6 3.02
  16  0.700  0.966  0.809-   6 3.01   5 3.02
  17  0.300  0.034  0.191-   6 3.01   5 3.02
  18  0.200  0.966  0.691-   5 3.01   6 3.02
  19  0.700  0.534  0.809-   7 3.01   8 3.02
  20  0.800  0.466  0.309-   8 3.01   7 3.02

  LATTYP: Found a simple orthorhombic cell.
 ALAT       =     7.9031395407
 B/A-ratio  =     1.0867096431
 C/A-ratio  =     1.4957911095
  
  Lattice vectors:
  
 A1 = (   0.0000000000,   0.0000000000,   7.9031395407)
 A2 = (  -8.5884179498,   0.0000000000,   0.0000000000)
 A3 = (   0.0000000000, -11.8214458625,   0.0000000000)


Analysis of symmetry for initial positions (statically):
=====================================================================
 Subroutine PRICEL returns:
 Original cell was already a primitive cell.
 

 Routine SETGRP: Setting up the symmetry group for a 
 simple orthorhombic supercell.


 Subroutine GETGRP returns: Found  8 space group operations
 (whereof  2 operations were pure point group operations)
 out of a pool of  8 trial point group operations.


The static configuration has the point symmetry S_2 .
 The point group associated with its full space group is D_2h.


Analysis of symmetry for dynamics (positions and initial velocities):
=====================================================================
 Subroutine PRICEL returns:
 Original cell was already a primitive cell.
 

 Routine SETGRP: Setting up the symmetry group for a 
 simple orthorhombic supercell.


 Subroutine GETGRP returns: Found  8 space group operations
 (whereof  2 operations were pure point group operations)
 out of a pool of  8 trial point group operations.


The dynamic configuration has the point symmetry S_2 .
 The point group associated with its full space group is D_2h.


 Subroutine INISYM returns: Found  8 space group operations
 (whereof  2 operations are pure point group operations),
 and found     1 'primitive' translations



 KPOINTS: 1x1x1                                   

Automatic generation of k-mesh.
Space group operators:
 irot       det(A)        alpha          n_x          n_y          n_z        tau_x        tau_y        tau_z
    1     1.000000     0.000000     1.000000     0.000000     0.000000     0.000000     0.000000     0.000000
    2    -1.000000     0.000000     1.000000     0.000000     0.000000     0.000000     0.000000     0.000000
    3     1.000000   180.000000     0.000000     1.000000     0.000000     0.000000    -0.500000     0.000000
    4    -1.000000   180.000000     0.000000     1.000000     0.000000     0.000000    -0.500000     0.000000
    5     1.000000   180.000000     1.000000     0.000000     0.000000    -0.500000    -0.500000     0.500000
    6    -1.000000   180.000000     1.000000     0.000000     0.000000    -0.500000    -0.500000     0.500000
    7     1.000000   180.000000     0.000000     0.000000     1.000000    -0.500000     0.000000     0.500000
    8    -1.000000   180.000000     0.000000     0.000000     1.000000    -0.500000     0.000000     0.500000
 
 Subroutine IBZKPT returns following result:
 ===========================================
 
 Found      8 irreducible k-points:
 
 Following reciprocal coordinates:
            Coordinates               Weight
  0.000000  0.000000  0.000000      1.000000
  0.333333  0.000000  0.000000      2.000000
  0.000000  0.500000  0.000000      1.000000
  0.333333  0.500000  0.000000      2.000000
  0.000000  0.000000  0.333333      2.000000
  0.333333  0.000000  0.333333      4.000000
  0.000000  0.500000  0.333333      2.000000
  0.333333  0.500000  0.333333      4.000000
 
 Following cartesian coordinates:
            Coordinates               Weight
  0.000000  0.000000  0.000000      1.000000
  0.038812  0.000000  0.000000      2.000000
  0.000000  0.042296  0.000000      1.000000
  0.038812  0.042296  0.000000      2.000000
  0.000000  0.000000  0.042177      2.000000
  0.038812  0.000000  0.042177      4.000000
  0.000000  0.042296  0.042177      2.000000
  0.038812  0.042296  0.042177      4.000000
 


--------------------------------------------------------------------------------------------------------




 Dimension of arrays:
   k-points           NKPTS =      8   k-points in BZ     NKDIM =      8   number of bands    NBANDS=    112
   number of dos      NEDOS =    301   number of ions     NIONS =     20
   non local maximal  LDIM  =      6   non local SUM 2l+1 LMDIM =     18
   total plane-waves  NPLWV = 168000
   max r-space proj   IRMAX =   5585   max aug-charges    IRDMAX=  89119
   dimension x,y,z NGX =    50 NGY =   70 NGZ =   48
   dimension x,y,z NGXF=   100 NGYF=  140 NGZF=   96
   support grid    NGXF=   200 NGYF=  280 NGZF=  192
   ions per type =               4   4  12
   NGX,Y,Z   is equivalent  to a cutoff of   9.68,  9.84, 10.10 a.u.
   NGXF,Y,Z  is equivalent  to a cutoff of  19.36, 19.69, 20.19 a.u.

 SYSTEM =  CsPbBr3 cubic bulk                      
 POSCAR =  Cs4 Pb4 Br12                            

 Startparameter for this run:
   NWRITE =      2    write-flag & timer
   PREC   = accura    normal or accurate (medium, high low for compatibility)
   ISTART =      0    job   : 0-new  1-cont  2-samecut
   ICHARG =      2    charge: 1-file 2-atom 10-const
   ISPIN  =      1    spin polarized calculation?
   LNONCOLLINEAR =      F non collinear calculations
   LSORBIT =      F    spin-orbit coupling
   INIWAV =      1    electr: 0-lowe 1-rand  2-diag
   LASPH  =      T    aspherical Exc in radial PAW
   METAGGA=      F    non-selfconsistent MetaGGA calc.

 Electronic Relaxation 1
   ENCUT  =  300.0 eV  22.05 Ry    4.70 a.u.  12.13 16.70 11.16*2*pi/ulx,y,z
   ENINI  =  300.0     initial cutoff
   ENAUG  =  503.9 eV  augmentation charge cutoff
   NELM   =    200;   NELMIN=  2; NELMDL= -5     # of ELM steps 
   EDIFF  = 0.1E-05   stopping-criterion for ELM
   LREAL  =      T    real-space projection
   NLSPLINE    = F    spline interpolate recip. space projectors
   LCOMPAT=      F    compatible to vasp.4.4
   GGA_COMPAT  = T    GGA compatible to vasp.4.4-vasp.4.6
   LMAXPAW     = -100 max onsite density
   LMAXMIX     =    2 max onsite mixed and CHGCAR
   VOSKOWN=      0    Vosko Wilk Nusair interpolation
   ROPT   =   -0.00025  -0.00025  -0.00025
 Ionic relaxation
   EDIFFG = -.1E-01   stopping-criterion for IOM
   NSW    =      0    number of steps for IOM
   NBLOCK =      1;   KBLOCK =      1    inner block; outer block 
   IBRION =     -1    ionic relax: 0-MD 1-quasi-New 2-CG
   NFREE  =      1    steps in history (QN), initial steepest desc. (CG)
   ISIF   =      3    stress and relaxation
   IWAVPR =     10    prediction:  0-non 1-charg 2-wave 3-comb
   ISYM   =      2    0-nonsym 1-usesym 2-fastsym
   LCORR  =      T    Harris-Foulkes like correction to forces

   POTIM  = 0.5000    time-step for ionic-motion
   TEIN   =    0.0    initial temperature
   TEBEG  =    0.0;   TEEND  =   0.0 temperature during run
   SMASS  =  -3.00    Nose mass-parameter (am)
   estimated Nose-frequenzy (Omega)   =  0.10E-29 period in steps =****** mass=  -0.169E-26a.u.
   SCALEE = 1.0000    scale energy and forces
   NPACO  =    256;   APACO  = 16.0  distance and # of slots for P.C.
   PSTRESS=    0.0 pullay stress

  Mass of Ions in am
   POMASS = 132.90207.20 79.90
  Ionic Valenz
   ZVAL   =   9.00 14.00  7.00
  Atomic Wigner-Seitz radii
   RWIGS  =  -1.00 -1.00 -1.00
  virtual crystal weights 
   VCA    =   1.00  1.00  1.00
   NELECT =     176.0000    total number of electrons
   NUPDOWN=      -1.0000    fix difference up-down

 DOS related values:
   EMIN   =  10.00;   EMAX   =-10.00  energy-range for DOS
   EFERMI =   0.00
   ISMEAR =     0;   SIGMA  =   0.01  broadening in eV -4-tet -1-fermi 0-gaus

 Electronic relaxation 2 (details)
   IALGO  =     38    algorithm
   LDIAG  =      T    sub-space diagonalisation (order eigenvalues)
   LSUBROT=      F    optimize rotation matrix (better conditioning)
   TURBO    =      0    0=normal 1=particle mesh
   IRESTART =      0    0=no restart 2=restart with 2 vectors
   NREBOOT  =      0    no. of reboots
   NMIN     =      0    reboot dimension
   EREF     =   0.00    reference energy to select bands
   IMIX   =      4    mixing-type and parameters
     AMIX     =   0.40;   BMIX     =  1.00
     AMIX_MAG =   1.60;   BMIX_MAG =  1.00
     AMIN     =   0.10
     WC   =   100.;   INIMIX=   1;  MIXPRE=   1;  MAXMIX= -45

 Intra band minimization:
   WEIMIN = 0.0000     energy-eigenvalue tresh-hold
   EBREAK =  0.22E-08  absolut break condition
   DEPER  =   0.30     relativ break condition  

   TIME   =   0.40     timestep for ELM

  volume/ion in A,a.u.               =      40.12       270.74
  Fermi-wavevector in a.u.,A,eV,Ry     =   0.987305  1.865736 13.262561  0.974771
  Thomas-Fermi vector in A             =   2.118749

 Write flags
   LWAVE        =      F    write WAVECAR
   LDOWNSAMPLE  =      F    k-point downsampling of WAVECAR
   LCHARG       =      F    write CHGCAR
   LVTOT        =      F    write LOCPOT, total local potential
   LVHAR        =      T    write LOCPOT, Hartree potential only
   LELF         =      F    write electronic localiz. function (ELF)
   LORBIT       =     10    0 simple, 1 ext, 2 COOP (PROOUT), +10 PAW based schemes


 Dipole corrections
   LMONO  =      F    monopole corrections only (constant potential shift)
   LDIPOL =      F    correct potential (dipole corrections)
   IDIPOL =      0    1-x, 2-y, 3-z, 4-all directions 
   EPSILON=  1.0000000 bulk dielectric constant

 Exchange correlation treatment:
   GGA     =    --    GGA type
   LEXCH   =     8    internal setting for exchange type
   VOSKOWN=      0    Vosko Wilk Nusair interpolation
   LHFCALC =     F    Hartree Fock is set to
   LHFONE  =     F    Hartree Fock one center treatment
   AEXX    =    0.0000 exact exchange contribution

 Linear response parameters
   LEPSILON=     F    determine dielectric tensor
   LRPA    =     F    only Hartree local field effects (RPA)
   LNABLA  =     F    use nabla operator in PAW spheres
   LVEL    =     F    velocity operator in full k-point grid
   LINTERFAST=   F  fast interpolation
   KINTER  =     0    interpolate to denser k-point grid
   CSHIFT  =0.1000    complex shift for real part using Kramers Kronig
   OMEGAMAX=  -1.0    maximum frequency
   DEG_THRESHOLD= 0.2000000E-02 threshold for treating states as degnerate
   RTIME   =   -0.100 relaxation time in fs
  (WPLASMAI=    0.000 imaginary part of plasma frequency in eV, 0.658/RTIME)
   DFIELD  = 0.0000000 0.0000000 0.0000000 field for delta impulse in time

 Orbital magnetization related:
   ORBITALMAG=     F  switch on orbital magnetization
   LCHIMAG   =     F  perturbation theory with respect to B field
   DQ        =  0.001000  dq finite difference perturbation B field
   LLRAUG    =     F  two centre corrections for induced B field



--------------------------------------------------------------------------------------------------------


 Static calculation
 charge density and potential will be updated during run
 non-spin polarized calculation
 Variant of blocked Davidson
 Davidson routine will perform the subspace rotation
 perform sub-space diagonalisation
    after iterative eigenvector-optimisation
 modified Broyden-mixing scheme, WC =      100.0
 initial mixing is a Kerker type mixing with AMIX =  0.4000 and BMIX =      1.0000
 Hartree-type preconditioning will be used
 using additional bands           24
 real space projection scheme for non local part
 use partial core corrections
 calculate Harris-corrections to forces   (improved forces if not selfconsistent)
 use gradient corrections 
 use of overlap-Matrix (Vanderbilt PP)
 Gauss-broadening in eV      SIGMA  =   0.01


--------------------------------------------------------------------------------------------------------


  energy-cutoff  :      300.00
  volume of cell :      802.39
      direct lattice vectors                 reciprocal lattice vectors
     8.588417950  0.000000000  0.000000000     0.116435880  0.000000000  0.000000000
     0.000000000 11.821445862  0.000000000     0.000000000  0.084592021  0.000000000
     0.000000000  0.000000000  7.903139541     0.000000000  0.000000000  0.126531993

  length of vectors
     8.588417950 11.821445862  7.903139541     0.116435880  0.084592021  0.126531993



 k-points in units of 2pi/SCALE and weight: 1x1x1                                   
   0.00000000  0.00000000  0.00000000       0.056
   0.03881196  0.00000000  0.00000000       0.111
   0.00000000  0.04229601  0.00000000       0.056
   0.03881196  0.04229601  0.00000000       0.111
   0.00000000  0.00000000  0.04217733       0.111
   0.03881196  0.00000000  0.04217733       0.222
   0.00000000  0.04229601  0.04217733       0.111
   0.03881196  0.04229601  0.04217733       0.222

 k-points in reciprocal lattice and weights: 1x1x1                                   
   0.00000000  0.00000000  0.00000000       0.056
   0.33333333  0.00000000  0.00000000       0.111
   0.00000000  0.50000000  0.00000000       0.056
   0.33333333  0.50000000  0.00000000       0.111
   0.00000000  0.00000000  0.33333333       0.111
   0.33333333  0.00000000  0.33333333       0.222
   0.00000000  0.50000000  0.33333333       0.111
   0.33333333  0.50000000  0.33333333       0.222

 position of ions in fractional coordinates (direct lattice) 
   0.06948426  0.25000000  0.47388614
   0.43051574  0.75000000  0.97388614
   0.56948426  0.25000000  0.02611386
   0.93051574  0.75000000  0.52611386
   0.00000000  0.00000000  0.00000000
   0.50000000  0.00000000  0.50000000
   0.50000000  0.50000000  0.50000000
   0.00000000  0.50000000  0.00000000
   0.50999203  0.75000000  0.43630490
   0.99000797  0.25000000  0.93630490
   0.00999203  0.75000000  0.06369510
   0.49000797  0.25000000  0.56369510
   0.30034002  0.46609668  0.19146906
   0.19965998  0.53390332  0.69146906
   0.80034002  0.03390332  0.30853094
   0.69965998  0.96609668  0.80853094
   0.30034002  0.03390332  0.19146906
   0.19965998  0.96609668  0.69146906
   0.69965998  0.53390332  0.80853094
   0.80034002  0.46609668  0.30853094

 position of ions in cartesian coordinates  (Angst):
   0.59675988  2.95536147  3.74518825
   3.69744910  8.86608440  7.69675802
   4.89096885  2.95536147  0.20638152
   7.99165807  8.86608440  4.15795129
   0.00000000  0.00000000  0.00000000
   4.29420897  0.00000000  3.95156977
   4.29420897  5.91072293  3.95156977
   0.00000000  5.91072293  0.00000000
   4.38002474  8.86608440  3.44817850
   8.50260219  2.95536147  7.39974827
   0.08581576  8.86608440  0.50339127
   4.20839321  2.95536147  4.45496104
   2.57944565  5.50993666  1.51320671
   1.71476333  6.31150920  5.46477648
   6.87365462  0.40078627  2.43836306
   6.00897230 11.42065959  6.38993283
   2.57944565  0.40078627  1.51320671
   1.71476333 11.42065959  5.46477648
   6.00897230  6.31150920  6.38993283
   6.87365462  5.50993666  2.43836306



--------------------------------------------------------------------------------------------------------


 k-point  1 :   0.0000 0.0000 0.0000  plane waves:    9475
 k-point  2 :   0.3333 0.0000 0.0000  plane waves:    9438
 k-point  3 :   0.0000 0.5000 0.0000  plane waves:    9442
 k-point  4 :   0.3333 0.5000 0.0000  plane waves:    9492
 k-point  5 :   0.0000 0.0000 0.3333  plane waves:    9482
 k-point  6 :   0.3333 0.0000 0.3333  plane waves:    9474
 k-point  7 :   0.0000 0.5000 0.3333  plane waves:    9458
 k-point  8 :   0.3333 0.5000 0.3333  plane waves:    9472

 maximum and minimum number of plane-waves per node :      1207     1162

 maximum number of plane-waves:      9492
 maximum index in each direction: 
   IXMAX=   12   IYMAX=   16   IZMAX=   11
   IXMIN=  -12   IYMIN=  -17   IZMIN=  -11


 real space projection operators:
  total allocation   :       8332.94 KBytes
  max/ min on nodes  :       1167.91        963.03


 parallel 3D FFT for wavefunctions:
    minimum data exchange during FFTs selected (reduces bandwidth)
 parallel 3D FFT for charge:
    minimum data exchange during FFTs selected (reduces bandwidth)


 total amount of memory used by VASP MPI-rank0    43695. kBytes
=======================================================================

   base      :      30000. kBytes
   nonlr-proj:       3329. kBytes
   fftplans  :       4446. kBytes
   grid      :       3667. kBytes
   one-center:         46. kBytes
   wavefun   :       2207. kBytes

     INWAV:  cpu time    0.0000: real time    0.0000
 Broyden mixing: mesh for mixing (old mesh)
   NGX = 25   NGY = 33   NGZ = 23
  (NGX  =100   NGY  =140   NGZ  = 96)
  gives a total of  18975 points

 initial charge density was supplied:
 charge density of overlapping atoms calculated
 number of electron     176.0000000 magnetization 
 keeping initial charge density in first step


--------------------------------------------------------------------------------------------------------


 Maximum index for non-local projection operator          946
 Maximum index for augmentation-charges         4612 (set IRDMAX)


--------------------------------------------------------------------------------------------------------


 First call to EWALD:  gamma=   0.191
 Maximum number of real-space cells 3x 2x 3
 Maximum number of reciprocal cells 3x 3x 2

    FEWALD:  cpu time    0.0024: real time    0.0024


--------------------------------------- Iteration      1(   1)  ---------------------------------------


    POTLOK:  cpu time    0.1244: real time    0.1300
    SETDIJ:  cpu time    1.0994: real time    1.0997
     EDDAV:  cpu time    4.3897: real time    4.3935
       DOS:  cpu time    0.0006: real time    0.0006
    --------------------------------------------
      LOOP:  cpu time    5.6141: real time    5.6238

 eigenvalue-minimisations  :  1880
 total energy-change (2. order) : 0.6617934E+03  (-0.5621303E+04)
 number of electron     176.0000000 magnetization 
 augmentation part      176.0000000 magnetization 

 Free energy of the ion-electron system (eV)
  ---------------------------------------------------
  alpha Z        PSCENC =       449.66994750
  Ewald energy   TEWEN  =     -9231.08017937
  -Hartree energ DENC   =     -3652.75298599
  -exchange      EXHF   =         0.00000000
  -V(xc)+E(xc)   XCENC  =       461.95011765
  PAW double counting   =     10816.98087266   -11353.96092700
  entropy T*S    EENTRO =        -0.00028829
  eigenvalues    EBANDS =      -119.29329495
  atomic energy  EATOM  =     13290.28009929
  Solvation  Ediel_sol  =         0.00000000
  ---------------------------------------------------
  free energy    TOTEN  =       661.79336149 eV

  energy without entropy =      661.79364978  energy(sigma->0) =      661.79350564


--------------------------------------------------------------------------------------------------------




--------------------------------------- Iteration      1(   2)  ---------------------------------------


     EDDAV:  cpu time    4.9232: real time    4.9584
       DOS:  cpu time    0.0003: real time    0.0003
    --------------------------------------------
      LOOP:  cpu time    4.9234: real time    4.9587

 eigenvalue-minimisations  :  2232
 total energy-change (2. order) :-0.1237142E+04  (-0.1179077E+04)
 number of electron     176.0000000 magnetization 
 augmentation part      176.0000000 magnetization 

 Free energy of the ion-electron system (eV)
  ---------------------------------------------------
  alpha Z        PSCENC =       449.66994750
  Ewald energy   TEWEN  =     -9231.08017937
  -Hartree energ DENC   =     -3652.75298599
  -exchange      EXHF   =         0.00000000
  -V(xc)+E(xc)   XCENC  =       461.95011765
  PAW double counting   =     10816.98087266   -11353.96092700
  entropy T*S    EENTRO =        -0.00000000
  eigenvalues    EBANDS =     -1356.43511394
  atomic energy  EATOM  =     13290.28009929
  Solvation  Ediel_sol  =         0.00000000
  ---------------------------------------------------
  free energy    TOTEN  =      -575.34816921 eV

  energy without entropy =     -575.34816921  energy(sigma->0) =     -575.34816921


--------------------------------------------------------------------------------------------------------




--------------------------------------- Iteration      1(   3)  ---------------------------------------


     EDDAV:  cpu time    5.2029: real time    5.2452
       DOS:  cpu time    0.0005: real time    0.0005
    --------------------------------------------
      LOOP:  cpu time    5.2034: real time    5.2457

 eigenvalue-minimisations  :  2440
 total energy-change (2. order) :-0.1737208E+03  (-0.1726689E+03)
 number of electron     176.0000000 magnetization 
 augmentation part      176.0000000 magnetization 

 Free energy of the ion-electron system (eV)
  ---------------------------------------------------
  alpha Z        PSCENC =       449.66994750
  Ewald energy   TEWEN  =     -9231.08017937
  -Hartree energ DENC   =     -3652.75298599
  -exchange      EXHF   =         0.00000000
  -V(xc)+E(xc)   XCENC  =       461.95011765
  PAW double counting   =     10816.98087266   -11353.96092700
  entropy T*S    EENTRO =        -0.00000000
  eigenvalues    EBANDS =     -1530.15594553
  atomic energy  EATOM  =     13290.28009929
  Solvation  Ediel_sol  =         0.00000000
  ---------------------------------------------------
  free energy    TOTEN  =      -749.06900080 eV

  energy without entropy =     -749.06900080  energy(sigma->0) =     -749.06900080


--------------------------------------------------------------------------------------------------------




--------------------------------------- Iteration      1(   4)  ---------------------------------------


     EDDAV:  cpu time    4.8177: real time    4.8260
       DOS:  cpu time    0.0003: real time    0.0003
    --------------------------------------------
      LOOP:  cpu time    4.8180: real time    4.8262

 eigenvalue-minimisations  :  2152
 total energy-change (2. order) :-0.5508772E+01  (-0.5492431E+01)
 number of electron     176.0000000 magnetization 
 augmentation part      176.0000000 magnetization 

 Free energy of the ion-electron system (eV)
  ---------------------------------------------------
  alpha Z        PSCENC =       449.66994750
  Ewald energy   TEWEN  =     -9231.08017937
  -Hartree energ DENC   =     -3652.75298599
  -exchange      EXHF   =         0.00000000
  -V(xc)+E(xc)   XCENC  =       461.95011765
  PAW double counting   =     10816.98087266   -11353.96092700
  entropy T*S    EENTRO =        -0.00000000
  eigenvalues    EBANDS =     -1535.66471772
  atomic energy  EATOM  =     13290.28009929
  Solvation  Ediel_sol  =         0.00000000
  ---------------------------------------------------
  free energy    TOTEN  =      -754.57777299 eV

  energy without entropy =     -754.57777299  energy(sigma->0) =     -754.57777299


--------------------------------------------------------------------------------------------------------




--------------------------------------- Iteration      1(   5)  ---------------------------------------


     EDDAV:  cpu time    5.0350: real time    5.0836
       DOS:  cpu time    0.0003: real time    0.0003
    CHARGE:  cpu time    0.9557: real time    0.9557
    MIXING:  cpu time    0.0009: real time    0.0009
    --------------------------------------------
      LOOP:  cpu time    5.9918: real time    6.0405

 eigenvalue-minimisations  :  2328
 total energy-change (2. order) :-0.2567350E+00  (-0.2565713E+00)
 number of electron     176.0000002 magnetization 
 augmentation part       -3.2412412 magnetization 

 Broyden mixing:
  rms(total) = 0.70133E+00    rms(broyden)= 0.70111E+00
  rms(prec ) = 0.97366E+00
  weight for this iteration     100.00

 Free energy of the ion-electron system (eV)
  ---------------------------------------------------
  alpha Z        PSCENC =       449.66994750
  Ewald energy   TEWEN  =     -9231.08017937
  -Hartree energ DENC   =     -3652.75298599
  -exchange      EXHF   =         0.00000000
  -V(xc)+E(xc)   XCENC  =       461.95011765
  PAW double counting   =     10816.98087266   -11353.96092700
  entropy T*S    EENTRO =        -0.00000000
  eigenvalues    EBANDS =     -1535.92145273
  atomic energy  EATOM  =     13290.28009929
  Solvation  Ediel_sol  =         0.00000000
  ---------------------------------------------------
  free energy    TOTEN  =      -754.83450800 eV

  energy without entropy =     -754.83450800  energy(sigma->0) =     -754.83450800


--------------------------------------------------------------------------------------------------------




--------------------------------------- Iteration      1(   6)  ---------------------------------------


    POTLOK:  cpu time    0.1495: real time    0.1593
    SETDIJ:  cpu time    1.1023: real time    1.1024
     EDDAV:  cpu time    5.1074: real time    5.1076
       DOS:  cpu time    0.0004: real time    0.0004
    CHARGE:  cpu time    0.9150: real time    0.9150
    MIXING:  cpu time    0.0011: real time    0.0011
    --------------------------------------------
      LOOP:  cpu time    7.2757: real time    7.2858

 eigenvalue-minimisations  :  2392
 total energy-change (2. order) : 0.3982149E+02  (-0.1186269E+01)
 number of electron     176.0000002 magnetization 
 augmentation part       -2.5216593 magnetization 

 Broyden mixing:
  rms(total) = 0.49925E+00    rms(broyden)= 0.49920E+00
  rms(prec ) = 0.62120E+00
  weight for this iteration     100.00

 eigenvalues of (default mixing * dielectric matrix)
  average eigenvalue GAMMA=   1.1622
  1.1622

 Free energy of the ion-electron system (eV)
  ---------------------------------------------------
  alpha Z        PSCENC =       449.66994750
  Ewald energy   TEWEN  =     -9231.08017937
  -Hartree energ DENC   =     -3642.46949293
  -exchange      EXHF   =         0.00000000
  -V(xc)+E(xc)   XCENC  =       477.47314838
  PAW double counting   =     10961.66524830   -11497.71117517
  entropy T*S    EENTRO =        -0.00000000
  eigenvalues    EBANDS =     -1522.84061511
  atomic energy  EATOM  =     13290.28009929
  Solvation  Ediel_sol  =         0.00000000
  ---------------------------------------------------
  free energy    TOTEN  =      -715.01301911 eV

  energy without entropy =     -715.01301911  energy(sigma->0) =     -715.01301911


--------------------------------------------------------------------------------------------------------




--------------------------------------- Iteration      1(   7)  ---------------------------------------


    POTLOK:  cpu time    0.1295: real time    0.1605
    SETDIJ:  cpu time    1.1025: real time    1.1025
     EDDAV:  cpu time    4.8683: real time    4.8685
       DOS:  cpu time    0.0003: real time    0.0003
    CHARGE:  cpu time    0.9167: real time    0.9168
    MIXING:  cpu time    0.0009: real time    0.0009
    --------------------------------------------
      LOOP:  cpu time    7.0183: real time    7.0495

 eigenvalue-minimisations  :  2224
 total energy-change (2. order) : 0.2387842E+00  (-0.3871016E+00)
 number of electron     176.0000002 magnetization 
 augmentation part       -2.2574502 magnetization 

 Broyden mixing:
  rms(total) = 0.25886E+00    rms(broyden)= 0.25885E+00
  rms(prec ) = 0.28366E+00
  weight for this iteration     100.00

 eigenvalues of (default mixing * dielectric matrix)
  average eigenvalue GAMMA=   1.3150
  1.3150  1.3150

 Free energy of the ion-electron system (eV)
  ---------------------------------------------------
  alpha Z        PSCENC =       449.66994750
  Ewald energy   TEWEN  =     -9231.08017937
  -Hartree energ DENC   =     -3661.93989585
  -exchange      EXHF   =         0.00000000
  -V(xc)+E(xc)   XCENC  =       480.04408299
  PAW double counting   =     11265.63393869   -11800.75141066
  entropy T*S    EENTRO =        -0.00000000
  eigenvalues    EBANDS =     -1506.63081746
  atomic energy  EATOM  =     13290.28009929
  Solvation  Ediel_sol  =         0.00000000
  ---------------------------------------------------
  free energy    TOTEN  =      -714.77423486 eV

  energy without entropy =     -714.77423486  energy(sigma->0) =     -714.77423486


--------------------------------------------------------------------------------------------------------




--------------------------------------- Iteration      1(   8)  ---------------------------------------


    POTLOK:  cpu time    0.1430: real time    0.1803
    SETDIJ:  cpu time    1.1017: real time    1.1017
     EDDAV:  cpu time    4.8095: real time    4.8097
       DOS:  cpu time    0.0003: real time    0.0003
    CHARGE:  cpu time    0.9201: real time    0.9202
    MIXING:  cpu time    0.0009: real time    0.0009
    --------------------------------------------
      LOOP:  cpu time    6.9756: real time    7.0131

 eigenvalue-minimisations  :  2184
 total energy-change (2. order) :-0.9511147E-01  (-0.1835707E-01)
 number of electron     176.0000002 magnetization 
 augmentation part       -2.2994052 magnetization 

 Broyden mixing:
  rms(total) = 0.14832E+00    rms(broyden)= 0.14832E+00
  rms(prec ) = 0.16414E+00
  weight for this iteration     100.00

 eigenvalues of (default mixing * dielectric matrix)
  average eigenvalue GAMMA=   1.7103
  1.1055  1.3119  2.7135

 Free energy of the ion-electron system (eV)
  ---------------------------------------------------
  alpha Z        PSCENC =       449.66994750
  Ewald energy   TEWEN  =     -9231.08017937
  -Hartree energ DENC   =     -3664.08832142
  -exchange      EXHF   =         0.00000000
  -V(xc)+E(xc)   XCENC  =       480.40721776
  PAW double counting   =     11386.73570836   -11922.00635607
  entropy T*S    EENTRO =        -0.00000000
  eigenvalues    EBANDS =     -1504.78746239
  atomic energy  EATOM  =     13290.28009929
  Solvation  Ediel_sol  =         0.00000000
  ---------------------------------------------------
  free energy    TOTEN  =      -714.86934634 eV

  energy without entropy =     -714.86934634  energy(sigma->0) =     -714.86934634


--------------------------------------------------------------------------------------------------------




--------------------------------------- Iteration      1(   9)  ---------------------------------------


    POTLOK:  cpu time    0.1407: real time    0.1743
    SETDIJ:  cpu time    1.1027: real time    1.1027
     EDDAV:  cpu time    4.4552: real time    4.4554
       DOS:  cpu time    0.0006: real time    0.0006
    CHARGE:  cpu time    0.9210: real time    0.9210
    MIXING:  cpu time    0.0009: real time    0.0009
    --------------------------------------------
      LOOP:  cpu time    6.6211: real time    6.6549

 eigenvalue-minimisations  :  1936
 total energy-change (2. order) :-0.3945400E-01  (-0.8094398E-02)
 number of electron     176.0000002 magnetization 
 augmentation part       -2.3218707 magnetization 

 Broyden mixing:
  rms(total) = 0.31921E-01    rms(broyden)= 0.31920E-01
  rms(prec ) = 0.34278E-01
  weight for this iteration     100.00

 eigenvalues of (default mixing * dielectric matrix)
  average eigenvalue GAMMA=   1.4670
  2.5427  1.2459  1.2459  0.8336

 Free energy of the ion-electron system (eV)
  ---------------------------------------------------
  alpha Z        PSCENC =       449.66994750
  Ewald energy   TEWEN  =     -9231.08017937
  -Hartree energ DENC   =     -3666.48644552
  -exchange      EXHF   =         0.00000000
  -V(xc)+E(xc)   XCENC  =       481.40437392
  PAW double counting   =     11557.29784012   -12092.93779392
  entropy T*S    EENTRO =        -0.00000000
  eigenvalues    EBANDS =     -1503.05664236
  atomic energy  EATOM  =     13290.28009929
  Solvation  Ediel_sol  =         0.00000000
  ---------------------------------------------------
  free energy    TOTEN  =      -714.90880034 eV

  energy without entropy =     -714.90880034  energy(sigma->0) =     -714.90880034


--------------------------------------------------------------------------------------------------------




--------------------------------------- Iteration      1(  10)  ---------------------------------------


    POTLOK:  cpu time    0.1690: real time    0.1754
    SETDIJ:  cpu time    1.1035: real time    1.1036
     EDDAV:  cpu time    5.4311: real time    5.4313
       DOS:  cpu time    0.0004: real time    0.0004
    CHARGE:  cpu time    0.9221: real time    0.9221
    MIXING:  cpu time    0.0010: real time    0.0010
    --------------------------------------------
      LOOP:  cpu time    7.6270: real time    7.6336

 eigenvalue-minimisations  :  2608
 total energy-change (2. order) :-0.8970212E-03  (-0.4918764E-03)
 number of electron     176.0000002 magnetization 
 augmentation part       -2.3149335 magnetization 

 Broyden mixing:
  rms(total) = 0.18248E-01    rms(broyden)= 0.18248E-01
  rms(prec ) = 0.20384E-01
  weight for this iteration     100.00

 eigenvalues of (default mixing * dielectric matrix)
  average eigenvalue GAMMA=   1.6084
  2.4593  2.4593  1.1362  1.1362  0.8510

 Free energy of the ion-electron system (eV)
  ---------------------------------------------------
  alpha Z        PSCENC =       449.66994750
  Ewald energy   TEWEN  =     -9231.08017937
  -Hartree energ DENC   =     -3665.58573522
  -exchange      EXHF   =         0.00000000
  -V(xc)+E(xc)   XCENC  =       481.30200102
  PAW double counting   =     11539.74350519   -12075.42595133
  entropy T*S    EENTRO =        -0.00000000
  eigenvalues    EBANDS =     -1503.81338443
  atomic energy  EATOM  =     13290.28009929
  Solvation  Ediel_sol  =         0.00000000
  ---------------------------------------------------
  free energy    TOTEN  =      -714.90969736 eV

  energy without entropy =     -714.90969736  energy(sigma->0) =     -714.90969736


--------------------------------------------------------------------------------------------------------




--------------------------------------- Iteration      1(  11)  ---------------------------------------


    POTLOK:  cpu time    0.1307: real time    0.1710
    SETDIJ:  cpu time    1.1027: real time    1.1027
     EDDAV:  cpu time    4.4500: real time    4.4502
       DOS:  cpu time    0.0004: real time    0.0004
    CHARGE:  cpu time    0.9211: real time    0.9212
    MIXING:  cpu time    0.0010: real time    0.0010
    --------------------------------------------
      LOOP:  cpu time    6.6059: real time    6.6464

 eigenvalue-minimisations  :  1936
 total energy-change (2. order) :-0.1567033E-02  (-0.1761408E-03)
 number of electron     176.0000002 magnetization 
 augmentation part       -2.3145118 magnetization 

 Broyden mixing:
  rms(total) = 0.68772E-02    rms(broyden)= 0.68769E-02
  rms(prec ) = 0.83558E-02
  weight for this iteration     100.00

 eigenvalues of (default mixing * dielectric matrix)
  average eigenvalue GAMMA=   1.5825
  2.6057  2.6057  1.2253  1.2253  0.9166  0.9166

 Free energy of the ion-electron system (eV)
  ---------------------------------------------------
  alpha Z        PSCENC =       449.66994750
  Ewald energy   TEWEN  =     -9231.08017937
  -Hartree energ DENC   =     -3664.21750687
  -exchange      EXHF   =         0.00000000
  -V(xc)+E(xc)   XCENC  =       481.25334636
  PAW double counting   =     11525.24186849   -12061.09385824
  entropy T*S    EENTRO =        -0.00000000
  eigenvalues    EBANDS =     -1504.96498156
  atomic energy  EATOM  =     13290.28009929
  Solvation  Ediel_sol  =         0.00000000
  ---------------------------------------------------
  free energy    TOTEN  =      -714.91126439 eV

  energy without entropy =     -714.91126439  energy(sigma->0) =     -714.91126439


--------------------------------------------------------------------------------------------------------




--------------------------------------- Iteration      1(  12)  ---------------------------------------


    POTLOK:  cpu time    0.1335: real time    0.1718
    SETDIJ:  cpu time    1.1022: real time    1.1022
     EDDAV:  cpu time    4.9293: real time    4.9295
       DOS:  cpu time    0.0004: real time    0.0004
    CHARGE:  cpu time    0.9206: real time    0.9206
    MIXING:  cpu time    0.0010: real time    0.0010
    --------------------------------------------
      LOOP:  cpu time    7.0870: real time    7.1256

 eigenvalue-minimisations  :  2264
 total energy-change (2. order) :-0.1102274E-04  (-0.4555992E-04)
 number of electron     176.0000002 magnetization 
 augmentation part       -2.3163852 magnetization 

 Broyden mixing:
  rms(total) = 0.22912E-02    rms(broyden)= 0.22907E-02
  rms(prec ) = 0.26235E-02
  weight for this iteration     100.00

 eigenvalues of (default mixing * dielectric matrix)
  average eigenvalue GAMMA=   1.6332
  3.0669  2.2498  1.9637  0.9580  0.9580  1.1181  1.1181

 Free energy of the ion-electron system (eV)
  ---------------------------------------------------
  alpha Z        PSCENC =       449.66994750
  Ewald energy   TEWEN  =     -9231.08017937
  -Hartree energ DENC   =     -3664.38882685
  -exchange      EXHF   =         0.00000000
  -V(xc)+E(xc)   XCENC  =       481.31459362
  PAW double counting   =     11530.70709851   -12066.60317160
  entropy T*S    EENTRO =        -0.00000000
  eigenvalues    EBANDS =     -1504.81083651
  atomic energy  EATOM  =     13290.28009929
  Solvation  Ediel_sol  =         0.00000000
  ---------------------------------------------------
  free energy    TOTEN  =      -714.91127541 eV

  energy without entropy =     -714.91127541  energy(sigma->0) =     -714.91127541


--------------------------------------------------------------------------------------------------------




--------------------------------------- Iteration      1(  13)  ---------------------------------------


    POTLOK:  cpu time    0.1629: real time    0.1673
    SETDIJ:  cpu time    1.1019: real time    1.1019
     EDDAV:  cpu time    4.7832: real time    4.7834
       DOS:  cpu time    0.0005: real time    0.0005
    CHARGE:  cpu time    0.9220: real time    0.9220
    MIXING:  cpu time    0.0012: real time    0.0012
    --------------------------------------------
      LOOP:  cpu time    6.9718: real time    6.9764

 eigenvalue-minimisations  :  2168
 total energy-change (2. order) : 0.6568771E-05  (-0.4814951E-05)
 number of electron     176.0000002 magnetization 
 augmentation part       -2.3162746 magnetization 

 Broyden mixing:
  rms(total) = 0.68777E-03    rms(broyden)= 0.68663E-03
  rms(prec ) = 0.75203E-03
  weight for this iteration     100.00

 eigenvalues of (default mixing * dielectric matrix)
  average eigenvalue GAMMA=   1.6200
  2.9729  2.4714  2.0229  1.2707  1.2707  0.9422  1.0045  1.0045

 Free energy of the ion-electron system (eV)
  ---------------------------------------------------
  alpha Z        PSCENC =       449.66994750
  Ewald energy   TEWEN  =     -9231.08017937
  -Hartree energ DENC   =     -3664.55505704
  -exchange      EXHF   =         0.00000000
  -V(xc)+E(xc)   XCENC  =       481.32873399
  PAW double counting   =     11529.69053812   -12065.59034567
  entropy T*S    EENTRO =        -0.00000000
  eigenvalues    EBANDS =     -1504.65500566
  atomic energy  EATOM  =     13290.28009929
  Solvation  Ediel_sol  =         0.00000000
  ---------------------------------------------------
  free energy    TOTEN  =      -714.91126885 eV

  energy without entropy =     -714.91126885  energy(sigma->0) =     -714.91126885


--------------------------------------------------------------------------------------------------------




--------------------------------------- Iteration      1(  14)  ---------------------------------------


    POTLOK:  cpu time    0.1289: real time    0.1667
    SETDIJ:  cpu time    1.1026: real time    1.1026
     EDDAV:  cpu time    4.2241: real time    4.2242
       DOS:  cpu time    0.0003: real time    0.0003
    CHARGE:  cpu time    0.9215: real time    0.9216
    MIXING:  cpu time    0.0010: real time    0.0010
    --------------------------------------------
      LOOP:  cpu time    6.3785: real time    6.4165

 eigenvalue-minimisations  :  1752
 total energy-change (2. order) :-0.1882612E-04  (-0.2666491E-06)
 number of electron     176.0000002 magnetization 
 augmentation part       -2.3161037 magnetization 

 Broyden mixing:
  rms(total) = 0.20713E-03    rms(broyden)= 0.20350E-03
  rms(prec ) = 0.24465E-03
  weight for this iteration     100.00

 eigenvalues of (default mixing * dielectric matrix)
  average eigenvalue GAMMA=   1.6872
  2.8415  2.8415  2.3543  1.9431  1.1272  1.1272  0.9293  1.0104  1.0104

 Free energy of the ion-electron system (eV)
  ---------------------------------------------------
  alpha Z        PSCENC =       449.66994750
  Ewald energy   TEWEN  =     -9231.08017937
  -Hartree energ DENC   =     -3664.55894464
  -exchange      EXHF   =         0.00000000
  -V(xc)+E(xc)   XCENC  =       481.32774051
  PAW double counting   =     11529.25138754   -12065.14976660
  entropy T*S    EENTRO =        -0.00000000
  eigenvalues    EBANDS =     -1504.65157189
  atomic energy  EATOM  =     13290.28009929
  Solvation  Ediel_sol  =         0.00000000
  ---------------------------------------------------
  free energy    TOTEN  =      -714.91128767 eV

  energy without entropy =     -714.91128767  energy(sigma->0) =     -714.91128767


--------------------------------------------------------------------------------------------------------




--------------------------------------- Iteration      1(  15)  ---------------------------------------


    POTLOK:  cpu time    0.1266: real time    0.1789
    SETDIJ:  cpu time    1.1032: real time    1.1032
     EDDAV:  cpu time    3.4981: real time    3.4982
       DOS:  cpu time    0.0003: real time    0.0003
    CHARGE:  cpu time    0.9174: real time    0.9175
    MIXING:  cpu time    0.0011: real time    0.0011
    --------------------------------------------
      LOOP:  cpu time    5.6467: real time    5.6992

 eigenvalue-minimisations  :  1232
 total energy-change (2. order) :-0.1913134E-05  (-0.4908434E-07)
 number of electron     176.0000002 magnetization 
 augmentation part       -2.3160978 magnetization 

 Broyden mixing:
  rms(total) = 0.87707E-04    rms(broyden)= 0.78797E-04
  rms(prec ) = 0.90114E-04
  weight for this iteration     100.00
  WARNING: grid for Broyden might be to small

 eigenvalues of (default mixing * dielectric matrix)
  average eigenvalue GAMMA=   1.6651
  3.1247  2.7022  2.4677  1.9255  1.2391  1.2391  1.0283  1.0283  0.9481  0.9481

 Free energy of the ion-electron system (eV)
  ---------------------------------------------------
  alpha Z        PSCENC =       449.66994750
  Ewald energy   TEWEN  =     -9231.08017937
  -Hartree energ DENC   =     -3664.55168590
  -exchange      EXHF   =         0.00000000
  -V(xc)+E(xc)   XCENC  =       481.32742285
  PAW double counting   =     11529.26325370   -12065.16126805
  entropy T*S    EENTRO =        -0.00000000
  eigenvalues    EBANDS =     -1504.65887961
  atomic energy  EATOM  =     13290.28009929
  Solvation  Ediel_sol  =         0.00000000
  ---------------------------------------------------
  free energy    TOTEN  =      -714.91128958 eV

  energy without entropy =     -714.91128958  energy(sigma->0) =     -714.91128958


--------------------------------------------------------------------------------------------------------




--------------------------------------- Iteration      1(  16)  ---------------------------------------


    POTLOK:  cpu time    0.1696: real time    0.1788
    SETDIJ:  cpu time    1.1046: real time    1.1046
     EDDAV:  cpu time    3.5275: real time    3.5277
       DOS:  cpu time    0.0003: real time    0.0003
    CHARGE:  cpu time    0.9244: real time    0.9244
    MIXING:  cpu time    0.0013: real time    0.0013
    --------------------------------------------
      LOOP:  cpu time    5.7277: real time    5.7372

 eigenvalue-minimisations  :  1248
 total energy-change (2. order) : 0.2513073E-05  (-0.1707599E-07)
 number of electron     176.0000002 magnetization 
 augmentation part       -2.3161511 magnetization 

 Broyden mixing:
  rms(total) = 0.52870E-04    rms(broyden)= 0.36230E-04
  rms(prec ) = 0.40571E-04
  weight for this iteration     100.00
  WARNING: grid for Broyden might be to small

 eigenvalues of (default mixing * dielectric matrix)
  average eigenvalue GAMMA=   1.6890
  3.1294  2.6993  2.6993  1.9372  1.9372  1.1705  1.1705  0.9857  0.9857  0.9322
  0.9322

 Free energy of the ion-electron system (eV)
  ---------------------------------------------------
  alpha Z        PSCENC =       449.66994750
  Ewald energy   TEWEN  =     -9231.08017937
  -Hartree energ DENC   =     -3664.55436639
  -exchange      EXHF   =         0.00000000
  -V(xc)+E(xc)   XCENC  =       481.32767512
  PAW double counting   =     11529.26769451   -12065.16575630
  entropy T*S    EENTRO =        -0.00000000
  eigenvalues    EBANDS =     -1504.65640142
  atomic energy  EATOM  =     13290.28009929
  Solvation  Ediel_sol  =         0.00000000
  ---------------------------------------------------
  free energy    TOTEN  =      -714.91128707 eV

  energy without entropy =     -714.91128707  energy(sigma->0) =     -714.91128707


--------------------------------------------------------------------------------------------------------




--------------------------------------- Iteration      1(  17)  ---------------------------------------


    POTLOK:  cpu time    0.1286: real time    0.1632
    SETDIJ:  cpu time    1.1050: real time    1.1051
     EDDAV:  cpu time    3.3665: real time    3.3667
       DOS:  cpu time    0.0003: real time    0.0003
    CHARGE:  cpu time    0.9204: real time    0.9205
    MIXING:  cpu time    0.0012: real time    0.0012
    --------------------------------------------
      LOOP:  cpu time    5.5222: real time    5.5569

 eigenvalue-minimisations  :  1136
 total energy-change (2. order) : 0.1486723E-05  (-0.5526988E-08)
 number of electron     176.0000002 magnetization 
 augmentation part       -2.3161286 magnetization 

 Broyden mixing:
  rms(total) = 0.40627E-04    rms(broyden)= 0.12963E-04
  rms(prec ) = 0.14107E-04
  weight for this iteration     100.00
  WARNING: grid for Broyden might be to small

 eigenvalues of (default mixing * dielectric matrix)
  average eigenvalue GAMMA=   1.7343
  3.7327  3.0312  2.3886  2.3886  2.0273  1.1443  1.1443  1.1611  0.9822  0.9822
  0.9147  0.9147

 Free energy of the ion-electron system (eV)
  ---------------------------------------------------
  alpha Z        PSCENC =       449.66994750
  Ewald energy   TEWEN  =     -9231.08017937
  -Hartree energ DENC   =     -3664.55647876
  -exchange      EXHF   =         0.00000000
  -V(xc)+E(xc)   XCENC  =       481.32783316
  PAW double counting   =     11529.27119216   -12065.16913438
  entropy T*S    EENTRO =        -0.00000000
  eigenvalues    EBANDS =     -1504.65456519
  atomic energy  EATOM  =     13290.28009929
  Solvation  Ediel_sol  =         0.00000000
  ---------------------------------------------------
  free energy    TOTEN  =      -714.91128558 eV

  energy without entropy =     -714.91128558  energy(sigma->0) =     -714.91128558


--------------------------------------------------------------------------------------------------------




--------------------------------------- Iteration      1(  18)  ---------------------------------------


    POTLOK:  cpu time    0.1455: real time    0.1649
    SETDIJ:  cpu time    1.1055: real time    1.1055
     EDDAV:  cpu time    3.3284: real time    3.3286
       DOS:  cpu time    0.0003: real time    0.0003
    --------------------------------------------
      LOOP:  cpu time    4.5796: real time    4.5993

 eigenvalue-minimisations  :  1112
 total energy-change (2. order) : 0.1902661E-06  (-0.2431583E-08)
 number of electron     176.0000002 magnetization 
 augmentation part       -2.3161286 magnetization 

 Free energy of the ion-electron system (eV)
  ---------------------------------------------------
  alpha Z        PSCENC =       449.66994750
  Ewald energy   TEWEN  =     -9231.08017937
  -Hartree energ DENC   =     -3664.55727011
  -exchange      EXHF   =         0.00000000
  -V(xc)+E(xc)   XCENC  =       481.32783489
  PAW double counting   =     11529.26436995   -12065.16222222
  entropy T*S    EENTRO =        -0.00000000
  eigenvalues    EBANDS =     -1504.65386533
  atomic energy  EATOM  =     13290.28009929
  Solvation  Ediel_sol  =         0.00000000
  ---------------------------------------------------
  free energy    TOTEN  =      -714.91128539 eV

  energy without entropy =     -714.91128539  energy(sigma->0) =     -714.91128539


--------------------------------------------------------------------------------------------------------




 average (electrostatic) potential at core
  the test charge radii are     1.1312  1.1541  1.0178
  (the norm of the test charge is              1.0000)
       1 -55.2230       2 -55.2230       3 -55.2230       4 -55.2230       5-101.6749
       6-101.6749       7-101.6749       8-101.6749       9 -68.9902      10 -68.9902
      11 -68.9902      12 -68.9902      13 -68.9672      14 -68.9672      15 -68.9672
      16 -68.9672      17 -68.9672      18 -68.9672      19 -68.9672      20 -68.9672



 E-fermi :   0.4476     XC(G=0):  -8.0801     alpha+bet : -7.0546


 k-point     1 :       0.0000    0.0000    0.0000
  band No.  band energies     occupation 
      1     -20.7551      2.00000
      2     -20.7534      2.00000
      3     -20.7509      2.00000
      4     -20.7498      2.00000
      5     -16.4895      2.00000
      6     -16.4756      2.00000
      7     -16.4754      2.00000
      8     -16.4647      2.00000
      9     -16.4335      2.00000
     10     -16.4037      2.00000
     11     -16.3935      2.00000
     12     -16.3932      2.00000
     13     -16.3401      2.00000
     14     -16.3394      2.00000
     15     -16.3391      2.00000
     16     -16.3384      2.00000
     17     -16.3314      2.00000
     18     -16.3312      2.00000
     19     -16.3303      2.00000
     20     -16.3300      2.00000
     21     -16.3234      2.00000
     22     -16.3227      2.00000
     23     -16.3225      2.00000
     24     -16.3218      2.00000
     25     -14.3206      2.00000
     26     -14.1401      2.00000
     27     -14.0241      2.00000
     28     -14.0208      2.00000
     29     -14.0075      2.00000
     30     -13.9983      2.00000
     31     -13.9622      2.00000
     32     -13.9570      2.00000
     33     -13.9507      2.00000
     34     -13.7456      2.00000
     35     -13.7295      2.00000
     36     -13.7261      2.00000
     37      -8.1545      2.00000
     38      -7.6596      2.00000
     39      -7.2085      2.00000
     40      -7.1878      2.00000
     41      -7.1878      2.00000
     42      -7.1855      2.00000
     43      -7.1786      2.00000
     44      -7.1695      2.00000
     45      -7.1644      2.00000
     46      -7.1516      2.00000
     47      -7.1436      2.00000
     48      -7.1426      2.00000
     49      -7.1340      2.00000
     50      -7.1226      2.00000
     51      -7.0983      2.00000
     52      -6.5611      2.00000
     53      -3.2820      2.00000
     54      -3.2725      2.00000
     55      -3.1852      2.00000
     56      -3.1657      2.00000
     57      -3.0949      2.00000
     58      -3.0629      2.00000
     59      -2.1271      2.00000
     60      -1.8977      2.00000
     61      -1.8606      2.00000
     62      -1.8442      2.00000
     63      -1.8272      2.00000
     64      -1.7191      2.00000
     65      -1.6234      2.00000
     66      -1.5281      2.00000
     67      -1.4856      2.00000
     68      -1.4835      2.00000
     69      -1.4352      2.00000
     70      -1.4132      2.00000
     71      -1.4118      2.00000
     72      -1.4071      2.00000
     73      -1.4070      2.00000
     74      -1.3429      2.00000
     75      -1.3367      2.00000
     76      -1.3258      2.00000
     77      -1.3250      2.00000
     78      -1.1374      2.00000
     79      -1.1254      2.00000
     80      -1.0956      2.00000
     81      -1.0509      2.00000
     82      -0.9984      2.00000
     83      -0.9957      2.00000
     84      -0.9662      2.00000
     85      -0.7928      2.00000
     86      -0.6173      2.00000
     87      -0.1863      2.00000
     88       0.4049      2.00000
     89       2.6597      0.00000
     90       2.7517      0.00000
     91       2.9477      0.00000
     92       3.0650      0.00000
     93       3.3787      0.00000
     94       3.4642      0.00000
     95       4.9422      0.00000
     96       5.6582      0.00000
     97       5.6938      0.00000
     98       5.9047      0.00000
     99       6.0777      0.00000
    100       6.0892      0.00000
    101       6.1289      0.00000
    102       6.1436      0.00000
    103       6.2288      0.00000
    104       6.4140      0.00000
    105       6.4749      0.00000
    106       6.4972      0.00000
    107       6.6089      0.00000
    108       6.7762      0.00000
    109       6.8998      0.00000
    110       7.0498      0.00000
    111       7.0830      0.00000
    112       7.1070      0.00000

 k-point     2 :       0.3333    0.0000    0.0000
  band No.  band energies     occupation 
      1     -20.7540      2.00000
      2     -20.7524      2.00000
      3     -20.7519      2.00000
      4     -20.7507      2.00000
      5     -16.4831      2.00000
      6     -16.4709      2.00000
      7     -16.4558      2.00000
      8     -16.4558      2.00000
      9     -16.4259      2.00000
     10     -16.4148      2.00000
     11     -16.4148      2.00000
     12     -16.4109      2.00000
     13     -16.3399      2.00000
     14     -16.3396      2.00000
     15     -16.3388      2.00000
     16     -16.3385      2.00000
     17     -16.3311      2.00000
     18     -16.3310      2.00000
     19     -16.3306      2.00000
     20     -16.3304      2.00000
     21     -16.3231      2.00000
     22     -16.3226      2.00000
     23     -16.3225      2.00000
     24     -16.3220      2.00000
     25     -14.2744      2.00000
     26     -14.1491      2.00000
     27     -14.1069      2.00000
     28     -14.0360      2.00000
     29     -14.0236      2.00000
     30     -14.0216      2.00000
     31     -13.9000      2.00000
     32     -13.8941      2.00000
     33     -13.8460      2.00000
     34     -13.7864      2.00000
     35     -13.7820      2.00000
     36     -13.7686      2.00000
     37      -7.9510      2.00000
     38      -7.4869      2.00000
     39      -7.4554      2.00000
     40      -7.2146      2.00000
     41      -7.1814      2.00000
     42      -7.1788      2.00000
     43      -7.1719      2.00000
     44      -7.1608      2.00000
     45      -7.1567      2.00000
     46      -7.1497      2.00000
     47      -7.1412      2.00000
     48      -7.1285      2.00000
     49      -7.1279      2.00000
     50      -7.1188      2.00000
     51      -7.1102      2.00000
     52      -6.8901      2.00000
     53      -3.2392      2.00000
     54      -3.1480      2.00000
     55      -2.9123      2.00000
     56      -2.7846      2.00000
     57      -2.7451      2.00000
     58      -2.7220      2.00000
     59      -2.2228      2.00000
     60      -2.0933      2.00000
     61      -2.0633      2.00000
     62      -1.9701      2.00000
     63      -1.9600      2.00000
     64      -1.9428      2.00000
     65      -1.7796      2.00000
     66      -1.6675      2.00000
     67      -1.6361      2.00000
     68      -1.6066      2.00000
     69      -1.4598      2.00000
     70      -1.4343      2.00000
     71      -1.3914      2.00000
     72      -1.3863      2.00000
     73      -1.3651      2.00000
     74      -1.3558      2.00000
     75      -1.2881      2.00000
     76      -1.2874      2.00000
     77      -1.2424      2.00000
     78      -1.1915      2.00000
     79      -1.1874      2.00000
     80      -1.0946      2.00000
     81      -1.0696      2.00000
     82      -1.0574      2.00000
     83      -1.0122      2.00000
     84      -0.9804      2.00000
     85      -0.7663      2.00000
     86      -0.6499      2.00000
     87      -0.4965      2.00000
     88      -0.0915      2.00000
     89       2.9153      0.00000
     90       3.2477      0.00000
     91       3.4196      0.00000
     92       3.7898      0.00000
     93       3.8145      0.00000
     94       4.1751      0.00000
     95       4.8898      0.00000
     96       5.2020      0.00000
     97       5.2217      0.00000
     98       5.2422      0.00000
     99       5.7978      0.00000
    100       5.8243      0.00000
    101       6.1483      0.00000
    102       6.2570      0.00000
    103       6.4224      0.00000
    104       6.4693      0.00000
    105       6.5080      0.00000
    106       6.5097      0.00000
    107       6.5425      0.00000
    108       6.7440      0.00000
    109       6.9536      0.00000
    110       7.0196      0.00000
    111       7.1374      0.00000
    112       7.1623      0.00000

 k-point     3 :       0.0000    0.5000    0.0000
  band No.  band energies     occupation 
      1     -20.7542      2.00000
      2     -20.7542      2.00000
      3     -20.7503      2.00000
      4     -20.7503      2.00000
      5     -16.4754      2.00000
      6     -16.4754      2.00000
      7     -16.4618      2.00000
      8     -16.4618      2.00000
      9     -16.4348      2.00000
     10     -16.4348      2.00000
     11     -16.3934      2.00000
     12     -16.3934      2.00000
     13     -16.3396      2.00000
     14     -16.3396      2.00000
     15     -16.3389      2.00000
     16     -16.3389      2.00000
     17     -16.3313      2.00000
     18     -16.3313      2.00000
     19     -16.3301      2.00000
     20     -16.3301      2.00000
     21     -16.3230      2.00000
     22     -16.3230      2.00000
     23     -16.3220      2.00000
     24     -16.3220      2.00000
     25     -14.2650      2.00000
     26     -14.2650      2.00000
     27     -14.0037      2.00000
     28     -14.0037      2.00000
     29     -13.9901      2.00000
     30     -13.9901      2.00000
     31     -13.9541      2.00000
     32     -13.9541      2.00000
     33     -13.8494      2.00000
     34     -13.8494      2.00000
     35     -13.7277      2.00000
     36     -13.7277      2.00000
     37      -7.9258      2.00000
     38      -7.9258      2.00000
     39      -7.1992      2.00000
     40      -7.1992      2.00000
     41      -7.1809      2.00000
     42      -7.1809      2.00000
     43      -7.1577      2.00000
     44      -7.1577      2.00000
     45      -7.1474      2.00000
     46      -7.1474      2.00000
     47      -7.1388      2.00000
     48      -7.1388      2.00000
     49      -7.1294      2.00000
     50      -7.1294      2.00000
     51      -6.9131      2.00000
     52      -6.9131      2.00000
     53      -3.2268      2.00000
     54      -3.2268      2.00000
     55      -3.1320      2.00000
     56      -3.1320      2.00000
     57      -2.4544      2.00000
     58      -2.4544      2.00000
     59      -2.3169      2.00000
     60      -2.3169      2.00000
     61      -1.9989      2.00000
     62      -1.9989      2.00000
     63      -1.7892      2.00000
     64      -1.7892      2.00000
     65      -1.7453      2.00000
     66      -1.7453      2.00000
     67      -1.4944      2.00000
     68      -1.4944      2.00000
     69      -1.4443      2.00000
     70      -1.4443      2.00000
     71      -1.4114      2.00000
     72      -1.4114      2.00000
     73      -1.3417      2.00000
     74      -1.3417      2.00000
     75      -1.2911      2.00000
     76      -1.2911      2.00000
     77      -1.2076      2.00000
     78      -1.2076      2.00000
     79      -1.1434      2.00000
     80      -1.1434      2.00000
     81      -1.1034      2.00000
     82      -1.1034      2.00000
     83      -1.0225      2.00000
     84      -1.0225      2.00000
     85      -0.8019      2.00000
     86      -0.8019      2.00000
     87      -0.0529      2.00000
     88      -0.0529      2.00000
     89       2.8738      0.00000
     90       2.8738      0.00000
     91       3.1599      0.00000
     92       3.1599      0.00000
     93       4.2918      0.00000
     94       4.2918      0.00000
     95       4.8542      0.00000
     96       4.8542      0.00000
     97       5.5868      0.00000
     98       5.5868      0.00000
     99       5.8524      0.00000
    100       5.8524      0.00000
    101       6.0943      0.00000
    102       6.0943      0.00000
    103       6.3112      0.00000
    104       6.3112      0.00000
[...]
     60      -2.3612      2.00000
     61      -2.1818      2.00000
     62      -2.1818      2.00000
     63      -1.9895      2.00000
     64      -1.9895      2.00000
     65      -1.6747      2.00000
     66      -1.6747      2.00000
     67      -1.6412      2.00000
     68      -1.6412      2.00000
     69      -1.5098      2.00000
     70      -1.5098      2.00000
     71      -1.4453      2.00000
     72      -1.4453      2.00000
     73      -1.3315      2.00000
     74      -1.3315      2.00000
     75      -1.3015      2.00000
     76      -1.3015      2.00000
     77      -1.1825      2.00000
     78      -1.1825      2.00000
     79      -1.1269      2.00000
     80      -1.1269      2.00000
     81      -1.1107      2.00000
     82      -1.1107      2.00000
     83      -1.0710      2.00000
     84      -1.0710      2.00000
     85      -0.8790      2.00000
     86      -0.8790      2.00000
     87      -0.6455      2.00000
     88      -0.6455      2.00000
     89       3.7109      0.00000
     90       3.7109      0.00000
     91       3.8532      0.00000
     92       3.8532      0.00000
     93       4.4174      0.00000
     94       4.4174      0.00000
     95       4.7092      0.00000
     96       4.7092      0.00000
     97       5.0736      0.00000
     98       5.0736      0.00000
     99       5.2725      0.00000
    100       5.2725      0.00000
    101       6.0900      0.00000
    102       6.0900      0.00000
    103       6.2998      0.00000
    104       6.2998      0.00000
    105       6.4768      0.00000
    106       6.4768      0.00000
    107       6.6683      0.00000
    108       6.6683      0.00000
    109       6.9118      0.00000
    110       6.9118      0.00000
    111       7.1043      0.00000
    112       7.1044      0.00000

 k-point     8 :       0.3333    0.5000    0.3333
  band No.  band energies     occupation 
      1     -20.7528      2.00000
      2     -20.7528      2.00000
      3     -20.7516      2.00000
      4     -20.7516      2.00000
      5     -16.4662      2.00000
      6     -16.4662      2.00000
      7     -16.4549      2.00000
      8     -16.4549      2.00000
      9     -16.4311      2.00000
     10     -16.4311      2.00000
     11     -16.4152      2.00000
     12     -16.4152      2.00000
     13     -16.3393      2.00000
     14     -16.3393      2.00000
     15     -16.3392      2.00000
     16     -16.3392      2.00000
     17     -16.3309      2.00000
     18     -16.3309      2.00000
     19     -16.3307      2.00000
     20     -16.3307      2.00000
     21     -16.3227      2.00000
     22     -16.3227      2.00000
     23     -16.3225      2.00000
     24     -16.3225      2.00000
     25     -14.1767      2.00000
     26     -14.1767      2.00000
     27     -14.0965      2.00000
     28     -14.0965      2.00000
     29     -13.9893      2.00000
     30     -13.9893      2.00000
     31     -13.9153      2.00000
     32     -13.9153      2.00000
     33     -13.8298      2.00000
     34     -13.8298      2.00000
     35     -13.7967      2.00000
     36     -13.7967      2.00000
     37      -7.5900      2.00000
     38      -7.5900      2.00000
     39      -7.3514      2.00000
     40      -7.3514      2.00000
     41      -7.1774      2.00000
     42      -7.1774      2.00000
     43      -7.1587      2.00000
     44      -7.1587      2.00000
     45      -7.1455      2.00000
     46      -7.1455      2.00000
     47      -7.1407      2.00000
     48      -7.1407      2.00000
     49      -7.1308      2.00000
     50      -7.1308      2.00000
     51      -7.1100      2.00000
     52      -7.1100      2.00000
     53      -3.0967      2.00000
     54      -3.0967      2.00000
     55      -2.7498      2.00000
     56      -2.7498      2.00000
     57      -2.4907      2.00000
     58      -2.4907      2.00000
     59      -2.3761      2.00000
     60      -2.3761      2.00000
     61      -2.1307      2.00000
     62      -2.1307      2.00000
     63      -1.9801      2.00000
     64      -1.9801      2.00000
     65      -1.7114      2.00000
     66      -1.7114      2.00000
     67      -1.6331      2.00000
     68      -1.6331      2.00000
     69      -1.4856      2.00000
     70      -1.4856      2.00000
     71      -1.4045      2.00000
     72      -1.4045      2.00000
     73      -1.3397      2.00000
     74      -1.3397      2.00000
     75      -1.2572      2.00000
     76      -1.2572      2.00000
     77      -1.2071      2.00000
     78      -1.2071      2.00000
     79      -1.1386      2.00000
     80      -1.1386      2.00000
     81      -1.0941      2.00000
     82      -1.0941      2.00000
     83      -1.0459      2.00000
     84      -1.0459      2.00000
     85      -0.8063      2.00000
     86      -0.8063      2.00000
     87      -0.5654      2.00000
     88      -0.5654      2.00000
     89       3.2406      0.00000
     90       3.2406      0.00000
     91       4.0082      0.00000
     92       4.0082      0.00000
     93       4.4882      0.00000
     94       4.4882      0.00000
     95       4.6047      0.00000
     96       4.6047      0.00000
     97       5.0301      0.00000
     98       5.0301      0.00000
     99       5.7174      0.00000
    100       5.7174      0.00000
    101       6.3369      0.00000
    102       6.3369      0.00000
    103       6.4421      0.00000
    104       6.4421      0.00000
    105       6.6324      0.00000
    106       6.6324      0.00000
    107       6.8277      0.00000
    108       6.8277      0.00000
    109       6.8386      0.00000
    110       6.8386      0.00000
    111       7.0255      0.00000
    112       7.0255      0.00000


--------------------------------------------------------------------------------------------------------


 soft charge-density along one line, spin component           1
         0         1         2         3         4         5         6         7         8         9
 total charge-density along one line

 pseudopotential strength for first ion, spin component:           1
 17.948  -4.698  -0.000  -0.001  -0.001   0.000   0.001   0.001
 -4.698   1.239   0.000   0.000   0.000  -0.000  -0.000  -0.000
 -0.000   0.000   2.255  -0.000  -0.000  -2.695   0.000   0.000
 -0.001   0.000  -0.000   2.256  -0.001   0.000  -2.696   0.001
 -0.001   0.000  -0.000  -0.001   2.255   0.000   0.001  -2.695
  0.000  -0.000  -2.695   0.000   0.000   3.188  -0.000  -0.000
  0.001  -0.000   0.000  -2.696   0.001  -0.000   3.190  -0.001
  0.001  -0.000   0.000   0.001  -2.695  -0.000  -0.001   3.188
 -0.000   0.000   0.000  -0.000  -0.000  -0.000   0.000   0.000
 -0.000   0.000   0.000   0.000  -0.000  -0.000  -0.000   0.000
  0.001  -0.000   0.000  -0.002   0.001  -0.000   0.002  -0.001
 -0.001   0.000  -0.000  -0.000   0.000   0.000   0.001  -0.000
  0.000  -0.000   0.000  -0.000  -0.001  -0.000   0.000   0.002
 total augmentation occupancy for first ion, spin component:           1
  1.911  -0.141   0.000  -0.000  -0.000   0.000  -0.000  -0.001  -0.000  -0.000   0.001  -0.001   0.000
 -0.141   0.120   0.000  -0.004  -0.003   0.000   0.001   0.002   0.000   0.000  -0.002   0.004   0.001
  0.000   0.000   2.016   0.000   0.000   0.003   0.000   0.000   0.001   0.001   0.000   0.000  -0.000
 -0.000  -0.004   0.000   2.018  -0.002   0.000   0.005  -0.001   0.000   0.000  -0.004  -0.001   0.000
 -0.000  -0.003   0.000  -0.002   2.017   0.000  -0.001   0.003  -0.000   0.000   0.001   0.001  -0.003
  0.000   0.000   0.003   0.000   0.000   0.008  -0.000   0.000  -0.001  -0.002   0.000   0.000  -0.000
 -0.000   0.001   0.000   0.005  -0.001  -0.000   0.008   0.001   0.000   0.000   0.002  -0.000   0.000
 -0.001   0.002   0.000  -0.001   0.003   0.000   0.001   0.009   0.000   0.000  -0.001  -0.001   0.002
 -0.000   0.000   0.001   0.000  -0.000  -0.001   0.000   0.000   0.006   0.002  -0.000   0.000   0.000
 -0.000   0.000   0.001   0.000   0.000  -0.002   0.000   0.000   0.002   0.005   0.000   0.000   0.000
  0.001  -0.002   0.000  -0.004   0.001   0.000   0.002  -0.001  -0.000   0.000   0.005  -0.002  -0.001
 -0.001   0.004   0.000  -0.001   0.001   0.000  -0.000  -0.001   0.000   0.000  -0.002   0.004   0.001
  0.000   0.001  -0.000   0.000  -0.003  -0.000   0.000   0.002   0.000   0.000  -0.001   0.001   0.005


------------------------ aborting loop because EDIFF is reached ----------------------------------------





 total charge     

# of ion       s       p       d       tot
------------------------------------------
    1        1.786   4.719   0.019   6.523
    2        1.786   4.719   0.019   6.523
    3        1.786   4.719   0.019   6.523
    4        1.786   4.719   0.019   6.523
    5        1.553   0.417   9.833  11.802
    6        1.553   0.416   9.833  11.802
    7        1.553   0.416   9.833  11.802
    8        1.553   0.417   9.833  11.802
    9        1.614   3.286   0.006   4.906
   10        1.614   3.286   0.006   4.906
   11        1.614   3.286   0.006   4.906
   12        1.614   3.286   0.006   4.906
   13        1.615   3.271   0.006   4.892
   14        1.613   3.293   0.006   4.912
   15        1.613   3.293   0.006   4.912
   16        1.615   3.271   0.006   4.892
   17        1.615   3.271   0.006   4.892
   18        1.613   3.293   0.006   4.912
   19        1.615   3.271   0.006   4.892
   20        1.613   3.293   0.006   4.912
--------------------------------------------------
tot         32.723  59.939  39.476 132.138

    CHARGE:  cpu time    0.1416: real time    0.1416
    FORLOC:  cpu time    0.0039: real time    0.0039
    FORNL :  cpu time    0.6241: real time    0.6242
    STRESS:  cpu time   13.8135: real time   13.8139
    FORCOR:  cpu time    0.1030: real time    0.1031
    FORHAR:  cpu time    0.0111: real time    0.0111
    MIXING:  cpu time    0.0014: real time    0.0014
    OFIELD:  cpu time    0.0000: real time    0.0000

  FORCE on cell =-STRESS in cart. coord.  units (eV):
  Direction    XX          YY          ZZ          XY          YZ          ZX
  --------------------------------------------------------------------------------------
  Alpha Z   449.66995   449.66995   449.66995
  Ewald   -3031.43351 -3003.96954 -3195.70354    -0.00000    -0.00000    -0.00000
  Hartree  1257.55058  1256.36845  1150.63708    -0.00000    -0.00000    -0.00000
  E(xc)    -738.80677  -738.81025  -738.86252    -0.00000    -0.00000    -0.03129
  Local   -1493.64396 -1519.30713 -1224.40274    -0.00000    -0.00000     0.00000
  n-local   899.64538   899.57802   898.50467     0.00000     0.00000     0.04968
  augment   406.78956   406.27950   406.06432     0.00000    -0.00003    -0.00003
  Kinetic  2248.13544  2249.02669  2253.49582    -0.00000    -0.00001    -1.54299
  Fock        0.00000     0.00000     0.00000     0.00000     0.00000     0.00000
  -------------------------------------------------------------------------------------
  Total      -2.09333    -1.16432    -0.59697     0.00000     0.00000     0.00000
  in kB      -4.17990    -2.32487    -1.19200     0.00000     0.00000     0.00000
  external pressure =       -2.57 kB  Pullay stress =        0.00 kB


 VOLUME and BASIS-vectors are now :
 -----------------------------------------------------------------------------
  energy-cutoff  :      300.00
  volume of cell :      802.39
      direct lattice vectors                 reciprocal lattice vectors
     8.588417950  0.000000000  0.000000000     0.116435880  0.000000000  0.000000000
     0.000000000 11.821445862  0.000000000     0.000000000  0.084592021  0.000000000
     0.000000000  0.000000000  7.903139541     0.000000000  0.000000000  0.126531993

  length of vectors
     8.588417950 11.821445862  7.903139541     0.116435880  0.084592021  0.126531993


 FORCES acting on ions
    electron-ion (+dipol)            ewald-force                    non-local-force                 convergence-correction
 -----------------------------------------------------------------------------------------------
   0.284E+02 -.180E-12 -.159E+02   -.283E+02 0.107E-13 0.160E+02   -.110E+00 -.662E-23 -.835E-01   0.297E-04 -.558E-13 -.567E-04
   -.284E+02 -.103E-11 -.159E+02   0.283E+02 0.355E-14 0.160E+02   0.110E+00 -.662E-23 -.835E-01   -.297E-04 0.489E-13 -.567E-04
   0.284E+02 0.166E-11 0.159E+02   -.283E+02 -.711E-14 -.160E+02   -.110E+00 0.662E-23 0.835E-01   0.297E-04 -.226E-13 0.567E-04
   -.284E+02 0.135E-12 0.159E+02   0.283E+02 0.711E-14 -.160E+02   0.110E+00 0.662E-23 0.835E-01   -.297E-04 0.909E-13 0.567E-04
   -.738E-11 -.517E-11 0.106E-10   -.806E-12 -.352E-11 -.131E-10   0.000E+00 0.000E+00 0.160E-23   0.150E-12 0.539E-13 0.595E-13
   0.630E-11 0.752E-11 0.166E-10   0.134E-10 -.182E-11 -.227E-11   0.000E+00 0.000E+00 0.218E-23   0.200E-12 0.383E-13 -.643E-14
   0.418E-11 -.122E-10 0.136E-10   0.133E-10 0.179E-11 -.227E-11   0.000E+00 0.000E+00 -.180E-23   0.193E-12 -.117E-12 -.559E-14
   -.744E-11 0.628E-11 0.106E-10   -.838E-12 0.346E-11 -.131E-10   0.000E+00 0.000E+00 0.974E-24   0.152E-12 -.128E-12 0.453E-13
   0.911E+01 0.215E-11 0.372E+02   -.918E+01 0.568E-13 -.375E+02   0.526E-01 -.529E-22 0.238E+00   0.152E-04 0.601E-13 0.493E-04
   -.911E+01 -.206E-11 0.372E+02   0.918E+01 0.284E-13 -.375E+02   -.526E-01 0.000E+00 0.238E+00   -.152E-04 -.637E-13 0.493E-04
   0.911E+01 0.295E-12 -.372E+02   -.918E+01 0.000E+00 0.375E+02   0.526E-01 0.000E+00 -.238E+00   0.152E-04 0.166E-13 -.493E-04
   -.911E+01 -.135E-11 -.372E+02   0.918E+01 0.000E+00 0.375E+02   -.526E-01 0.529E-22 -.238E+00   -.152E-04 -.107E-12 -.493E-04
   -.209E+02 0.166E+02 0.283E+02   0.211E+02 -.167E+02 -.286E+02   -.184E+00 0.137E+00 0.255E+00   0.112E-04 -.265E-04 -.129E-05
   0.209E+02 -.166E+02 0.283E+02   -.211E+02 0.167E+02 -.286E+02   0.184E+00 -.137E+00 0.255E+00   -.112E-04 0.265E-04 -.129E-05
   -.209E+02 -.166E+02 -.283E+02   0.211E+02 0.167E+02 0.286E+02   -.184E+00 -.137E+00 -.255E+00   0.112E-04 0.265E-04 0.129E-05
   0.209E+02 0.166E+02 -.283E+02   -.211E+02 -.167E+02 0.286E+02   0.184E+00 0.137E+00 -.255E+00   -.112E-04 -.265E-04 0.129E-05
   -.209E+02 -.166E+02 0.283E+02   0.211E+02 0.167E+02 -.286E+02   -.184E+00 -.137E+00 0.255E+00   0.112E-04 0.265E-04 -.129E-05
   0.209E+02 0.166E+02 0.283E+02   -.211E+02 -.167E+02 -.286E+02   0.184E+00 0.137E+00 0.255E+00   -.112E-04 -.265E-04 -.129E-05
   0.209E+02 -.166E+02 -.283E+02   -.211E+02 0.167E+02 0.286E+02   0.184E+00 -.137E+00 -.255E+00   -.112E-04 0.265E-04 0.129E-05
   -.209E+02 0.166E+02 -.283E+02   0.211E+02 -.167E+02 0.286E+02   -.184E+00 0.137E+00 -.255E+00   0.112E-04 -.265E-04 0.129E-05
 -----------------------------------------------------------------------------------------------
   -.611E-10 -.382E-11 0.309E-09   0.142E-13 -.213E-13 -.711E-14   0.000E+00 0.555E-16 0.555E-16   0.729E-12 -.204E-12 0.124E-12


 POSITION                                       TOTAL-FORCE (eV/Angst)
 -----------------------------------------------------------------------------------
      0.59676      2.95536      3.74519        -0.000491     -0.000000      0.002108
      3.69745      8.86608      7.69676         0.000491     -0.000000      0.002108
      4.89097      2.95536      0.20638        -0.000491     -0.000000     -0.002108
      7.99166      8.86608      4.15795         0.000491     -0.000000     -0.002108
      0.00000      0.00000      0.00000         0.000000     -0.000000      0.000000
      4.29421      0.00000      3.95157         0.000000     -0.000000      0.000000
      4.29421      5.91072      3.95157         0.000000     -0.000000      0.000000
      0.00000      5.91072      0.00000         0.000000     -0.000000      0.000000
      4.38002      8.86608      3.44818        -0.004395     -0.000000     -0.010959
      8.50260      2.95536      7.39975         0.004395     -0.000000     -0.010959
      0.08582      8.86608      0.50339        -0.004395     -0.000000      0.010959
      4.20839      2.95536      4.45496         0.004395     -0.000000      0.010959
      2.57945      5.50994      1.51321        -0.000161     -0.011695      0.009277
      1.71476      6.31151      5.46478         0.000161      0.011695      0.009277
      6.87365      0.40079      2.43836        -0.000161      0.011695     -0.009277
      6.00897     11.42066      6.38993         0.000161     -0.011695     -0.009277
      2.57945      0.40079      1.51321        -0.000161      0.011695      0.009277
      1.71476     11.42066      5.46478         0.000161     -0.011695      0.009277
      6.00897      6.31151      6.38993         0.000161      0.011695     -0.009277
      6.87365      5.50994      2.43836        -0.000161     -0.011695     -0.009277
 -----------------------------------------------------------------------------------
    total drift:                               -0.000000     -0.000000      0.000000


--------------------------------------------------------------------------------------------------------



  FREE ENERGIE OF THE ION-ELECTRON SYSTEM (eV)
  ---------------------------------------------------
  free  energy   TOTEN  =      -714.91128539 eV

  energy  without entropy=     -714.91128539  energy(sigma->0) =     -714.91128539



--------------------------------------------------------------------------------------------------------


    POTLOK:  cpu time    1.2077: real time    1.2077


--------------------------------------------------------------------------------------------------------


 stress matrix after NEB project (eV)
     -2.09333      0.00000      0.00000
      0.00000     -1.16432      0.00000
     -0.00000      0.00000     -0.59697
  FORCES: max atom, RMS     0.014928    0.010861
  FORCE total and by dimension    0.048572    0.011695
  Stress total and by dimension    2.468614    2.093334
     LOOP+:  cpu time  127.6531: real time  128.2161
    4ORBIT:  cpu time    0.0000: real time    0.0000



 total charge     

# of ion       s       p       d       tot
------------------------------------------
    1        1.786   4.719   0.019   6.523
    2        1.786   4.719   0.019   6.523
    3        1.786   4.719   0.019   6.523
    4        1.786   4.719   0.019   6.523
    5        1.553   0.417   9.833  11.802
    6        1.553   0.416   9.833  11.802
    7        1.553   0.416   9.833  11.802
    8        1.553   0.417   9.833  11.802
    9        1.614   3.286   0.006   4.906
   10        1.614   3.286   0.006   4.906
   11        1.614   3.286   0.006   4.906
   12        1.614   3.286   0.006   4.906
   13        1.615   3.271   0.006   4.892
   14        1.613   3.293   0.006   4.912
   15        1.613   3.293   0.006   4.912
   16        1.615   3.271   0.006   4.892
   17        1.615   3.271   0.006   4.892
   18        1.613   3.293   0.006   4.912
   19        1.615   3.271   0.006   4.892
   20        1.613   3.293   0.006   4.912
--------------------------------------------------
tot         32.723  59.939  39.476 132.138


 total amount of memory used by VASP MPI-rank0    43695. kBytes
=======================================================================

   base      :      30000. kBytes
   nonlr-proj:       3329. kBytes
   fftplans  :       4446. kBytes
   grid      :       3667. kBytes
   one-center:         46. kBytes
   wavefun   :       2207. kBytes

  
  
 General timing and accounting informations for this job:
 ========================================================
  
                  Total CPU time used (sec):      134.200
                            User time (sec):      133.384
                          System time (sec):        0.816
                         Elapsed time (sec):      134.976
  
                   Maximum memory used (kb):       83064.
                   Average memory used (kb):           0.
  
                          Minor page faults:        20303
                          Major page faults:            1
                 Voluntary context switches:         1738
