<?xml version="1.0" encoding="ISO-8859-1"?>
<modeling>
 <generator>
  <i name="program" type="string">vasp </i>
  <i name="version" type="string">5.4.4.18Apr17-6-g9f103f2a35  </i>
  <i name="subversion" type="string">(build Jun 29 2021 12:58:12) complex            parallel </i>
  <i name="platform" type="string">tx2_gcc-7.3_libsci-18.07_cray-fftw-3.3.8 </i>
  <i name="date" type="string">2021 09 21 </i>
  <i name="time" type="string">08:28:54 </i>
 </generator>
 <incar>
  <i type="string" name="SYSTEM"> CsPbBr3 cubic bulk</i>
  <i type="string" name="PREC">accurate</i>
  <i type="string" name="ALGO"> Normal   ! Electronic minimisation algo</i>
  <i type="logical" name="ADDGRID"> T  </i>
  <i type="int" name="NELM">   200</i>
  <i type="int" name="IBRION">     2</i>
  <i name="EDIFF">      0.00000100</i>
  <i name="EDIFFG">     -0.01000000</i>
  <i type="int" name="NSW">     0</i>
  <i type="int" name="ISIF">     3</i>
  <i type="int" name="ISYM">     2</i>
  <i name="ENCUT">    300.00000000</i>
  <i name="POTIM">      0.50000000</i>
  <i type="string" name="LREAL"> AUTO</i>
  <i type="int" name="ISMEAR">     0</i>
  <i name="SIGMA">      0.01000000</i>
  <i name="PSTRESS">      0.00000000</i>
  <i type="logical" name="LWAVE"> F  </i>
  <i type="logical" name="LCHARG"> F  </i>
  <i type="logical" name="LVHAR"> T  </i>
  <i type="int" name="LORBIT">    10</i>
  <i type="logical" name="LASPH"> T  </i>
  <v type="int" name="KPOINT_BSE">    -1     0     0     0</v>
  <i type="int" name="NELM">   200</i>
  <i type="string" name="METAGGA"> SCAN       ! PBE exchange-correlation</i>
  <i type="logical" name="LASPH"> T  </i>
 </incar>
 <structure name="primitive_cell" >
  <crystal>
   <varray name="basis" >
    <v>       8.58841795       0.00000000       0.00000000 </v>
    <v>       0.00000000      11.82144586       0.00000000 </v>
    <v>       0.00000000       0.00000000       7.90313954 </v>
   </varray>
   <i name="volume">    802.38614070 </i>
   <varray name="rec_basis" >
    <v>       0.11643588       0.00000000       0.00000000 </v>
    <v>       0.00000000       0.08459202       0.00000000 </v>
    <v>       0.00000000       0.00000000       0.12653199 </v>
   </varray>
  </crystal>
  <varray name="positions" >
   <v>       0.06948426       0.25000000       0.47388614 </v>
   <v>       0.49000797       0.25000000      -0.43630490 </v>
   <v>      -0.19965998       0.03390332       0.30853094 </v>
   <v>      -0.19965998       0.46609668       0.30853094 </v>
   <v>      -0.00999203       0.25000000      -0.06369510 </v>
   <v>       0.30034002       0.46609668       0.19146906 </v>
   <v>       0.30034002       0.03390332       0.19146906 </v>
   <v>       0.19965998      -0.46609668      -0.30853094 </v>
   <v>       0.19965998      -0.03390332      -0.30853094 </v>
   <v>      -0.50000000       0.00000000      -0.50000000 </v>
   <v>      -0.50000000      -0.50000000      -0.50000000 </v>
   <v>       0.00000000       0.00000000       0.00000000 </v>
   <v>       0.00000000      -0.50000000       0.00000000 </v>
   <v>      -0.30034002      -0.03390332      -0.19146906 </v>
   <v>      -0.30034002      -0.46609668      -0.19146906 </v>
   <v>      -0.43051574       0.25000000       0.02611386 </v>
   <v>      -0.06948426      -0.25000000      -0.47388614 </v>
   <v>       0.00999203      -0.25000000       0.06369510 </v>
   <v>      -0.49000797      -0.25000000       0.43630490 </v>
   <v>       0.43051574      -0.25000000      -0.02611386 </v>
  </varray>
 </structure>
 <varray name="primitive_index" >
  <v type="int" >        1 </v>
  <v type="int" >       12 </v>
  <v type="int" >       15 </v>
  <v type="int" >       20 </v>
  <v type="int" >       10 </v>
  <v type="int" >       13 </v>
  <v type="int" >       17 </v>
  <v type="int" >       14 </v>
  <v type="int" >       18 </v>
  <v type="int" >        6 </v>
  <v type="int" >        7 </v>
  <v type="int" >        5 </v>
  <v type="int" >        8 </v>
  <v type="int" >       16 </v>
  <v type="int" >       19 </v>
  <v type="int" >        3 </v>
  <v type="int" >        4 </v>
  <v type="int" >       11 </v>
  <v type="int" >        9 </v>
  <v type="int" >        2 </v>
 </varray>
 <kpoints>
  <generation param="Gamma">
   <v type="int" name="divisions">       3        2        3 </v>
   <v name="usershift">      0.00000000       0.00000000       0.00000000 </v>
   <v name="genvec1">      0.33333333       0.00000000       0.00000000 </v>
   <v name="genvec2">      0.00000000       0.50000000       0.00000000 </v>
   <v name="genvec3">      0.00000000       0.00000000       0.33333333 </v>
   <v name="shift">      0.00000000       0.00000000       0.00000000 </v>
  </generation>
  <varray name="kpointlist" >
   <v>       0.00000000       0.00000000       0.00000000 </v>
   <v>       0.33333333       0.00000000       0.00000000 </v>
   <v>       0.00000000       0.50000000       0.00000000 </v>
   <v>       0.33333333       0.50000000       0.00000000 </v>
   <v>       0.00000000       0.00000000       0.33333333 </v>
   <v>       0.33333333       0.00000000       0.33333333 </v>
   <v>       0.00000000       0.50000000       0.33333333 </v>
   <v>       0.33333333       0.50000000       0.33333333 </v>
  </varray>
  <varray name="weights" >
   <v>       0.05555556 </v>
   <v>       0.11111111 </v>
   <v>       0.05555556 </v>
   <v>       0.11111111 </v>
   <v>       0.11111111 </v>
   <v>       0.22222222 </v>
   <v>       0.11111111 </v>
   <v>       0.22222222 </v>
  </varray>
 </kpoints>
 <parameters>
  <separator name="general" >
   <i type="string" name="SYSTEM">CsPbBr3 cubic bulk</i>
   <i type="logical" name="LCOMPAT"> F  </i>
  </separator>
  <separator name="electronic" >
   <i type="string" name="PREC">accura</i>
   <i name="ENMAX">    300.00000000</i>
   <i name="ENAUG">    503.85200000</i>
   <i name="EDIFF">      0.00000100</i>
   <i type="int" name="IALGO">    38</i>
   <i type="int" name="IWAVPR">    10</i>
   <i type="int" name="NBANDS">   112</i>
   <i name="NELECT">    176.00000000</i>
   <i type="int" name="TURBO">     0</i>
   <i type="int" name="IRESTART">     0</i>
   <i type="int" name="NREBOOT">     0</i>
   <i type="int" name="NMIN">     0</i>
   <i name="EREF">      0.00000000</i>
   <separator name="electronic smearing" >
    <i type="int" name="ISMEAR">     0</i>
    <i name="SIGMA">      0.01000000</i>
    <i name="KSPACING">      0.50000000</i>
    <i type="logical" name="KGAMMA"> T  </i>
   </separator>
   <separator name="electronic projectors" >
    <i type="logical" name="LREAL"> T  </i>
    <v name="ROPT">     -0.00025000     -0.00025000     -0.00025000</v>
    <i type="int" name="LMAXPAW">  -100</i>
    <i type="int" name="LMAXMIX">     2</i>
    <i type="logical" name="NLSPLINE"> F  </i>
   </separator>
   <separator name="electronic startup" >
    <i type="int" name="ISTART">     0</i>
    <i type="int" name="ICHARG">     2</i>
    <i type="int" name="INIWAV">     1</i>
   </separator>
   <separator name="electronic spin" >
    <i type="int" name="ISPIN">     1</i>
    <i type="logical" name="LNONCOLLINEAR"> F  </i>
    <v name="MAGMOM">      1.00000000      1.00000000      1.00000000      1.00000000      1.00000000      1.00000000      1.00000000      1.00000000      1.00000000      1.00000000      1.00000000      1.00000000      1.00000000      1.00000000      1.00000000      1.00000000      1.00000000      1.00000000      1.00000000      1.00000000
</v>
    <i name="NUPDOWN">     -1.00000000</i>
    <i type="logical" name="LSORBIT"> F  </i>
    <v name="SAXIS">      0.00000000      0.00000000      1.00000000</v>
    <i type="logical" name="LSPIRAL"> F  </i>
    <v name="QSPIRAL">      0.00000000      0.00000000      0.00000000</v>
    <i type="logical" name="LZEROZ"> F  </i>
   </separator>
   <separator name="electronic exchange-correlation" >
    <i type="logical" name="LASPH"> T  </i>
    <i type="logical" name="LMETAGGA"> F  </i>
   </separator>
   <separator name="electronic convergence" >
    <i type="int" name="NELM">   200</i>
    <i type="int" name="NELMDL">    -5</i>
    <i type="int" name="NELMIN">     2</i>
    <i name="ENINI">    300.00000000</i>
    <separator name="electronic convergence detail" >
     <i type="logical" name="LDIAG"> T  </i>
     <i type="logical" name="LSUBROT"> F  </i>
     <i name="WEIMIN">      0.00000000</i>
     <i name="EBREAK">      0.00000000</i>
     <i name="DEPER">      0.30000000</i>
     <i type="int" name="NRMM">     4</i>
     <i name="TIME">      0.40000000</i>
    </separator>
   </separator>
   <separator name="electronic mixer" >
    <i name="AMIX">      0.40000000</i>
    <i name="BMIX">      1.00000000</i>
    <i name="AMIN">      0.10000000</i>
    <i name="AMIX_MAG">      1.60000000</i>
    <i name="BMIX_MAG">      1.00000000</i>
    <separator name="electronic mixer details" >
     <i type="int" name="IMIX">     4</i>
     <i type="logical" name="MIXFIRST"> F  </i>
     <i type="int" name="MAXMIX">   -45</i>
     <i name="WC">    100.00000000</i>
     <i type="int" name="INIMIX">     1</i>
     <i type="int" name="MIXPRE">     1</i>
     <i type="int" name="MREMOVE">     5</i>
    </separator>
   </separator>
   <separator name="electronic dipolcorrection" >
    <i type="logical" name="LDIPOL"> F  </i>
    <i type="logical" name="LMONO"> F  </i>
    <i type="int" name="IDIPOL">     0</i>
    <i name="EPSILON">      1.00000000</i>
    <v name="DIPOL">   -100.00000000   -100.00000000   -100.00000000</v>
    <i name="EFIELD">      0.00000000</i>
   </separator>
  </separator>
  <separator name="grids" >
   <i type="int" name="NGX">    50</i>
   <i type="int" name="NGY">    70</i>
   <i type="int" name="NGZ">    48</i>
   <i type="int" name="NGXF">   100</i>
   <i type="int" name="NGYF">   140</i>
   <i type="int" name="NGZF">    96</i>
   <i type="logical" name="ADDGRID"> T  </i>
  </separator>
  <separator name="ionic" >
   <i type="int" name="NSW">     0</i>
   <i type="int" name="IBRION">    -1</i>
   <i type="int" name="MDALGO">     0</i>
   <i type="int" name="ISIF">     3</i>
   <i name="PSTRESS">      0.00000000</i>
   <i name="EDIFFG">     -0.01000000</i>
   <i type="int" name="NFREE">     1</i>
   <i name="POTIM">      0.50000000</i>
   <i name="SMASS">     -3.00000000</i>
   <i name="SCALEE">      1.00000000</i>
  </separator>
  <separator name="ionic md" >
   <i name="TEBEG">      0.00010000</i>
   <i name="TEEND">      0.00010000</i>
   <i type="int" name="NBLOCK">     1</i>
   <i type="int" name="KBLOCK">     1</i>
   <i type="int" name="NPACO">   256</i>
   <i name="APACO">     16.00000000</i>
  </separator>
  <separator name="symmetry" >
   <i type="int" name="ISYM">     2</i>
   <i name="SYMPREC">      0.00001000</i>
  </separator>
  <separator name="dos" >
   <i type="int" name="LORBIT">    10</i>
   <v name="RWIGS">     -1.00000000     -1.00000000     -1.00000000</v>
   <i type="int" name="NEDOS">   301</i>
   <i name="EMIN">     10.00000000</i>
   <i name="EMAX">    -10.00000000</i>
   <i name="EFERMI">      0.00000000</i>
  </separator>
  <separator name="writing" >
   <i type="int" name="NWRITE">     2</i>
   <i type="logical" name="LWAVE"> F  </i>
   <i type="logical" name="LDOWNSAMPLE"> F  </i>
   <i type="logical" name="LCHARG"> F  </i>
   <i type="logical" name="LPARD"> F  </i>
   <i type="logical" name="LVTOT"> F  </i>
   <i type="logical" name="LVHAR"> T  </i>
   <i type="logical" name="LELF"> F  </i>
   <i type="logical" name="LOPTICS"> F  </i>
   <v name="STM">      0.00000000      0.00000000      0.00000000      0.00000000      0.00000000      0.00000000      0.00000000</v>
  </separator>
  <separator name="performance" >
   <i type="int" name="NPAR">     8</i>
   <i type="int" name="NSIM">     4</i>
   <i type="int" name="NBLK">    -1</i>
   <i type="logical" name="LPLANE"> T  </i>
   <i type="logical" name="LSCALAPACK"> T  </i>
   <i type="logical" name="LSCAAWARE"> F  </i>
   <i type="logical" name="LSCALU"> F  </i>
   <i type="logical" name="LASYNC"> F  </i>
   <i type="logical" name="LORBITALREAL"> F  </i>
  </separator>
  <separator name="miscellaneous" >
   <i type="int" name="IDIOT">     3</i>
   <i type="int" name="ISPECIAL">     0</i>
   <i type="logical" name="LMUSIC"> F  </i>
   <v name="POMASS">    132.90000000    207.20000000     79.90400000</v>
   <v name="DARWINR">      0.00000000      0.00000000      0.00000000</v>
   <v name="DARWINV">      1.00000000      1.00000000      1.00000000</v>
   <i type="logical" name="LCORR"> T  </i>
  </separator>
  <i type="logical" name="GGA_COMPAT"> T  </i>
  <i type="logical" name="LBERRY"> F  </i>
  <i type="int" name="ICORELEVEL">     0</i>
  <i type="logical" name="LDAU"> F  </i>
  <i type="int" name="I_CONSTRAINED_M">     0</i>
  <separator name="electronic exchange-correlation" >
   <i type="string" name="GGA">--</i>
   <i type="int" name="VOSKOWN">     0</i>
   <i type="logical" name="LHFCALC"> F  </i>
   <i type="string" name="PRECFOCK"></i>
   <i type="logical" name="LSYMGRAD"> F  </i>
   <i type="logical" name="LHFONE"> F  </i>
   <i type="logical" name="LRHFCALC"> F  </i>
   <i type="logical" name="LTHOMAS"> F  </i>
   <i type="logical" name="LMODELHF"> F  </i>
   <i name="ENCUT4O">     -1.00000000</i>
   <i type="int" name="EXXOEP">     0</i>
   <i type="int" name="FOURORBIT">     0</i>
   <i name="AEXX">      0.00000000</i>
   <i name="HFALPHA">      0.00000000</i>
   <i name="MCALPHA">      0.00000000</i>
   <i name="ALDAX">      1.00000000</i>
   <i name="AGGAX">      1.00000000</i>
   <i name="ALDAC">      1.00000000</i>
   <i name="AGGAC">      1.00000000</i>
   <i type="int" name="NKREDX">     1</i>
   <i type="int" name="NKREDY">     1</i>
   <i type="int" name="NKREDZ">     1</i>
   <i type="logical" name="SHIFTRED"> F  </i>
   <i type="logical" name="ODDONLY"> F  </i>
   <i type="logical" name="EVENONLY"> F  </i>
   <i type="int" name="LMAXFOCK">     0</i>
   <i type="int" name="NMAXFOCKAE">     0</i>
   <i type="logical" name="LFOCKAEDFT"> F  </i>
   <i name="HFSCREEN">      0.00000000</i>
   <i name="HFSCREENC">      0.00000000</i>
   <i type="int" name="NBANDSGWLOW">     0</i>
  </separator>
  <separator name="vdW DFT" >
   <i type="logical" name="LUSE_VDW"> F  </i>
   <i name="Zab_VDW">     -0.84910000</i>
   <i name="PARAM1">      0.12340000</i>
   <i name="PARAM2">      1.00000000</i>
   <i name="PARAM3">      0.00000000</i>
  </separator>
  <separator name="model GW" >
   <i type="int" name="MODEL_GW">     0</i>
   <i name="MODEL_EPS0">     24.07158422</i>
   <i name="MODEL_ALPHA">      1.00000000</i>
  </separator>
  <separator name="linear response parameters" >
   <i type="logical" name="LEPSILON"> F  </i>
   <i type="logical" name="LRPA"> F  </i>
   <i type="logical" name="LNABLA"> F  </i>
   <i type="logical" name="LVEL"> F  </i>
   <i type="int" name="KINTER">     0</i>
   <i name="CSHIFT">      0.10000000</i>
   <i name="OMEGAMAX">     -1.00000000</i>
   <i name="DEG_THRESHOLD">      0.00200000</i>
   <i name="RTIME">     -0.10000000</i>
   <i name="WPLASMAI">      0.00000000</i>
   <v name="DFIELD">      0.00000000      0.00000000      0.00000000</v>
   <v name="WPLASMA">      0.00000000      0.00000000      0.00000000      0.00000000      0.00000000      0.00000000      0.00000000      0.00000000      0.00000000</v>
  </separator>
  <separator name="orbital magnetization" >
   <i type="logical" name="NUCIND"> F  </i>
   <v name="MAGPOS">      0.00000000      0.00000000      0.00000000</v>
   <i type="logical" name="LNICSALL"> T  </i>
   <i type="logical" name="ORBITALMAG"> F  </i>
   <i type="logical" name="LMAGBLOCH"> F  </i>
   <i type="logical" name="LCHIMAG"> F  </i>
   <i type="logical" name="LGAUGE"> T  </i>
   <i type="int" name="MAGATOM">     0</i>
   <v name="MAGDIPOL">      0.00000000      0.00000000      0.00000000</v>
   <v name="AVECCONST">      0.00000000      0.00000000      0.00000000</v>
  </separator>
  <separator name="response functions" >
   <i type="logical" name="LADDER"> F  </i>
   <i type="logical" name="LRPAFORCE"> F  </i>
   <i type="logical" name="LFXC"> F  </i>
   <i type="logical" name="LHARTREE"> T  </i>
   <i type="int" name="IBSE">     0</i>
   <v type="int" name="KPOINT">    -1     0     0     0</v>
   <i type="logical" name="LTCTE"> F  </i>
   <i type="logical" name="LTETE"> F  </i>
   <i type="logical" name="LTRIPLET"> F  </i>
   <i type="logical" name="LFXCEPS"> F  </i>
   <i type="logical" name="LFXHEG"> F  </i>
   <i type="int" name="NATURALO">     2</i>
   <i type="logical" name="L2ORDER"> F  </i>
   <i type="logical" name="LMP2LT"> F  </i>
   <i type="logical" name="LUSEW"> F  </i>
   <i name="ENCUTGW">     -2.00000000</i>
   <i name="ENCUTGWSOFT">     -2.00000000</i>
   <i name="ENCUTLF">     -1.00000000</i>
   <i type="int" name="LMAXMP2">    -1</i>
   <i name="SCISSOR">      0.00000000</i>
   <i type="int" name="NOMEGA">     0</i>
   <i type="int" name="NOMEGAR">     0</i>
   <i type="int" name="NBANDSGW">    -1</i>
   <i type="int" name="NBANDSO">    -1</i>
   <i type="int" name="NBANDSV">    -1</i>
   <i type="int" name="NELM">   200</i>
   <i type="int" name="NELMHF">     1</i>
   <i type="int" name="DIM">     3</i>
   <i type="int" name="ANTIRES">     0</i>
   <i name="OMEGAMAX">    -30.00000000</i>
   <i name="OMEGAMIN">    -30.00000000</i>
   <i name="OMEGATL">   -200.00000000</i>
   <i type="int" name="OMEGAGRID">   140</i>
   <i name="CSHIFT">     -0.10000000</i>
   <i type="logical" name="SELFENERGY"> F  </i>
   <i type="logical" name="LSPECTRAL"> F  </i>
   <i type="logical" name="LSPECTRALGW"> F  </i>
   <i type="logical" name="LSINGLES"> F  </i>
   <i type="logical" name="LFERMIGW"> F  </i>
   <i type="logical" name="ODDONLYGW"> F  </i>
   <i type="logical" name="EVENONLYGW"> F  </i>
   <i type="int" name="NKREDLFX">     1</i>
   <i type="int" name="NKREDLFY">     1</i>
   <i type="int" name="NKREDLFZ">     1</i>
   <i type="int" name="MAXMEM">  2800</i>
   <i type="int" name="TELESCOPE">     0</i>
   <i type="int" name="TAUPAR">     1</i>
   <i type="int" name="OMEGAPAR">    -1</i>
   <i name="LAMBDA">      1.00000000</i>
  </separator>
  <separator name="External order field" >
   <i name="OFIELD_KAPPA">      0.00000000</i>
   <v name="OFIELD_K">      0.00000000      0.00000000      0.00000000</v>
   <i name="OFIELD_Q6_NEAR">      0.00000000</i>
   <i name="OFIELD_Q6_FAR">      0.00000000</i>
   <i name="OFIELD_A">      0.00000000</i>
  </separator>
 </parameters>
 <atominfo>
  <atoms>      20 </atoms>
  <types>       3 </types>
  <array name="atoms" >
   <dimension dim="1">ion</dimension>
   <field type="string">element</field>
   <field type="int">atomtype</field>
   <set>
    <rc><c>Cs</c><c>   1</c></rc>
    <rc><c>Cs</c><c>   1</c></rc>
    <rc><c>Cs</c><c>   1</c></rc>
    <rc><c>Cs</c><c>   1</c></rc>
    <rc><c>Pb</c><c>   2</c></rc>
    <rc><c>Pb</c><c>   2</c></rc>
    <rc><c>Pb</c><c>   2</c></rc>
    <rc><c>Pb</c><c>   2</c></rc>
    <rc><c>Br</c><c>   3</c></rc>
    <rc><c>Br</c><c>   3</c></rc>
    <rc><c>Br</c><c>   3</c></rc>
    <rc><c>Br</c><c>   3</c></rc>
    <rc><c>Br</c><c>   3</c></rc>
    <rc><c>Br</c><c>   3</c></rc>
    <rc><c>Br</c><c>   3</c></rc>
    <rc><c>Br</c><c>   3</c></rc>
    <rc><c>Br</c><c>   3</c></rc>
    <rc><c>Br</c><c>   3</c></rc>
    <rc><c>Br</c><c>   3</c></rc>
    <rc><c>Br</c><c>   3</c></rc>
   </set>
  </array>
  <array name="atomtypes" >
   <dimension dim="1">type</dimension>
   <field type="int">atomspertype</field>
   <field type="string">element</field>
   <field>mass</field>
   <field>valence</field>
   <field type="string">pseudopotential</field>
   <set>
    <rc><c>   4</c><c>Cs</c><c>    132.90000000</c><c>      9.00000000</c><c>  PAW_PBE Cs_sv 08Apr2002               </c></rc>
    <rc><c>   4</c><c>Pb</c><c>    207.20000000</c><c>     14.00000000</c><c>  PAW_PBE Pb_d 06Sep2000                </c></rc>
    <rc><c>  12</c><c>Br</c><c>     79.90400000</c><c>      7.00000000</c><c>  PAW_PBE Br 06Sep2000                  </c></rc>
   </set>
  </array>
 </atominfo>
 <structure name="initialpos" >
  <crystal>
   <varray name="basis" >
    <v>       8.58841795       0.00000000       0.00000000 </v>
    <v>       0.00000000      11.82144586       0.00000000 </v>
    <v>       0.00000000       0.00000000       7.90313954 </v>
   </varray>
   <i name="volume">    802.38614070 </i>
   <varray name="rec_basis" >
    <v>       0.11643588       0.00000000       0.00000000 </v>
    <v>       0.00000000       0.08459202       0.00000000 </v>
    <v>       0.00000000       0.00000000       0.12653199 </v>
   </varray>
  </crystal>
  <varray name="positions" >
   <v>       0.06948426       0.25000000       0.47388614 </v>
   <v>       0.43051574       0.75000000       0.97388614 </v>
   <v>       0.56948426       0.25000000       0.02611386 </v>
   <v>       0.93051574       0.75000000       0.52611386 </v>
   <v>       0.00000000       0.00000000       0.00000000 </v>
   <v>       0.50000000       0.00000000       0.50000000 </v>
   <v>       0.50000000       0.50000000       0.50000000 </v>
   <v>       0.00000000       0.50000000       0.00000000 </v>
   <v>       0.50999203       0.75000000       0.43630490 </v>
   <v>       0.99000797       0.25000000       0.93630490 </v>
   <v>       0.00999203       0.75000000       0.06369510 </v>
   <v>       0.49000797       0.25000000       0.56369510 </v>
   <v>       0.30034002       0.46609668       0.19146906 </v>
   <v>       0.19965998       0.53390332       0.69146906 </v>
   <v>       0.80034002       0.03390332       0.30853094 </v>
   <v>       0.69965998       0.96609668       0.80853094 </v>
   <v>       0.30034002       0.03390332       0.19146906 </v>
   <v>       0.19965998       0.96609668       0.69146906 </v>
   <v>       0.69965998       0.53390332       0.80853094 </v>
   <v>       0.80034002       0.46609668       0.30853094 </v>
  </varray>
 </structure>
 <calculation>
  <scstep>
   <time name="dav">    4.39    4.39</time>
   <time name="total">    5.61    5.62</time>
   <energy>
    <i name="alphaZ">    449.66994750 </i>
    <i name="ewald">  -9231.08017937 </i>
    <i name="hartreedc">  -3652.75298599 </i>
    <i name="XCdc">    461.95011765 </i>
    <i name="pawpsdc">  10816.98087266 </i>
    <i name="pawaedc"> -11353.96092700 </i>
    <i name="eentropy">     -0.00028829 </i>
    <i name="bandstr">   -119.29329495 </i>
    <i name="atom">  13290.28009929 </i>
    <i name="e_fr_energy">    661.79336149 </i>
    <i name="e_wo_entrp">    661.79364978 </i>
    <i name="e_0_energy">    661.79350564 </i>
   </energy>
  </scstep>
  <scstep>
   <time name="dav">    4.92    4.96</time>
   <time name="total">    4.92    4.96</time>
   <energy>
    <i name="e_fr_energy">   -575.34816921 </i>
    <i name="e_wo_entrp">   -575.34816921 </i>
    <i name="e_0_energy">   -575.34816921 </i>
   </energy>
  </scstep>
  <scstep>
   <time name="dav">    5.20    5.25</time>
   <time name="total">    5.20    5.25</time>
   <energy>
    <i name="e_fr_energy">   -749.06900080 </i>
    <i name="e_wo_entrp">   -749.06900080 </i>
    <i name="e_0_energy">   -749.06900080 </i>
   </energy>
  </scstep>
  <scstep>
   <time name="dav">    4.82    4.83</time>
   <time name="total">    4.82    4.83</time>
   <energy>
    <i name="e_fr_energy">   -754.57777299 </i>
    <i name="e_wo_entrp">   -754.57777299 </i>
    <i name="e_0_energy">   -754.57777299 </i>
   </energy>
  </scstep>
  <scstep>
   <time name="dav">    5.03    5.08</time>
   <time name="total">    5.99    6.04</time>
   <energy>
    <i name="e_fr_energy">   -754.83450800 </i>
    <i name="e_wo_entrp">   -754.83450800 </i>
    <i name="e_0_energy">   -754.83450800 </i>
   </energy>
  </scstep>
  <scstep>
   <time name="dav">    5.11    5.11</time>
   <time name="total">    7.28    7.29</time>
   <energy>
    <i name="e_fr_energy">   -715.01301911 </i>
    <i name="e_wo_entrp">   -715.01301911 </i>
    <i name="e_0_energy">   -715.01301911 </i>
   </energy>
  </scstep>
  <scstep>
   <time name="dav">    4.87    4.87</time>
   <time name="total">    7.02    7.05</time>
   <energy>
    <i name="e_fr_energy">   -714.77423486 </i>
    <i name="e_wo_entrp">   -714.77423486 </i>
    <i name="e_0_energy">   -714.77423486 </i>
   </energy>
  </scstep>
  <scstep>
   <time name="dav">    4.81    4.81</time>
   <time name="total">    6.98    7.01</time>
   <energy>
    <i name="e_fr_energy">   -714.86934634 </i>
    <i name="e_wo_entrp">   -714.86934634 </i>
    <i name="e_0_energy">   -714.86934634 </i>
   </energy>
  </scstep>
  <scstep>
   <time name="dav">    4.46    4.46</time>
   <time name="total">    6.62    6.65</time>
   <energy>
    <i name="e_fr_energy">   -714.90880034 </i>
    <i name="e_wo_entrp">   -714.90880034 </i>
    <i name="e_0_energy">   -714.90880034 </i>
   </energy>
  </scstep>
  <scstep>
   <time name="dav">    5.43    5.43</time>
   <time name="total">    7.63    7.63</time>
   <energy>
    <i name="e_fr_energy">   -714.90969736 </i>
    <i name="e_wo_entrp">   -714.90969736 </i>
    <i name="e_0_energy">   -714.90969736 </i>
   </energy>
  </scstep>
  <scstep>
   <time name="dav">    4.45    4.45</time>
   <time name="total">    6.61    6.65</time>
   <energy>
    <i name="e_fr_energy">   -714.91126439 </i>
    <i name="e_wo_entrp">   -714.91126439 </i>
    <i name="e_0_energy">   -714.91126439 </i>
   </energy>
  </scstep>
  <scstep>
   <time name="dav">    4.93    4.93</time>
   <time name="total">    7.09    7.13</time>
   <energy>
    <i name="e_fr_energy">   -714.91127541 </i>
    <i name="e_wo_entrp">   -714.91127541 </i>
    <i name="e_0_energy">   -714.91127541 </i>
   </energy>
  </scstep>
  <scstep>
   <time name="dav">    4.78    4.78</time>
   <time name="total">    6.97    6.98</time>
   <energy>
    <i name="e_fr_energy">   -714.91126885 </i>
    <i name="e_wo_entrp">   -714.91126885 </i>
    <i name="e_0_energy">   -714.91126885 </i>
   </energy>
  </scstep>
  <scstep>
   <time name="dav">    4.22    4.22</time>
   <time name="total">    6.38    6.42</time>
   <energy>
    <i name="e_fr_energy">   -714.91128767 </i>
    <i name="e_wo_entrp">   -714.91128767 </i>
    <i name="e_0_energy">   -714.91128767 </i>
   </energy>
  </scstep>
  <scstep>
   <time name="dav">    3.50    3.50</time>
   <time name="total">    5.65    5.70</time>
   <energy>
    <i name="e_fr_energy">   -714.91128958 </i>
    <i name="e_wo_entrp">   -714.91128958 </i>
    <i name="e_0_energy">   -714.91128958 </i>
   </energy>
  </scstep>
  <scstep>
   <time name="dav">    3.53    3.53</time>
   <time name="total">    5.73    5.74</time>
   <energy>
    <i name="e_fr_energy">   -714.91128707 </i>
    <i name="e_wo_entrp">   -714.91128707 </i>
    <i name="e_0_energy">   -714.91128707 </i>
   </energy>
  </scstep>
  <scstep>
   <time name="dav">    3.37    3.37</time>
   <time name="total">    5.52    5.56</time>
   <energy>
    <i name="e_fr_energy">   -714.91128558 </i>
    <i name="e_wo_entrp">   -714.91128558 </i>
    <i name="e_0_energy">   -714.91128558 </i>
   </energy>
  </scstep>
  <scstep>
   <time name="dav">    3.33    3.33</time>
   <time name="total">    4.58    4.60</time>
   <energy>
    <i name="alphaZ">    449.66994750 </i>
    <i name="ewald">  -9231.08017937 </i>
    <i name="hartreedc">  -3664.55727011 </i>
    <i name="XCdc">    481.32783489 </i>
    <i name="pawpsdc">  11529.26436995 </i>
    <i name="pawaedc"> -12065.16222222 </i>
    <i name="eentropy">     -0.00000000 </i>
    <i name="bandstr">  -1504.65386533 </i>
    <i name="atom">  13290.28009929 </i>
    <i name="e_fr_energy">   -714.91128539 </i>
    <i name="e_wo_entrp">   -714.91128539 </i>
    <i name="e_0_energy">   -714.91128539 </i>
   </energy>
  </scstep>
  <structure>
   <crystal>
    <varray name="basis" >
     <v>       8.58841795       0.00000000       0.00000000 </v>
     <v>       0.00000000      11.82144586       0.00000000 </v>
     <v>       0.00000000       0.00000000       7.90313954 </v>
    </varray>
    <i name="volume">    802.38614070 </i>
    <varray name="rec_basis" >
     <v>       0.11643588       0.00000000       0.00000000 </v>
     <v>       0.00000000       0.08459202       0.00000000 </v>
     <v>       0.00000000       0.00000000       0.12653199 </v>
    </varray>
   </crystal>
   <varray name="positions" >
    <v>       0.06948426       0.25000000       0.47388614 </v>
    <v>       0.43051574       0.75000000       0.97388614 </v>
    <v>       0.56948426       0.25000000       0.02611386 </v>
    <v>       0.93051574       0.75000000       0.52611386 </v>
    <v>       0.00000000       0.00000000       0.00000000 </v>
    <v>       0.50000000       0.00000000       0.50000000 </v>
    <v>       0.50000000       0.50000000       0.50000000 </v>
    <v>       0.00000000       0.50000000       0.00000000 </v>
    <v>       0.50999203       0.75000000       0.43630490 </v>
    <v>       0.99000797       0.25000000       0.93630490 </v>
    <v>       0.00999203       0.75000000       0.06369510 </v>
    <v>       0.49000797       0.25000000       0.56369510 </v>
    <v>       0.30034002       0.46609668       0.19146906 </v>
    <v>       0.19965998       0.53390332       0.69146906 </v>
    <v>       0.80034002       0.03390332       0.30853094 </v>
    <v>       0.69965998       0.96609668       0.80853094 </v>
    <v>       0.30034002       0.03390332       0.19146906 </v>
    <v>       0.19965998       0.96609668       0.69146906 </v>
    <v>       0.69965998       0.53390332       0.80853094 </v>
    <v>       0.80034002       0.46609668       0.30853094 </v>
   </varray>
  </structure>
  <varray name="forces" >
   <v>      -0.00049129      -0.00000000       0.00210827 </v>
   <v>       0.00049129      -0.00000000       0.00210827 </v>
   <v>      -0.00049129      -0.00000000      -0.00210827 </v>
   <v>       0.00049129      -0.00000000      -0.00210827 </v>
   <v>       0.00000000      -0.00000000       0.00000000 </v>
   <v>       0.00000000      -0.00000000       0.00000000 </v>
   <v>       0.00000000      -0.00000000       0.00000000 </v>
   <v>       0.00000000      -0.00000000       0.00000000 </v>
   <v>      -0.00439455      -0.00000000      -0.01095893 </v>
   <v>       0.00439455      -0.00000000      -0.01095893 </v>
   <v>      -0.00439455      -0.00000000       0.01095893 </v>
   <v>       0.00439455      -0.00000000       0.01095893 </v>
   <v>      -0.00016109      -0.01169459       0.00927733 </v>
   <v>       0.00016109       0.01169459       0.00927733 </v>
   <v>      -0.00016109       0.01169459      -0.00927733 </v>
   <v>       0.00016109      -0.01169459      -0.00927733 </v>
   <v>      -0.00016109       0.01169459       0.00927733 </v>
   <v>       0.00016109      -0.01169459       0.00927733 </v>
   <v>       0.00016109       0.01169459      -0.00927733 </v>
   <v>      -0.00016109      -0.01169459      -0.00927733 </v>
  </varray>
  <varray name="stress" >
   <v>      -4.17989895       0.00000000       0.00000000 </v>
   <v>       0.00000000      -2.32487002       0.00000000 </v>
   <v>      -0.00000000       0.00000000      -1.19200421 </v>
  </varray>
  <energy>
   <i name="e_fr_energy">   -714.91128539 </i>
   <i name="e_wo_entrp">   -714.91128539 </i>
   <i name="e_0_energy">     -0.00000000 </i>
  </energy>
  <time name="totalsc">  127.65  128.22</time>
  <eigenvalues>
   <array>
    <dimension dim="1">band</dimension>
    <dimension dim="2">kpoint</dimension>
    <dimension dim="3">spin</dimension>
    <field>eigene</field>
    <field>occ</field>
    <set>
     <set comment="spin 1">
      <set comment="kpoint 1">
       <r>  -20.7551    1.0000 </r>
       <r>  -20.7534    1.0000 </r>
       <r>  -20.7509    1.0000 </r>
       <r>  -20.7498    1.0000 </r>
       <r>  -16.4895    1.0000 </r>
       <r>  -16.4756    1.0000 </r>
       <r>  -16.4754    1.0000 </r>
       <r>  -16.4647    1.0000 </r>
       <r>  -16.4335    1.0000 </r>
       <r>  -16.4037    1.0000 </r>
       <r>  -16.3935    1.0000 </r>
       <r>  -16.3932    1.0000 </r>
       <r>  -16.3401    1.0000 </r>
       <r>  -16.3394    1.0000 </r>
       <r>  -16.3391    1.0000 </r>
       <r>  -16.3384    1.0000 </r>
       <r>  -16.3314    1.0000 </r>
       <r>  -16.3312    1.0000 </r>
       <r>  -16.3303    1.0000 </r>
       <r>  -16.3300    1.0000 </r>
       <r>  -16.3234    1.0000 </r>
       <r>  -16.3227    1.0000 </r>
       <r>  -16.3225    1.0000 </r>
       <r>  -16.3218    1.0000 </r>
       <r>  -14.3206    1.0000 </r>
       <r>  -14.1401    1.0000 </r>
       <r>  -14.0241    1.0000 </r>
       <r>  -14.0208    1.0000 </r>
       <r>  -14.0075    1.0000 </r>
       <r>  -13.9983    1.0000 </r>
       <r>  -13.9622    1.0000 </r>
       <r>  -13.9570    1.0000 </r>
       <r>  -13.9507    1.0000 </r>
       <r>  -13.7456    1.0000 </r>
       <r>  -13.7295    1.0000 </r>
       <r>  -13.7261    1.0000 </r>
       <r>   -8.1545    1.0000 </r>
       <r>   -7.6596    1.0000 </r>
       <r>   -7.2085    1.0000 </r>
       <r>   -7.1878    1.0000 </r>
       <r>   -7.1878    1.0000 </r>
       <r>   -7.1855    1.0000 </r>
       <r>   -7.1786    1.0000 </r>
       <r>   -7.1695    1.0000 </r>
       <r>   -7.1644    1.0000 </r>
       <r>   -7.1516    1.0000 </r>
       <r>   -7.1436    1.0000 </r>
       <r>   -7.1426    1.0000 </r>
       <r>   -7.1340    1.0000 </r>
       <r>   -7.1226    1.0000 </r>
       <r>   -7.0983    1.0000 </r>
       <r>   -6.5611    1.0000 </r>
       <r>   -3.2820    1.0000 </r>
       <r>   -3.2725    1.0000 </r>
       <r>   -3.1852    1.0000 </r>
       <r>   -3.1657    1.0000 </r>
       <r>   -3.0949    1.0000 </r>
       <r>   -3.0629    1.0000 </r>
       <r>   -2.1271    1.0000 </r>
       <r>   -1.8977    1.0000 </r>
       <r>   -1.8606    1.0000 </r>
       <r>   -1.8442    1.0000 </r>
       <r>   -1.8272    1.0000 </r>
       <r>   -1.7191    1.0000 </r>
       <r>   -1.6234    1.0000 </r>
       <r>   -1.5281    1.0000 </r>
       <r>   -1.4856    1.0000 </r>
       <r>   -1.4835    1.0000 </r>
       <r>   -1.4352    1.0000 </r>
       <r>   -1.4132    1.0000 </r>
       <r>   -1.4118    1.0000 </r>
       <r>   -1.4071    1.0000 </r>
       <r>   -1.4070    1.0000 </r>
       <r>   -1.3429    1.0000 </r>
       <r>   -1.3367    1.0000 </r>
       <r>   -1.3258    1.0000 </r>
       <r>   -1.3250    1.0000 </r>
       <r>   -1.1374    1.0000 </r>
       <r>   -1.1254    1.0000 </r>
       <r>   -1.0956    1.0000 </r>
       <r>   -1.0509    1.0000 </r>
       <r>   -0.9984    1.0000 </r>
       <r>   -0.9957    1.0000 </r>
       <r>   -0.9662    1.0000 </r>
       <r>   -0.7928    1.0000 </r>
       <r>   -0.6173    1.0000 </r>
       <r>   -0.1863    1.0000 </r>
       <r>    0.4049    1.0000 </r>
       <r>    2.6597    0.0000 </r>
       <r>    2.7517    0.0000 </r>
       <r>    2.9477    0.0000 </r>
       <r>    3.0650    0.0000 </r>
       <r>    3.3787    0.0000 </r>
       <r>    3.4642    0.0000 </r>
       <r>    4.9422    0.0000 </r>
       <r>    5.6582    0.0000 </r>
       <r>    5.6938    0.0000 </r>
       <r>    5.9047    0.0000 </r>
       <r>    6.0777    0.0000 </r>
       <r>    6.0892    0.0000 </r>
       <r>    6.1289    0.0000 </r>
       <r>    6.1436    0.0000 </r>
       <r>    6.2288    0.0000 </r>
       <r>    6.4140    0.0000 </r>
       <r>    6.4749    0.0000 </r>
       <r>    6.4972    0.0000 </r>
       <r>    6.6089    0.0000 </r>
       <r>    6.7762    0.0000 </r>
       <r>    6.8998    0.0000 </r>
       <r>    7.0498    0.0000 </r>
       <r>    7.0830    0.0000 </r>
       <r>    7.1070    0.0000 </r>
      </set>
      <set comment="kpoint 2">
       <r>  -20.7540    1.0000 </r>
       <r>  -20.7524    1.0000 </r>
       <r>  -20.7519    1.0000 </r>
       <r>  -20.7507    1.0000 </r>
       <r>  -16.4831    1.0000 </r>
       <r>  -16.4709    1.0000 </r>
       <r>  -16.4558    1.0000 </r>
       <r>  -16.4558    1.0000 </r>
       <r>  -16.4259    1.0000 </r>
       <r>  -16.4148    1.0000 </r>
       <r>  -16.4148    1.0000 </r>
       <r>  -16.4109    1.0000 </r>
       <r>  -16.3399    1.0000 </r>
       <r>  -16.3396    1.0000 </r>
       <r>  -16.3388    1.0000 </r>
       <r>  -16.3385    1.0000 </r>
       <r>  -16.3311    1.0000 </r>
       <r>  -16.3310    1.0000 </r>
       <r>  -16.3306    1.0000 </r>
       <r>  -16.3304    1.0000 </r>
       <r>  -16.3231    1.0000 </r>
       <r>  -16.3226    1.0000 </r>
       <r>  -16.3225    1.0000 </r>
       <r>  -16.3220    1.0000 </r>
       <r>  -14.2744    1.0000 </r>
       <r>  -14.1491    1.0000 </r>
       <r>  -14.1069    1.0000 </r>
       <r>  -14.0360    1.0000 </r>
       <r>  -14.0236    1.0000 </r>
       <r>  -14.0216    1.0000 </r>
       <r>  -13.9000    1.0000 </r>
       <r>  -13.8941    1.0000 </r>
       <r>  -13.8460    1.0000 </r>
       <r>  -13.7864    1.0000 </r>
       <r>  -13.7820    1.0000 </r>
       <r>  -13.7686    1.0000 </r>
       <r>   -7.9510    1.0000 </r>
       <r>   -7.4869    1.0000 </r>
       <r>   -7.4554    1.0000 </r>
       <r>   -7.2146    1.0000 </r>
       <r>   -7.1814    1.0000 </r>
       <r>   -7.1788    1.0000 </r>
       <r>   -7.1719    1.0000 </r>
       <r>   -7.1608    1.0000 </r>
       <r>   -7.1567    1.0000 </r>
       <r>   -7.1497    1.0000 </r>
       <r>   -7.1412    1.0000 </r>
       <r>   -7.1285    1.0000 </r>
       <r>   -7.1279    1.0000 </r>
       <r>   -7.1188    1.0000 </r>
       <r>   -7.1102    1.0000 </r>
       <r>   -6.8901    1.0000 </r>
       <r>   -3.2392    1.0000 </r>
       <r>   -3.1480    1.0000 </r>
       <r>   -2.9123    1.0000 </r>
       <r>   -2.7846    1.0000 </r>
       <r>   -2.7451    1.0000 </r>
       <r>   -2.7220    1.0000 </r>
       <r>   -2.2228    1.0000 </r>
       <r>   -2.0933    1.0000 </r>
       <r>   -2.0633    1.0000 </r>
       <r>   -1.9701    1.0000 </r>
       <r>   -1.9600    1.0000 </r>
       <r>   -1.9428    1.0000 </r>
       <r>   -1.7796    1.0000 </r>
       <r>   -1.6675    1.0000 </r>
       <r>   -1.6361    1.0000 </r>
       <r>   -1.6066    1.0000 </r>
       <r>   -1.4598    1.0000 </r>
       <r>   -1.4343    1.0000 </r>
       <r>   -1.3914    1.0000 </r>
       <r>   -1.3863    1.0000 </r>
       <r>   -1.3651    1.0000 </r>
       <r>   -1.3558    1.0000 </r>
       <r>   -1.2881    1.0000 </r>
       <r>   -1.2874    1.0000 </r>
       <r>   -1.2424    1.0000 </r>
       <r>   -1.1915    1.0000 </r>
       <r>   -1.1874    1.0000 </r>
       <r>   -1.0946    1.0000 </r>
       <r>   -1.0696    1.0000 </r>
       <r>   -1.0574    1.0000 </r>
       <r>   -1.0122    1.0000 </r>
       <r>   -0.9804    1.0000 </r>
       <r>   -0.7663    1.0000 </r>
       <r>   -0.6499    1.0000 </r>
       <r>   -0.4965    1.0000 </r>
       <r>   -0.0915    1.0000 </r>
       <r>    2.9153    0.0000 </r>
       <r>    3.2477    0.0000 </r>
       <r>    3.4196    0.0000 </r>
       <r>    3.7898    0.0000 </r>
       <r>    3.8145    0.0000 </r>
       <r>    4.1751    0.0000 </r>
       <r>    4.8898    0.0000 </r>
       <r>    5.2020    0.0000 </r>
       <r>    5.2217    0.0000 </r>
       <r>    5.2422    0.0000 </r>
       <r>    5.7978    0.0000 </r>
       <r>    5.8243    0.0000 </r>
       <r>    6.1483    0.0000 </r>
       <r>    6.2570    0.0000 </r>
       <r>    6.4224    0.0000 </r>
       <r>    6.4693    0.0000 </r>
       <r>    6.5080    0.0000 </r>
       <r>    6.5097    0.0000 </r>
       <r>    6.5425    0.0000 </r>
       <r>    6.7440    0.0000 </r>
       <r>    6.9536    0.0000 </r>
       <r>    7.0196    0.0000 </r>
       <r>    7.1374    0.0000 </r>
       <r>    7.1623    0.0000 </r>
      </set>
      <set comment="kpoint 3">
       <r>  -20.7542    1.0000 </r>
       <r>  -20.7542    1.0000 </r>
       <r>  -20.7503    1.0000 </r>
       <r>  -20.7503    1.0000 </r>
       <r>  -16.4754    1.0000 </r>
       <r>  -16.4754    1.0000 </r>
       <r>  -16.4618    1.0000 </r>
       <r>  -16.4618    1.0000 </r>
       <r>  -16.4348    1.0000 </r>
       <r>  -16.4348    1.0000 </r>
       <r>  -16.3934    1.0000 </r>
       <r>  -16.3934    1.0000 </r>
       <r>  -16.3396    1.0000 </r>
       <r>  -16.3396    1.0000 </r>
       <r>  -16.3389    1.0000 </r>
       <r>  -16.3389    1.0000 </r>
       <r>  -16.3313    1.0000 </r>
       <r>  -16.3313    1.0000 </r>
       <r>  -16.3301    1.0000 </r>
       <r>  -16.3301    1.0000 </r>
       <r>  -16.3230    1.0000 </r>
       <r>  -16.3230    1.0000 </r>
       <r>  -16.3220    1.0000 </r>
       <r>  -16.3220    1.0000 </r>
       <r>  -14.2650    1.0000 </r>
       <r>  -14.2650    1.0000 </r>
       <r>  -14.0037    1.0000 </r>
       <r>  -14.0037    1.0000 </r>
       <r>  -13.9901    1.0000 </r>
       <r>  -13.9901    1.0000 </r>
       <r>  -13.9541    1.0000 </r>
       <r>  -13.9541    1.0000 </r>
       <r>  -13.8494    1.0000 </r>
       <r>  -13.8494    1.0000 </r>
       <r>  -13.7277    1.0000 </r>
       <r>  -13.7277    1.0000 </r>
       <r>   -7.9258    1.0000 </r>
       <r>   -7.9258    1.0000 </r>
       <r>   -7.1992    1.0000 </r>
       <r>   -7.1992    1.0000 </r>
       <r>   -7.1809    1.0000 </r>
       <r>   -7.1809    1.0000 </r>
       <r>   -7.1577    1.0000 </r>
       <r>   -7.1577    1.0000 </r>
       <r>   -7.1474    1.0000 </r>
       <r>   -7.1474    1.0000 </r>
       <r>   -7.1388    1.0000 </r>
       <r>   -7.1388    1.0000 </r>
       <r>   -7.1294    1.0000 </r>
       <r>   -7.1294    1.0000 </r>
       <r>   -6.9131    1.0000 </r>
       <r>   -6.9131    1.0000 </r>
       <r>   -3.2268    1.0000 </r>
       <r>   -3.2268    1.0000 </r>
       <r>   -3.1320    1.0000 </r>
       <r>   -3.1320    1.0000 </r>
       <r>   -2.4544    1.0000 </r>
       <r>   -2.4544    1.0000 </r>
       <r>   -2.3169    1.0000 </r>
       <r>   -2.3169    1.0000 </r>
       <r>   -1.9989    1.0000 </r>
       <r>   -1.9989    1.0000 </r>
       <r>   -1.7892    1.0000 </r>
       <r>   -1.7892    1.0000 </r>
       <r>   -1.7453    1.0000 </r>
       <r>   -1.7453    1.0000 </r>
       <r>   -1.4944    1.0000 </r>
       <r>   -1.4944    1.0000 </r>
       <r>   -1.4443    1.0000 </r>
       <r>   -1.4443    1.0000 </r>
       <r>   -1.4114    1.0000 </r>
       <r>   -1.4114    1.0000 </r>
       <r>   -1.3417    1.0000 </r>
       <r>   -1.3417    1.0000 </r>
       <r>   -1.2911    1.0000 </r>
       <r>   -1.2911    1.0000 </r>
       <r>   -1.2076    1.0000 </r>
       <r>   -1.2076    1.0000 </r>
       <r>   -1.1434    1.0000 </r>
       <r>   -1.1434    1.0000 </r>
       <r>   -1.1034    1.0000 </r>
       <r>   -1.1034    1.0000 </r>
       <r>   -1.0225    1.0000 </r>
       <r>   -1.0225    1.0000 </r>
       <r>   -0.8019    1.0000 </r>
       <r>   -0.8019    1.0000 </r>
       <r>   -0.0529    1.0000 </r>
       <r>   -0.0529    1.0000 </r>
       <r>    2.8738    0.0000 </r>
       <r>    2.8738    0.0000 </r>
       <r>    3.1599    0.0000 </r>
       <r>    3.1599    0.0000 </r>
       <r>    4.2918    0.0000 </r>
       <r>    4.2918    0.0000 </r>
       <r>    4.8542    0.0000 </r>
       <r>    4.8542    0.0000 </r>
       <r>    5.5868    0.0000 </r>
       <r>    5.5868    0.0000 </r>
       <r>    5.8524    0.0000 </r>
       <r>    5.8524    0.0000 </r>
       <r>    6.0943    0.0000 </r>
       <r>    6.0943    0.0000 </r>
       <r>    6.3112    0.0000 </r>
       <r>    6.3112    0.0000 </r>
       <r>    6.3956    0.0000 </r>
       <r>    6.3956    0.0000 </r>
       <r>    6.7142    0.0000 </r>
       <r>    6.7142    0.0000 </r>
       <r>    6.8948    0.0000 </r>
       <r>    6.8949    0.0000 </r>
       <r>    7.0332    0.0000 </r>
       <r>    7.0436    0.0000 </r>
      </set>
      <set comment="kpoint 4">
       <r>  -20.7533    1.0000 </r>
       <r>  -20.7533    1.0000 </r>
       <r>  -20.7513    1.0000 </r>
       <r>  -20.7513    1.0000 </r>
       <r>  -16.4559    1.0000 </r>
       <r>  -16.4559    1.0000 </r>
       <r>  -16.4549    1.0000 </r>
       <r>  -16.4549    1.0000 </r>
       <r>  -16.4413    1.0000 </r>
       <r>  -16.4413    1.0000 </r>
       <r>  -16.4149    1.0000 </r>
       <r>  -16.4149    1.0000 </r>
       <r>  -16.3395    1.0000 </r>
       <r>  -16.3395    1.0000 </r>
       <r>  -16.3391    1.0000 </r>
       <r>  -16.3391    1.0000 </r>
       <r>  -16.3311    1.0000 </r>
       <r>  -16.3311    1.0000 </r>
       <r>  -16.3306    1.0000 </r>
       <r>  -16.3306    1.0000 </r>
       <r>  -16.3229    1.0000 </r>
       <r>  -16.3229    1.0000 </r>
       <r>  -16.3224    1.0000 </r>
       <r>  -16.3224    1.0000 </r>
       <r>  -14.2246    1.0000 </r>
       <r>  -14.2246    1.0000 </r>
       <r>  -14.1199    1.0000 </r>
       <r>  -14.1199    1.0000 </r>
       <r>  -13.9059    1.0000 </r>
       <r>  -13.9059    1.0000 </r>
       <r>  -13.8980    1.0000 </r>
       <r>  -13.8980    1.0000 </r>
       <r>  -13.8607    1.0000 </r>
       <r>  -13.8607    1.0000 </r>
       <r>  -13.7842    1.0000 </r>
       <r>  -13.7842    1.0000 </r>
       <r>   -7.7215    1.0000 </r>
       <r>   -7.7215    1.0000 </r>
       <r>   -7.2655    1.0000 </r>
       <r>   -7.2655    1.0000 </r>
       <r>   -7.1850    1.0000 </r>
       <r>   -7.1849    1.0000 </r>
       <r>   -7.1819    1.0000 </r>
       <r>   -7.1819    1.0000 </r>
       <r>   -7.1495    1.0000 </r>
       <r>   -7.1495    1.0000 </r>
       <r>   -7.1388    1.0000 </r>
       <r>   -7.1388    1.0000 </r>
       <r>   -7.1350    1.0000 </r>
       <r>   -7.1350    1.0000 </r>
       <r>   -7.0948    1.0000 </r>
       <r>   -7.0948    1.0000 </r>
       <r>   -2.8520    1.0000 </r>
       <r>   -2.8520    1.0000 </r>
       <r>   -2.8143    1.0000 </r>
       <r>   -2.8143    1.0000 </r>
       <r>   -2.4272    1.0000 </r>
       <r>   -2.4272    1.0000 </r>
       <r>   -2.3622    1.0000 </r>
       <r>   -2.3622    1.0000 </r>
       <r>   -2.1456    1.0000 </r>
       <r>   -2.1456    1.0000 </r>
       <r>   -2.0321    1.0000 </r>
       <r>   -2.0321    1.0000 </r>
       <r>   -1.7162    1.0000 </r>
       <r>   -1.7162    1.0000 </r>
       <r>   -1.6395    1.0000 </r>
       <r>   -1.6395    1.0000 </r>
       <r>   -1.5223    1.0000 </r>
       <r>   -1.5223    1.0000 </r>
       <r>   -1.4946    1.0000 </r>
       <r>   -1.4946    1.0000 </r>
       <r>   -1.3853    1.0000 </r>
       <r>   -1.3853    1.0000 </r>
       <r>   -1.3466    1.0000 </r>
       <r>   -1.3466    1.0000 </r>
       <r>   -1.1106    1.0000 </r>
       <r>   -1.1106    1.0000 </r>
       <r>   -1.1074    1.0000 </r>
       <r>   -1.1074    1.0000 </r>
       <r>   -1.0848    1.0000 </r>
       <r>   -1.0848    1.0000 </r>
       <r>   -1.0501    1.0000 </r>
       <r>   -1.0501    1.0000 </r>
       <r>   -0.7633    1.0000 </r>
       <r>   -0.7633    1.0000 </r>
       <r>   -0.5403    1.0000 </r>
       <r>   -0.5403    1.0000 </r>
       <r>    3.5919    0.0000 </r>
       <r>    3.5919    0.0000 </r>
       <r>    3.9709    0.0000 </r>
       <r>    3.9709    0.0000 </r>
       <r>    4.4239    0.0000 </r>
       <r>    4.4239    0.0000 </r>
       <r>    4.6940    0.0000 </r>
       <r>    4.6940    0.0000 </r>
       <r>    5.0318    0.0000 </r>
       <r>    5.0318    0.0000 </r>
       <r>    5.3001    0.0000 </r>
       <r>    5.3001    0.0000 </r>
       <r>    6.0750    0.0000 </r>
       <r>    6.0750    0.0000 </r>
       <r>    6.3777    0.0000 </r>
       <r>    6.3777    0.0000 </r>
       <r>    6.6227    0.0000 </r>
       <r>    6.6227    0.0000 </r>
       <r>    6.6885    0.0000 </r>
       <r>    6.6885    0.0000 </r>
       <r>    6.7825    0.0000 </r>
       <r>    6.7825    0.0000 </r>
       <r>    6.9287    0.0000 </r>
       <r>    6.9287    0.0000 </r>
      </set>
      <set comment="kpoint 5">
       <r>  -20.7541    1.0000 </r>
       <r>  -20.7529    1.0000 </r>
       <r>  -20.7514    1.0000 </r>
       <r>  -20.7505    1.0000 </r>
       <r>  -16.4831    1.0000 </r>
       <r>  -16.4708    1.0000 </r>
       <r>  -16.4561    1.0000 </r>
       <r>  -16.4560    1.0000 </r>
       <r>  -16.4259    1.0000 </r>
       <r>  -16.4151    1.0000 </r>
       <r>  -16.4150    1.0000 </r>
       <r>  -16.4109    1.0000 </r>
       <r>  -16.3399    1.0000 </r>
       <r>  -16.3395    1.0000 </r>
       <r>  -16.3390    1.0000 </r>
       <r>  -16.3386    1.0000 </r>
       <r>  -16.3313    1.0000 </r>
       <r>  -16.3310    1.0000 </r>
       <r>  -16.3306    1.0000 </r>
       <r>  -16.3304    1.0000 </r>
       <r>  -16.3232    1.0000 </r>
       <r>  -16.3227    1.0000 </r>
       <r>  -16.3224    1.0000 </r>
       <r>  -16.3221    1.0000 </r>
       <r>  -14.2678    1.0000 </r>
       <r>  -14.1282    1.0000 </r>
       <r>  -14.0960    1.0000 </r>
       <r>  -14.0248    1.0000 </r>
       <r>  -14.0230    1.0000 </r>
       <r>  -14.0014    1.0000 </r>
       <r>  -13.9390    1.0000 </r>
       <r>  -13.9300    1.0000 </r>
       <r>  -13.8327    1.0000 </r>
       <r>  -13.7981    1.0000 </r>
       <r>  -13.7942    1.0000 </r>
       <r>  -13.7647    1.0000 </r>
       <r>   -7.9468    1.0000 </r>
       <r>   -7.4729    1.0000 </r>
       <r>   -7.4453    1.0000 </r>
       <r>   -7.1884    1.0000 </r>
       <r>   -7.1777    1.0000 </r>
       <r>   -7.1741    1.0000 </r>
       <r>   -7.1718    1.0000 </r>
       <r>   -7.1534    1.0000 </r>
       <r>   -7.1486    1.0000 </r>
       <r>   -7.1478    1.0000 </r>
       <r>   -7.1417    1.0000 </r>
       <r>   -7.1346    1.0000 </r>
       <r>   -7.1326    1.0000 </r>
       <r>   -7.1182    1.0000 </r>
       <r>   -7.1114    1.0000 </r>
       <r>   -6.8888    1.0000 </r>
       <r>   -3.2408    1.0000 </r>
       <r>   -3.1503    1.0000 </r>
       <r>   -2.9860    1.0000 </r>
       <r>   -2.8557    1.0000 </r>
       <r>   -2.6951    1.0000 </r>
       <r>   -2.5990    1.0000 </r>
       <r>   -2.2861    1.0000 </r>
       <r>   -2.0574    1.0000 </r>
       <r>   -2.0573    1.0000 </r>
       <r>   -1.9919    1.0000 </r>
       <r>   -1.9345    1.0000 </r>
       <r>   -1.8264    1.0000 </r>
       <r>   -1.7939    1.0000 </r>
       <r>   -1.6866    1.0000 </r>
       <r>   -1.6104    1.0000 </r>
       <r>   -1.6014    1.0000 </r>
       <r>   -1.4404    1.0000 </r>
       <r>   -1.4255    1.0000 </r>
       <r>   -1.3926    1.0000 </r>
       <r>   -1.3629    1.0000 </r>
       <r>   -1.3046    1.0000 </r>
       <r>   -1.3007    1.0000 </r>
       <r>   -1.2942    1.0000 </r>
       <r>   -1.2581    1.0000 </r>
       <r>   -1.2414    1.0000 </r>
       <r>   -1.2358    1.0000 </r>
       <r>   -1.1910    1.0000 </r>
       <r>   -1.1734    1.0000 </r>
       <r>   -1.1383    1.0000 </r>
       <r>   -1.1341    1.0000 </r>
       <r>   -1.0223    1.0000 </r>
       <r>   -0.9905    1.0000 </r>
       <r>   -0.9109    1.0000 </r>
       <r>   -0.7191    1.0000 </r>
       <r>   -0.5488    1.0000 </r>
       <r>   -0.1560    1.0000 </r>
       <r>    2.9153    0.0000 </r>
       <r>    3.2409    0.0000 </r>
       <r>    3.5448    0.0000 </r>
       <r>    3.6822    0.0000 </r>
       <r>    3.9417    0.0000 </r>
       <r>    4.0454    0.0000 </r>
       <r>    4.9482    0.0000 </r>
       <r>    5.1069    0.0000 </r>
       <r>    5.1835    0.0000 </r>
       <r>    5.4550    0.0000 </r>
       <r>    5.7211    0.0000 </r>
       <r>    5.8068    0.0000 </r>
       <r>    6.1227    0.0000 </r>
       <r>    6.1732    0.0000 </r>
       <r>    6.1948    0.0000 </r>
       <r>    6.4629    0.0000 </r>
       <r>    6.4893    0.0000 </r>
       <r>    6.6370    0.0000 </r>
       <r>    6.6585    0.0000 </r>
       <r>    6.8882    0.0000 </r>
       <r>    6.9335    0.0000 </r>
       <r>    7.0552    0.0000 </r>
       <r>    7.0801    0.0000 </r>
       <r>    7.0825    0.0000 </r>
      </set>
      <set comment="kpoint 6">
       <r>  -20.7534    1.0000 </r>
       <r>  -20.7526    1.0000 </r>
       <r>  -20.7518    1.0000 </r>
       <r>  -20.7511    1.0000 </r>
       <r>  -16.4865    1.0000 </r>
       <r>  -16.4788    1.0000 </r>
       <r>  -16.4560    1.0000 </r>
       <r>  -16.4396    1.0000 </r>
       <r>  -16.4394    1.0000 </r>
       <r>  -16.4207    1.0000 </r>
       <r>  -16.4120    1.0000 </r>
       <r>  -16.4006    1.0000 </r>
       <r>  -16.3398    1.0000 </r>
       <r>  -16.3397    1.0000 </r>
       <r>  -16.3389    1.0000 </r>
       <r>  -16.3387    1.0000 </r>
       <r>  -16.3310    1.0000 </r>
       <r>  -16.3307    1.0000 </r>
       <r>  -16.3307    1.0000 </r>
       <r>  -16.3305    1.0000 </r>
       <r>  -16.3230    1.0000 </r>
       <r>  -16.3227    1.0000 </r>
       <r>  -16.3223    1.0000 </r>
       <r>  -16.3221    1.0000 </r>
       <r>  -14.2220    1.0000 </r>
       <r>  -14.1307    1.0000 </r>
       <r>  -14.0602    1.0000 </r>
       <r>  -14.0268    1.0000 </r>
       <r>  -14.0243    1.0000 </r>
       <r>  -13.9918    1.0000 </r>
       <r>  -13.9864    1.0000 </r>
       <r>  -13.9327    1.0000 </r>
       <r>  -13.8966    1.0000 </r>
       <r>  -13.8436    1.0000 </r>
       <r>  -13.7644    1.0000 </r>
       <r>  -13.7317    1.0000 </r>
       <r>   -7.8239    1.0000 </r>
       <r>   -7.5890    1.0000 </r>
       <r>   -7.3168    1.0000 </r>
       <r>   -7.1798    1.0000 </r>
       <r>   -7.1725    1.0000 </r>
       <r>   -7.1617    1.0000 </r>
       <r>   -7.1597    1.0000 </r>
       <r>   -7.1568    1.0000 </r>
       <r>   -7.1479    1.0000 </r>
       <r>   -7.1414    1.0000 </r>
       <r>   -7.1390    1.0000 </r>
       <r>   -7.1375    1.0000 </r>
       <r>   -7.1286    1.0000 </r>
       <r>   -7.1208    1.0000 </r>
       <r>   -7.1119    1.0000 </r>
       <r>   -7.0021    1.0000 </r>
       <r>   -3.2320    1.0000 </r>
       <r>   -3.1978    1.0000 </r>
       <r>   -3.1535    1.0000 </r>
       <r>   -3.0133    1.0000 </r>
       <r>   -2.7829    1.0000 </r>
       <r>   -2.6385    1.0000 </r>
       <r>   -2.2114    1.0000 </r>
       <r>   -2.0707    1.0000 </r>
       <r>   -2.0493    1.0000 </r>
       <r>   -2.0405    1.0000 </r>
       <r>   -1.9633    1.0000 </r>
       <r>   -1.7190    1.0000 </r>
       <r>   -1.7011    1.0000 </r>
       <r>   -1.6501    1.0000 </r>
       <r>   -1.5116    1.0000 </r>
       <r>   -1.4891    1.0000 </r>
       <r>   -1.4481    1.0000 </r>
       <r>   -1.4064    1.0000 </r>
       <r>   -1.3768    1.0000 </r>
       <r>   -1.3760    1.0000 </r>
       <r>   -1.3615    1.0000 </r>
       <r>   -1.3465    1.0000 </r>
       <r>   -1.3003    1.0000 </r>
       <r>   -1.2835    1.0000 </r>
       <r>   -1.2504    1.0000 </r>
       <r>   -1.2437    1.0000 </r>
       <r>   -1.2037    1.0000 </r>
       <r>   -1.1835    1.0000 </r>
       <r>   -1.1633    1.0000 </r>
       <r>   -1.1046    1.0000 </r>
       <r>   -1.0453    1.0000 </r>
       <r>   -1.0001    1.0000 </r>
       <r>   -0.8351    1.0000 </r>
       <r>   -0.6792    1.0000 </r>
       <r>   -0.3954    1.0000 </r>
       <r>   -0.1094    1.0000 </r>
       <r>    2.9904    0.0000 </r>
       <r>    3.0521    0.0000 </r>
       <r>    3.1571    0.0000 </r>
       <r>    3.4429    0.0000 </r>
       <r>    3.8563    0.0000 </r>
       <r>    4.1958    0.0000 </r>
       <r>    4.8019    0.0000 </r>
       <r>    5.2096    0.0000 </r>
       <r>    5.5051    0.0000 </r>
       <r>    5.9222    0.0000 </r>
       <r>    5.9536    0.0000 </r>
       <r>    5.9886    0.0000 </r>
       <r>    6.1148    0.0000 </r>
       <r>    6.3401    0.0000 </r>
       <r>    6.4099    0.0000 </r>
       <r>    6.5756    0.0000 </r>
       <r>    6.6298    0.0000 </r>
       <r>    6.6925    0.0000 </r>
       <r>    6.7169    0.0000 </r>
       <r>    6.8673    0.0000 </r>
       <r>    6.9812    0.0000 </r>
       <r>    6.9943    0.0000 </r>
       <r>    7.1152    0.0000 </r>
       <r>    7.2322    0.0000 </r>
      </set>
      <set comment="kpoint 7">
       <r>  -20.7534    1.0000 </r>
       <r>  -20.7534    1.0000 </r>
       <r>  -20.7510    1.0000 </r>
       <r>  -20.7510    1.0000 </r>
       <r>  -16.4561    1.0000 </r>
       <r>  -16.4561    1.0000 </r>
       <r>  -16.4548    1.0000 </r>
       <r>  -16.4548    1.0000 </r>
       <r>  -16.4411    1.0000 </r>
       <r>  -16.4411    1.0000 </r>
       <r>  -16.4151    1.0000 </r>
       <r>  -16.4151    1.0000 </r>
       <r>  -16.3394    1.0000 </r>
       <r>  -16.3394    1.0000 </r>
       <r>  -16.3391    1.0000 </r>
       <r>  -16.3391    1.0000 </r>
       <r>  -16.3311    1.0000 </r>
       <r>  -16.3311    1.0000 </r>
       <r>  -16.3305    1.0000 </r>
       <r>  -16.3305    1.0000 </r>
       <r>  -16.3228    1.0000 </r>
       <r>  -16.3228    1.0000 </r>
       <r>  -16.3223    1.0000 </r>
       <r>  -16.3223    1.0000 </r>
       <r>  -14.2180    1.0000 </r>
       <r>  -14.2180    1.0000 </r>
       <r>  -14.1003    1.0000 </r>
       <r>  -14.1003    1.0000 </r>
       <r>  -13.9354    1.0000 </r>
       <r>  -13.9354    1.0000 </r>
       <r>  -13.8921    1.0000 </r>
       <r>  -13.8921    1.0000 </r>
       <r>  -13.8567    1.0000 </r>
       <r>  -13.8567    1.0000 </r>
       <r>  -13.7964    1.0000 </r>
       <r>  -13.7964    1.0000 </r>
       <r>   -7.7153    1.0000 </r>
       <r>   -7.7153    1.0000 </r>
       <r>   -7.2401    1.0000 </r>
       <r>   -7.2401    1.0000 </r>
       <r>   -7.1906    1.0000 </r>
       <r>   -7.1906    1.0000 </r>
       <r>   -7.1644    1.0000 </r>
       <r>   -7.1644    1.0000 </r>
       <r>   -7.1451    1.0000 </r>
       <r>   -7.1451    1.0000 </r>
       <r>   -7.1410    1.0000 </r>
       <r>   -7.1410    1.0000 </r>
       <r>   -7.1257    1.0000 </r>
       <r>   -7.1257    1.0000 </r>
       <r>   -7.1153    1.0000 </r>
       <r>   -7.1153    1.0000 </r>
       <r>   -2.9246    1.0000 </r>
       <r>   -2.9246    1.0000 </r>
       <r>   -2.7388    1.0000 </r>
       <r>   -2.7388    1.0000 </r>
       <r>   -2.4365    1.0000 </r>
       <r>   -2.4365    1.0000 </r>
       <r>   -2.3612    1.0000 </r>
       <r>   -2.3612    1.0000 </r>
       <r>   -2.1818    1.0000 </r>
       <r>   -2.1818    1.0000 </r>
       <r>   -1.9895    1.0000 </r>
       <r>   -1.9895    1.0000 </r>
       <r>   -1.6747    1.0000 </r>
       <r>   -1.6747    1.0000 </r>
       <r>   -1.6412    1.0000 </r>
       <r>   -1.6412    1.0000 </r>
       <r>   -1.5098    1.0000 </r>
       <r>   -1.5098    1.0000 </r>
       <r>   -1.4453    1.0000 </r>
       <r>   -1.4453    1.0000 </r>
       <r>   -1.3315    1.0000 </r>
       <r>   -1.3315    1.0000 </r>
       <r>   -1.3015    1.0000 </r>
       <r>   -1.3015    1.0000 </r>
       <r>   -1.1825    1.0000 </r>
       <r>   -1.1825    1.0000 </r>
       <r>   -1.1269    1.0000 </r>
       <r>   -1.1269    1.0000 </r>
       <r>   -1.1107    1.0000 </r>
       <r>   -1.1107    1.0000 </r>
       <r>   -1.0710    1.0000 </r>
       <r>   -1.0710    1.0000 </r>
       <r>   -0.8790    1.0000 </r>
       <r>   -0.8790    1.0000 </r>
       <r>   -0.6455    1.0000 </r>
       <r>   -0.6455    1.0000 </r>
       <r>    3.7109    0.0000 </r>
       <r>    3.7109    0.0000 </r>
       <r>    3.8532    0.0000 </r>
       <r>    3.8532    0.0000 </r>
       <r>    4.4174    0.0000 </r>
       <r>    4.4174    0.0000 </r>
       <r>    4.7092    0.0000 </r>
       <r>    4.7092    0.0000 </r>
       <r>    5.0736    0.0000 </r>
       <r>    5.0736    0.0000 </r>
       <r>    5.2725    0.0000 </r>
       <r>    5.2725    0.0000 </r>
       <r>    6.0900    0.0000 </r>
       <r>    6.0900    0.0000 </r>
       <r>    6.2998    0.0000 </r>
       <r>    6.2998    0.0000 </r>
       <r>    6.4768    0.0000 </r>
       <r>    6.4768    0.0000 </r>
       <r>    6.6683    0.0000 </r>
       <r>    6.6683    0.0000 </r>
       <r>    6.9118    0.0000 </r>
       <r>    6.9118    0.0000 </r>
       <r>    7.1043    0.0000 </r>
       <r>    7.1044    0.0000 </r>
      </set>
      <set comment="kpoint 8">
       <r>  -20.7528    1.0000 </r>
       <r>  -20.7528    1.0000 </r>
       <r>  -20.7516    1.0000 </r>
       <r>  -20.7516    1.0000 </r>
       <r>  -16.4662    1.0000 </r>
       <r>  -16.4662    1.0000 </r>
       <r>  -16.4549    1.0000 </r>
       <r>  -16.4549    1.0000 </r>
       <r>  -16.4311    1.0000 </r>
       <r>  -16.4311    1.0000 </r>
       <r>  -16.4152    1.0000 </r>
       <r>  -16.4152    1.0000 </r>
       <r>  -16.3393    1.0000 </r>
       <r>  -16.3393    1.0000 </r>
       <r>  -16.3392    1.0000 </r>
       <r>  -16.3392    1.0000 </r>
       <r>  -16.3309    1.0000 </r>
       <r>  -16.3309    1.0000 </r>
       <r>  -16.3307    1.0000 </r>
       <r>  -16.3307    1.0000 </r>
       <r>  -16.3227    1.0000 </r>
       <r>  -16.3227    1.0000 </r>
       <r>  -16.3225    1.0000 </r>
       <r>  -16.3225    1.0000 </r>
       <r>  -14.1767    1.0000 </r>
       <r>  -14.1767    1.0000 </r>
       <r>  -14.0965    1.0000 </r>
       <r>  -14.0965    1.0000 </r>
       <r>  -13.9893    1.0000 </r>
       <r>  -13.9893    1.0000 </r>
       <r>  -13.9153    1.0000 </r>
       <r>  -13.9153    1.0000 </r>
       <r>  -13.8298    1.0000 </r>
       <r>  -13.8298    1.0000 </r>
       <r>  -13.7967    1.0000 </r>
       <r>  -13.7967    1.0000 </r>
       <r>   -7.5900    1.0000 </r>
       <r>   -7.5900    1.0000 </r>
       <r>   -7.3514    1.0000 </r>
       <r>   -7.3514    1.0000 </r>
       <r>   -7.1774    1.0000 </r>
       <r>   -7.1774    1.0000 </r>
       <r>   -7.1587    1.0000 </r>
       <r>   -7.1587    1.0000 </r>
       <r>   -7.1455    1.0000 </r>
       <r>   -7.1455    1.0000 </r>
       <r>   -7.1407    1.0000 </r>
       <r>   -7.1407    1.0000 </r>
       <r>   -7.1308    1.0000 </r>
       <r>   -7.1308    1.0000 </r>
       <r>   -7.1100    1.0000 </r>
       <r>   -7.1100    1.0000 </r>
       <r>   -3.0967    1.0000 </r>
       <r>   -3.0967    1.0000 </r>
       <r>   -2.7498    1.0000 </r>
       <r>   -2.7498    1.0000 </r>
       <r>   -2.4907    1.0000 </r>
       <r>   -2.4907    1.0000 </r>
       <r>   -2.3761    1.0000 </r>
       <r>   -2.3761    1.0000 </r>
       <r>   -2.1307    1.0000 </r>
       <r>   -2.1307    1.0000 </r>
       <r>   -1.9801    1.0000 </r>
       <r>   -1.9801    1.0000 </r>
       <r>   -1.7114    1.0000 </r>
       <r>   -1.7114    1.0000 </r>
       <r>   -1.6331    1.0000 </r>
       <r>   -1.6331    1.0000 </r>
       <r>   -1.4856    1.0000 </r>
       <r>   -1.4856    1.0000 </r>
       <r>   -1.4045    1.0000 </r>
       <r>   -1.4045    1.0000 </r>
       <r>   -1.3397    1.0000 </r>
       <r>   -1.3397    1.0000 </r>
       <r>   -1.2572    1.0000 </r>
       <r>   -1.2572    1.0000 </r>
       <r>   -1.2071    1.0000 </r>
       <r>   -1.2071    1.0000 </r>
       <r>   -1.1386    1.0000 </r>
       <r>   -1.1386    1.0000 </r>
       <r>   -1.0941    1.0000 </r>
       <r>   -1.0941    1.0000 </r>
       <r>   -1.0459    1.0000 </r>
       <r>   -1.0459    1.0000 </r>
       <r>   -0.8063    1.0000 </r>
       <r>   -0.8063    1.0000 </r>
       <r>   -0.5654    1.0000 </r>
       <r>   -0.5654    1.0000 </r>
       <r>    3.2406    0.0000 </r>
       <r>    3.2406    0.0000 </r>
       <r>    4.0082    0.0000 </r>
       <r>    4.0082    0.0000 </r>
       <r>    4.4882    0.0000 </r>
       <r>    4.4882    0.0000 </r>
       <r>    4.6047    0.0000 </r>
       <r>    4.6047    0.0000 </r>
       <r>    5.0301    0.0000 </r>
       <r>    5.0301    0.0000 </r>
       <r>    5.7174    0.0000 </r>
       <r>    5.7174    0.0000 </r>
       <r>    6.3369    0.0000 </r>
       <r>    6.3369    0.0000 </r>
       <r>    6.4421    0.0000 </r>
       <r>    6.4421    0.0000 </r>
       <r>    6.6324    0.0000 </r>
       <r>    6.6324    0.0000 </r>
       <r>    6.8277    0.0000 </r>
       <r>    6.8277    0.0000 </r>
       <r>    6.8386    0.0000 </r>
       <r>    6.8386    0.0000 </r>
       <r>    7.0255    0.0000 </r>
       <r>    7.0255    0.0000 </r>
      </set>
     </set>
    </set>
   </array>
  </eigenvalues>
  <separator name="orbital magnetization" >
   <v name="MAGDIPOLOUT">      0.00000000      0.00000000      0.00000000</v>
  </separator>
  <dos>
   <i name="efermi">      0.44761823 </i>
   <total>
    <array>
     <dimension dim="1">gridpoints</dimension>
     <dimension dim="2">spin</dimension>
     <field>energy</field>
     <field>total</field>
     <field>integrated</field>
     <set>
      <set comment="spin 1">
       <r>   -22.1545     0.0000     0.0000 </r>
       <r>   -22.0518     0.0000     0.0000 </r>
       <r>   -21.9492     0.0000     0.0000 </r>
       <r>   -21.8466     0.0000     0.0000 </r>
       <r>   -21.7440     0.0000     0.0000 </r>
       <r>   -21.6414     0.0000     0.0000 </r>
       <r>   -21.5387     0.0000     0.0000 </r>
       <r>   -21.4361     0.0000     0.0000 </r>
       <r>   -21.3335     0.0000     0.0000 </r>
       <r>   -21.2309     0.0000     0.0000 </r>
       <r>   -21.1283     0.0000     0.0000 </r>
       <r>   -21.0256     0.0000     0.0000 </r>
       <r>   -20.9230     0.0000     0.0000 </r>
       <r>   -20.8204     0.0000     0.0000 </r>
       <r>   -20.7178    77.9574     8.0000 </r>
       <r>   -20.6152     0.0000     8.0000 </r>
       <r>   -20.5125     0.0000     8.0000 </r>
       <r>   -20.4099     0.0000     8.0000 </r>
       <r>   -20.3073     0.0000     8.0000 </r>
       <r>   -20.2047     0.0000     8.0000 </r>
       <r>   -20.1021     0.0000     8.0000 </r>
       <r>   -19.9994     0.0000     8.0000 </r>
       <r>   -19.8968     0.0000     8.0000 </r>
       <r>   -19.7942     0.0000     8.0000 </r>
       <r>   -19.6916     0.0000     8.0000 </r>
       <r>   -19.5890     0.0000     8.0000 </r>
       <r>   -19.4863     0.0000     8.0000 </r>
       <r>   -19.3837     0.0000     8.0000 </r>
       <r>   -19.2811     0.0000     8.0000 </r>
       <r>   -19.1785     0.0000     8.0000 </r>
       <r>   -19.0759     0.0000     8.0000 </r>
       <r>   -18.9732     0.0000     8.0000 </r>
       <r>   -18.8706     0.0000     8.0000 </r>
       <r>   -18.7680     0.0000     8.0000 </r>
       <r>   -18.6654     0.0000     8.0000 </r>
       <r>   -18.5628     0.0000     8.0000 </r>
       <r>   -18.4601     0.0000     8.0000 </r>
       <r>   -18.3575     0.0000     8.0000 </r>
       <r>   -18.2549     0.0000     8.0000 </r>
       <r>   -18.1523     0.0000     8.0000 </r>
       <r>   -18.0497     0.0000     8.0000 </r>
       <r>   -17.9470     0.0000     8.0000 </r>
       <r>   -17.8444     0.0000     8.0000 </r>
       <r>   -17.7418     0.0000     8.0000 </r>
       <r>   -17.6392     0.0000     8.0000 </r>
       <r>   -17.5366     0.0000     8.0000 </r>
       <r>   -17.4339     0.0000     8.0000 </r>
       <r>   -17.3313     0.0000     8.0000 </r>
       <r>   -17.2287     0.0000     8.0000 </r>
       <r>   -17.1261     0.0000     8.0000 </r>
       <r>   -17.0235     0.0000     8.0000 </r>
       <r>   -16.9208     0.0000     8.0000 </r>
       <r>   -16.8182     0.0000     8.0000 </r>
       <r>   -16.7156     0.0000     8.0000 </r>
       <r>   -16.6130     0.0000     8.0000 </r>
       <r>   -16.5104     0.0036     8.0004 </r>
       <r>   -16.4077   139.4539    22.4221 </r>
       <r>   -16.3051   233.3286    47.9442 </r>
       <r>   -16.2025     0.0000    48.0000 </r>
       <r>   -16.0999     0.0000    48.0000 </r>
       <r>   -15.9973     0.0000    48.0000 </r>
       <r>   -15.8946     0.0000    48.0000 </r>
       <r>   -15.7920     0.0000    48.0000 </r>
       <r>   -15.6894     0.0000    48.0000 </r>
       <r>   -15.5868     0.0000    48.0000 </r>
       <r>   -15.4842     0.0000    48.0000 </r>
       <r>   -15.3815     0.0000    48.0000 </r>
       <r>   -15.2789     0.0000    48.0000 </r>
       <r>   -15.1763     0.0000    48.0000 </r>
       <r>   -15.0737     0.0000    48.0000 </r>
       <r>   -14.9711     0.0000    48.0000 </r>
       <r>   -14.8684     0.0000    48.0000 </r>
       <r>   -14.7658     0.0000    48.0000 </r>
       <r>   -14.6632     0.0000    48.0000 </r>
       <r>   -14.5606     0.0000    48.0000 </r>
       <r>   -14.4580     0.0000    48.0000 </r>
       <r>   -14.3553     0.0000    48.0000 </r>
       <r>   -14.2527     7.4519    48.7647 </r>
       <r>   -14.1501    22.7145    51.1088 </r>
       <r>   -14.0475    25.9573    54.6637 </r>
       <r>   -13.9449    47.1193    60.1693 </r>
       <r>   -13.8422    45.2501    66.0880 </r>
       <r>   -13.7396    36.2910    71.1686 </r>
       <r>   -13.6370     0.0000    72.0000 </r>
       <r>   -13.5344     0.0000    72.0000 </r>
       <r>   -13.4318     0.0000    72.0000 </r>
       <r>   -13.3291     0.0000    72.0000 </r>
       <r>   -13.2265     0.0000    72.0000 </r>
       <r>   -13.1239     0.0000    72.0000 </r>
       <r>   -13.0213     0.0000    72.0000 </r>
       <r>   -12.9187     0.0000    72.0000 </r>
       <r>   -12.8160     0.0000    72.0000 </r>
       <r>   -12.7134     0.0000    72.0000 </r>
       <r>   -12.6108     0.0000    72.0000 </r>
       <r>   -12.5082     0.0000    72.0000 </r>
       <r>   -12.4056     0.0000    72.0000 </r>
       <r>   -12.3029     0.0000    72.0000 </r>
       <r>   -12.2003     0.0000    72.0000 </r>
       <r>   -12.0977     0.0000    72.0000 </r>
       <r>   -11.9951     0.0000    72.0000 </r>
       <r>   -11.8925     0.0000    72.0000 </r>
       <r>   -11.7898     0.0000    72.0000 </r>
       <r>   -11.6872     0.0000    72.0000 </r>
       <r>   -11.5846     0.0000    72.0000 </r>
       <r>   -11.4820     0.0000    72.0000 </r>
       <r>   -11.3794     0.0000    72.0000 </r>
       <r>   -11.2767     0.0000    72.0000 </r>
       <r>   -11.1741     0.0000    72.0000 </r>
       <r>   -11.0715     0.0000    72.0000 </r>
       <r>   -10.9689     0.0000    72.0000 </r>
       <r>   -10.8662     0.0000    72.0000 </r>
       <r>   -10.7636     0.0000    72.0000 </r>
       <r>   -10.6610     0.0000    72.0000 </r>
       <r>   -10.5584     0.0000    72.0000 </r>
       <r>   -10.4558     0.0000    72.0000 </r>
       <r>   -10.3531     0.0000    72.0000 </r>
       <r>   -10.2505     0.0000    72.0000 </r>
       <r>   -10.1479     0.0000    72.0000 </r>
       <r>   -10.0453     0.0000    72.0000 </r>
       <r>    -9.9427     0.0000    72.0000 </r>
       <r>    -9.8400     0.0000    72.0000 </r>
       <r>    -9.7374     0.0000    72.0000 </r>
       <r>    -9.6348     0.0000    72.0000 </r>
       <r>    -9.5322     0.0000    72.0000 </r>
       <r>    -9.4296     0.0000    72.0000 </r>
       <r>    -9.3269     0.0000    72.0000 </r>
       <r>    -9.2243     0.0000    72.0000 </r>
       <r>    -9.1217     0.0000    72.0000 </r>
       <r>    -9.0191     0.0000    72.0000 </r>
       <r>    -8.9165     0.0000    72.0000 </r>
       <r>    -8.8138     0.0000    72.0000 </r>
       <r>    -8.7112     0.0000    72.0000 </r>
       <r>    -8.6086     0.0000    72.0000 </r>
       <r>    -8.5060     0.0000    72.0000 </r>
       <r>    -8.4034     0.0000    72.0000 </r>
       <r>    -8.3007     0.0000    72.0000 </r>
       <r>    -8.1981     0.0000    72.0000 </r>
       <r>    -8.0955     1.0827    72.1111 </r>
       <r>    -7.9929     0.0000    72.1111 </r>
       <r>    -7.8903     6.4965    72.7778 </r>
       <r>    -7.7876     4.3310    73.2222 </r>
       <r>    -7.6850     8.6621    74.1111 </r>
       <r>    -7.5824    12.0919    75.3520 </r>
       <r>    -7.4798     2.1821    75.7795 </r>
       <r>    -7.3772     4.3315    76.4446 </r>
       <r>    -7.2745    13.4278    77.8225 </r>
       <r>    -7.1719    54.4439    83.8093 </r>
       <r>    -7.0693   133.1714   102.7777 </r>
       <r>    -6.9667     4.3310   103.2222 </r>
       <r>    -6.8641     6.4957   103.8888 </r>
       <r>    -6.7614     0.0000   103.8889 </r>
       <r>    -6.6588     0.0000   103.8889 </r>
       <r>    -6.5562     0.8201   103.9730 </r>
       <r>    -6.4536     0.0000   104.0000 </r>
       <r>    -6.3510     0.0000   104.0000 </r>
       <r>    -6.2483     0.0000   104.0000 </r>
       <r>    -6.1457     0.0000   104.0000 </r>
       <r>    -6.0431     0.0000   104.0000 </r>
       <r>    -5.9405     0.0000   104.0000 </r>
       <r>    -5.8379     0.0000   104.0000 </r>
       <r>    -5.7352     0.0000   104.0000 </r>
       <r>    -5.6326     0.0000   104.0000 </r>
       <r>    -5.5300     0.0000   104.0000 </r>
       <r>    -5.4274     0.0000   104.0000 </r>
       <r>    -5.3248     0.0000   104.0000 </r>
       <r>    -5.2221     0.0000   104.0000 </r>
       <r>    -5.1195     0.0000   104.0000 </r>
       <r>    -5.0169     0.0000   104.0000 </r>
       <r>    -4.9143     0.0000   104.0000 </r>
       <r>    -4.8117     0.0000   104.0000 </r>
       <r>    -4.7090     0.0000   104.0000 </r>
       <r>    -4.6064     0.0000   104.0000 </r>
       <r>    -4.5038     0.0000   104.0000 </r>
       <r>    -4.4012     0.0000   104.0000 </r>
       <r>    -4.2986     0.0000   104.0000 </r>
       <r>    -4.1959     0.0000   104.0000 </r>
       <r>    -4.0933     0.0000   104.0000 </r>
       <r>    -3.9907     0.0000   104.0000 </r>
       <r>    -3.8881     0.0000   104.0000 </r>
       <r>    -3.7855     0.0000   104.0000 </r>
       <r>    -3.6828     0.0000   104.0000 </r>
       <r>    -3.5802     0.0000   104.0000 </r>
       <r>    -3.4776     0.0000   104.0000 </r>
       <r>    -3.3750     0.0000   104.0000 </r>
       <r>    -3.2724     1.5408   104.1581 </r>
       <r>    -3.1697    16.5863   105.9243 </r>
       <r>    -3.0671    12.2074   108.1416 </r>
       <r>    -2.9645     6.4939   108.8886 </r>
       <r>    -2.8619     7.2593   109.6338 </r>
       <r>    -2.7593    11.6602   111.4188 </r>
       <r>    -2.6566     4.3535   113.3356 </r>
       <r>    -2.5540     2.1655   114.0000 </r>
       <r>    -2.4514    10.1821   115.0449 </r>
       <r>    -2.3488    21.3571   117.7474 </r>
       <r>    -2.2462     4.3320   118.2223 </r>
       <r>    -2.1435    13.7948   119.6380 </r>
       <r>    -2.0409    19.3009   122.7584 </r>
       <r>    -1.9383    28.2176   126.3401 </r>
       <r>    -1.8357     3.4507   126.9097 </r>
       <r>    -1.7331     8.7476   128.1199 </r>
       <r>    -1.6304    32.7528   133.3611 </r>
       <r>    -1.5278     5.8994   134.7166 </r>
       <r>    -1.4252    41.0074   140.2082 </r>
       <r>    -1.3226    57.1946   148.2027 </r>
       <r>    -1.2200    39.3821   153.7081 </r>
       <r>    -1.1173    44.8079   159.8204 </r>
       <r>    -1.0147    46.8347   166.5846 </r>
       <r>    -0.9121     6.3539   168.0965 </r>
       <r>    -0.8095    11.7975   169.4329 </r>
       <r>    -0.7069     8.5708   171.2129 </r>
       <r>    -0.6042    11.8748   172.4408 </r>
       <r>    -0.5016    15.6638   174.0519 </r>
       <r>    -0.3990     1.3266   174.3584 </r>
       <r>    -0.2964     0.0000   174.6667 </r>
       <r>    -0.1938     0.1593   174.6830 </r>
       <r>    -0.0911     7.6085   175.5586 </r>
       <r>     0.0115     2.1655   175.8889 </r>
       <r>     0.1141     0.0000   175.8889 </r>
       <r>     0.2167     0.0000   175.8889 </r>
       <r>     0.3193     0.0000   175.8889 </r>
       <r>     0.4220     1.0742   175.9991 </r>
       <r>     0.5246     0.0000   176.0000 </r>
       <r>     0.6272     0.0000   176.0000 </r>
       <r>     0.7298     0.0000   176.0000 </r>
       <r>     0.8324     0.0000   176.0000 </r>
       <r>     0.9351     0.0000   176.0000 </r>
       <r>     1.0377     0.0000   176.0000 </r>
       <r>     1.1403     0.0000   176.0000 </r>
       <r>     1.2429     0.0000   176.0000 </r>
       <r>     1.3455     0.0000   176.0000 </r>
       <r>     1.4482     0.0000   176.0000 </r>
       <r>     1.5508     0.0000   176.0000 </r>
       <r>     1.6534     0.0000   176.0000 </r>
       <r>     1.7560     0.0000   176.0000 </r>
       <r>     1.8586     0.0000   176.0000 </r>
       <r>     1.9613     0.0000   176.0000 </r>
       <r>     2.0639     0.0000   176.0000 </r>
       <r>     2.1665     0.0000   176.0000 </r>
       <r>     2.2691     0.0000   176.0000 </r>
       <r>     2.3717     0.0000   176.0000 </r>
       <r>     2.4744     0.0000   176.0000 </r>
       <r>     2.5770     0.0000   176.0000 </r>
       <r>     2.6796     1.0801   176.1108 </r>
       <r>     2.7822     1.0827   176.2222 </r>
       <r>     2.8848     2.0361   176.4312 </r>
       <r>     2.9875     6.8753   177.1500 </r>
       <r>     3.0901     5.4135   178.0000 </r>
       <r>     3.1927     6.4964   178.6667 </r>
       <r>     3.2953    12.9929   180.0000 </r>
       <r>     3.3979     1.0816   180.1110 </r>
       <r>     3.5006     5.4137   180.8889 </r>
       <r>     3.6032     6.2561   181.5309 </r>
       <r>     3.7058     3.1835   181.8822 </r>
       <r>     3.8084     2.5788   182.4869 </r>
       <r>     3.9110     8.6620   183.5556 </r>
       <r>     4.0137    13.2673   184.9170 </r>
       <r>     4.1163     2.1655   185.3333 </r>
       <r>     4.2189     6.4941   185.9998 </r>
       <r>     4.3215     2.1655   186.2222 </r>
       <r>     4.4241     5.8062   186.8181 </r>
       <r>     4.5268     8.6619   188.0000 </r>
       <r>     4.6294     8.6599   188.8887 </r>
       <r>     4.7320     8.6592   189.7775 </r>
       <r>     4.8346     4.3371   190.2229 </r>
       <r>     4.9372     2.5587   190.7070 </r>
       <r>     5.0399    11.7198   192.2027 </r>
       <r>     5.1425     6.4964   193.0000 </r>
       <r>     5.2451    12.2573   194.2578 </r>
       <r>     5.3477     8.6617   195.2222 </r>
       <r>     5.4503     0.5537   195.2790 </r>
       <r>     5.5530     4.3310   195.8889 </r>
       <r>     5.6556     2.5485   196.1504 </r>
       <r>     5.7582    11.9102   197.4444 </r>
       <r>     5.8608     8.4115   198.3076 </r>
       <r>     5.9634     9.3889   199.2968 </r>
       <r>     6.0661     4.8297   199.8290 </r>
       <r>     6.1687    18.9665   202.2799 </r>
       <r>     6.2713     5.3665   202.9952 </r>
       <r>     6.3739    20.7831   205.1328 </r>
       <r>     6.4766    23.0201   208.0290 </r>
       <r>     6.5792     9.4977   209.6413 </r>
       <r>     6.6818    27.9646   212.6475 </r>
       <r>     6.7844    12.2267   214.6992 </r>
       <r>     6.8870    22.9167   217.2406 </r>
       <r>     6.9897    17.9296   219.5067 </r>
       <r>     7.0923    21.4957   222.0948 </r>
       <r>     7.1949     8.6594   223.5556 </r>
       <r>     7.2975     4.3310   224.0000 </r>
       <r>     7.4001     0.0000   224.0000 </r>
       <r>     7.5028     0.0000   224.0000 </r>
       <r>     7.6054     0.0000   224.0000 </r>
       <r>     7.7080     0.0000   224.0000 </r>
       <r>     7.8106     0.0000   224.0000 </r>
       <r>     7.9132     0.0000   224.0000 </r>
       <r>     8.0159     0.0000   224.0000 </r>
       <r>     8.1185     0.0000   224.0000 </r>
       <r>     8.2211     0.0000   224.0000 </r>
       <r>     8.3237     0.0000   224.0000 </r>
       <r>     8.4263     0.0000   224.0000 </r>
       <r>     8.5290     0.0000   224.0000 </r>
       <r>     8.6316     0.0000   224.0000 </r>
      </set>
     </set>
    </array>
   </total>
   <partial>
    <array>
     <dimension dim="1">gridpoints</dimension>
     <dimension dim="2">spin</dimension>
     <dimension dim="3">ion</dimension>
     <field>energy</field>
     <field>  s  </field>
     <field>  p  </field>
     <field>  d  </field>
     <set>
      <set comment="ion 1">
       <set comment="spin 1">
        <r>   -22.1545     0.0000     0.0000     0.0000 </r>
[...]
        <r>  0.0000  0.0003  0.0003 </r>
        <r>  0.0003  0.0107  0.0002 </r>
        <r>  0.0001  0.0084  0.0003 </r>
        <r>  0.0028  0.1744  0.0016 </r>
        <r>  0.0028  0.1569  0.0018 </r>
        <r>  0.0004  0.0060  0.0009 </r>
        <r>  0.0001  0.0030  0.0014 </r>
        <r>  0.0003  0.0049  0.0008 </r>
        <r>  0.0002  0.0037  0.0017 </r>
        <r>  0.0136  0.0336  0.0074 </r>
        <r>  0.0009  0.0138  0.0007 </r>
        <r>  0.0000  0.0006  0.0000 </r>
        <r>  0.0007  0.0028  0.0003 </r>
        <r>  0.0008  0.0017  0.0005 </r>
        <r>  0.0001  0.0009  0.0001 </r>
        <r>  0.0135  0.0347  0.0072 </r>
        <r>  0.0009  0.0135  0.0007 </r>
       </set>
       <set comment="band 93">
        <r>  0.0000  0.0001  0.0002 </r>
        <r>  0.0004  0.0002  0.0005 </r>
        <r>  0.0000  0.0000  0.0005 </r>
        <r>  0.0000  0.0008  0.0017 </r>
        <r>  0.0025  0.0909  0.0013 </r>
        <r>  0.0022  0.0784  0.0012 </r>
        <r>  0.0025  0.0692  0.0013 </r>
        <r>  0.0029  0.0794  0.0014 </r>
        <r>  0.0106  0.0008  0.0044 </r>
        <r>  0.0000  0.0691  0.0003 </r>
        <r>  0.0116  0.0010  0.0049 </r>
        <r>  0.0000  0.0618  0.0004 </r>
        <r>  0.0002  0.0058  0.0010 </r>
        <r>  0.0000  0.0016  0.0019 </r>
        <r>  0.0000  0.0012  0.0020 </r>
        <r>  0.0005  0.0030  0.0009 </r>
        <r>  0.0003  0.0063  0.0011 </r>
        <r>  0.0000  0.0018  0.0021 </r>
        <r>  0.0005  0.0025  0.0008 </r>
        <r>  0.0000  0.0010  0.0018 </r>
       </set>
       <set comment="band 94">
        <r>  0.0000  0.0008  0.0017 </r>
        <r>  0.0000  0.0000  0.0005 </r>
        <r>  0.0004  0.0002  0.0005 </r>
        <r>  0.0000  0.0001  0.0002 </r>
        <r>  0.0029  0.0794  0.0014 </r>
        <r>  0.0025  0.0692  0.0013 </r>
        <r>  0.0022  0.0784  0.0012 </r>
        <r>  0.0025  0.0909  0.0013 </r>
        <r>  0.0000  0.0618  0.0004 </r>
        <r>  0.0116  0.0010  0.0049 </r>
        <r>  0.0000  0.0691  0.0003 </r>
        <r>  0.0106  0.0008  0.0044 </r>
        <r>  0.0005  0.0030  0.0009 </r>
        <r>  0.0000  0.0012  0.0020 </r>
        <r>  0.0000  0.0016  0.0019 </r>
        <r>  0.0002  0.0058  0.0010 </r>
        <r>  0.0005  0.0025  0.0008 </r>
        <r>  0.0000  0.0010  0.0018 </r>
        <r>  0.0003  0.0063  0.0011 </r>
        <r>  0.0000  0.0018  0.0021 </r>
       </set>
       <set comment="band 95">
        <r>  0.0000  0.0001  0.0004 </r>
        <r>  0.0001  0.0010  0.0011 </r>
        <r>  0.0000  0.0002  0.0003 </r>
        <r>  0.0002  0.0003  0.0004 </r>
        <r>  0.0027  0.0661  0.0012 </r>
        <r>  0.0030  0.0794  0.0015 </r>
        <r>  0.0026  0.0957  0.0012 </r>
        <r>  0.0023  0.0799  0.0011 </r>
        <r>  0.0113  0.0003  0.0050 </r>
        <r>  0.0000  0.0519  0.0005 </r>
        <r>  0.0094  0.0003  0.0041 </r>
        <r>  0.0000  0.0627  0.0002 </r>
        <r>  0.0006  0.0064  0.0019 </r>
        <r>  0.0001  0.0034  0.0007 </r>
        <r>  0.0001  0.0059  0.0009 </r>
        <r>  0.0002  0.0065  0.0021 </r>
        <r>  0.0005  0.0053  0.0015 </r>
        <r>  0.0001  0.0026  0.0006 </r>
        <r>  0.0003  0.0077  0.0025 </r>
        <r>  0.0002  0.0067  0.0010 </r>
       </set>
       <set comment="band 96">
        <r>  0.0002  0.0003  0.0004 </r>
        <r>  0.0000  0.0002  0.0003 </r>
        <r>  0.0001  0.0010  0.0011 </r>
        <r>  0.0000  0.0001  0.0004 </r>
        <r>  0.0023  0.0799  0.0011 </r>
        <r>  0.0026  0.0957  0.0012 </r>
        <r>  0.0030  0.0794  0.0015 </r>
        <r>  0.0027  0.0661  0.0012 </r>
        <r>  0.0000  0.0627  0.0002 </r>
        <r>  0.0094  0.0003  0.0041 </r>
        <r>  0.0000  0.0519  0.0005 </r>
        <r>  0.0113  0.0003  0.0050 </r>
        <r>  0.0002  0.0065  0.0021 </r>
        <r>  0.0001  0.0059  0.0009 </r>
        <r>  0.0001  0.0034  0.0007 </r>
        <r>  0.0006  0.0064  0.0019 </r>
        <r>  0.0003  0.0077  0.0025 </r>
        <r>  0.0002  0.0067  0.0010 </r>
        <r>  0.0005  0.0053  0.0015 </r>
        <r>  0.0001  0.0026  0.0006 </r>
       </set>
       <set comment="band 97">
        <r>  0.0000  0.0000  0.0015 </r>
        <r>  0.0001  0.0005  0.0007 </r>
        <r>  0.0000  0.0001  0.0029 </r>
        <r>  0.0003  0.0004  0.0006 </r>
        <r>  0.0025  0.0716  0.0008 </r>
        <r>  0.0015  0.0603  0.0009 </r>
        <r>  0.0028  0.0762  0.0009 </r>
        <r>  0.0017  0.1003  0.0011 </r>
        <r>  0.0011  0.0049  0.0006 </r>
        <r>  0.0001  0.0088  0.0033 </r>
        <r>  0.0025  0.0038  0.0012 </r>
        <r>  0.0000  0.0044  0.0032 </r>
        <r>  0.0029  0.0443  0.0020 </r>
        <r>  0.0001  0.0014  0.0022 </r>
        <r>  0.0002  0.0018  0.0015 </r>
        <r>  0.0032  0.0304  0.0012 </r>
        <r>  0.0021  0.0331  0.0016 </r>
        <r>  0.0001  0.0010  0.0017 </r>
        <r>  0.0040  0.0416  0.0016 </r>
        <r>  0.0002  0.0022  0.0021 </r>
       </set>
       <set comment="band 98">
        <r>  0.0003  0.0004  0.0006 </r>
        <r>  0.0000  0.0001  0.0029 </r>
        <r>  0.0001  0.0005  0.0007 </r>
        <r>  0.0000  0.0000  0.0015 </r>
        <r>  0.0017  0.1003  0.0011 </r>
        <r>  0.0028  0.0762  0.0009 </r>
        <r>  0.0015  0.0603  0.0009 </r>
        <r>  0.0025  0.0716  0.0008 </r>
        <r>  0.0000  0.0044  0.0032 </r>
        <r>  0.0025  0.0038  0.0012 </r>
        <r>  0.0001  0.0088  0.0033 </r>
        <r>  0.0011  0.0049  0.0006 </r>
        <r>  0.0032  0.0304  0.0012 </r>
        <r>  0.0002  0.0018  0.0015 </r>
        <r>  0.0001  0.0014  0.0022 </r>
        <r>  0.0029  0.0443  0.0020 </r>
        <r>  0.0040  0.0416  0.0016 </r>
        <r>  0.0002  0.0022  0.0021 </r>
        <r>  0.0021  0.0331  0.0016 </r>
        <r>  0.0001  0.0010  0.0017 </r>
       </set>
       <set comment="band 99">
        <r>  0.0000  0.0001  0.0011 </r>
        <r>  0.0000  0.0001  0.0022 </r>
        <r>  0.0000  0.0001  0.0016 </r>
        <r>  0.0000  0.0000  0.0023 </r>
        <r>  0.0000  0.1249  0.0004 </r>
        <r>  0.0000  0.1449  0.0003 </r>
        <r>  0.0001  0.0211  0.0007 </r>
        <r>  0.0000  0.0183  0.0006 </r>
        <r>  0.0001  0.0013  0.0037 </r>
        <r>  0.0001  0.0034  0.0009 </r>
        <r>  0.0000  0.0011  0.0036 </r>
        <r>  0.0003  0.0017  0.0012 </r>
        <r>  0.0001  0.0003  0.0008 </r>
        <r>  0.0001  0.0135  0.0005 </r>
        <r>  0.0000  0.0863  0.0024 </r>
        <r>  0.0001  0.0020  0.0042 </r>
        <r>  0.0001  0.0018  0.0044 </r>
        <r>  0.0001  0.0879  0.0020 </r>
        <r>  0.0000  0.0005  0.0006 </r>
        <r>  0.0000  0.0118  0.0009 </r>
       </set>
       <set comment="band 100">
        <r>  0.0000  0.0000  0.0023 </r>
        <r>  0.0000  0.0001  0.0016 </r>
        <r>  0.0000  0.0001  0.0022 </r>
        <r>  0.0000  0.0001  0.0011 </r>
        <r>  0.0000  0.0183  0.0006 </r>
        <r>  0.0001  0.0211  0.0007 </r>
        <r>  0.0000  0.1449  0.0003 </r>
        <r>  0.0000  0.1249  0.0004 </r>
        <r>  0.0003  0.0017  0.0012 </r>
        <r>  0.0000  0.0011  0.0036 </r>
        <r>  0.0001  0.0034  0.0009 </r>
        <r>  0.0001  0.0013  0.0037 </r>
        <r>  0.0001  0.0020  0.0042 </r>
        <r>  0.0000  0.0863  0.0024 </r>
        <r>  0.0001  0.0135  0.0005 </r>
        <r>  0.0001  0.0003  0.0008 </r>
        <r>  0.0000  0.0005  0.0006 </r>
        <r>  0.0000  0.0118  0.0009 </r>
        <r>  0.0001  0.0018  0.0044 </r>
        <r>  0.0001  0.0879  0.0020 </r>
       </set>
       <set comment="band 101">
        <r>  0.0104  0.0044  0.0047 </r>
        <r>  0.0000  0.0009  0.0122 </r>
        <r>  0.0125  0.0055  0.0121 </r>
        <r>  0.0000  0.0010  0.0145 </r>
        <r>  0.0002  0.0047  0.0002 </r>
        <r>  0.0004  0.0081  0.0004 </r>
        <r>  0.0004  0.0081  0.0004 </r>
        <r>  0.0002  0.0048  0.0002 </r>
        <r>  0.0000  0.0066  0.0002 </r>
        <r>  0.0041  0.0068  0.0036 </r>
        <r>  0.0000  0.0061  0.0002 </r>
        <r>  0.0026  0.0054  0.0040 </r>
        <r>  0.0023  0.0045  0.0020 </r>
        <r>  0.0034  0.0014  0.0015 </r>
        <r>  0.0048  0.0031  0.0025 </r>
        <r>  0.0004  0.0037  0.0006 </r>
        <r>  0.0023  0.0045  0.0019 </r>
        <r>  0.0033  0.0014  0.0015 </r>
        <r>  0.0005  0.0038  0.0006 </r>
        <r>  0.0048  0.0031  0.0025 </r>
       </set>
       <set comment="band 102">
        <r>  0.0000  0.0010  0.0145 </r>
        <r>  0.0125  0.0055  0.0121 </r>
        <r>  0.0000  0.0009  0.0122 </r>
        <r>  0.0104  0.0044  0.0047 </r>
        <r>  0.0002  0.0048  0.0002 </r>
        <r>  0.0004  0.0081  0.0004 </r>
        <r>  0.0004  0.0081  0.0004 </r>
        <r>  0.0002  0.0047  0.0002 </r>
        <r>  0.0026  0.0054  0.0040 </r>
        <r>  0.0000  0.0061  0.0002 </r>
        <r>  0.0041  0.0068  0.0036 </r>
        <r>  0.0000  0.0066  0.0002 </r>
        <r>  0.0004  0.0037  0.0006 </r>
        <r>  0.0048  0.0031  0.0025 </r>
        <r>  0.0034  0.0014  0.0015 </r>
        <r>  0.0023  0.0045  0.0020 </r>
        <r>  0.0005  0.0038  0.0006 </r>
        <r>  0.0048  0.0031  0.0025 </r>
        <r>  0.0023  0.0045  0.0019 </r>
        <r>  0.0033  0.0014  0.0015 </r>
       </set>
       <set comment="band 103">
        <r>  0.0000  0.0004  0.0037 </r>
        <r>  0.0001  0.0002  0.0532 </r>
        <r>  0.0000  0.0008  0.0022 </r>
        <r>  0.0058  0.0025  0.0461 </r>
        <r>  0.0001  0.0080  0.0005 </r>
        <r>  0.0000  0.0019  0.0003 </r>
        <r>  0.0000  0.0019  0.0003 </r>
        <r>  0.0001  0.0080  0.0005 </r>
        <r>  0.0003  0.0143  0.0066 </r>
        <r>  0.0000  0.0020  0.0005 </r>
        <r>  0.0010  0.0091  0.0065 </r>
        <r>  0.0000  0.0004  0.0001 </r>
        <r>  0.0008  0.0046  0.0012 </r>
        <r>  0.0013  0.0045  0.0018 </r>
        <r>  0.0001  0.0009  0.0012 </r>
        <r>  0.0004  0.0026  0.0020 </r>
        <r>  0.0009  0.0046  0.0012 </r>
        <r>  0.0013  0.0046  0.0018 </r>
        <r>  0.0004  0.0026  0.0020 </r>
        <r>  0.0001  0.0009  0.0012 </r>
       </set>
       <set comment="band 104">
        <r>  0.0058  0.0025  0.0461 </r>
        <r>  0.0000  0.0008  0.0022 </r>
        <r>  0.0001  0.0002  0.0532 </r>
        <r>  0.0000  0.0004  0.0037 </r>
        <r>  0.0001  0.0080  0.0005 </r>
        <r>  0.0000  0.0019  0.0003 </r>
        <r>  0.0000  0.0019  0.0003 </r>
        <r>  0.0001  0.0080  0.0005 </r>
        <r>  0.0000  0.0004  0.0001 </r>
        <r>  0.0010  0.0091  0.0065 </r>
        <r>  0.0000  0.0020  0.0005 </r>
        <r>  0.0003  0.0143  0.0066 </r>
        <r>  0.0004  0.0026  0.0020 </r>
        <r>  0.0001  0.0009  0.0012 </r>
        <r>  0.0013  0.0045  0.0018 </r>
        <r>  0.0008  0.0046  0.0012 </r>
        <r>  0.0004  0.0026  0.0020 </r>
        <r>  0.0001  0.0009  0.0012 </r>
        <r>  0.0009  0.0046  0.0012 </r>
        <r>  0.0013  0.0046  0.0018 </r>
       </set>
       <set comment="band 105">
        <r>  0.0004  0.0004  0.0299 </r>
        <r>  0.0026  0.0024  0.0268 </r>
        <r>  0.0010  0.0013  0.0253 </r>
        <r>  0.0009  0.0004  0.0332 </r>
        <r>  0.0000  0.0014  0.0012 </r>
        <r>  0.0004  0.0036  0.0005 </r>
        <r>  0.0000  0.0086  0.0011 </r>
        <r>  0.0001  0.0066  0.0005 </r>
        <r>  0.0009  0.0028  0.0026 </r>
        <r>  0.0001  0.0030  0.0016 </r>
        <r>  0.0002  0.0054  0.0021 </r>
        <r>  0.0003  0.0015  0.0016 </r>
        <r>  0.0021  0.0014  0.0028 </r>
        <r>  0.0025  0.0016  0.0031 </r>
        <r>  0.0000  0.0018  0.0021 </r>
        <r>  0.0004  0.0049  0.0031 </r>
        <r>  0.0011  0.0024  0.0029 </r>
        <r>  0.0003  0.0023  0.0019 </r>
        <r>  0.0015  0.0038  0.0030 </r>
        <r>  0.0022  0.0011  0.0032 </r>
       </set>
       <set comment="band 106">
        <r>  0.0009  0.0004  0.0332 </r>
        <r>  0.0010  0.0013  0.0253 </r>
        <r>  0.0026  0.0024  0.0268 </r>
        <r>  0.0004  0.0004  0.0299 </r>
        <r>  0.0001  0.0066  0.0005 </r>
        <r>  0.0000  0.0086  0.0011 </r>
        <r>  0.0004  0.0036  0.0005 </r>
        <r>  0.0000  0.0014  0.0012 </r>
        <r>  0.0003  0.0015  0.0016 </r>
        <r>  0.0002  0.0054  0.0021 </r>
        <r>  0.0001  0.0030  0.0016 </r>
        <r>  0.0009  0.0028  0.0026 </r>
        <r>  0.0004  0.0049  0.0031 </r>
        <r>  0.0000  0.0018  0.0021 </r>
        <r>  0.0025  0.0016  0.0031 </r>
        <r>  0.0021  0.0014  0.0028 </r>
        <r>  0.0015  0.0038  0.0030 </r>
        <r>  0.0022  0.0011  0.0032 </r>
        <r>  0.0011  0.0024  0.0029 </r>
        <r>  0.0003  0.0023  0.0019 </r>
       </set>
       <set comment="band 107">
        <r>  0.0000  0.0003  0.0231 </r>
        <r>  0.0017  0.0056  0.0282 </r>
        <r>  0.0000  0.0003  0.0327 </r>
        <r>  0.0006  0.0058  0.0246 </r>
        <r>  0.0000  0.0047  0.0008 </r>
        <r>  0.0001  0.0070  0.0010 </r>
        <r>  0.0001  0.0074  0.0010 </r>
        <r>  0.0000  0.0051  0.0008 </r>
        <r>  0.0040  0.0032  0.0043 </r>
        <r>  0.0000  0.0034  0.0008 </r>
        <r>  0.0005  0.0024  0.0030 </r>
        <r>  0.0000  0.0039  0.0022 </r>
        <r>  0.0011  0.0024  0.0021 </r>
        <r>  0.0002  0.0027  0.0033 </r>
        <r>  0.0008  0.0020  0.0014 </r>
        <r>  0.0024  0.0039  0.0043 </r>
        <r>  0.0011  0.0024  0.0020 </r>
        <r>  0.0003  0.0027  0.0034 </r>
        <r>  0.0024  0.0039  0.0044 </r>
        <r>  0.0007  0.0019  0.0013 </r>
       </set>
       <set comment="band 108">
        <r>  0.0006  0.0058  0.0246 </r>
        <r>  0.0000  0.0003  0.0327 </r>
        <r>  0.0017  0.0056  0.0282 </r>
        <r>  0.0000  0.0003  0.0231 </r>
        <r>  0.0000  0.0051  0.0008 </r>
        <r>  0.0001  0.0074  0.0010 </r>
        <r>  0.0001  0.0070  0.0010 </r>
        <r>  0.0000  0.0047  0.0008 </r>
        <r>  0.0000  0.0039  0.0022 </r>
        <r>  0.0005  0.0024  0.0030 </r>
        <r>  0.0000  0.0034  0.0008 </r>
        <r>  0.0040  0.0032  0.0043 </r>
        <r>  0.0024  0.0039  0.0043 </r>
        <r>  0.0008  0.0020  0.0014 </r>
        <r>  0.0002  0.0027  0.0033 </r>
        <r>  0.0011  0.0024  0.0021 </r>
        <r>  0.0024  0.0039  0.0044 </r>
        <r>  0.0007  0.0019  0.0013 </r>
        <r>  0.0011  0.0024  0.0020 </r>
        <r>  0.0003  0.0027  0.0034 </r>
       </set>
       <set comment="band 109">
        <r>  0.0000  0.0008  0.0109 </r>
        <r>  0.0004  0.0029  0.0257 </r>
        <r>  0.0000  0.0005  0.0252 </r>
        <r>  0.0012  0.0046  0.0664 </r>
        <r>  0.0001  0.0055  0.0007 </r>
        <r>  0.0000  0.0033  0.0010 </r>
        <r>  0.0000  0.0035  0.0009 </r>
        <r>  0.0001  0.0056  0.0007 </r>
        <r>  0.0016  0.0031  0.0010 </r>
        <r>  0.0000  0.0013  0.0005 </r>
        <r>  0.0018  0.0133  0.0044 </r>
        <r>  0.0000  0.0017  0.0010 </r>
        <r>  0.0004  0.0017  0.0009 </r>
        <r>  0.0004  0.0048  0.0051 </r>
        <r>  0.0007  0.0030  0.0030 </r>
        <r>  0.0004  0.0018  0.0042 </r>
        <r>  0.0005  0.0017  0.0008 </r>
        <r>  0.0005  0.0045  0.0051 </r>
        <r>  0.0003  0.0018  0.0042 </r>
        <r>  0.0006  0.0033  0.0030 </r>
       </set>
       <set comment="band 110">
        <r>  0.0012  0.0046  0.0664 </r>
        <r>  0.0000  0.0005  0.0252 </r>
        <r>  0.0004  0.0029  0.0257 </r>
        <r>  0.0000  0.0008  0.0109 </r>
        <r>  0.0001  0.0056  0.0007 </r>
        <r>  0.0000  0.0035  0.0009 </r>
        <r>  0.0000  0.0033  0.0010 </r>
        <r>  0.0001  0.0055  0.0007 </r>
        <r>  0.0000  0.0017  0.0010 </r>
        <r>  0.0018  0.0133  0.0044 </r>
        <r>  0.0000  0.0013  0.0005 </r>
        <r>  0.0016  0.0031  0.0010 </r>
        <r>  0.0004  0.0018  0.0042 </r>
        <r>  0.0007  0.0030  0.0030 </r>
        <r>  0.0004  0.0048  0.0051 </r>
        <r>  0.0004  0.0017  0.0009 </r>
        <r>  0.0003  0.0018  0.0042 </r>
        <r>  0.0006  0.0033  0.0030 </r>
        <r>  0.0005  0.0017  0.0008 </r>
        <r>  0.0005  0.0045  0.0051 </r>
       </set>
       <set comment="band 111">
        <r>  0.0009  0.0013  0.0417 </r>
        <r>  0.0028  0.0024  0.0341 </r>
        <r>  0.0004  0.0013  0.0165 </r>
        <r>  0.0058  0.0031  0.0241 </r>
        <r>  0.0000  0.0077  0.0011 </r>
        <r>  0.0001  0.0017  0.0015 </r>
        <r>  0.0000  0.0087  0.0007 </r>
        <r>  0.0001  0.0046  0.0017 </r>
        <r>  0.0003  0.0136  0.0018 </r>
        <r>  0.0001  0.0007  0.0028 </r>
        <r>  0.0008  0.0046  0.0024 </r>
        <r>  0.0001  0.0022  0.0008 </r>
        <r>  0.0012  0.0017  0.0045 </r>
        <r>  0.0003  0.0064  0.0035 </r>
        <r>  0.0011  0.0010  0.0034 </r>
        <r>  0.0004  0.0040  0.0017 </r>
        <r>  0.0003  0.0016  0.0025 </r>
        <r>  0.0011  0.0034  0.0054 </r>
        <r>  0.0013  0.0041  0.0036 </r>
        <r>  0.0003  0.0040  0.0015 </r>
       </set>
       <set comment="band 112">
        <r>  0.0058  0.0031  0.0241 </r>
        <r>  0.0004  0.0013  0.0164 </r>
        <r>  0.0028  0.0024  0.0341 </r>
        <r>  0.0009  0.0013  0.0416 </r>
        <r>  0.0001  0.0046  0.0017 </r>
        <r>  0.0000  0.0087  0.0007 </r>
        <r>  0.0001  0.0017  0.0015 </r>
        <r>  0.0000  0.0077  0.0011 </r>
        <r>  0.0001  0.0022  0.0008 </r>
        <r>  0.0008  0.0046  0.0024 </r>
        <r>  0.0001  0.0007  0.0028 </r>
        <r>  0.0003  0.0136  0.0018 </r>
        <r>  0.0004  0.0040  0.0017 </r>
        <r>  0.0011  0.0010  0.0034 </r>
        <r>  0.0003  0.0064  0.0035 </r>
        <r>  0.0012  0.0017  0.0045 </r>
        <r>  0.0013  0.0041  0.0036 </r>
        <r>  0.0003  0.0040  0.0015 </r>
        <r>  0.0003  0.0016  0.0025 </r>
        <r>  0.0011  0.0034  0.0054 </r>
       </set>
      </set>
     </set>
    </set>
   </array>
  </projected>
 </calculation>
 <structure name="finalpos" >
  <crystal>
   <varray name="basis" >
    <v>       8.58841795       0.00000000       0.00000000 </v>
    <v>       0.00000000      11.82144586       0.00000000 </v>
    <v>       0.00000000       0.00000000       7.90313954 </v>
   </varray>
   <i name="volume">    802.38614070 </i>
   <varray name="rec_basis" >
    <v>       0.11643588       0.00000000       0.00000000 </v>
    <v>       0.00000000       0.08459202       0.00000000 </v>
    <v>       0.00000000       0.00000000       0.12653199 </v>
   </varray>
  </crystal>
  <varray name="positions" >
   <v>       0.06948426       0.25000000       0.47388614 </v>
   <v>       0.43051574       0.75000000       0.97388614 </v>
   <v>       0.56948426       0.25000000       0.02611386 </v>
   <v>       0.93051574       0.75000000       0.52611386 </v>
   <v>       0.00000000       0.00000000       0.00000000 </v>
   <v>       0.50000000       0.00000000       0.50000000 </v>
   <v>       0.50000000       0.50000000       0.50000000 </v>
   <v>       0.00000000       0.50000000       0.00000000 </v>
   <v>       0.50999203       0.75000000       0.43630490 </v>
   <v>       0.99000797       0.25000000       0.93630490 </v>
   <v>       0.00999203       0.75000000       0.06369510 </v>
   <v>       0.49000797       0.25000000       0.56369510 </v>
   <v>       0.30034002       0.46609668       0.19146906 </v>
   <v>       0.19965998       0.53390332       0.69146906 </v>
   <v>       0.80034002       0.03390332       0.30853094 </v>
   <v>       0.69965998       0.96609668       0.80853094 </v>
   <v>       0.30034002       0.03390332       0.19146906 </v>
   <v>       0.19965998       0.96609668       0.69146906 </v>
   <v>       0.69965998       0.53390332       0.80853094 </v>
   <v>       0.80034002       0.46609668       0.30853094 </v>
  </varray>
 </structure>
</modeling>
