CsPbBr3 cubic bulk                      
           1
     8.588418    0.000000    0.000000
     0.000000   11.821446    0.000000
     0.000000    0.000000    7.903140
   Cs   Pb   Br
   4   4  12
Direct configuration=     1
   0.06948426  0.25000000  0.47388614
   0.43051574  0.75000000  0.97388614
   0.56948426  0.25000000  0.02611386
   0.93051574  0.75000000  0.52611386
   0.00000000  0.00000000  0.00000000
   0.50000000  0.00000000  0.50000000
   0.50000000  0.50000000  0.50000000
   0.00000000  0.50000000  0.00000000
   0.50999203  0.75000000  0.43630490
   0.99000797  0.25000000  0.93630490
   0.00999203  0.75000000  0.06369510
   0.49000797  0.25000000  0.56369510
   0.30034002  0.46609668  0.19146906
   0.19965998  0.53390332  0.69146906
   0.80034002  0.03390332  0.30853094
   0.69965998  0.96609668  0.80853094
   0.30034002  0.03390332  0.19146906
   0.19965998  0.96609668  0.69146906
   0.69965998  0.53390332  0.80853094
   0.80034002  0.46609668  0.30853094
