       N       E                     dE             d eps       ncg     rms          rms(c)
DAV:   1     0.133145644196E+04    0.13315E+04   -0.11056E+05  3448   0.973E+02
DAV:   2    -0.111196940130E+04   -0.24434E+04   -0.23570E+04  4072   0.300E+02
DAV:   3    -0.147469656247E+04   -0.36273E+03   -0.36071E+03  4448   0.137E+02
DAV:   4    -0.148663225326E+04   -0.11936E+02   -0.11900E+02  3920   0.329E+01
DAV:   5    -0.148719095415E+04   -0.55870E+00   -0.55845E+00  4384   0.554E+00    0.101E+01
DAV:   6    -0.140897017341E+04    0.78221E+02   -0.23925E+01  4288   0.317E+01    0.722E+00
DAV:   7    -0.140834424720E+04    0.62593E+00   -0.94675E+00  4080   0.593E+00    0.376E+00
DAV:   8    -0.140852535609E+04   -0.18111E+00   -0.56389E-01  3920   0.222E+00    0.223E+00
DAV:   9    -0.140858393032E+04   -0.58574E-01   -0.20189E-01  3704   0.141E+00    0.470E-01
DAV:  10    -0.140858874909E+04   -0.48188E-02   -0.28715E-02  4312   0.449E-01    0.337E-01
DAV:  11    -0.140859110645E+04   -0.23574E-02   -0.39436E-03  3648   0.173E-01    0.141E-01
DAV:  12    -0.140859363475E+04   -0.25283E-02   -0.53424E-03  3584   0.178E-01    0.101E-01
DAV:  13    -0.140859323376E+04    0.40100E-03   -0.15988E-03  4408   0.113E-01    0.384E-02
DAV:  14    -0.140859325585E+04   -0.22100E-04   -0.35995E-04  3888   0.378E-02    0.220E-02
DAV:  15    -0.140859324914E+04    0.67158E-05   -0.44208E-05  3736   0.173E-02    0.137E-02
DAV:  16    -0.140859331818E+04   -0.69039E-04   -0.32661E-05  3712   0.151E-02    0.519E-03
DAV:  17    -0.140859331281E+04    0.53657E-05   -0.70658E-06  3640   0.609E-03    0.270E-03
DAV:  18    -0.140859331140E+04    0.14081E-05   -0.64327E-07  2328   0.216E-03    0.160E-03
DAV:  19    -0.140859330790E+04    0.35058E-05   -0.29299E-07  2168   0.175E-03    0.892E-04
DAV:  20    -0.140859330607E+04    0.18230E-05   -0.15480E-07  2112   0.131E-03    0.852E-04
DAV:  21    -0.140859330631E+04   -0.23386E-06   -0.25686E-07  2112   0.968E-04
   1 F= -.14085933E+04 E0= -.14085933E+04  d E =-.211969E-37
