<?xml version="1.0" encoding="ISO-8859-1"?>
<modeling>
 <generator>
  <i name="program" type="string">vasp </i>
  <i name="version" type="string">5.4.4.18Apr17-6-g9f103f2a35  </i>
  <i name="subversion" type="string">(build Jun 22 2020 09:27:21) complex            parallel </i>
  <i name="platform" type="string">tx2_gcc-7.3_libsci-18.07_cray-fftw-3.3.8 </i>
  <i name="date" type="string">2021 10 11 </i>
  <i name="time" type="string">19:42:29 </i>
 </generator>
 <incar>
  <i type="string" name="SYSTEM"> CsPbBr3 cubic bulk</i>
  <i type="string" name="PREC">accurate</i>
  <i type="string" name="ALGO"> NORMAL   ! Electronic minimisation algo</i>
  <i type="logical" name="ADDGRID"> T  </i>
  <i type="int" name="ISPIN">     1</i>
  <i type="int" name="NELM">   200</i>
  <i type="int" name="IBRION">     2</i>
  <i name="EDIFF">      0.00000100</i>
  <i name="EDIFFG">     -0.01000000</i>
  <i type="int" name="NSW">     0</i>
  <i type="int" name="ISIF">     2</i>
  <i type="int" name="ISYM">     0</i>
  <i name="ENCUT">    300.00000000</i>
  <i name="POTIM">      0.50000000</i>
  <i name="NUPDOWN">      0.00000000</i>
  <i name="NELECT">    344.00000000</i>
  <i type="string" name="LREAL"> AUTO</i>
  <i type="int" name="ISMEAR">     0</i>
  <i name="SIGMA">      0.01000000</i>
  <i type="logical" name="LWAVE"> F  </i>
  <i type="logical" name="LCHARG"> F  </i>
  <i type="logical" name="LVHAR"> T  </i>
  <i type="int" name="LORBIT">    10</i>
  <i type="logical" name="LASPH"> T  </i>
  <v type="int" name="KPOINT_BSE">    -1     0     0     0</v>
  <i type="int" name="NELM">   200</i>
  <i type="string" name="METAGGA"> SCAN       ! PBE exchange-correlation</i>
  <i type="logical" name="LASPH"> T  </i>
 </incar>
 <structure name="primitive_cell" >
  <crystal>
   <varray name="basis" >
    <v>       8.45648900       0.00000000       8.04030100 </v>
    <v>       0.00000000      11.72984700       0.00000000 </v>
    <v>      -8.45648900       0.00000000       8.04030100 </v>
   </varray>
   <i name="volume">   1595.08833419 </i>
   <varray name="rec_basis" >
    <v>       0.05912619      -0.00000000       0.06218673 </v>
    <v>       0.00000000       0.08525260      -0.00000000 </v>
    <v>      -0.05912619       0.00000000       0.06218673 </v>
   </varray>
  </crystal>
  <varray name="positions" >
   <v>       0.26590800       0.25278900       0.20425500 </v>
   <v>       0.04482000       0.46971600       0.25519900 </v>
   <v>      -0.47579000       0.25112100       0.03373300 </v>
   <v>       0.04805200       0.03039300       0.25344300 </v>
   <v>       0.45354400       0.24623000       0.47027500 </v>
   <v>       0.24790900       0.47529700      -0.04473300 </v>
   <v>       0.24829900       0.03101500      -0.05654500 </v>
   <v>       0.44957700      -0.03524300       0.24749600 </v>
   <v>       0.45964200      -0.46040700       0.25020200 </v>
   <v>      -0.02071100       0.25073700      -0.02757600 </v>
   <v>      -0.49955600      -0.49909700       0.00067300 </v>
   <v>       0.49704600       0.00217200      -0.00271700 </v>
   <v>      -0.00007000      -0.49969500       0.00298400 </v>
   <v>       0.00265300       0.00092300      -0.00141400 </v>
   <v>       0.04239100       0.26060700      -0.45783200 </v>
   <v>      -0.49962400       0.00691600       0.49622300 </v>
   <v>      -0.49230200       0.49869500      -0.49961300 </v>
   <v>       0.24972200      -0.04605500      -0.45733500 </v>
   <v>       0.26163100      -0.44766800      -0.45690400 </v>
   <v>       0.29854500       0.25890300      -0.26128000 </v>
   <v>       0.00417000       0.01866300      -0.49737700 </v>
   <v>      -0.20962900       0.24680000       0.21846000 </v>
   <v>      -0.02088700       0.49664400      -0.49850100 </v>
   <v>       0.22987700      -0.25318200       0.27816000 </v>
   <v>      -0.25205200       0.42858000       0.46038900 </v>
   <v>      -0.25104600       0.03141400       0.44718300 </v>
   <v>       0.02223300      -0.24906000       0.03217000 </v>
   <v>      -0.24745100      -0.47355300       0.05090700 </v>
   <v>      -0.44637000       0.46895300      -0.24745100 </v>
   <v>      -0.24668500      -0.01900100       0.03725700 </v>
   <v>      -0.45372300       0.02907900      -0.25105200 </v>
   <v>       0.47412300      -0.24857100      -0.03096800 </v>
   <v>      -0.04885900      -0.46533100      -0.25386000 </v>
   <v>      -0.04632100      -0.03741700      -0.25588500 </v>
   <v>       0.21164100      -0.25061400      -0.22064200 </v>
   <v>      -0.29429000      -0.23937800       0.24526900 </v>
   <v>      -0.22969100       0.24406300      -0.26809200 </v>
   <v>      -0.26800500      -0.27552300      -0.49742000 </v>
   <v>      -0.26568500      -0.24991500      -0.19327000 </v>
  </varray>
 </structure>
 <varray name="primitive_index" >
  <v type="int" >        1 </v>
  <v type="int" >       38 </v>
  <v type="int" >       21 </v>
  <v type="int" >       28 </v>
  <v type="int" >       19 </v>
  <v type="int" >       23 </v>
  <v type="int" >       31 </v>
  <v type="int" >       33 </v>
  <v type="int" >       25 </v>
  <v type="int" >       18 </v>
  <v type="int" >       13 </v>
  <v type="int" >       11 </v>
  <v type="int" >       15 </v>
  <v type="int" >        9 </v>
  <v type="int" >       22 </v>
  <v type="int" >       10 </v>
  <v type="int" >       16 </v>
  <v type="int" >       30 </v>
  <v type="int" >       36 </v>
  <v type="int" >        5 </v>
  <v type="int" >       12 </v>
  <v type="int" >        6 </v>
  <v type="int" >       14 </v>
  <v type="int" >        8 </v>
  <v type="int" >       24 </v>
  <v type="int" >       32 </v>
  <v type="int" >       20 </v>
  <v type="int" >       35 </v>
  <v type="int" >       37 </v>
  <v type="int" >       29 </v>
  <v type="int" >       27 </v>
  <v type="int" >       17 </v>
  <v type="int" >       26 </v>
  <v type="int" >       34 </v>
  <v type="int" >        4 </v>
  <v type="int" >        3 </v>
  <v type="int" >        2 </v>
  <v type="int" >       39 </v>
  <v type="int" >        7 </v>
 </varray>
 <kpoints>
  <generation param="Gamma">
   <v type="int" name="divisions">       2        2        2 </v>
   <v name="usershift">      0.00000000       0.00000000       0.00000000 </v>
   <v name="genvec1">      0.50000000       0.00000000       0.00000000 </v>
   <v name="genvec2">      0.00000000       0.50000000       0.00000000 </v>
   <v name="genvec3">      0.00000000       0.00000000       0.50000000 </v>
   <v name="shift">      0.00000000       0.00000000       0.00000000 </v>
  </generation>
  <varray name="kpointlist" >
   <v>       0.00000000       0.00000000       0.00000000 </v>
   <v>       0.50000000       0.00000000       0.00000000 </v>
   <v>       0.00000000       0.50000000       0.00000000 </v>
   <v>       0.50000000       0.50000000       0.00000000 </v>
   <v>       0.00000000       0.00000000       0.50000000 </v>
   <v>       0.50000000       0.00000000       0.50000000 </v>
   <v>       0.00000000       0.50000000       0.50000000 </v>
   <v>       0.50000000       0.50000000       0.50000000 </v>
  </varray>
  <varray name="weights" >
   <v>       0.12500000 </v>
   <v>       0.12500000 </v>
   <v>       0.12500000 </v>
   <v>       0.12500000 </v>
   <v>       0.12500000 </v>
   <v>       0.12500000 </v>
   <v>       0.12500000 </v>
   <v>       0.12500000 </v>
  </varray>
 </kpoints>
 <parameters>
  <separator name="general" >
   <i type="string" name="SYSTEM">CsPbBr3 cubic bulk</i>
   <i type="logical" name="LCOMPAT"> F  </i>
  </separator>
  <separator name="electronic" >
   <i type="string" name="PREC">accura</i>
   <i name="ENMAX">    300.00000000</i>
   <i name="ENAUG">    503.85200000</i>
   <i name="EDIFF">      0.00000100</i>
   <i type="int" name="IALGO">    38</i>
   <i type="int" name="IWAVPR">    10</i>
   <i type="int" name="NBANDS">   208</i>
   <i name="NELECT">    344.00000000</i>
   <i type="int" name="TURBO">     0</i>
   <i type="int" name="IRESTART">     0</i>
   <i type="int" name="NREBOOT">     0</i>
   <i type="int" name="NMIN">     0</i>
   <i name="EREF">      0.00000000</i>
   <separator name="electronic smearing" >
    <i type="int" name="ISMEAR">     0</i>
    <i name="SIGMA">      0.01000000</i>
    <i name="KSPACING">      0.50000000</i>
    <i type="logical" name="KGAMMA"> T  </i>
   </separator>
   <separator name="electronic projectors" >
    <i type="logical" name="LREAL"> T  </i>
    <v name="ROPT">     -0.00025000     -0.00025000     -0.00025000</v>
    <i type="int" name="LMAXPAW">  -100</i>
    <i type="int" name="LMAXMIX">     2</i>
    <i type="logical" name="NLSPLINE"> F  </i>
   </separator>
   <separator name="electronic startup" >
    <i type="int" name="ISTART">     0</i>
    <i type="int" name="ICHARG">     2</i>
    <i type="int" name="INIWAV">     1</i>
   </separator>
   <separator name="electronic spin" >
    <i type="int" name="ISPIN">     1</i>
    <i type="logical" name="LNONCOLLINEAR"> F  </i>
    <v name="MAGMOM">      0.00000000      0.00000000      0.00000000      0.00000000      0.00000000      0.00000000      0.00000000      0.00000000      0.00000000      0.00000000      0.00000000      0.00000000      0.00000000      0.00000000      0.00000000      0.00000000      0.00000000      0.00000000      0.00000000      0.00000000
      0.00000000      0.00000000      0.00000000      0.00000000      0.00000000      0.00000000      0.00000000      0.00000000      0.00000000      0.00000000      0.00000000      0.00000000      0.00000000      0.00000000      0.00000000      0.00000000      0.00000000      0.00000000      0.00000000</v>
    <i name="NUPDOWN">      0.00000000</i>
    <i type="logical" name="LSORBIT"> F  </i>
    <v name="SAXIS">      0.00000000      0.00000000      1.00000000</v>
    <i type="logical" name="LSPIRAL"> F  </i>
    <v name="QSPIRAL">      0.00000000      0.00000000      0.00000000</v>
    <i type="logical" name="LZEROZ"> F  </i>
   </separator>
   <separator name="electronic exchange-correlation" >
    <i type="logical" name="LASPH"> T  </i>
    <i type="logical" name="LMETAGGA"> F  </i>
   </separator>
   <separator name="electronic convergence" >
    <i type="int" name="NELM">   200</i>
    <i type="int" name="NELMDL">    -5</i>
    <i type="int" name="NELMIN">     2</i>
    <i name="ENINI">    300.00000000</i>
    <separator name="electronic convergence detail" >
     <i type="logical" name="LDIAG"> T  </i>
     <i type="logical" name="LSUBROT"> F  </i>
     <i name="WEIMIN">      0.00000000</i>
     <i name="EBREAK">      0.00000000</i>
     <i name="DEPER">      0.30000000</i>
     <i type="int" name="NRMM">     4</i>
     <i name="TIME">      0.40000000</i>
    </separator>
   </separator>
   <separator name="electronic mixer" >
    <i name="AMIX">      0.40000000</i>
    <i name="BMIX">      1.00000000</i>
    <i name="AMIN">      0.10000000</i>
    <i name="AMIX_MAG">      1.60000000</i>
    <i name="BMIX_MAG">      1.00000000</i>
    <separator name="electronic mixer details" >
     <i type="int" name="IMIX">     4</i>
     <i type="logical" name="MIXFIRST"> F  </i>
     <i type="int" name="MAXMIX">   -45</i>
     <i name="WC">    100.00000000</i>
     <i type="int" name="INIMIX">     1</i>
     <i type="int" name="MIXPRE">     1</i>
     <i type="int" name="MREMOVE">     5</i>
    </separator>
   </separator>
   <separator name="electronic dipolcorrection" >
    <i type="logical" name="LDIPOL"> F  </i>
    <i type="logical" name="LMONO"> F  </i>
    <i type="int" name="IDIPOL">     0</i>
    <i name="EPSILON">      1.00000000</i>
    <v name="DIPOL">   -100.00000000   -100.00000000   -100.00000000</v>
    <i name="EFIELD">      0.00000000</i>
   </separator>
  </separator>
  <separator name="grids" >
   <i type="int" name="NGX">    70</i>
   <i type="int" name="NGY">    70</i>
   <i type="int" name="NGZ">    70</i>
   <i type="int" name="NGXF">   140</i>
   <i type="int" name="NGYF">   140</i>
   <i type="int" name="NGZF">   140</i>
   <i type="logical" name="ADDGRID"> T  </i>
  </separator>
  <separator name="ionic" >
   <i type="int" name="NSW">     0</i>
   <i type="int" name="IBRION">    -1</i>
   <i type="int" name="MDALGO">     0</i>
   <i type="int" name="ISIF">     2</i>
   <i name="PSTRESS">      0.00000000</i>
   <i name="EDIFFG">     -0.01000000</i>
   <i type="int" name="NFREE">     1</i>
   <i name="POTIM">      0.50000000</i>
   <i name="SMASS">     -3.00000000</i>
   <i name="SCALEE">      1.00000000</i>
  </separator>
  <separator name="ionic md" >
   <i name="TEBEG">      0.00010000</i>
   <i name="TEEND">      0.00010000</i>
   <i type="int" name="NBLOCK">     1</i>
   <i type="int" name="KBLOCK">     1</i>
   <i type="int" name="NPACO">   256</i>
   <i name="APACO">     16.00000000</i>
  </separator>
  <separator name="symmetry" >
   <i type="int" name="ISYM">     0</i>
   <i name="SYMPREC">      0.00001000</i>
  </separator>
  <separator name="dos" >
   <i type="int" name="LORBIT">    10</i>
   <v name="RWIGS">     -1.00000000     -1.00000000     -1.00000000</v>
   <i type="int" name="NEDOS">   301</i>
   <i name="EMIN">     10.00000000</i>
   <i name="EMAX">    -10.00000000</i>
   <i name="EFERMI">      0.00000000</i>
  </separator>
  <separator name="writing" >
   <i type="int" name="NWRITE">     2</i>
   <i type="logical" name="LWAVE"> F  </i>
   <i type="logical" name="LDOWNSAMPLE"> F  </i>
   <i type="logical" name="LCHARG"> F  </i>
   <i type="logical" name="LPARD"> F  </i>
   <i type="logical" name="LVTOT"> F  </i>
   <i type="logical" name="LVHAR"> T  </i>
   <i type="logical" name="LELF"> F  </i>
   <i type="logical" name="LOPTICS"> F  </i>
   <v name="STM">      0.00000000      0.00000000      0.00000000      0.00000000      0.00000000      0.00000000      0.00000000</v>
  </separator>
  <separator name="performance" >
   <i type="int" name="NPAR">     8</i>
   <i type="int" name="NSIM">     4</i>
   <i type="int" name="NBLK">    -1</i>
   <i type="logical" name="LPLANE"> T  </i>
   <i type="logical" name="LSCALAPACK"> T  </i>
   <i type="logical" name="LSCAAWARE"> F  </i>
   <i type="logical" name="LSCALU"> F  </i>
   <i type="logical" name="LASYNC"> F  </i>
   <i type="logical" name="LORBITALREAL"> F  </i>
  </separator>
  <separator name="miscellaneous" >
   <i type="int" name="IDIOT">     3</i>
   <i type="int" name="ISPECIAL">     0</i>
   <i type="logical" name="LMUSIC"> F  </i>
   <v name="POMASS">    132.90000000    207.20000000     79.90400000</v>
   <v name="DARWINR">      0.00000000      0.00000000      0.00000000</v>
   <v name="DARWINV">      1.00000000      1.00000000      1.00000000</v>
   <i type="logical" name="LCORR"> T  </i>
  </separator>
  <i type="logical" name="GGA_COMPAT"> T  </i>
  <i type="logical" name="LBERRY"> F  </i>
  <i type="int" name="ICORELEVEL">     0</i>
  <i type="logical" name="LDAU"> F  </i>
  <i type="int" name="I_CONSTRAINED_M">     0</i>
  <separator name="electronic exchange-correlation" >
   <i type="string" name="GGA">--</i>
   <i type="int" name="VOSKOWN">     0</i>
   <i type="logical" name="LHFCALC"> F  </i>
   <i type="string" name="PRECFOCK"></i>
   <i type="logical" name="LSYMGRAD"> F  </i>
   <i type="logical" name="LHFONE"> F  </i>
   <i type="logical" name="LRHFCALC"> F  </i>
   <i type="logical" name="LTHOMAS"> F  </i>
   <i type="logical" name="LMODELHF"> F  </i>
   <i name="ENCUT4O">     -1.00000000</i>
   <i type="int" name="EXXOEP">     0</i>
   <i type="int" name="FOURORBIT">     0</i>
   <i name="AEXX">      0.00000000</i>
   <i name="HFALPHA">      0.00000000</i>
   <i name="MCALPHA">      0.00000000</i>
   <i name="ALDAX">      1.00000000</i>
   <i name="AGGAX">      1.00000000</i>
   <i name="ALDAC">      1.00000000</i>
   <i name="AGGAC">      1.00000000</i>
   <i type="int" name="NKREDX">     1</i>
   <i type="int" name="NKREDY">     1</i>
   <i type="int" name="NKREDZ">     1</i>
   <i type="logical" name="SHIFTRED"> F  </i>
   <i type="logical" name="ODDONLY"> F  </i>
   <i type="logical" name="EVENONLY"> F  </i>
   <i type="int" name="LMAXFOCK">     0</i>
   <i type="int" name="NMAXFOCKAE">     0</i>
   <i type="logical" name="LFOCKAEDFT"> F  </i>
   <i name="HFSCREEN">      0.00000000</i>
   <i name="HFSCREENC">      0.00000000</i>
   <i type="int" name="NBANDSGWLOW">     0</i>
  </separator>
  <separator name="vdW DFT" >
   <i type="logical" name="LUSE_VDW"> F  </i>
   <i name="Zab_VDW">     -0.84910000</i>
   <i name="PARAM1">      0.12340000</i>
   <i name="PARAM2">      1.00000000</i>
   <i name="PARAM3">      0.00000000</i>
  </separator>
  <separator name="model GW" >
   <i type="int" name="MODEL_GW">     0</i>
   <i name="MODEL_EPS0">     24.53982053</i>
   <i name="MODEL_ALPHA">      1.00000000</i>
  </separator>
  <separator name="linear response parameters" >
   <i type="logical" name="LEPSILON"> F  </i>
   <i type="logical" name="LRPA"> F  </i>
   <i type="logical" name="LNABLA"> F  </i>
   <i type="logical" name="LVEL"> F  </i>
   <i type="int" name="KINTER">     0</i>
   <i name="CSHIFT">      0.10000000</i>
   <i name="OMEGAMAX">     -1.00000000</i>
   <i name="DEG_THRESHOLD">      0.00200000</i>
   <i name="RTIME">     -0.10000000</i>
   <i name="WPLASMAI">      0.00000000</i>
   <v name="DFIELD">      0.00000000      0.00000000      0.00000000</v>
   <v name="WPLASMA">      0.00000000      0.00000000      0.00000000      0.00000000      0.00000000      0.00000000      0.00000000      0.00000000      0.00000000</v>
  </separator>
  <separator name="orbital magnetization" >
   <i type="logical" name="NUCIND"> F  </i>
   <v name="MAGPOS">      0.00000000      0.00000000      0.00000000</v>
   <i type="logical" name="LNICSALL"> T  </i>
   <i type="logical" name="ORBITALMAG"> F  </i>
   <i type="logical" name="LMAGBLOCH"> F  </i>
   <i type="logical" name="LCHIMAG"> F  </i>
   <i type="logical" name="LGAUGE"> T  </i>
   <i type="int" name="MAGATOM">     0</i>
   <v name="MAGDIPOL">      0.00000000      0.00000000      0.00000000</v>
   <v name="AVECCONST">      0.00000000      0.00000000      0.00000000</v>
  </separator>
  <separator name="response functions" >
   <i type="logical" name="LADDER"> F  </i>
   <i type="logical" name="LRPAFORCE"> F  </i>
   <i type="logical" name="LFXC"> F  </i>
   <i type="logical" name="LHARTREE"> T  </i>
   <i type="int" name="IBSE">     0</i>
   <v type="int" name="KPOINT">    -1     0     0     0</v>
   <i type="logical" name="LTCTE"> F  </i>
   <i type="logical" name="LTETE"> F  </i>
   <i type="logical" name="LTRIPLET"> F  </i>
   <i type="logical" name="LFXCEPS"> F  </i>
   <i type="logical" name="LFXHEG"> F  </i>
   <i type="int" name="NATURALO">     2</i>
   <i type="logical" name="L2ORDER"> F  </i>
   <i type="logical" name="LMP2LT"> F  </i>
   <i type="logical" name="LUSEW"> F  </i>
   <i name="ENCUTGW">     -2.00000000</i>
   <i name="ENCUTGWSOFT">     -2.00000000</i>
   <i name="ENCUTLF">     -1.00000000</i>
   <i type="int" name="LMAXMP2">    -1</i>
   <i name="SCISSOR">      0.00000000</i>
   <i type="int" name="NOMEGA">     0</i>
   <i type="int" name="NOMEGAR">     0</i>
   <i type="int" name="NBANDSGW">    -1</i>
   <i type="int" name="NBANDSO">    -1</i>
   <i type="int" name="NBANDSV">    -1</i>
   <i type="int" name="NELM">   200</i>
   <i type="int" name="NELMHF">     1</i>
   <i type="int" name="DIM">     3</i>
   <i type="int" name="ANTIRES">     0</i>
   <i name="OMEGAMAX">    -30.00000000</i>
   <i name="OMEGAMIN">    -30.00000000</i>
   <i name="OMEGATL">   -200.00000000</i>
   <i type="int" name="OMEGAGRID">   140</i>
   <i name="CSHIFT">     -0.10000000</i>
   <i type="logical" name="SELFENERGY"> F  </i>
   <i type="logical" name="LSPECTRAL"> F  </i>
   <i type="logical" name="LSPECTRALGW"> F  </i>
   <i type="logical" name="LSINGLES"> F  </i>
   <i type="logical" name="LFERMIGW"> F  </i>
   <i type="logical" name="ODDONLYGW"> F  </i>
   <i type="logical" name="EVENONLYGW"> F  </i>
   <i type="int" name="NKREDLFX">     1</i>
   <i type="int" name="NKREDLFY">     1</i>
   <i type="int" name="NKREDLFZ">     1</i>
   <i type="int" name="MAXMEM">  2800</i>
   <i type="int" name="TELESCOPE">     0</i>
   <i type="int" name="TAUPAR">     1</i>
   <i type="int" name="OMEGAPAR">    -1</i>
   <i name="LAMBDA">      1.00000000</i>
  </separator>
  <separator name="External order field" >
   <i name="OFIELD_KAPPA">      0.00000000</i>
   <v name="OFIELD_K">      0.00000000      0.00000000      0.00000000</v>
   <i name="OFIELD_Q6_NEAR">      0.00000000</i>
   <i name="OFIELD_Q6_FAR">      0.00000000</i>
   <i name="OFIELD_A">      0.00000000</i>
  </separator>
 </parameters>
 <atominfo>
  <atoms>      39 </atoms>
  <types>       3 </types>
  <array name="atoms" >
   <dimension dim="1">ion</dimension>
   <field type="string">element</field>
   <field type="int">atomtype</field>
   <set>
    <rc><c>Cs</c><c>   1</c></rc>
    <rc><c>Cs</c><c>   1</c></rc>
    <rc><c>Cs</c><c>   1</c></rc>
    <rc><c>Cs</c><c>   1</c></rc>
    <rc><c>Cs</c><c>   1</c></rc>
    <rc><c>Cs</c><c>   1</c></rc>
    <rc><c>Cs</c><c>   1</c></rc>
    <rc><c>Cs</c><c>   1</c></rc>
    <rc><c>Pb</c><c>   2</c></rc>
    <rc><c>Pb</c><c>   2</c></rc>
    <rc><c>Pb</c><c>   2</c></rc>
    <rc><c>Pb</c><c>   2</c></rc>
    <rc><c>Pb</c><c>   2</c></rc>
    <rc><c>Pb</c><c>   2</c></rc>
    <rc><c>Pb</c><c>   2</c></rc>
    <rc><c>Pb</c><c>   2</c></rc>
    <rc><c>Br</c><c>   3</c></rc>
    <rc><c>Br</c><c>   3</c></rc>
    <rc><c>Br</c><c>   3</c></rc>
    <rc><c>Br</c><c>   3</c></rc>
    <rc><c>Br</c><c>   3</c></rc>
    <rc><c>Br</c><c>   3</c></rc>
    <rc><c>Br</c><c>   3</c></rc>
    <rc><c>Br</c><c>   3</c></rc>
    <rc><c>Br</c><c>   3</c></rc>
    <rc><c>Br</c><c>   3</c></rc>
    <rc><c>Br</c><c>   3</c></rc>
    <rc><c>Br</c><c>   3</c></rc>
    <rc><c>Br</c><c>   3</c></rc>
    <rc><c>Br</c><c>   3</c></rc>
    <rc><c>Br</c><c>   3</c></rc>
    <rc><c>Br</c><c>   3</c></rc>
    <rc><c>Br</c><c>   3</c></rc>
    <rc><c>Br</c><c>   3</c></rc>
    <rc><c>Br</c><c>   3</c></rc>
    <rc><c>Br</c><c>   3</c></rc>
    <rc><c>Br</c><c>   3</c></rc>
    <rc><c>Br</c><c>   3</c></rc>
    <rc><c>Br</c><c>   3</c></rc>
   </set>
  </array>
  <array name="atomtypes" >
   <dimension dim="1">type</dimension>
   <field type="int">atomspertype</field>
   <field type="string">element</field>
   <field>mass</field>
   <field>valence</field>
   <field type="string">pseudopotential</field>
   <set>
    <rc><c>   8</c><c>Cs</c><c>    132.90000000</c><c>      9.00000000</c><c>  PAW_PBE Cs_sv 08Apr2002               </c></rc>
    <rc><c>   8</c><c>Pb</c><c>    207.20000000</c><c>     14.00000000</c><c>  PAW_PBE Pb_d 06Sep2000                </c></rc>
    <rc><c>  23</c><c>Br</c><c>     79.90400000</c><c>      7.00000000</c><c>  PAW_PBE Br 06Sep2000                  </c></rc>
   </set>
  </array>
 </atominfo>
 <structure name="initialpos" >
  <crystal>
   <varray name="basis" >
    <v>       8.45648900       0.00000000       8.04030100 </v>
    <v>       0.00000000      11.72984700       0.00000000 </v>
    <v>      -8.45648900       0.00000000       8.04030100 </v>
   </varray>
   <i name="volume">   1595.08833419 </i>
   <varray name="rec_basis" >
    <v>       0.05912619      -0.00000000       0.06218673 </v>
    <v>       0.00000000       0.08525260      -0.00000000 </v>
    <v>      -0.05912619       0.00000000       0.06218673 </v>
   </varray>
  </crystal>
  <varray name="positions" >
   <v>       0.26590800       0.25278900       0.20425500 </v>
   <v>       0.77030900       0.24406300       0.73190800 </v>
   <v>       0.70571000       0.76062200       0.24526900 </v>
   <v>       0.21164100       0.74938600       0.77935800 </v>
   <v>       0.29854500       0.25890300       0.73872000 </v>
   <v>       0.79037100       0.24680000       0.21846000 </v>
   <v>       0.73431500       0.75008500       0.80673000 </v>
   <v>       0.22987700       0.74681800       0.27816000 </v>
   <v>       0.00265300       0.00092300       0.99858600 </v>
   <v>       0.50037600       0.00691600       0.49622300 </v>
   <v>       0.49704600       0.00217200       0.99728300 </v>
   <v>       0.00417000       0.01866300       0.50262300 </v>
   <v>       0.50044400       0.50090300       0.00067300 </v>
   <v>       0.97911300       0.49664400       0.50149900 </v>
   <v>       0.99993000       0.50030500       0.00298400 </v>
   <v>       0.50769800       0.49869500       0.50038700 </v>
   <v>       0.47412300       0.75142900       0.96903200 </v>
   <v>       0.97928900       0.25073700       0.97242400 </v>
   <v>       0.45354400       0.24623000       0.47027500 </v>
   <v>       0.02223300       0.75094000       0.03217000 </v>
   <v>       0.52421000       0.25112100       0.03373300 </v>
   <v>       0.04239100       0.26060700       0.54216800 </v>
   <v>       0.24790900       0.47529700       0.95526700 </v>
   <v>       0.74794800       0.42858000       0.46038900 </v>
   <v>       0.45964200       0.53959300       0.25020200 </v>
   <v>       0.95114100       0.53466900       0.74614000 </v>
   <v>       0.54627700       0.02907900       0.74894800 </v>
   <v>       0.04805200       0.03039300       0.25344300 </v>
   <v>       0.75331500       0.98099900       0.03725700 </v>
   <v>       0.24972200       0.95394500       0.54266500 </v>
   <v>       0.24829900       0.03101500       0.94345500 </v>
   <v>       0.74895400       0.03141400       0.44718300 </v>
   <v>       0.44957700       0.96475700       0.24749600 </v>
   <v>       0.95367900       0.96258300       0.74411500 </v>
   <v>       0.75254900       0.52644700       0.05090700 </v>
   <v>       0.26163100       0.55233200       0.54309600 </v>
   <v>       0.55363000       0.46895300       0.75254900 </v>
   <v>       0.04482000       0.46971600       0.25519900 </v>
   <v>       0.73199500       0.72447700       0.50258000 </v>
  </varray>
 </structure>
 <calculation>
  <scstep>
   <time name="dav">   16.48   16.49</time>
   <time name="total">   17.95   17.98</time>
   <energy>
    <i name="alphaZ">    872.70583573 </i>
    <i name="ewald"> -17956.91097279 </i>
    <i name="hartreedc">  -7400.61341003 </i>
    <i name="XCdc">    907.89438180 </i>
    <i name="pawpsdc">  21345.28103884 </i>
    <i name="pawaedc"> -22405.85761495 </i>
    <i name="eentropy">     -0.00111988 </i>
    <i name="bandstr">   -243.16031244 </i>
    <i name="atom">  26212.11861568 </i>
    <i name="e_fr_energy">   1331.45644196 </i>
    <i name="e_wo_entrp">   1331.45756184 </i>
    <i name="e_0_energy">   1331.45700190 </i>
   </energy>
  </scstep>
  <scstep>
   <time name="dav">   18.34   18.39</time>
   <time name="total">   18.34   18.39</time>
   <energy>
    <i name="e_fr_energy">  -1111.96940130 </i>
    <i name="e_wo_entrp">  -1111.96940130 </i>
    <i name="e_0_energy">  -1111.96940130 </i>
   </energy>
  </scstep>
  <scstep>
   <time name="dav">   19.40   19.45</time>
   <time name="total">   19.40   19.46</time>
   <energy>
    <i name="e_fr_energy">  -1474.69656247 </i>
    <i name="e_wo_entrp">  -1474.69656247 </i>
    <i name="e_0_energy">  -1474.69656247 </i>
   </energy>
  </scstep>
  <scstep>
   <time name="dav">   17.93   17.94</time>
   <time name="total">   17.94   17.94</time>
   <energy>
    <i name="e_fr_energy">  -1486.63225326 </i>
    <i name="e_wo_entrp">  -1486.63225326 </i>
    <i name="e_0_energy">  -1486.63225326 </i>
   </energy>
  </scstep>
  <scstep>
   <time name="dav">   19.18   19.25</time>
   <time name="total">   21.88   21.95</time>
   <energy>
    <i name="e_fr_energy">  -1487.19095415 </i>
    <i name="e_wo_entrp">  -1487.19095415 </i>
    <i name="e_0_energy">  -1487.19095415 </i>
   </energy>
  </scstep>
  <scstep>
   <time name="dav">   18.92   18.92</time>
   <time name="total">   23.07   23.13</time>
   <energy>
    <i name="e_fr_energy">  -1408.97017341 </i>
    <i name="e_wo_entrp">  -1408.97017341 </i>
    <i name="e_0_energy">  -1408.97017341 </i>
   </energy>
  </scstep>
  <scstep>
   <time name="dav">   18.32   18.32</time>
   <time name="total">   22.47   22.54</time>
   <energy>
    <i name="e_fr_energy">  -1408.34424720 </i>
    <i name="e_wo_entrp">  -1408.34424720 </i>
    <i name="e_0_energy">  -1408.34424720 </i>
   </energy>
  </scstep>
  <scstep>
   <time name="dav">   17.87   17.87</time>
   <time name="total">   22.06   22.06</time>
   <energy>
    <i name="e_fr_energy">  -1408.52535609 </i>
    <i name="e_wo_entrp">  -1408.52535609 </i>
    <i name="e_0_energy">  -1408.52535609 </i>
   </energy>
  </scstep>
  <scstep>
   <time name="dav">   17.27   17.27</time>
   <time name="total">   21.43   21.47</time>
   <energy>
    <i name="e_fr_energy">  -1408.58393032 </i>
    <i name="e_wo_entrp">  -1408.58393032 </i>
    <i name="e_0_energy">  -1408.58393032 </i>
   </energy>
  </scstep>
  <scstep>
   <time name="dav">   19.02   19.02</time>
   <time name="total">   23.18   23.22</time>
   <energy>
    <i name="e_fr_energy">  -1408.58874909 </i>
    <i name="e_wo_entrp">  -1408.58874909 </i>
    <i name="e_0_energy">  -1408.58874909 </i>
   </energy>
  </scstep>
  <scstep>
   <time name="dav">   17.10   17.10</time>
   <time name="total">   21.25   21.31</time>
   <energy>
    <i name="e_fr_energy">  -1408.59110645 </i>
    <i name="e_wo_entrp">  -1408.59110645 </i>
    <i name="e_0_energy">  -1408.59110645 </i>
   </energy>
  </scstep>
  <scstep>
   <time name="dav">   16.91   16.91</time>
   <time name="total">   21.09   21.12</time>
   <energy>
    <i name="e_fr_energy">  -1408.59363475 </i>
    <i name="e_wo_entrp">  -1408.59363475 </i>
    <i name="e_0_energy">  -1408.59363475 </i>
   </energy>
  </scstep>
  <scstep>
   <time name="dav">   19.29   19.29</time>
   <time name="total">   23.48   23.49</time>
   <energy>
    <i name="e_fr_energy">  -1408.59323376 </i>
    <i name="e_wo_entrp">  -1408.59323376 </i>
    <i name="e_0_energy">  -1408.59323376 </i>
   </energy>
  </scstep>
  <scstep>
   <time name="dav">   17.80   17.80</time>
   <time name="total">   21.96   22.01</time>
   <energy>
    <i name="e_fr_energy">  -1408.59325585 </i>
    <i name="e_wo_entrp">  -1408.59325585 </i>
    <i name="e_0_energy">  -1408.59325585 </i>
   </energy>
  </scstep>
  <scstep>
   <time name="dav">   17.33   17.33</time>
   <time name="total">   21.49   21.53</time>
   <energy>
    <i name="e_fr_energy">  -1408.59324914 </i>
    <i name="e_wo_entrp">  -1408.59324914 </i>
    <i name="e_0_energy">  -1408.59324914 </i>
   </energy>
  </scstep>
  <scstep>
   <time name="dav">   17.27   17.27</time>
   <time name="total">   21.47   21.48</time>
   <energy>
    <i name="e_fr_energy">  -1408.59331818 </i>
    <i name="e_wo_entrp">  -1408.59331818 </i>
    <i name="e_0_energy">  -1408.59331818 </i>
   </energy>
  </scstep>
  <scstep>
   <time name="dav">   17.10   17.10</time>
   <time name="total">   21.25   21.29</time>
   <energy>
    <i name="e_fr_energy">  -1408.59331281 </i>
    <i name="e_wo_entrp">  -1408.59331281 </i>
    <i name="e_0_energy">  -1408.59331281 </i>
   </energy>
  </scstep>
  <scstep>
   <time name="dav">   13.38   13.38</time>
   <time name="total">   17.52   17.58</time>
   <energy>
    <i name="e_fr_energy">  -1408.59331140 </i>
    <i name="e_wo_entrp">  -1408.59331140 </i>
    <i name="e_0_energy">  -1408.59331140 </i>
   </energy>
  </scstep>
  <scstep>
   <time name="dav">   12.91   12.91</time>
   <time name="total">   17.09   17.12</time>
   <energy>
    <i name="e_fr_energy">  -1408.59330790 </i>
    <i name="e_wo_entrp">  -1408.59330790 </i>
    <i name="e_0_energy">  -1408.59330790 </i>
   </energy>
  </scstep>
  <scstep>
   <time name="dav">   12.75   12.75</time>
   <time name="total">   16.95   16.95</time>
   <energy>
    <i name="e_fr_energy">  -1408.59330607 </i>
    <i name="e_wo_entrp">  -1408.59330607 </i>
    <i name="e_0_energy">  -1408.59330607 </i>
   </energy>
  </scstep>
  <scstep>
   <time name="dav">   12.75   12.75</time>
   <time name="total">   14.24   14.28</time>
   <energy>
    <i name="alphaZ">    872.70583573 </i>
    <i name="ewald"> -17956.91097279 </i>
    <i name="hartreedc">  -7428.63709965 </i>
    <i name="XCdc">    943.31265796 </i>
    <i name="pawpsdc">  22714.40757072 </i>
    <i name="pawaedc"> -23772.01090588 </i>
    <i name="eentropy">     -0.00000000 </i>
    <i name="bandstr">  -2993.57900807 </i>
    <i name="atom">  26212.11861568 </i>
    <i name="e_fr_energy">  -1408.59330631 </i>
    <i name="e_wo_entrp">  -1408.59330631 </i>
    <i name="e_0_energy">  -1408.59330631 </i>
   </energy>
  </scstep>
  <structure>
   <crystal>
    <varray name="basis" >
     <v>       8.45648900       0.00000000       8.04030100 </v>
     <v>       0.00000000      11.72984700       0.00000000 </v>
     <v>      -8.45648900       0.00000000       8.04030100 </v>
    </varray>
    <i name="volume">   1595.08833419 </i>
    <varray name="rec_basis" >
     <v>       0.05912619      -0.00000000       0.06218673 </v>
     <v>       0.00000000       0.08525260      -0.00000000 </v>
     <v>      -0.05912619       0.00000000       0.06218673 </v>
    </varray>
   </crystal>
   <varray name="positions" >
    <v>       0.26590800       0.25278900       0.20425500 </v>
    <v>       0.77030900       0.24406300       0.73190800 </v>
    <v>       0.70571000       0.76062200       0.24526900 </v>
    <v>       0.21164100       0.74938600       0.77935800 </v>
    <v>       0.29854500       0.25890300       0.73872000 </v>
    <v>       0.79037100       0.24680000       0.21846000 </v>
    <v>       0.73431500       0.75008500       0.80673000 </v>
    <v>       0.22987700       0.74681800       0.27816000 </v>
    <v>       0.00265300       0.00092300       0.99858600 </v>
    <v>       0.50037600       0.00691600       0.49622300 </v>
    <v>       0.49704600       0.00217200       0.99728300 </v>
    <v>       0.00417000       0.01866300       0.50262300 </v>
    <v>       0.50044400       0.50090300       0.00067300 </v>
    <v>       0.97911300       0.49664400       0.50149900 </v>
    <v>       0.99993000       0.50030500       0.00298400 </v>
    <v>       0.50769800       0.49869500       0.50038700 </v>
    <v>       0.47412300       0.75142900       0.96903200 </v>
    <v>       0.97928900       0.25073700       0.97242400 </v>
    <v>       0.45354400       0.24623000       0.47027500 </v>
    <v>       0.02223300       0.75094000       0.03217000 </v>
    <v>       0.52421000       0.25112100       0.03373300 </v>
    <v>       0.04239100       0.26060700       0.54216800 </v>
    <v>       0.24790900       0.47529700       0.95526700 </v>
    <v>       0.74794800       0.42858000       0.46038900 </v>
    <v>       0.45964200       0.53959300       0.25020200 </v>
    <v>       0.95114100       0.53466900       0.74614000 </v>
    <v>       0.54627700       0.02907900       0.74894800 </v>
    <v>       0.04805200       0.03039300       0.25344300 </v>
    <v>       0.75331500       0.98099900       0.03725700 </v>
    <v>       0.24972200       0.95394500       0.54266500 </v>
    <v>       0.24829900       0.03101500       0.94345500 </v>
    <v>       0.74895400       0.03141400       0.44718300 </v>
    <v>       0.44957700       0.96475700       0.24749600 </v>
    <v>       0.95367900       0.96258300       0.74411500 </v>
    <v>       0.75254900       0.52644700       0.05090700 </v>
    <v>       0.26163100       0.55233200       0.54309600 </v>
    <v>       0.55363000       0.46895300       0.75254900 </v>
    <v>       0.04482000       0.46971600       0.25519900 </v>
    <v>       0.73199500       0.72447700       0.50258000 </v>
   </varray>
  </structure>
  <varray name="forces" >
   <v>       0.00888926      -0.00504198      -0.02791207 </v>
   <v>       0.05191574      -0.00866126      -0.02002647 </v>
   <v>       0.72273028       0.16123905      -0.84124302 </v>
   <v>      -0.04610836      -0.00670149       0.02896957 </v>
   <v>      -0.00604313       0.00326994       0.03583120 </v>
   <v>      -0.00579681      -0.03437263      -0.00862561 </v>
   <v>       0.06451737      -0.00839281      -0.02059801 </v>
   <v>       0.01406903      -0.01288085      -0.03424611 </v>
   <v>      -0.01011476      -0.02420454      -0.07198851 </v>
   <v>       0.20727702      -0.01584959       0.15609661 </v>
   <v>       0.01671629      -0.03507479       0.06754227 </v>
   <v>      -0.14629215       0.02477684      -0.12696040 </v>
   <v>       0.03137284       0.02693119       0.02960283 </v>
   <v>      -0.05755619       0.23613359       0.01574880 </v>
   <v>       0.00468947       0.01621033      -0.06292382 </v>
   <v>       0.03098783       0.17505293       0.08966443 </v>
   <v>      -0.02472918       0.00319990      -0.03097824 </v>
   <v>       0.00725597       0.00193733       0.01384558 </v>
   <v>      -0.00727373       0.11370686       0.04319633 </v>
   <v>       0.01463652       0.00385775       0.02333129 </v>
   <v>      -0.00501678       0.00746771      -0.01085690 </v>
   <v>      -0.02293857      -0.09521498      -0.01875992 </v>
   <v>       0.00405811      -0.00862231      -0.00193929 </v>
   <v>       0.13328549      -0.57802318       0.02103695 </v>
   <v>      -0.06075046      -0.02283429       0.04059524 </v>
   <v>       0.00297314      -0.02391440       0.04175344 </v>
   <v>       0.01760713       0.01133640      -0.05931219 </v>
   <v>      -0.01571684      -0.00631928       0.04614141 </v>
   <v>       0.01293528       0.05307358      -0.00670430 </v>
   <v>       0.02047636      -0.02592754       0.01443806 </v>
   <v>       0.00625615       0.00929688       0.01298659 </v>
   <v>       0.03119432       0.34395348      -0.00866056 </v>
   <v>      -0.04745396       0.01200617       0.00126257 </v>
   <v>       0.02776077       0.02726852       0.02005214 </v>
   <v>       0.01555674      -0.04093789      -0.00053278 </v>
   <v>      -0.00148079      -0.03462609      -0.07478458 </v>
   <v>       0.01384040      -0.01200038      -0.05785805 </v>
   <v>       0.01690844       0.00338801       0.00332789 </v>
   <v>      -1.02063823      -0.23450620       0.77948762 </v>
  </varray>
  <varray name="stress" >
   <v>      -7.18169676       0.13044600      -3.31670191 </v>
   <v>       0.13038092      -6.04357609      -0.58553826 </v>
   <v>      -3.31674680      -0.58541189      -4.51106945 </v>
  </varray>
  <energy>
   <i name="e_fr_energy">  -1408.59330631 </i>
   <i name="e_wo_entrp">  -1408.59330631 </i>
   <i name="e_0_energy">     -0.00000000 </i>
  </energy>
  <time name="totalsc">  480.41  481.27</time>
  <eigenvalues>
   <array>
    <dimension dim="1">band</dimension>
    <dimension dim="2">kpoint</dimension>
    <dimension dim="3">spin</dimension>
    <field>eigene</field>
    <field>occ</field>
    <set>
     <set comment="spin 1">
      <set comment="kpoint 1">
       <r>  -20.9480    1.0000 </r>
       <r>  -20.8472    1.0000 </r>
       <r>  -20.8297    1.0000 </r>
       <r>  -20.8067    1.0000 </r>
       <r>  -20.7608    1.0000 </r>
       <r>  -20.6701    1.0000 </r>
       <r>  -20.4681    1.0000 </r>
       <r>  -20.3719    1.0000 </r>
       <r>  -16.8747    1.0000 </r>
       <r>  -16.8108    1.0000 </r>
       <r>  -16.7989    1.0000 </r>
       <r>  -16.7801    1.0000 </r>
       <r>  -16.7736    1.0000 </r>
       <r>  -16.7557    1.0000 </r>
       <r>  -16.7491    1.0000 </r>
       <r>  -16.7223    1.0000 </r>
       <r>  -16.7170    1.0000 </r>
       <r>  -16.7137    1.0000 </r>
       <r>  -16.7048    1.0000 </r>
       <r>  -16.6872    1.0000 </r>
       <r>  -16.6822    1.0000 </r>
       <r>  -16.6664    1.0000 </r>
       <r>  -16.6579    1.0000 </r>
       <r>  -16.6527    1.0000 </r>
       <r>  -16.6442    1.0000 </r>
       <r>  -16.6359    1.0000 </r>
       <r>  -16.6163    1.0000 </r>
       <r>  -16.5753    1.0000 </r>
       <r>  -16.4876    1.0000 </r>
       <r>  -16.4624    1.0000 </r>
       <r>  -16.4519    1.0000 </r>
       <r>  -16.4367    1.0000 </r>
       <r>  -16.4122    1.0000 </r>
       <r>  -16.3992    1.0000 </r>
       <r>  -16.3885    1.0000 </r>
       <r>  -16.3733    1.0000 </r>
       <r>  -16.3325    1.0000 </r>
       <r>  -16.3254    1.0000 </r>
       <r>  -16.3160    1.0000 </r>
       <r>  -16.3137    1.0000 </r>
       <r>  -16.3131    1.0000 </r>
       <r>  -16.3073    1.0000 </r>
       <r>  -16.3065    1.0000 </r>
       <r>  -16.2974    1.0000 </r>
       <r>  -16.2971    1.0000 </r>
       <r>  -16.2929    1.0000 </r>
       <r>  -16.2881    1.0000 </r>
       <r>  -16.2778    1.0000 </r>
       <r>  -14.6902    1.0000 </r>
       <r>  -14.5109    1.0000 </r>
       <r>  -14.3371    1.0000 </r>
       <r>  -14.2621    1.0000 </r>
       <r>  -14.1715    1.0000 </r>
       <r>  -14.1363    1.0000 </r>
       <r>  -14.1297    1.0000 </r>
       <r>  -14.1057    1.0000 </r>
       <r>  -14.1002    1.0000 </r>
       <r>  -14.0957    1.0000 </r>
       <r>  -14.0860    1.0000 </r>
       <r>  -14.0694    1.0000 </r>
       <r>  -14.0590    1.0000 </r>
       <r>  -14.0454    1.0000 </r>
       <r>  -14.0319    1.0000 </r>
       <r>  -14.0131    1.0000 </r>
       <r>  -13.9259    1.0000 </r>
       <r>  -13.8659    1.0000 </r>
       <r>  -13.8550    1.0000 </r>
       <r>  -13.7713    1.0000 </r>
       <r>  -13.7609    1.0000 </r>
       <r>  -13.7074    1.0000 </r>
       <r>  -12.8597    1.0000 </r>
       <r>   -8.2789    1.0000 </r>
       <r>   -7.8739    1.0000 </r>
       <r>   -7.8164    1.0000 </r>
       <r>   -7.7686    1.0000 </r>
       <r>   -7.3891    1.0000 </r>
       <r>   -7.3662    1.0000 </r>
       <r>   -7.3435    1.0000 </r>
       <r>   -7.3150    1.0000 </r>
       <r>   -7.2799    1.0000 </r>
       <r>   -7.2719    1.0000 </r>
       <r>   -7.2537    1.0000 </r>
       <r>   -7.2470    1.0000 </r>
       <r>   -7.2390    1.0000 </r>
       <r>   -7.2296    1.0000 </r>
       <r>   -7.2214    1.0000 </r>
       <r>   -7.2156    1.0000 </r>
       <r>   -7.2135    1.0000 </r>
       <r>   -7.1872    1.0000 </r>
       <r>   -7.1863    1.0000 </r>
       <r>   -7.1781    1.0000 </r>
       <r>   -7.1600    1.0000 </r>
       <r>   -7.1367    1.0000 </r>
       <r>   -7.1002    1.0000 </r>
       <r>   -7.0724    1.0000 </r>
       <r>   -7.0663    1.0000 </r>
       <r>   -6.9217    1.0000 </r>
       <r>   -6.8926    1.0000 </r>
       <r>   -6.8891    1.0000 </r>
       <r>   -6.8553    1.0000 </r>
       <r>   -6.8092    1.0000 </r>
       <r>   -6.7585    1.0000 </r>
       <r>   -6.6334    1.0000 </r>
       <r>   -3.4062    1.0000 </r>
       <r>   -3.3555    1.0000 </r>
       <r>   -3.3118    1.0000 </r>
       <r>   -3.2958    1.0000 </r>
       <r>   -3.2641    1.0000 </r>
       <r>   -3.2468    1.0000 </r>
       <r>   -3.2110    1.0000 </r>
       <r>   -3.1949    1.0000 </r>
       <r>   -3.1170    1.0000 </r>
       <r>   -3.0597    1.0000 </r>
       <r>   -2.9572    1.0000 </r>
       <r>   -2.8335    1.0000 </r>
       <r>   -2.3291    1.0000 </r>
       <r>   -2.2742    1.0000 </r>
       <r>   -2.1747    1.0000 </r>
       <r>   -2.0752    1.0000 </r>
       <r>   -2.0334    1.0000 </r>
       <r>   -1.9960    1.0000 </r>
       <r>   -1.9587    1.0000 </r>
       <r>   -1.9103    1.0000 </r>
       <r>   -1.8685    1.0000 </r>
       <r>   -1.8479    1.0000 </r>
       <r>   -1.8358    1.0000 </r>
       <r>   -1.7552    1.0000 </r>
       <r>   -1.7162    1.0000 </r>
       <r>   -1.7045    1.0000 </r>
       <r>   -1.6789    1.0000 </r>
       <r>   -1.6272    1.0000 </r>
       <r>   -1.5950    1.0000 </r>
       <r>   -1.5698    1.0000 </r>
       <r>   -1.5645    1.0000 </r>
       <r>   -1.5447    1.0000 </r>
       <r>   -1.5323    1.0000 </r>
       <r>   -1.5145    1.0000 </r>
       <r>   -1.4934    1.0000 </r>
       <r>   -1.4805    1.0000 </r>
       <r>   -1.4729    1.0000 </r>
       <r>   -1.4486    1.0000 </r>
       <r>   -1.4375    1.0000 </r>
       <r>   -1.4202    1.0000 </r>
       <r>   -1.4144    1.0000 </r>
       <r>   -1.3881    1.0000 </r>
       <r>   -1.3769    1.0000 </r>
       <r>   -1.3747    1.0000 </r>
       <r>   -1.3635    1.0000 </r>
       <r>   -1.3565    1.0000 </r>
       <r>   -1.3410    1.0000 </r>
       <r>   -1.3039    1.0000 </r>
       <r>   -1.2821    1.0000 </r>
       <r>   -1.2555    1.0000 </r>
       <r>   -1.2200    1.0000 </r>
       <r>   -1.2150    1.0000 </r>
       <r>   -1.1957    1.0000 </r>
       <r>   -1.1757    1.0000 </r>
       <r>   -1.1581    1.0000 </r>
       <r>   -1.1180    1.0000 </r>
       <r>   -1.0874    1.0000 </r>
       <r>   -0.9951    1.0000 </r>
       <r>   -0.8941    1.0000 </r>
       <r>   -0.8896    1.0000 </r>
       <r>   -0.8249    1.0000 </r>
       <r>   -0.7837    1.0000 </r>
       <r>   -0.6728    1.0000 </r>
       <r>   -0.4849    1.0000 </r>
       <r>   -0.2894    1.0000 </r>
       <r>   -0.2705    1.0000 </r>
       <r>   -0.2041    1.0000 </r>
       <r>    0.1116    1.0000 </r>
       <r>    0.3307    1.0000 </r>
       <r>    2.4579    0.0000 </r>
       <r>    2.5391    0.0000 </r>
       <r>    2.6512    0.0000 </r>
       <r>    2.8383    0.0000 </r>
       <r>    2.9680    0.0000 </r>
       <r>    3.0056    0.0000 </r>
       <r>    3.0928    0.0000 </r>
       <r>    3.1083    0.0000 </r>
       <r>    3.1823    0.0000 </r>
       <r>    3.3696    0.0000 </r>
       <r>    3.4389    0.0000 </r>
       <r>    3.5157    0.0000 </r>
       <r>    4.0833    0.0000 </r>
       <r>    4.5163    0.0000 </r>
       <r>    4.8443    0.0000 </r>
       <r>    5.3145    0.0000 </r>
       <r>    5.4703    0.0000 </r>
       <r>    5.5453    0.0000 </r>
       <r>    5.7682    0.0000 </r>
       <r>    5.7755    0.0000 </r>
       <r>    5.8282    0.0000 </r>
       <r>    5.8686    0.0000 </r>
       <r>    5.9896    0.0000 </r>
       <r>    6.0514    0.0000 </r>
       <r>    6.0644    0.0000 </r>
       <r>    6.1174    0.0000 </r>
       <r>    6.1988    0.0000 </r>
       <r>    6.2299    0.0000 </r>
       <r>    6.3324    0.0000 </r>
       <r>    6.3753    0.0000 </r>
       <r>    6.4176    0.0000 </r>
       <r>    6.4690    0.0000 </r>
       <r>    6.5182    0.0000 </r>
       <r>    6.5583    0.0000 </r>
       <r>    6.6412    0.0000 </r>
       <r>    6.7216    0.0000 </r>
      </set>
      <set comment="kpoint 2">
       <r>  -20.9480    1.0000 </r>
       <r>  -20.8472    1.0000 </r>
       <r>  -20.8297    1.0000 </r>
       <r>  -20.8067    1.0000 </r>
       <r>  -20.7608    1.0000 </r>
       <r>  -20.6701    1.0000 </r>
       <r>  -20.4681    1.0000 </r>
       <r>  -20.3719    1.0000 </r>
       <r>  -16.8740    1.0000 </r>
       <r>  -16.8099    1.0000 </r>
       <r>  -16.7912    1.0000 </r>
       <r>  -16.7805    1.0000 </r>
       <r>  -16.7737    1.0000 </r>
       <r>  -16.7557    1.0000 </r>
       <r>  -16.7492    1.0000 </r>
       <r>  -16.7236    1.0000 </r>
       <r>  -16.7210    1.0000 </r>
       <r>  -16.7137    1.0000 </r>
       <r>  -16.7048    1.0000 </r>
       <r>  -16.6908    1.0000 </r>
       <r>  -16.6823    1.0000 </r>
       <r>  -16.6664    1.0000 </r>
       <r>  -16.6579    1.0000 </r>
       <r>  -16.6528    1.0000 </r>
       <r>  -16.6442    1.0000 </r>
       <r>  -16.6360    1.0000 </r>
       <r>  -16.6163    1.0000 </r>
       <r>  -16.5754    1.0000 </r>
       <r>  -16.4827    1.0000 </r>
       <r>  -16.4574    1.0000 </r>
       <r>  -16.4382    1.0000 </r>
       <r>  -16.4199    1.0000 </r>
       <r>  -16.4192    1.0000 </r>
       <r>  -16.4073    1.0000 </r>
       <r>  -16.4030    1.0000 </r>
       <r>  -16.3857    1.0000 </r>
       <r>  -16.3325    1.0000 </r>
       <r>  -16.3255    1.0000 </r>
       <r>  -16.3160    1.0000 </r>
       <r>  -16.3138    1.0000 </r>
       <r>  -16.3132    1.0000 </r>
       <r>  -16.3074    1.0000 </r>
       <r>  -16.3065    1.0000 </r>
       <r>  -16.2975    1.0000 </r>
       <r>  -16.2971    1.0000 </r>
       <r>  -16.2929    1.0000 </r>
       <r>  -16.2881    1.0000 </r>
       <r>  -16.2778    1.0000 </r>
       <r>  -14.6871    1.0000 </r>
       <r>  -14.5199    1.0000 </r>
       <r>  -14.3039    1.0000 </r>
       <r>  -14.2667    1.0000 </r>
       <r>  -14.2219    1.0000 </r>
       <r>  -14.1919    1.0000 </r>
       <r>  -14.1294    1.0000 </r>
       <r>  -14.1071    1.0000 </r>
       <r>  -14.0973    1.0000 </r>
       <r>  -14.0917    1.0000 </r>
       <r>  -14.0884    1.0000 </r>
       <r>  -14.0837    1.0000 </r>
       <r>  -14.0589    1.0000 </r>
       <r>  -14.0564    1.0000 </r>
       <r>  -13.9383    1.0000 </r>
       <r>  -13.9256    1.0000 </r>
       <r>  -13.9075    1.0000 </r>
       <r>  -13.8588    1.0000 </r>
       <r>  -13.8469    1.0000 </r>
       <r>  -13.8294    1.0000 </r>
       <r>  -13.7951    1.0000 </r>
       <r>  -13.7210    1.0000 </r>
       <r>  -12.8597    1.0000 </r>
       <r>   -8.1080    1.0000 </r>
       <r>   -8.0123    1.0000 </r>
       <r>   -7.6924    1.0000 </r>
       <r>   -7.6212    1.0000 </r>
       <r>   -7.5769    1.0000 </r>
       <r>   -7.5029    1.0000 </r>
       <r>   -7.3733    1.0000 </r>
       <r>   -7.3443    1.0000 </r>
       <r>   -7.2999    1.0000 </r>
       <r>   -7.2717    1.0000 </r>
       <r>   -7.2538    1.0000 </r>
       <r>   -7.2411    1.0000 </r>
       <r>   -7.2339    1.0000 </r>
       <r>   -7.2281    1.0000 </r>
       <r>   -7.2189    1.0000 </r>
       <r>   -7.2145    1.0000 </r>
       <r>   -7.2072    1.0000 </r>
       <r>   -7.1840    1.0000 </r>
       <r>   -7.1823    1.0000 </r>
       <r>   -7.1606    1.0000 </r>
       <r>   -7.1384    1.0000 </r>
       <r>   -7.1056    1.0000 </r>
       <r>   -7.0764    1.0000 </r>
       <r>   -7.0670    1.0000 </r>
       <r>   -7.0039    1.0000 </r>
       <r>   -6.9645    1.0000 </r>
       <r>   -6.9163    1.0000 </r>
       <r>   -6.8905    1.0000 </r>
       <r>   -6.8826    1.0000 </r>
       <r>   -6.8467    1.0000 </r>
       <r>   -6.8089    1.0000 </r>
       <r>   -6.7566    1.0000 </r>
       <r>   -3.3639    1.0000 </r>
       <r>   -3.3235    1.0000 </r>
       <r>   -3.3158    1.0000 </r>
       <r>   -3.2925    1.0000 </r>
       <r>   -3.2067    1.0000 </r>
       <r>   -3.1707    1.0000 </r>
       <r>   -3.0673    1.0000 </r>
       <r>   -2.9140    1.0000 </r>
       <r>   -2.7067    1.0000 </r>
       <r>   -2.5576    1.0000 </r>
       <r>   -2.5240    1.0000 </r>
       <r>   -2.5173    1.0000 </r>
       <r>   -2.4439    1.0000 </r>
       <r>   -2.3867    1.0000 </r>
       <r>   -2.3316    1.0000 </r>
       <r>   -2.2666    1.0000 </r>
       <r>   -2.2224    1.0000 </r>
       <r>   -2.1571    1.0000 </r>
       <r>   -2.0818    1.0000 </r>
       <r>   -2.0556    1.0000 </r>
       <r>   -1.9802    1.0000 </r>
       <r>   -1.9666    1.0000 </r>
       <r>   -1.9110    1.0000 </r>
       <r>   -1.8400    1.0000 </r>
       <r>   -1.7960    1.0000 </r>
       <r>   -1.7942    1.0000 </r>
       <r>   -1.7567    1.0000 </r>
       <r>   -1.7115    1.0000 </r>
       <r>   -1.6517    1.0000 </r>
       <r>   -1.6340    1.0000 </r>
       <r>   -1.5922    1.0000 </r>
       <r>   -1.5634    1.0000 </r>
       <r>   -1.5541    1.0000 </r>
       <r>   -1.5434    1.0000 </r>
       <r>   -1.5146    1.0000 </r>
       <r>   -1.5039    1.0000 </r>
       <r>   -1.4579    1.0000 </r>
       <r>   -1.4518    1.0000 </r>
       <r>   -1.4408    1.0000 </r>
       <r>   -1.4192    1.0000 </r>
       <r>   -1.4002    1.0000 </r>
       <r>   -1.3852    1.0000 </r>
       <r>   -1.3659    1.0000 </r>
       <r>   -1.3429    1.0000 </r>
       <r>   -1.3324    1.0000 </r>
       <r>   -1.3245    1.0000 </r>
       <r>   -1.3075    1.0000 </r>
       <r>   -1.2867    1.0000 </r>
       <r>   -1.2528    1.0000 </r>
       <r>   -1.2428    1.0000 </r>
       <r>   -1.2322    1.0000 </r>
       <r>   -1.2078    1.0000 </r>
       <r>   -1.1953    1.0000 </r>
       <r>   -1.1487    1.0000 </r>
       <r>   -1.1307    1.0000 </r>
       <r>   -1.1267    1.0000 </r>
       <r>   -1.1077    1.0000 </r>
       <r>   -1.0802    1.0000 </r>
       <r>   -0.9762    1.0000 </r>
       <r>   -0.9287    1.0000 </r>
       <r>   -0.9012    1.0000 </r>
       <r>   -0.8503    1.0000 </r>
       <r>   -0.6789    1.0000 </r>
       <r>   -0.6465    1.0000 </r>
       <r>   -0.5943    1.0000 </r>
       <r>   -0.2880    1.0000 </r>
       <r>   -0.1227    1.0000 </r>
       <r>   -0.1116    1.0000 </r>
       <r>    0.1158    1.0000 </r>
       <r>    2.3534    0.0000 </r>
       <r>    2.6798    0.0000 </r>
       <r>    2.8742    0.0000 </r>
       <r>    2.9365    0.0000 </r>
       <r>    3.1533    0.0000 </r>
       <r>    3.1880    0.0000 </r>
       <r>    3.2218    0.0000 </r>
       <r>    3.2721    0.0000 </r>
       <r>    3.9376    0.0000 </r>
       <r>    4.0855    0.0000 </r>
       <r>    4.1974    0.0000 </r>
       <r>    4.2635    0.0000 </r>
       <r>    4.3565    0.0000 </r>
       <r>    4.4576    0.0000 </r>
       <r>    4.5749    0.0000 </r>
       <r>    4.6263    0.0000 </r>
       <r>    4.8276    0.0000 </r>
       <r>    4.8566    0.0000 </r>
       <r>    5.4572    0.0000 </r>
       <r>    5.5727    0.0000 </r>
       <r>    5.5906    0.0000 </r>
       <r>    5.6548    0.0000 </r>
       <r>    5.8338    0.0000 </r>
       <r>    5.9037    0.0000 </r>
       <r>    6.1085    0.0000 </r>
       <r>    6.1642    0.0000 </r>
       <r>    6.1727    0.0000 </r>
       <r>    6.1865    0.0000 </r>
       <r>    6.2056    0.0000 </r>
       <r>    6.2689    0.0000 </r>
       <r>    6.3913    0.0000 </r>
       <r>    6.3955    0.0000 </r>
       <r>    6.4764    0.0000 </r>
       <r>    6.5213    0.0000 </r>
       <r>    6.6142    0.0000 </r>
       <r>    6.6545    0.0000 </r>
      </set>
      <set comment="kpoint 3">
       <r>  -20.9480    1.0000 </r>
       <r>  -20.8472    1.0000 </r>
       <r>  -20.8297    1.0000 </r>
       <r>  -20.8067    1.0000 </r>
       <r>  -20.7608    1.0000 </r>
       <r>  -20.6701    1.0000 </r>
       <r>  -20.4681    1.0000 </r>
       <r>  -20.3719    1.0000 </r>
       <r>  -16.8745    1.0000 </r>
       <r>  -16.8108    1.0000 </r>
       <r>  -16.7989    1.0000 </r>
       <r>  -16.7800    1.0000 </r>
       <r>  -16.7735    1.0000 </r>
       <r>  -16.7556    1.0000 </r>
       <r>  -16.7490    1.0000 </r>
       <r>  -16.7224    1.0000 </r>
       <r>  -16.7170    1.0000 </r>
       <r>  -16.7137    1.0000 </r>
       <r>  -16.7048    1.0000 </r>
       <r>  -16.6872    1.0000 </r>
       <r>  -16.6822    1.0000 </r>
       <r>  -16.6663    1.0000 </r>
       <r>  -16.6578    1.0000 </r>
       <r>  -16.6527    1.0000 </r>
       <r>  -16.6441    1.0000 </r>
       <r>  -16.6359    1.0000 </r>
       <r>  -16.6163    1.0000 </r>
       <r>  -16.5754    1.0000 </r>
       <r>  -16.4668    1.0000 </r>
       <r>  -16.4515    1.0000 </r>
       <r>  -16.4487    1.0000 </r>
       <r>  -16.4293    1.0000 </r>
       <r>  -16.4275    1.0000 </r>
       <r>  -16.4115    1.0000 </r>
       <r>  -16.3976    1.0000 </r>
       <r>  -16.3812    1.0000 </r>
       <r>  -16.3325    1.0000 </r>
       <r>  -16.3255    1.0000 </r>
       <r>  -16.3160    1.0000 </r>
       <r>  -16.3137    1.0000 </r>
       <r>  -16.3131    1.0000 </r>
       <r>  -16.3073    1.0000 </r>
       <r>  -16.3065    1.0000 </r>
       <r>  -16.2974    1.0000 </r>
       <r>  -16.2971    1.0000 </r>
       <r>  -16.2929    1.0000 </r>
       <r>  -16.2881    1.0000 </r>
       <r>  -16.2778    1.0000 </r>
       <r>  -14.6892    1.0000 </r>
       <r>  -14.5087    1.0000 </r>
       <r>  -14.3258    1.0000 </r>
       <r>  -14.2945    1.0000 </r>
       <r>  -14.1753    1.0000 </r>
       <r>  -14.1644    1.0000 </r>
       <r>  -14.1506    1.0000 </r>
       <r>  -14.1310    1.0000 </r>
       <r>  -14.1012    1.0000 </r>
       <r>  -14.0917    1.0000 </r>
       <r>  -14.0712    1.0000 </r>
       <r>  -14.0607    1.0000 </r>
       <r>  -14.0492    1.0000 </r>
       <r>  -14.0325    1.0000 </r>
       <r>  -13.9718    1.0000 </r>
       <r>  -13.9272    1.0000 </r>
       <r>  -13.9237    1.0000 </r>
       <r>  -13.9126    1.0000 </r>
       <r>  -13.8480    1.0000 </r>
       <r>  -13.8202    1.0000 </r>
       <r>  -13.7701    1.0000 </r>
       <r>  -13.7076    1.0000 </r>
       <r>  -12.8596    1.0000 </r>
       <r>   -8.2036    1.0000 </r>
       <r>   -7.9789    1.0000 </r>
       <r>   -7.7284    1.0000 </r>
       <r>   -7.6195    1.0000 </r>
       <r>   -7.4833    1.0000 </r>
       <r>   -7.4625    1.0000 </r>
       <r>   -7.3739    1.0000 </r>
       <r>   -7.3414    1.0000 </r>
       <r>   -7.3034    1.0000 </r>
       <r>   -7.2758    1.0000 </r>
       <r>   -7.2548    1.0000 </r>
       <r>   -7.2415    1.0000 </r>
       <r>   -7.2337    1.0000 </r>
       <r>   -7.2226    1.0000 </r>
       <r>   -7.2181    1.0000 </r>
       <r>   -7.2164    1.0000 </r>
       <r>   -7.1986    1.0000 </r>
       <r>   -7.1956    1.0000 </r>
       <r>   -7.1726    1.0000 </r>
       <r>   -7.1667    1.0000 </r>
       <r>   -7.1373    1.0000 </r>
       <r>   -7.1001    1.0000 </r>
       <r>   -7.0775    1.0000 </r>
       <r>   -7.0722    1.0000 </r>
       <r>   -7.0462    1.0000 </r>
       <r>   -6.9237    1.0000 </r>
       <r>   -6.8922    1.0000 </r>
       <r>   -6.8874    1.0000 </r>
       <r>   -6.8828    1.0000 </r>
       <r>   -6.8515    1.0000 </r>
       <r>   -6.8087    1.0000 </r>
       <r>   -6.7578    1.0000 </r>
       <r>   -3.3307    1.0000 </r>
       <r>   -3.2992    1.0000 </r>
       <r>   -3.2789    1.0000 </r>
       <r>   -3.2487    1.0000 </r>
       <r>   -3.2214    1.0000 </r>
       <r>   -3.1841    1.0000 </r>
       <r>   -3.1674    1.0000 </r>
       <r>   -3.0914    1.0000 </r>
       <r>   -2.9763    1.0000 </r>
       <r>   -2.8394    1.0000 </r>
       <r>   -2.5216    1.0000 </r>
       <r>   -2.5048    1.0000 </r>
       <r>   -2.4586    1.0000 </r>
       <r>   -2.4465    1.0000 </r>
       <r>   -2.3306    1.0000 </r>
       <r>   -2.2416    1.0000 </r>
       <r>   -2.1106    1.0000 </r>
       <r>   -2.0573    1.0000 </r>
       <r>   -2.0265    1.0000 </r>
       <r>   -2.0113    1.0000 </r>
       <r>   -1.9697    1.0000 </r>
       <r>   -1.9110    1.0000 </r>
       <r>   -1.8954    1.0000 </r>
       <r>   -1.8226    1.0000 </r>
       <r>   -1.7515    1.0000 </r>
       <r>   -1.7324    1.0000 </r>
       <r>   -1.7261    1.0000 </r>
       <r>   -1.6782    1.0000 </r>
       <r>   -1.6315    1.0000 </r>
       <r>   -1.6049    1.0000 </r>
       <r>   -1.5815    1.0000 </r>
       <r>   -1.5699    1.0000 </r>
       <r>   -1.5477    1.0000 </r>
       <r>   -1.5440    1.0000 </r>
       <r>   -1.5061    1.0000 </r>
       <r>   -1.4975    1.0000 </r>
       <r>   -1.4746    1.0000 </r>
       <r>   -1.4405    1.0000 </r>
       <r>   -1.4328    1.0000 </r>
       <r>   -1.4192    1.0000 </r>
       <r>   -1.4037    1.0000 </r>
       <r>   -1.3963    1.0000 </r>
       <r>   -1.3699    1.0000 </r>
       <r>   -1.3514    1.0000 </r>
       <r>   -1.3430    1.0000 </r>
       <r>   -1.3301    1.0000 </r>
       <r>   -1.2873    1.0000 </r>
       <r>   -1.2810    1.0000 </r>
       <r>   -1.2484    1.0000 </r>
       <r>   -1.2364    1.0000 </r>
       <r>   -1.2228    1.0000 </r>
       <r>   -1.2047    1.0000 </r>
       <r>   -1.1860    1.0000 </r>
       <r>   -1.1791    1.0000 </r>
       <r>   -1.1542    1.0000 </r>
       <r>   -1.1426    1.0000 </r>
       <r>   -1.1119    1.0000 </r>
       <r>   -1.0926    1.0000 </r>
       <r>   -0.9022    1.0000 </r>
       <r>   -0.8715    1.0000 </r>
       <r>   -0.8103    1.0000 </r>
       <r>   -0.7129    1.0000 </r>
       <r>   -0.6958    1.0000 </r>
       <r>   -0.6334    1.0000 </r>
       <r>   -0.5241    1.0000 </r>
       <r>   -0.2856    1.0000 </r>
       <r>   -0.1086    1.0000 </r>
       <r>   -0.0320    1.0000 </r>
       <r>    0.0317    1.0000 </r>
       <r>    2.5602    0.0000 </r>
       <r>    2.6524    0.0000 </r>
       <r>    2.8510    0.0000 </r>
       <r>    2.8966    0.0000 </r>
       <r>    2.9408    0.0000 </r>
       <r>    3.1044    0.0000 </r>
       <r>    3.1733    0.0000 </r>
       <r>    3.2163    0.0000 </r>
       <r>    3.3309    0.0000 </r>
       <r>    3.4167    0.0000 </r>
       <r>    3.8428    0.0000 </r>
       <r>    3.9977    0.0000 </r>
       <r>    4.5383    0.0000 </r>
       <r>    4.5957    0.0000 </r>
       <r>    4.8313    0.0000 </r>
       <r>    4.8563    0.0000 </r>
       <r>    5.3672    0.0000 </r>
       <r>    5.4609    0.0000 </r>
       <r>    5.5408    0.0000 </r>
       <r>    5.5973    0.0000 </r>
       <r>    5.6646    0.0000 </r>
       <r>    5.7491    0.0000 </r>
       <r>    5.8274    0.0000 </r>
       <r>    6.0138    0.0000 </r>
       <r>    6.0630    0.0000 </r>
       <r>    6.1166    0.0000 </r>
       <r>    6.1461    0.0000 </r>
       <r>    6.1991    0.0000 </r>
       <r>    6.2785    0.0000 </r>
       <r>    6.3149    0.0000 </r>
       <r>    6.3414    0.0000 </r>
       <r>    6.4821    0.0000 </r>
       <r>    6.5428    0.0000 </r>
       <r>    6.5920    0.0000 </r>
       <r>    6.6014    0.0000 </r>
       <r>    6.6208    0.0000 </r>
      </set>
      <set comment="kpoint 4">
       <r>  -20.9480    1.0000 </r>
       <r>  -20.8472    1.0000 </r>
       <r>  -20.8297    1.0000 </r>
       <r>  -20.8067    1.0000 </r>
       <r>  -20.7608    1.0000 </r>
       <r>  -20.6701    1.0000 </r>
       <r>  -20.4681    1.0000 </r>
       <r>  -20.3719    1.0000 </r>
       <r>  -16.8739    1.0000 </r>
       <r>  -16.8099    1.0000 </r>
       <r>  -16.7913    1.0000 </r>
       <r>  -16.7802    1.0000 </r>
       <r>  -16.7737    1.0000 </r>
       <r>  -16.7557    1.0000 </r>
       <r>  -16.7492    1.0000 </r>
       <r>  -16.7237    1.0000 </r>
       <r>  -16.7211    1.0000 </r>
       <r>  -16.7137    1.0000 </r>
       <r>  -16.7048    1.0000 </r>
       <r>  -16.6909    1.0000 </r>
       <r>  -16.6823    1.0000 </r>
       <r>  -16.6664    1.0000 </r>
       <r>  -16.6579    1.0000 </r>
       <r>  -16.6528    1.0000 </r>
       <r>  -16.6441    1.0000 </r>
       <r>  -16.6360    1.0000 </r>
       <r>  -16.6163    1.0000 </r>
       <r>  -16.5753    1.0000 </r>
       <r>  -16.4541    1.0000 </r>
       <r>  -16.4384    1.0000 </r>
       <r>  -16.4377    1.0000 </r>
       <r>  -16.4293    1.0000 </r>
       <r>  -16.4198    1.0000 </r>
       <r>  -16.4187    1.0000 </r>
       <r>  -16.4148    1.0000 </r>
       <r>  -16.4029    1.0000 </r>
       <r>  -16.3325    1.0000 </r>
       <r>  -16.3255    1.0000 </r>
       <r>  -16.3160    1.0000 </r>
       <r>  -16.3138    1.0000 </r>
       <r>  -16.3132    1.0000 </r>
       <r>  -16.3074    1.0000 </r>
       <r>  -16.3066    1.0000 </r>
       <r>  -16.2975    1.0000 </r>
       <r>  -16.2972    1.0000 </r>
       <r>  -16.2929    1.0000 </r>
       <r>  -16.2881    1.0000 </r>
       <r>  -16.2778    1.0000 </r>
       <r>  -14.6862    1.0000 </r>
       <r>  -14.5177    1.0000 </r>
       <r>  -14.2885    1.0000 </r>
       <r>  -14.2694    1.0000 </r>
       <r>  -14.2514    1.0000 </r>
       <r>  -14.2335    1.0000 </r>
       <r>  -14.1561    1.0000 </r>
       <r>  -14.1381    1.0000 </r>
       <r>  -14.1009    1.0000 </r>
       <r>  -14.0935    1.0000 </r>
       <r>  -14.0682    1.0000 </r>
       <r>  -14.0605    1.0000 </r>
       <r>  -13.9796    1.0000 </r>
       <r>  -13.9408    1.0000 </r>
       <r>  -13.9387    1.0000 </r>
       <r>  -13.9256    1.0000 </r>
       <r>  -13.9068    1.0000 </r>
       <r>  -13.8971    1.0000 </r>
       <r>  -13.8910    1.0000 </r>
       <r>  -13.8575    1.0000 </r>
       <r>  -13.8003    1.0000 </r>
       <r>  -13.7218    1.0000 </r>
       <r>  -12.8596    1.0000 </r>
       <r>   -8.0473    1.0000 </r>
       <r>   -7.9292    1.0000 </r>
       <r>   -7.7826    1.0000 </r>
       <r>   -7.7155    1.0000 </r>
       <r>   -7.4062    1.0000 </r>
       <r>   -7.3943    1.0000 </r>
       <r>   -7.3509    1.0000 </r>
       <r>   -7.3258    1.0000 </r>
       <r>   -7.3198    1.0000 </r>
       <r>   -7.2857    1.0000 </r>
       <r>   -7.2540    1.0000 </r>
       <r>   -7.2506    1.0000 </r>
       <r>   -7.2372    1.0000 </r>
       <r>   -7.2345    1.0000 </r>
       <r>   -7.2279    1.0000 </r>
       <r>   -7.2204    1.0000 </r>
       <r>   -7.2069    1.0000 </r>
       <r>   -7.1971    1.0000 </r>
       <r>   -7.1905    1.0000 </r>
       <r>   -7.1673    1.0000 </r>
       <r>   -7.1636    1.0000 </r>
       <r>   -7.1625    1.0000 </r>
       <r>   -7.1221    1.0000 </r>
       <r>   -7.0900    1.0000 </r>
       <r>   -7.0674    1.0000 </r>
       <r>   -7.0639    1.0000 </r>
       <r>   -6.9224    1.0000 </r>
       <r>   -6.8923    1.0000 </r>
       <r>   -6.8875    1.0000 </r>
       <r>   -6.8530    1.0000 </r>
       <r>   -6.8075    1.0000 </r>
       <r>   -6.7574    1.0000 </r>
       <r>   -3.2871    1.0000 </r>
       <r>   -3.2682    1.0000 </r>
       <r>   -3.2472    1.0000 </r>
       <r>   -3.2088    1.0000 </r>
       <r>   -3.0883    1.0000 </r>
       <r>   -2.9248    1.0000 </r>
       <r>   -2.7242    1.0000 </r>
       <r>   -2.6617    1.0000 </r>
       <r>   -2.6208    1.0000 </r>
       <r>   -2.6085    1.0000 </r>
       <r>   -2.5780    1.0000 </r>
       <r>   -2.5239    1.0000 </r>
       <r>   -2.3800    1.0000 </r>
       <r>   -2.3668    1.0000 </r>
       <r>   -2.3529    1.0000 </r>
       <r>   -2.3420    1.0000 </r>
       <r>   -2.3250    1.0000 </r>
       <r>   -2.2866    1.0000 </r>
       <r>   -2.1837    1.0000 </r>
       <r>   -2.1570    1.0000 </r>
       <r>   -2.0982    1.0000 </r>
       <r>   -1.9718    1.0000 </r>
       <r>   -1.9263    1.0000 </r>
       <r>   -1.8910    1.0000 </r>
       <r>   -1.8452    1.0000 </r>
       <r>   -1.7612    1.0000 </r>
       <r>   -1.7382    1.0000 </r>
       <r>   -1.7162    1.0000 </r>
       <r>   -1.7082    1.0000 </r>
       <r>   -1.6601    1.0000 </r>
       <r>   -1.6373    1.0000 </r>
       <r>   -1.6168    1.0000 </r>
       <r>   -1.5958    1.0000 </r>
       <r>   -1.5788    1.0000 </r>
       <r>   -1.5405    1.0000 </r>
       <r>   -1.5333    1.0000 </r>
       <r>   -1.5125    1.0000 </r>
       <r>   -1.5083    1.0000 </r>
       <r>   -1.4648    1.0000 </r>
       <r>   -1.4561    1.0000 </r>
       <r>   -1.4319    1.0000 </r>
       <r>   -1.3946    1.0000 </r>
       <r>   -1.3777    1.0000 </r>
       <r>   -1.3426    1.0000 </r>
       <r>   -1.3189    1.0000 </r>
       <r>   -1.3081    1.0000 </r>
       <r>   -1.2535    1.0000 </r>
       <r>   -1.2485    1.0000 </r>
       <r>   -1.2225    1.0000 </r>
       <r>   -1.2148    1.0000 </r>
       <r>   -1.1994    1.0000 </r>
       <r>   -1.1901    1.0000 </r>
       <r>   -1.1754    1.0000 </r>
       <r>   -1.1646    1.0000 </r>
       <r>   -1.1532    1.0000 </r>
       <r>   -1.1330    1.0000 </r>
       <r>   -1.1208    1.0000 </r>
       <r>   -1.0971    1.0000 </r>
       <r>   -0.9752    1.0000 </r>
       <r>   -0.9424    1.0000 </r>
       <r>   -0.9407    1.0000 </r>
       <r>   -0.9107    1.0000 </r>
       <r>   -0.6494    1.0000 </r>
       <r>   -0.5857    1.0000 </r>
       <r>   -0.5558    1.0000 </r>
       <r>   -0.5017    1.0000 </r>
       <r>   -0.4407    1.0000 </r>
       <r>   -0.2828    1.0000 </r>
       <r>    0.0346    1.0000 </r>
       <r>    2.6782    0.0000 </r>
       <r>    2.7942    0.0000 </r>
       <r>    2.9580    0.0000 </r>
       <r>    3.0114    0.0000 </r>
       <r>    3.1004    0.0000 </r>
       <r>    3.1746    0.0000 </r>
       <r>    3.5440    0.0000 </r>
       <r>    3.9214    0.0000 </r>
       <r>    4.1136    0.0000 </r>
       <r>    4.2428    0.0000 </r>
       <r>    4.3378    0.0000 </r>
       <r>    4.4256    0.0000 </r>
       <r>    4.5658    0.0000 </r>
       <r>    4.6129    0.0000 </r>
       <r>    4.6474    0.0000 </r>
       <r>    4.6949    0.0000 </r>
       <r>    4.7542    0.0000 </r>
       <r>    4.7858    0.0000 </r>
       <r>    4.8187    0.0000 </r>
       <r>    4.8241    0.0000 </r>
       <r>    5.6309    0.0000 </r>
       <r>    5.7045    0.0000 </r>
       <r>    5.8258    0.0000 </r>
       <r>    5.8668    0.0000 </r>
       <r>    5.9249    0.0000 </r>
       <r>    5.9645    0.0000 </r>
       <r>    6.0270    0.0000 </r>
       <r>    6.0797    0.0000 </r>
       <r>    6.2073    0.0000 </r>
       <r>    6.2796    0.0000 </r>
       <r>    6.3376    0.0000 </r>
       <r>    6.3810    0.0000 </r>
       <r>    6.4131    0.0000 </r>
       <r>    6.4805    0.0000 </r>
       <r>    6.5041    0.0000 </r>
       <r>    6.5409    0.0000 </r>
      </set>
      <set comment="kpoint 5">
       <r>  -20.9480    1.0000 </r>
       <r>  -20.8472    1.0000 </r>
       <r>  -20.8298    1.0000 </r>
       <r>  -20.8067    1.0000 </r>
       <r>  -20.7608    1.0000 </r>
       <r>  -20.6701    1.0000 </r>
       <r>  -20.4680    1.0000 </r>
       <r>  -20.3720    1.0000 </r>
       <r>  -16.8744    1.0000 </r>
       <r>  -16.8104    1.0000 </r>
       <r>  -16.7978    1.0000 </r>
       <r>  -16.7789    1.0000 </r>
       <r>  -16.7725    1.0000 </r>
       <r>  -16.7557    1.0000 </r>
       <r>  -16.7491    1.0000 </r>
       <r>  -16.7208    1.0000 </r>
       <r>  -16.7157    1.0000 </r>
       <r>  -16.7137    1.0000 </r>
       <r>  -16.7048    1.0000 </r>
       <r>  -16.6859    1.0000 </r>
       <r>  -16.6822    1.0000 </r>
       <r>  -16.6664    1.0000 </r>
       <r>  -16.6578    1.0000 </r>
       <r>  -16.6528    1.0000 </r>
       <r>  -16.6442    1.0000 </r>
       <r>  -16.6358    1.0000 </r>
       <r>  -16.6163    1.0000 </r>
       <r>  -16.5754    1.0000 </r>
       <r>  -16.4879    1.0000 </r>
       <r>  -16.4634    1.0000 </r>
       <r>  -16.4533    1.0000 </r>
       <r>  -16.4384    1.0000 </r>
       <r>  -16.4143    1.0000 </r>
       <r>  -16.4011    1.0000 </r>
       <r>  -16.3907    1.0000 </r>
       <r>  -16.3734    1.0000 </r>
       <r>  -16.3325    1.0000 </r>
       <r>  -16.3255    1.0000 </r>
       <r>  -16.3160    1.0000 </r>
       <r>  -16.3137    1.0000 </r>
       <r>  -16.3132    1.0000 </r>
       <r>  -16.3074    1.0000 </r>
       <r>  -16.3065    1.0000 </r>
       <r>  -16.2975    1.0000 </r>
       <r>  -16.2971    1.0000 </r>
       <r>  -16.2929    1.0000 </r>
       <r>  -16.2881    1.0000 </r>
       <r>  -16.2778    1.0000 </r>
       <r>  -14.6893    1.0000 </r>
       <r>  -14.5080    1.0000 </r>
       <r>  -14.3591    1.0000 </r>
       <r>  -14.2448    1.0000 </r>
       <r>  -14.2003    1.0000 </r>
       <r>  -14.1781    1.0000 </r>
       <r>  -14.1552    1.0000 </r>
       <r>  -14.1312    1.0000 </r>
       <r>  -14.0887    1.0000 </r>
       <r>  -14.0692    1.0000 </r>
       <r>  -14.0475    1.0000 </r>
       <r>  -14.0426    1.0000 </r>
       <r>  -14.0380    1.0000 </r>
       <r>  -14.0312    1.0000 </r>
       <r>  -14.0141    1.0000 </r>
       <r>  -13.9908    1.0000 </r>
       <r>  -13.9164    1.0000 </r>
       <r>  -13.8772    1.0000 </r>
       <r>  -13.8526    1.0000 </r>
       <r>  -13.8068    1.0000 </r>
       <r>  -13.7608    1.0000 </r>
       <r>  -13.7243    1.0000 </r>
       <r>  -12.8599    1.0000 </r>
       <r>   -8.0835    1.0000 </r>
       <r>   -8.0255    1.0000 </r>
       <r>   -7.7406    1.0000 </r>
       <r>   -7.6152    1.0000 </r>
       <r>   -7.4996    1.0000 </r>
       <r>   -7.4727    1.0000 </r>
       <r>   -7.3751    1.0000 </r>
       <r>   -7.3360    1.0000 </r>
       <r>   -7.3037    1.0000 </r>
       <r>   -7.2785    1.0000 </r>
       <r>   -7.2662    1.0000 </r>
       <r>   -7.2458    1.0000 </r>
       <r>   -7.2363    1.0000 </r>
       <r>   -7.2252    1.0000 </r>
       <r>   -7.2197    1.0000 </r>
       <r>   -7.2149    1.0000 </r>
       <r>   -7.2019    1.0000 </r>
       <r>   -7.1971    1.0000 </r>
       <r>   -7.1873    1.0000 </r>
       <r>   -7.1787    1.0000 </r>
       <r>   -7.1565    1.0000 </r>
       <r>   -7.1366    1.0000 </r>
       <r>   -7.1016    1.0000 </r>
       <r>   -7.0695    1.0000 </r>
       <r>   -7.0660    1.0000 </r>
       <r>   -6.9453    1.0000 </r>
       <r>   -6.9136    1.0000 </r>
       <r>   -6.8899    1.0000 </r>
       <r>   -6.8710    1.0000 </r>
       <r>   -6.8331    1.0000 </r>
       <r>   -6.8089    1.0000 </r>
       <r>   -6.7000    1.0000 </r>
       <r>   -3.3963    1.0000 </r>
       <r>   -3.2936    1.0000 </r>
       <r>   -3.2841    1.0000 </r>
       <r>   -3.2401    1.0000 </r>
       <r>   -3.1603    1.0000 </r>
       <r>   -3.1359    1.0000 </r>
       <r>   -3.0469    1.0000 </r>
       <r>   -2.9121    1.0000 </r>
       <r>   -2.6607    1.0000 </r>
       <r>   -2.5846    1.0000 </r>
       <r>   -2.5714    1.0000 </r>
       <r>   -2.5393    1.0000 </r>
       <r>   -2.4769    1.0000 </r>
       <r>   -2.4329    1.0000 </r>
       <r>   -2.3526    1.0000 </r>
       <r>   -2.2612    1.0000 </r>
       <r>   -2.2347    1.0000 </r>
       <r>   -2.1180    1.0000 </r>
       <r>   -2.0906    1.0000 </r>
       <r>   -2.0562    1.0000 </r>
       <r>   -2.0131    1.0000 </r>
       <r>   -1.9791    1.0000 </r>
       <r>   -1.8805    1.0000 </r>
       <r>   -1.8495    1.0000 </r>
       <r>   -1.8313    1.0000 </r>
       <r>   -1.7865    1.0000 </r>
       <r>   -1.7343    1.0000 </r>
       <r>   -1.7272    1.0000 </r>
       <r>   -1.6893    1.0000 </r>
       <r>   -1.6261    1.0000 </r>
       <r>   -1.5889    1.0000 </r>
       <r>   -1.5430    1.0000 </r>
       <r>   -1.5375    1.0000 </r>
       <r>   -1.4988    1.0000 </r>
       <r>   -1.4919    1.0000 </r>
       <r>   -1.4695    1.0000 </r>
       <r>   -1.4503    1.0000 </r>
       <r>   -1.4403    1.0000 </r>
       <r>   -1.4287    1.0000 </r>
       <r>   -1.4097    1.0000 </r>
       <r>   -1.4063    1.0000 </r>
       <r>   -1.3905    1.0000 </r>
       <r>   -1.3793    1.0000 </r>
       <r>   -1.3680    1.0000 </r>
       <r>   -1.3500    1.0000 </r>
       <r>   -1.3308    1.0000 </r>
       <r>   -1.3248    1.0000 </r>
       <r>   -1.2966    1.0000 </r>
       <r>   -1.2792    1.0000 </r>
       <r>   -1.2715    1.0000 </r>
       <r>   -1.2525    1.0000 </r>
       <r>   -1.2231    1.0000 </r>
       <r>   -1.2105    1.0000 </r>
       <r>   -1.1970    1.0000 </r>
       <r>   -1.1682    1.0000 </r>
       <r>   -1.1507    1.0000 </r>
       <r>   -1.1297    1.0000 </r>
       <r>   -1.0360    1.0000 </r>
       <r>   -0.9658    1.0000 </r>
       <r>   -0.9529    1.0000 </r>
       <r>   -0.9017    1.0000 </r>
       <r>   -0.7921    1.0000 </r>
       <r>   -0.6348    1.0000 </r>
       <r>   -0.5766    1.0000 </r>
       <r>   -0.5065    1.0000 </r>
       <r>   -0.4868    1.0000 </r>
       <r>   -0.2767    1.0000 </r>
       <r>    0.0660    1.0000 </r>
       <r>    0.1154    1.0000 </r>
       <r>    2.5127    0.0000 </r>
       <r>    2.6046    0.0000 </r>
       <r>    2.8803    0.0000 </r>
       <r>    2.9247    0.0000 </r>
       <r>    2.9538    0.0000 </r>
       <r>    3.1849    0.0000 </r>
       <r>    3.3029    0.0000 </r>
       <r>    3.3929    0.0000 </r>
       <r>    4.0105    0.0000 </r>
       <r>    4.1289    0.0000 </r>
       <r>    4.2278    0.0000 </r>
       <r>    4.3955    0.0000 </r>
       <r>    4.4346    0.0000 </r>
       <r>    4.5044    0.0000 </r>
       <r>    4.5910    0.0000 </r>
       <r>    4.6059    0.0000 </r>
       <r>    4.6476    0.0000 </r>
       <r>    4.8603    0.0000 </r>
       <r>    5.3549    0.0000 </r>
       <r>    5.3927    0.0000 </r>
       <r>    5.5227    0.0000 </r>
       <r>    5.6094    0.0000 </r>
       <r>    5.7166    0.0000 </r>
       <r>    5.9981    0.0000 </r>
       <r>    6.0372    0.0000 </r>
       <r>    6.1046    0.0000 </r>
       <r>    6.1959    0.0000 </r>
       <r>    6.2010    0.0000 </r>
       <r>    6.2641    0.0000 </r>
       <r>    6.3516    0.0000 </r>
       <r>    6.3962    0.0000 </r>
       <r>    6.4234    0.0000 </r>
       <r>    6.4718    0.0000 </r>
       <r>    6.5211    0.0000 </r>
       <r>    6.5661    0.0000 </r>
       <r>    6.5908    0.0000 </r>
      </set>
      <set comment="kpoint 6">
       <r>  -20.9480    1.0000 </r>
       <r>  -20.8471    1.0000 </r>
       <r>  -20.8297    1.0000 </r>
       <r>  -20.8067    1.0000 </r>
       <r>  -20.7608    1.0000 </r>
       <r>  -20.6701    1.0000 </r>
       <r>  -20.4680    1.0000 </r>
       <r>  -20.3720    1.0000 </r>
       <r>  -16.8737    1.0000 </r>
       <r>  -16.8094    1.0000 </r>
       <r>  -16.7900    1.0000 </r>
       <r>  -16.7799    1.0000 </r>
       <r>  -16.7724    1.0000 </r>
       <r>  -16.7557    1.0000 </r>
       <r>  -16.7492    1.0000 </r>
       <r>  -16.7217    1.0000 </r>
       <r>  -16.7202    1.0000 </r>
       <r>  -16.7137    1.0000 </r>
       <r>  -16.7048    1.0000 </r>
       <r>  -16.6895    1.0000 </r>
       <r>  -16.6823    1.0000 </r>
       <r>  -16.6664    1.0000 </r>
       <r>  -16.6579    1.0000 </r>
       <r>  -16.6528    1.0000 </r>
       <r>  -16.6441    1.0000 </r>
       <r>  -16.6359    1.0000 </r>
       <r>  -16.6163    1.0000 </r>
       <r>  -16.5753    1.0000 </r>
       <r>  -16.4832    1.0000 </r>
       <r>  -16.4582    1.0000 </r>
       <r>  -16.4399    1.0000 </r>
       <r>  -16.4220    1.0000 </r>
       <r>  -16.4208    1.0000 </r>
       <r>  -16.4082    1.0000 </r>
       <r>  -16.4053    1.0000 </r>
       <r>  -16.3866    1.0000 </r>
       <r>  -16.3325    1.0000 </r>
       <r>  -16.3254    1.0000 </r>
       <r>  -16.3160    1.0000 </r>
       <r>  -16.3138    1.0000 </r>
       <r>  -16.3132    1.0000 </r>
       <r>  -16.3074    1.0000 </r>
       <r>  -16.3065    1.0000 </r>
       <r>  -16.2975    1.0000 </r>
       <r>  -16.2971    1.0000 </r>
       <r>  -16.2929    1.0000 </r>
       <r>  -16.2881    1.0000 </r>
       <r>  -16.2778    1.0000 </r>
       <r>  -14.6866    1.0000 </r>
       <r>  -14.5171    1.0000 </r>
       <r>  -14.3198    1.0000 </r>
       <r>  -14.2928    1.0000 </r>
       <r>  -14.2154    1.0000 </r>
       <r>  -14.1913    1.0000 </r>
       <r>  -14.1523    1.0000 </r>
       <r>  -14.1302    1.0000 </r>
       <r>  -14.1292    1.0000 </r>
       <r>  -14.0895    1.0000 </r>
       <r>  -14.0803    1.0000 </r>
       <r>  -14.0389    1.0000 </r>
       <r>  -13.9917    1.0000 </r>
       <r>  -13.9686    1.0000 </r>
       <r>  -13.9463    1.0000 </r>
       <r>  -13.9252    1.0000 </r>
       <r>  -13.9218    1.0000 </r>
       <r>  -13.8925    1.0000 </r>
       <r>  -13.8549    1.0000 </r>
       <r>  -13.8285    1.0000 </r>
       <r>  -13.8189    1.0000 </r>
       <r>  -13.7305    1.0000 </r>
       <r>  -12.8599    1.0000 </r>
       <r>   -7.9466    1.0000 </r>
       <r>   -7.8055    1.0000 </r>
       <r>   -7.7968    1.0000 </r>
       <r>   -7.7717    1.0000 </r>
       <r>   -7.5771    1.0000 </r>
       <r>   -7.4420    1.0000 </r>
       <r>   -7.3787    1.0000 </r>
       <r>   -7.3492    1.0000 </r>
       <r>   -7.3033    1.0000 </r>
       <r>   -7.2785    1.0000 </r>
       <r>   -7.2694    1.0000 </r>
       <r>   -7.2606    1.0000 </r>
       <r>   -7.2392    1.0000 </r>
       <r>   -7.2263    1.0000 </r>
       <r>   -7.2221    1.0000 </r>
       <r>   -7.2162    1.0000 </r>
       <r>   -7.2082    1.0000 </r>
       <r>   -7.1864    1.0000 </r>
       <r>   -7.1852    1.0000 </r>
       <r>   -7.1736    1.0000 </r>
[...]
        <r>  0.0000  0.0009  0.0011 </r>
        <r>  0.0001  0.0006  0.0003 </r>
        <r>  0.0002  0.0001  0.0016 </r>
        <r>  0.0001  0.0007  0.0003 </r>
        <r>  0.0000  0.0020  0.0004 </r>
        <r>  0.0019  0.0006  0.0013 </r>
        <r>  0.0000  0.0010  0.0004 </r>
        <r>  0.0032  0.0025  0.0024 </r>
        <r>  0.0000  0.0008  0.0001 </r>
       </set>
       <set comment="band 199">
        <r>  0.0000  0.0001  0.0052 </r>
        <r>  0.0001  0.0001  0.0057 </r>
        <r>  0.0090  0.0041  0.0143 </r>
        <r>  0.0047  0.0004  0.0073 </r>
        <r>  0.0002  0.0001  0.0024 </r>
        <r>  0.0001  0.0001  0.0005 </r>
        <r>  0.0006  0.0004  0.0045 </r>
        <r>  0.0002  0.0022  0.0190 </r>
        <r>  0.0000  0.0010  0.0001 </r>
        <r>  0.0001  0.0028  0.0000 </r>
        <r>  0.0000  0.0023  0.0002 </r>
        <r>  0.0000  0.0150  0.0006 </r>
        <r>  0.0000  0.0008  0.0002 </r>
        <r>  0.0000  0.0151  0.0007 </r>
        <r>  0.0000  0.0005  0.0001 </r>
        <r>  0.0000  0.0037  0.0002 </r>
        <r>  0.0000  0.0046  0.0003 </r>
        <r>  0.0000  0.0012  0.0001 </r>
        <r>  0.0004  0.0041  0.0002 </r>
        <r>  0.0020  0.0044  0.0043 </r>
        <r>  0.0000  0.0001  0.0001 </r>
        <r>  0.0001  0.0066  0.0002 </r>
        <r>  0.0002  0.0004  0.0005 </r>
        <r>  0.0001  0.0002  0.0006 </r>
        <r>  0.0005  0.0002  0.0012 </r>
        <r>  0.0000  0.0031  0.0017 </r>
        <r>  0.0004  0.0007  0.0008 </r>
        <r>  0.0014  0.0042  0.0015 </r>
        <r>  0.0002  0.0019  0.0008 </r>
        <r>  0.0005  0.0022  0.0011 </r>
        <r>  0.0000  0.0004  0.0002 </r>
        <r>  0.0005  0.0015  0.0010 </r>
        <r>  0.0008  0.0003  0.0008 </r>
        <r>  0.0001  0.0023  0.0012 </r>
        <r>  0.0002  0.0019  0.0007 </r>
        <r>  0.0003  0.0014  0.0009 </r>
        <r>  0.0003  0.0009  0.0002 </r>
        <r>  0.0005  0.0033  0.0017 </r>
        <r>  0.0003  0.0005  0.0010 </r>
       </set>
       <set comment="band 200">
        <r>  0.0001  0.0006  0.0089 </r>
        <r>  0.0059  0.0019  0.0076 </r>
        <r>  0.0004  0.0001  0.0037 </r>
        <r>  0.0009  0.0006  0.0063 </r>
        <r>  0.0110  0.0001  0.0119 </r>
        <r>  0.0005  0.0005  0.0201 </r>
        <r>  0.0001  0.0003  0.0064 </r>
        <r>  0.0001  0.0001  0.0043 </r>
        <r>  0.0000  0.0005  0.0001 </r>
        <r>  0.0003  0.0016  0.0003 </r>
        <r>  0.0000  0.0032  0.0002 </r>
        <r>  0.0000  0.0022  0.0005 </r>
        <r>  0.0000  0.0020  0.0002 </r>
        <r>  0.0000  0.0033  0.0003 </r>
        <r>  0.0000  0.0017  0.0002 </r>
        <r>  0.0002  0.0056  0.0002 </r>
        <r>  0.0001  0.0019  0.0006 </r>
        <r>  0.0000  0.0034  0.0032 </r>
        <r>  0.0044  0.0010  0.0026 </r>
        <r>  0.0000  0.0002  0.0004 </r>
        <r>  0.0008  0.0054  0.0016 </r>
        <r>  0.0006  0.0026  0.0019 </r>
        <r>  0.0004  0.0030  0.0009 </r>
        <r>  0.0006  0.0055  0.0007 </r>
        <r>  0.0004  0.0042  0.0005 </r>
        <r>  0.0007  0.0014  0.0006 </r>
        <r>  0.0008  0.0045  0.0013 </r>
        <r>  0.0002  0.0002  0.0002 </r>
        <r>  0.0003  0.0018  0.0004 </r>
        <r>  0.0000  0.0006  0.0006 </r>
        <r>  0.0006  0.0010  0.0009 </r>
        <r>  0.0008  0.0019  0.0008 </r>
        <r>  0.0005  0.0027  0.0007 </r>
        <r>  0.0000  0.0007  0.0011 </r>
        <r>  0.0005  0.0016  0.0009 </r>
        <r>  0.0005  0.0016  0.0010 </r>
        <r>  0.0030  0.0010  0.0024 </r>
        <r>  0.0001  0.0002  0.0003 </r>
        <r>  0.0000  0.0007  0.0005 </r>
       </set>
       <set comment="band 201">
        <r>  0.0010  0.0008  0.0064 </r>
        <r>  0.0028  0.0005  0.0037 </r>
        <r>  0.0043  0.0003  0.0075 </r>
        <r>  0.0058  0.0013  0.0060 </r>
        <r>  0.0002  0.0002  0.0063 </r>
        <r>  0.0008  0.0001  0.0043 </r>
        <r>  0.0006  0.0019  0.0039 </r>
        <r>  0.0085  0.0007  0.0094 </r>
        <r>  0.0000  0.0032  0.0001 </r>
        <r>  0.0000  0.0114  0.0004 </r>
        <r>  0.0000  0.0012  0.0001 </r>
        <r>  0.0000  0.0008  0.0002 </r>
        <r>  0.0000  0.0115  0.0001 </r>
        <r>  0.0000  0.0035  0.0002 </r>
        <r>  0.0000  0.0024  0.0003 </r>
        <r>  0.0001  0.0052  0.0006 </r>
        <r>  0.0039  0.0027  0.0027 </r>
        <r>  0.0005  0.0012  0.0009 </r>
        <r>  0.0004  0.0000  0.0010 </r>
        <r>  0.0002  0.0061  0.0002 </r>
        <r>  0.0003  0.0058  0.0004 </r>
        <r>  0.0000  0.0004  0.0003 </r>
        <r>  0.0013  0.0002  0.0016 </r>
        <r>  0.0002  0.0003  0.0008 </r>
        <r>  0.0020  0.0044  0.0030 </r>
        <r>  0.0004  0.0008  0.0008 </r>
        <r>  0.0015  0.0035  0.0023 </r>
        <r>  0.0001  0.0005  0.0007 </r>
        <r>  0.0007  0.0011  0.0005 </r>
        <r>  0.0000  0.0017  0.0019 </r>
        <r>  0.0003  0.0019  0.0004 </r>
        <r>  0.0002  0.0015  0.0002 </r>
        <r>  0.0012  0.0076  0.0025 </r>
        <r>  0.0003  0.0009  0.0001 </r>
        <r>  0.0000  0.0030  0.0006 </r>
        <r>  0.0000  0.0012  0.0011 </r>
        <r>  0.0000  0.0073  0.0004 </r>
        <r>  0.0001  0.0008  0.0010 </r>
        <r>  0.0004  0.0008  0.0003 </r>
       </set>
       <set comment="band 202">
        <r>  0.0024  0.0015  0.0150 </r>
        <r>  0.0115  0.0004  0.0034 </r>
        <r>  0.0004  0.0002  0.0042 </r>
        <r>  0.0003  0.0007  0.0074 </r>
        <r>  0.0030  0.0016  0.0120 </r>
        <r>  0.0047  0.0005  0.0051 </r>
        <r>  0.0004  0.0003  0.0007 </r>
        <r>  0.0026  0.0004  0.0048 </r>
        <r>  0.0000  0.0053  0.0004 </r>
        <r>  0.0000  0.0002  0.0002 </r>
        <r>  0.0000  0.0133  0.0001 </r>
        <r>  0.0000  0.0051  0.0000 </r>
        <r>  0.0000  0.0037  0.0000 </r>
        <r>  0.0000  0.0008  0.0002 </r>
        <r>  0.0000  0.0072  0.0002 </r>
        <r>  0.0000  0.0038  0.0001 </r>
        <r>  0.0009  0.0014  0.0006 </r>
        <r>  0.0051  0.0014  0.0046 </r>
        <r>  0.0000  0.0005  0.0037 </r>
        <r>  0.0000  0.0087  0.0004 </r>
        <r>  0.0007  0.0053  0.0020 </r>
        <r>  0.0005  0.0042  0.0003 </r>
        <r>  0.0009  0.0055  0.0014 </r>
        <r>  0.0000  0.0022  0.0010 </r>
        <r>  0.0005  0.0021  0.0011 </r>
        <r>  0.0006  0.0013  0.0005 </r>
        <r>  0.0001  0.0029  0.0005 </r>
        <r>  0.0004  0.0017  0.0007 </r>
        <r>  0.0005  0.0037  0.0008 </r>
        <r>  0.0003  0.0004  0.0002 </r>
        <r>  0.0021  0.0025  0.0036 </r>
        <r>  0.0000  0.0007  0.0011 </r>
        <r>  0.0001  0.0036  0.0005 </r>
        <r>  0.0003  0.0018  0.0005 </r>
        <r>  0.0008  0.0006  0.0007 </r>
        <r>  0.0000  0.0001  0.0013 </r>
        <r>  0.0005  0.0018  0.0014 </r>
        <r>  0.0003  0.0009  0.0001 </r>
        <r>  0.0000  0.0001  0.0003 </r>
       </set>
       <set comment="band 203">
        <r>  0.0093  0.0011  0.0048 </r>
        <r>  0.0000  0.0002  0.0069 </r>
        <r>  0.0000  0.0004  0.0018 </r>
        <r>  0.0000  0.0005  0.0024 </r>
        <r>  0.0045  0.0023  0.0087 </r>
        <r>  0.0097  0.0014  0.0137 </r>
        <r>  0.0000  0.0002  0.0035 </r>
        <r>  0.0000  0.0000  0.0100 </r>
        <r>  0.0000  0.0039  0.0001 </r>
        <r>  0.0003  0.0060  0.0001 </r>
        <r>  0.0000  0.0076  0.0001 </r>
        <r>  0.0001  0.0011  0.0001 </r>
        <r>  0.0000  0.0050  0.0001 </r>
        <r>  0.0002  0.0005  0.0000 </r>
        <r>  0.0000  0.0042  0.0001 </r>
        <r>  0.0001  0.0077  0.0000 </r>
        <r>  0.0000  0.0082  0.0002 </r>
        <r>  0.0001  0.0031  0.0008 </r>
        <r>  0.0033  0.0057  0.0019 </r>
        <r>  0.0000  0.0002  0.0003 </r>
        <r>  0.0036  0.0020  0.0048 </r>
        <r>  0.0003  0.0004  0.0030 </r>
        <r>  0.0015  0.0013  0.0015 </r>
        <r>  0.0006  0.0031  0.0005 </r>
        <r>  0.0021  0.0019  0.0014 </r>
        <r>  0.0002  0.0001  0.0004 </r>
        <r>  0.0007  0.0041  0.0008 </r>
        <r>  0.0002  0.0019  0.0020 </r>
        <r>  0.0000  0.0036  0.0004 </r>
        <r>  0.0000  0.0016  0.0006 </r>
        <r>  0.0011  0.0018  0.0012 </r>
        <r>  0.0004  0.0030  0.0006 </r>
        <r>  0.0017  0.0008  0.0014 </r>
        <r>  0.0001  0.0001  0.0003 </r>
        <r>  0.0001  0.0040  0.0003 </r>
        <r>  0.0000  0.0020  0.0004 </r>
        <r>  0.0005  0.0039  0.0010 </r>
        <r>  0.0002  0.0027  0.0018 </r>
        <r>  0.0000  0.0008  0.0000 </r>
       </set>
       <set comment="band 204">
        <r>  0.0011  0.0001  0.0054 </r>
        <r>  0.0001  0.0007  0.0131 </r>
        <r>  0.0000  0.0000  0.0030 </r>
        <r>  0.0046  0.0010  0.0286 </r>
        <r>  0.0000  0.0002  0.0206 </r>
        <r>  0.0007  0.0001  0.0040 </r>
        <r>  0.0002  0.0008  0.0049 </r>
        <r>  0.0002  0.0018  0.0189 </r>
        <r>  0.0000  0.0040  0.0007 </r>
        <r>  0.0000  0.0016  0.0002 </r>
        <r>  0.0000  0.0039  0.0002 </r>
        <r>  0.0002  0.0162  0.0008 </r>
        <r>  0.0000  0.0010  0.0002 </r>
        <r>  0.0000  0.0119  0.0018 </r>
        <r>  0.0000  0.0070  0.0002 </r>
        <r>  0.0000  0.0020  0.0000 </r>
        <r>  0.0006  0.0026  0.0017 </r>
        <r>  0.0000  0.0021  0.0004 </r>
        <r>  0.0007  0.0004  0.0009 </r>
        <r>  0.0011  0.0019  0.0018 </r>
        <r>  0.0002  0.0010  0.0010 </r>
        <r>  0.0001  0.0060  0.0031 </r>
        <r>  0.0001  0.0008  0.0019 </r>
        <r>  0.0000  0.0022  0.0012 </r>
        <r>  0.0001  0.0001  0.0008 </r>
        <r>  0.0014  0.0017  0.0032 </r>
        <r>  0.0003  0.0003  0.0019 </r>
        <r>  0.0003  0.0013  0.0013 </r>
        <r>  0.0002  0.0020  0.0003 </r>
        <r>  0.0005  0.0020  0.0010 </r>
        <r>  0.0004  0.0012  0.0019 </r>
        <r>  0.0001  0.0013  0.0005 </r>
        <r>  0.0002  0.0018  0.0004 </r>
        <r>  0.0001  0.0021  0.0020 </r>
        <r>  0.0000  0.0002  0.0002 </r>
        <r>  0.0009  0.0048  0.0020 </r>
        <r>  0.0000  0.0015  0.0008 </r>
        <r>  0.0002  0.0010  0.0011 </r>
        <r>  0.0000  0.0008  0.0002 </r>
       </set>
       <set comment="band 205">
        <r>  0.0004  0.0003  0.0240 </r>
        <r>  0.0000  0.0002  0.0065 </r>
        <r>  0.0010  0.0002  0.0069 </r>
        <r>  0.0046  0.0001  0.0125 </r>
        <r>  0.0002  0.0004  0.0140 </r>
        <r>  0.0003  0.0002  0.0155 </r>
        <r>  0.0012  0.0001  0.0095 </r>
        <r>  0.0016  0.0012  0.0147 </r>
        <r>  0.0000  0.0043  0.0003 </r>
        <r>  0.0001  0.0069  0.0003 </r>
        <r>  0.0000  0.0065  0.0006 </r>
        <r>  0.0000  0.0034  0.0005 </r>
        <r>  0.0000  0.0115  0.0005 </r>
        <r>  0.0001  0.0057  0.0003 </r>
        <r>  0.0001  0.0029  0.0007 </r>
        <r>  0.0000  0.0097  0.0002 </r>
        <r>  0.0004  0.0008  0.0019 </r>
        <r>  0.0000  0.0007  0.0003 </r>
        <r>  0.0000  0.0009  0.0004 </r>
        <r>  0.0001  0.0006  0.0013 </r>
        <r>  0.0002  0.0001  0.0007 </r>
        <r>  0.0000  0.0017  0.0003 </r>
        <r>  0.0013  0.0029  0.0021 </r>
        <r>  0.0002  0.0030  0.0008 </r>
        <r>  0.0009  0.0005  0.0028 </r>
        <r>  0.0002  0.0002  0.0013 </r>
        <r>  0.0009  0.0014  0.0018 </r>
        <r>  0.0006  0.0024  0.0016 </r>
        <r>  0.0005  0.0008  0.0020 </r>
        <r>  0.0006  0.0004  0.0016 </r>
        <r>  0.0011  0.0016  0.0026 </r>
        <r>  0.0003  0.0038  0.0008 </r>
        <r>  0.0004  0.0002  0.0016 </r>
        <r>  0.0004  0.0000  0.0018 </r>
        <r>  0.0005  0.0001  0.0018 </r>
        <r>  0.0016  0.0008  0.0022 </r>
        <r>  0.0000  0.0034  0.0005 </r>
        <r>  0.0009  0.0024  0.0018 </r>
        <r>  0.0000  0.0003  0.0003 </r>
       </set>
       <set comment="band 206">
        <r>  0.0000  0.0001  0.0131 </r>
        <r>  0.0020  0.0006  0.0097 </r>
        <r>  0.0002  0.0003  0.0121 </r>
        <r>  0.0016  0.0004  0.0163 </r>
        <r>  0.0004  0.0005  0.0128 </r>
        <r>  0.0026  0.0002  0.0086 </r>
        <r>  0.0010  0.0004  0.0081 </r>
        <r>  0.0000  0.0012  0.0234 </r>
        <r>  0.0001  0.0022  0.0007 </r>
        <r>  0.0000  0.0061  0.0004 </r>
        <r>  0.0000  0.0036  0.0003 </r>
        <r>  0.0002  0.0068  0.0004 </r>
        <r>  0.0000  0.0069  0.0004 </r>
        <r>  0.0000  0.0105  0.0005 </r>
        <r>  0.0000  0.0059  0.0001 </r>
        <r>  0.0000  0.0042  0.0003 </r>
        <r>  0.0000  0.0019  0.0003 </r>
        <r>  0.0002  0.0024  0.0008 </r>
        <r>  0.0001  0.0006  0.0006 </r>
        <r>  0.0008  0.0006  0.0010 </r>
        <r>  0.0007  0.0002  0.0014 </r>
        <r>  0.0001  0.0015  0.0007 </r>
        <r>  0.0002  0.0011  0.0016 </r>
        <r>  0.0000  0.0010  0.0008 </r>
        <r>  0.0001  0.0040  0.0024 </r>
        <r>  0.0000  0.0028  0.0008 </r>
        <r>  0.0005  0.0007  0.0015 </r>
        <r>  0.0001  0.0005  0.0007 </r>
        <r>  0.0000  0.0007  0.0008 </r>
        <r>  0.0002  0.0037  0.0019 </r>
        <r>  0.0000  0.0003  0.0020 </r>
        <r>  0.0006  0.0004  0.0017 </r>
        <r>  0.0001  0.0025  0.0018 </r>
        <r>  0.0022  0.0007  0.0027 </r>
        <r>  0.0010  0.0021  0.0021 </r>
        <r>  0.0001  0.0042  0.0006 </r>
        <r>  0.0006  0.0005  0.0018 </r>
        <r>  0.0005  0.0011  0.0026 </r>
        <r>  0.0001  0.0021  0.0007 </r>
       </set>
       <set comment="band 207">
        <r>  0.0009  0.0001  0.0093 </r>
        <r>  0.0004  0.0003  0.0267 </r>
        <r>  0.0001  0.0006  0.0110 </r>
        <r>  0.0001  0.0002  0.0104 </r>
        <r>  0.0003  0.0017  0.0222 </r>
        <r>  0.0001  0.0001  0.0081 </r>
        <r>  0.0002  0.0002  0.0047 </r>
        <r>  0.0002  0.0017  0.0208 </r>
        <r>  0.0000  0.0032  0.0002 </r>
        <r>  0.0001  0.0105  0.0008 </r>
        <r>  0.0001  0.0036  0.0001 </r>
        <r>  0.0000  0.0099  0.0006 </r>
        <r>  0.0000  0.0006  0.0004 </r>
        <r>  0.0000  0.0020  0.0010 </r>
        <r>  0.0000  0.0022  0.0007 </r>
        <r>  0.0001  0.0065  0.0008 </r>
        <r>  0.0003  0.0003  0.0009 </r>
        <r>  0.0003  0.0008  0.0018 </r>
        <r>  0.0007  0.0045  0.0029 </r>
        <r>  0.0000  0.0012  0.0011 </r>
        <r>  0.0000  0.0008  0.0002 </r>
        <r>  0.0009  0.0003  0.0030 </r>
        <r>  0.0000  0.0012  0.0010 </r>
        <r>  0.0004  0.0022  0.0011 </r>
        <r>  0.0002  0.0007  0.0011 </r>
        <r>  0.0000  0.0004  0.0014 </r>
        <r>  0.0003  0.0019  0.0020 </r>
        <r>  0.0003  0.0007  0.0009 </r>
        <r>  0.0001  0.0021  0.0006 </r>
        <r>  0.0007  0.0017  0.0027 </r>
        <r>  0.0001  0.0014  0.0008 </r>
        <r>  0.0003  0.0016  0.0005 </r>
        <r>  0.0002  0.0020  0.0016 </r>
        <r>  0.0001  0.0020  0.0010 </r>
        <r>  0.0000  0.0013  0.0011 </r>
        <r>  0.0000  0.0008  0.0015 </r>
        <r>  0.0000  0.0016  0.0030 </r>
        <r>  0.0000  0.0008  0.0009 </r>
        <r>  0.0002  0.0013  0.0006 </r>
       </set>
       <set comment="band 208">
        <r>  0.0001  0.0007  0.0060 </r>
        <r>  0.0000  0.0012  0.0251 </r>
        <r>  0.0003  0.0003  0.0039 </r>
        <r>  0.0001  0.0013  0.0081 </r>
        <r>  0.0001  0.0004  0.0196 </r>
        <r>  0.0008  0.0005  0.0156 </r>
        <r>  0.0016  0.0003  0.0101 </r>
        <r>  0.0010  0.0009  0.0209 </r>
        <r>  0.0000  0.0013  0.0002 </r>
        <r>  0.0000  0.0103  0.0004 </r>
        <r>  0.0000  0.0059  0.0003 </r>
        <r>  0.0001  0.0030  0.0002 </r>
        <r>  0.0001  0.0011  0.0005 </r>
        <r>  0.0000  0.0088  0.0002 </r>
        <r>  0.0000  0.0012  0.0005 </r>
        <r>  0.0000  0.0106  0.0004 </r>
        <r>  0.0003  0.0007  0.0013 </r>
        <r>  0.0001  0.0012  0.0006 </r>
        <r>  0.0004  0.0089  0.0022 </r>
        <r>  0.0002  0.0015  0.0021 </r>
        <r>  0.0002  0.0016  0.0019 </r>
        <r>  0.0013  0.0013  0.0010 </r>
        <r>  0.0001  0.0014  0.0014 </r>
        <r>  0.0002  0.0014  0.0011 </r>
        <r>  0.0003  0.0007  0.0012 </r>
        <r>  0.0009  0.0022  0.0019 </r>
        <r>  0.0006  0.0022  0.0036 </r>
        <r>  0.0001  0.0013  0.0005 </r>
        <r>  0.0004  0.0006  0.0010 </r>
        <r>  0.0001  0.0029  0.0009 </r>
        <r>  0.0000  0.0014  0.0005 </r>
        <r>  0.0001  0.0020  0.0003 </r>
        <r>  0.0001  0.0035  0.0008 </r>
        <r>  0.0001  0.0015  0.0015 </r>
        <r>  0.0000  0.0007  0.0005 </r>
        <r>  0.0000  0.0008  0.0009 </r>
        <r>  0.0000  0.0018  0.0013 </r>
        <r>  0.0004  0.0007  0.0023 </r>
        <r>  0.0001  0.0006  0.0003 </r>
       </set>
      </set>
     </set>
    </set>
   </array>
  </projected>
 </calculation>
 <structure name="finalpos" >
  <crystal>
   <varray name="basis" >
    <v>       8.45648900       0.00000000       8.04030100 </v>
    <v>       0.00000000      11.72984700       0.00000000 </v>
    <v>      -8.45648900       0.00000000       8.04030100 </v>
   </varray>
   <i name="volume">   1595.08833419 </i>
   <varray name="rec_basis" >
    <v>       0.05912619      -0.00000000       0.06218673 </v>
    <v>       0.00000000       0.08525260      -0.00000000 </v>
    <v>      -0.05912619       0.00000000       0.06218673 </v>
   </varray>
  </crystal>
  <varray name="positions" >
   <v>       0.26590800       0.25278900       0.20425500 </v>
   <v>       0.77030900       0.24406300       0.73190800 </v>
   <v>       0.70571000       0.76062200       0.24526900 </v>
   <v>       0.21164100       0.74938600       0.77935800 </v>
   <v>       0.29854500       0.25890300       0.73872000 </v>
   <v>       0.79037100       0.24680000       0.21846000 </v>
   <v>       0.73431500       0.75008500       0.80673000 </v>
   <v>       0.22987700       0.74681800       0.27816000 </v>
   <v>       0.00265300       0.00092300       0.99858600 </v>
   <v>       0.50037600       0.00691600       0.49622300 </v>
   <v>       0.49704600       0.00217200       0.99728300 </v>
   <v>       0.00417000       0.01866300       0.50262300 </v>
   <v>       0.50044400       0.50090300       0.00067300 </v>
   <v>       0.97911300       0.49664400       0.50149900 </v>
   <v>       0.99993000       0.50030500       0.00298400 </v>
   <v>       0.50769800       0.49869500       0.50038700 </v>
   <v>       0.47412300       0.75142900       0.96903200 </v>
   <v>       0.97928900       0.25073700       0.97242400 </v>
   <v>       0.45354400       0.24623000       0.47027500 </v>
   <v>       0.02223300       0.75094000       0.03217000 </v>
   <v>       0.52421000       0.25112100       0.03373300 </v>
   <v>       0.04239100       0.26060700       0.54216800 </v>
   <v>       0.24790900       0.47529700       0.95526700 </v>
   <v>       0.74794800       0.42858000       0.46038900 </v>
   <v>       0.45964200       0.53959300       0.25020200 </v>
   <v>       0.95114100       0.53466900       0.74614000 </v>
   <v>       0.54627700       0.02907900       0.74894800 </v>
   <v>       0.04805200       0.03039300       0.25344300 </v>
   <v>       0.75331500       0.98099900       0.03725700 </v>
   <v>       0.24972200       0.95394500       0.54266500 </v>
   <v>       0.24829900       0.03101500       0.94345500 </v>
   <v>       0.74895400       0.03141400       0.44718300 </v>
   <v>       0.44957700       0.96475700       0.24749600 </v>
   <v>       0.95367900       0.96258300       0.74411500 </v>
   <v>       0.75254900       0.52644700       0.05090700 </v>
   <v>       0.26163100       0.55233200       0.54309600 </v>
   <v>       0.55363000       0.46895300       0.75254900 </v>
   <v>       0.04482000       0.46971600       0.25519900 </v>
   <v>       0.73199500       0.72447700       0.50258000 </v>
  </varray>
 </structure>
</modeling>
