CsPbBr3 cubic bulk                      
           1
     8.456489    0.000000    8.040301
     0.000000   11.729847    0.000000
    -8.456489    0.000000    8.040301
   Cs   Pb   Br
   8   8  23
Direct configuration=     1
   0.26590800  0.25278900  0.20425500
   0.77030900  0.24406300  0.73190800
   0.70571000  0.76062200  0.24526900
   0.21164100  0.74938600  0.77935800
   0.29854500  0.25890300  0.73872000
   0.79037100  0.24680000  0.21846000
   0.73431500  0.75008500  0.80673000
   0.22987700  0.74681800  0.27816000
   0.00265300  0.00092300  0.99858600
   0.50037600  0.00691600  0.49622300
   0.49704600  0.00217200  0.99728300
   0.00417000  0.01866300  0.50262300
   0.50044400  0.50090300  0.00067300
   0.97911300  0.49664400  0.50149900
   0.99993000  0.50030500  0.00298400
   0.50769800  0.49869500  0.50038700
   0.47412300  0.75142900  0.96903200
   0.97928900  0.25073700  0.97242400
   0.45354400  0.24623000  0.47027500
   0.02223300  0.75094000  0.03217000
   0.52421000  0.25112100  0.03373300
   0.04239100  0.26060700  0.54216800
   0.24790900  0.47529700  0.95526700
   0.74794800  0.42858000  0.46038900
   0.45964200  0.53959300  0.25020200
   0.95114100  0.53466900  0.74614000
   0.54627700  0.02907900  0.74894800
   0.04805200  0.03039300  0.25344300
   0.75331500  0.98099900  0.03725700
   0.24972200  0.95394500  0.54266500
   0.24829900  0.03101500  0.94345500
   0.74895400  0.03141400  0.44718300
   0.44957700  0.96475700  0.24749600
   0.95367900  0.96258300  0.74411500
   0.75254900  0.52644700  0.05090700
   0.26163100  0.55233200  0.54309600
   0.55363000  0.46895300  0.75254900
   0.04482000  0.46971600  0.25519900
   0.73199500  0.72447700  0.50258000
