|===============================================================================
|
|  DFTB+ release 22.2
|
|  Copyright (C) 2006 - 2022  DFTB+ developers group
|
|===============================================================================
|
|  When publishing results obtained with DFTB+, please cite the following
|  reference:
|
|  * DFTB+, a software package for efficient approximate density functional
|    theory based atomistic simulations, J. Chem. Phys. 152, 124101 (2020).
|    [doi: 10.1063/1.5143190]
|
|  You should also cite additional publications crediting the parametrization
|  data you use. Please consult the documentation of the SK-files for the
|  references.
|
|===============================================================================

Reading input file 'dftb_in.hsd'
Parser version: 12

--------------------------------------------------------------------------------
Reading SK-files:
/home/thism292/Documents/repos/CsPbBr3_CCS/Data/DFTB_CCS/DFTB_PARAMS/Cs_w3_00_c9_00_Pb_w3_00_c9_00_Br_w3_00_c9_00/Cs-Cs.skf
/home/thism292/Documents/repos/CsPbBr3_CCS/Data/DFTB_CCS/DFTB_PARAMS/Cs_w3_00_c9_00_Pb_w3_00_c9_00_Br_w3_00_c9_00/Cs-Pb.skf
/home/thism292/Documents/repos/CsPbBr3_CCS/Data/DFTB_CCS/DFTB_PARAMS/Cs_w3_00_c9_00_Pb_w3_00_c9_00_Br_w3_00_c9_00/Cs-Br.skf
/home/thism292/Documents/repos/CsPbBr3_CCS/Data/DFTB_CCS/DFTB_PARAMS/Cs_w3_00_c9_00_Pb_w3_00_c9_00_Br_w3_00_c9_00/Pb-Pb.skf
/home/thism292/Documents/repos/CsPbBr3_CCS/Data/DFTB_CCS/DFTB_PARAMS/Cs_w3_00_c9_00_Pb_w3_00_c9_00_Br_w3_00_c9_00/Pb-Br.skf
/home/thism292/Documents/repos/CsPbBr3_CCS/Data/DFTB_CCS/DFTB_PARAMS/Cs_w3_00_c9_00_Pb_w3_00_c9_00_Br_w3_00_c9_00/Br-Br.skf
Done.
WARNING!
-> This driver is deprecated and will be removed in future versions.
Please use the GeometryOptimisation driver instead.
Path: dftbplusinput/Driver/ConjugateGradient
Line: 5-8 (File: dftb_in.hsd)



Processed input in HSD format written to 'dftb_pin.hsd'

Starting initialization...
--------------------------------------------------------------------------------
WARNING!
-> Dipole printed for extended system : value printed is not well defined
OpenMP threads:              16
Chosen random seed:          29085418
Mode:                        Conjugate gradient relaxation
Self consistent charges:     Yes
SCC-tolerance:                 0.100000E-09
Max. scc iterations:                    100
Shell resolved Hubbard:      No
Spin polarisation:           No
Nr. of up electrons:           104.000000
Nr. of down electrons:         104.000000
Periodic boundaries:         Yes
Electronic solver:           Relatively robust
Mixer:                       Broyden mixer
Mixing parameter:                  0.200000
Maximal SCC-cycles:                     100
Nr. of chrg. vec. in memory:            100
Nr. of moved atoms:                      40
Max. nr. of geometry steps:            1000
Force tolerance:               0.100000E-07
Electronic temperature:              0.100000E-07 H      0.272114E-06 eV
Initial charges:             Set automatically (system chrg:   0.000E+00)
Included shells:            Cs:  s
                            Pb:  s, p
                            Br:  s, p
K-points and weights:           1:  0.000000  0.000000  0.000000     0.125000
                                2:  0.000000  0.000000  0.500000     0.125000
                                3:  0.000000  0.500000  0.000000     0.125000
                                4:  0.000000  0.500000  0.500000     0.125000
                                5:  0.500000  0.000000  0.000000     0.125000
                                6:  0.500000  0.000000  0.500000     0.125000
                                7:  0.500000  0.500000  0.000000     0.125000
                                8:  0.500000  0.500000  0.500000     0.125000

K-points in absolute space:     1:  0.000000  0.000000  0.000000
                                2:  0.000000  0.000000  0.022546
                                3:  0.000000  0.022546  0.000000
                                4:  0.000000  0.022546  0.022546
                                5:  0.022546  0.000000  0.000000
                                6:  0.022546  0.000000  0.022546
                                7:  0.022546  0.022546  0.000000
                                8:  0.022546  0.022546  0.022546

Extra options:
                             Mulliken analysis
Force type                   original

--------------------------------------------------------------------------------

***  Geometry step: 0

 iSCC Total electronic   Diff electronic      SCC error    
    1    0.00000000E+00    0.00000000E+00    0.12884755E+01
    2   -0.84073640E+02   -0.84073640E+02    0.86140302E+00
    3   -0.84233424E+02   -0.15978466E+00    0.34960619E+00
    4   -0.84387591E+02   -0.15416651E+00    0.28886653E+01
    5   -0.82361861E+02    0.20257295E+01    0.41306446E+00
    6   -0.84371501E+02   -0.20096400E+01    0.10134582E+00
    7   -0.84403853E+02   -0.32351613E-01    0.33098650E-01
    8   -0.84405619E+02   -0.17658325E-02    0.11283992E-01
    9   -0.84405804E+02   -0.18528613E-03    0.13473735E-02
   10   -0.84405828E+02   -0.24201458E-04    0.44853481E-03
   11   -0.84405829E+02   -0.30695576E-06    0.19646527E-04
   12   -0.84405829E+02   -0.38015060E-07    0.87951755E-06
   13   -0.84405829E+02   -0.71324280E-10    0.53875138E-07
   14   -0.84405829E+02   -0.71054274E-13    0.26754479E-07
   15   -0.84405829E+02    0.00000000E+00    0.40035037E-08
   16   -0.84405829E+02   -0.28421709E-13    0.57820237E-09
   17   -0.84405829E+02    0.28421709E-13    0.10569012E-09
   18   -0.84405829E+02   -0.14210855E-13    0.10566970E-09
   19   -0.84405829E+02    0.28421709E-13    0.14972246E-09
   20   -0.84405829E+02   -0.28421709E-13    0.17514878E-10

Total Energy:                      -84.4058286516 H        -2296.7995 eV
Extrapolated to 0K:                -84.4058286516 H        -2296.7995 eV
Total Mermin free energy:          -84.4058286516 H        -2296.7995 eV
Force related energy:              -84.4058286516 H        -2296.7995 eV

Volume:                              0.109065E+05 au^3   0.161617E+04 A^3
Pressure:                           -0.318177E-03 au    -0.936109E+10 Pa
Maximal force component:             0.556830E-02
Averaged force norm:                 0.620214E-02
>> Charges saved for restart in charges.bin

--------------------------------------------------------------------------------

***  Geometry step: 1

 iSCC Total electronic   Diff electronic      SCC error    
    1   -0.84405829E+02    0.00000000E+00    0.32017108E-02
    2   -0.84413361E+02   -0.75322279E-02    0.25385695E-02
    3   -0.84413361E+02   -0.21696476E-06    0.36810543E-03
    4   -0.84413361E+02   -0.10367945E-06    0.22104517E-04
    5   -0.84413361E+02   -0.44370680E-07    0.11735582E-04
    6   -0.84413361E+02   -0.17057289E-09    0.17357766E-07
    7   -0.84413361E+02   -0.60722982E-10    0.11835564E-08
    8   -0.84413361E+02    0.00000000E+00    0.35510350E-09
    9   -0.84413361E+02   -0.14210855E-13    0.13019616E-09
   10   -0.84413361E+02    0.00000000E+00    0.36046499E-10

Total Energy:                      -84.4133612447 H        -2297.0044 eV
Extrapolated to 0K:                -84.4133612447 H        -2297.0044 eV
Total Mermin free energy:          -84.4133612447 H        -2297.0044 eV
Force related energy:              -84.4133612447 H        -2297.0044 eV

Volume:                              0.109065E+05 au^3   0.161617E+04 A^3
Pressure:                           -0.316565E-03 au    -0.931366E+10 Pa
Maximal force component:             0.547650E-02
Averaged force norm:                 0.594671E-02
>> Charges saved for restart in charges.bin

--------------------------------------------------------------------------------

***  Geometry step: 2

 iSCC Total electronic   Diff electronic      SCC error    
    1   -0.84413361E+02    0.00000000E+00    0.51529315E-02
    2   -0.84424887E+02   -0.11525301E-01    0.40862223E-02
    3   -0.84424887E+02   -0.49199471E-06    0.52288336E-03
    4   -0.84424887E+02   -0.24156759E-06    0.32739031E-04
    5   -0.84424887E+02   -0.10638961E-06    0.18468173E-04
    6   -0.84424887E+02   -0.36779113E-09    0.28470532E-07
    7   -0.84424887E+02   -0.14740920E-09    0.21737856E-08
    8   -0.84424887E+02   -0.14210855E-13    0.81918294E-09
    9   -0.84424887E+02    0.14210855E-13    0.21679381E-09
   10   -0.84424887E+02   -0.14210855E-13    0.57050586E-10

Total Energy:                      -84.4248873860 H        -2297.3181 eV
Extrapolated to 0K:                -84.4248873860 H        -2297.3181 eV
Total Mermin free energy:          -84.4248873860 H        -2297.3181 eV
Force related energy:              -84.4248873860 H        -2297.3181 eV

Volume:                              0.109065E+05 au^3   0.161617E+04 A^3
Pressure:                           -0.313887E-03 au    -0.923487E+10 Pa
Maximal force component:             0.538514E-02
Averaged force norm:                 0.556198E-02
>> Charges saved for restart in charges.bin

--------------------------------------------------------------------------------

***  Geometry step: 3

 iSCC Total electronic   Diff electronic      SCC error    
    1   -0.84424887E+02    0.00000000E+00    0.82125255E-02
    2   -0.84441905E+02   -0.17017422E-01    0.65139574E-02
    3   -0.84441906E+02   -0.98460984E-06    0.67043930E-03
    4   -0.84441906E+02   -0.51074014E-06    0.45035189E-04
    5   -0.84441907E+02   -0.22945427E-06    0.26018449E-04
    6   -0.84441907E+02   -0.69545081E-09    0.47389803E-07
    7   -0.84441907E+02   -0.28346392E-09    0.43020387E-08
    8   -0.84441907E+02   -0.28421709E-13    0.14931150E-08
    9   -0.84441907E+02    0.28421709E-13    0.36406267E-09
   10   -0.84441907E+02   -0.14210855E-13    0.88327234E-10

Total Energy:                      -84.4419065341 H        -2297.7812 eV
Extrapolated to 0K:                -84.4419065341 H        -2297.7812 eV
Total Mermin free energy:          -84.4419065341 H        -2297.7812 eV
Force related energy:              -84.4419065341 H        -2297.7812 eV

Volume:                              0.109065E+05 au^3   0.161617E+04 A^3
Pressure:                           -0.309410E-03 au    -0.910314E+10 Pa
Maximal force component:             0.554018E-02
Averaged force norm:                 0.502277E-02
>> Charges saved for restart in charges.bin

--------------------------------------------------------------------------------

***  Geometry step: 4

 iSCC Total electronic   Diff electronic      SCC error    
    1   -0.84441907E+02    0.00000000E+00    0.12721889E-01
    2   -0.84465630E+02   -0.23723241E-01    0.10094193E-01
    3   -0.84465631E+02   -0.14768439E-05    0.89706717E-03
    4   -0.84465632E+02   -0.88227637E-06    0.51822895E-04
    5   -0.84465633E+02   -0.36735240E-06    0.30944417E-04
    6   -0.84465633E+02   -0.98218322E-09    0.79282149E-07
    7   -0.84465633E+02   -0.38502890E-09    0.80112406E-08
    8   -0.84465633E+02    0.00000000E+00    0.26741693E-08
    9   -0.84465633E+02    0.14210855E-13    0.61234245E-09
   10   -0.84465633E+02   -0.14210855E-13    0.13096857E-09
   11   -0.84465633E+02    0.14210855E-13    0.15390356E-10

Total Energy:                      -84.4656325030 H        -2298.4268 eV
Extrapolated to 0K:                -84.4656325030 H        -2298.4268 eV
Total Mermin free energy:          -84.4656325030 H        -2298.4268 eV
Force related energy:              -84.4656325030 H        -2298.4268 eV

Volume:                              0.109065E+05 au^3   0.161617E+04 A^3
Pressure:                           -0.301960E-03 au    -0.888398E+10 Pa
Maximal force component:             0.591202E-02
Averaged force norm:                 0.440690E-02
>> Charges saved for restart in charges.bin

--------------------------------------------------------------------------------

***  Geometry step: 5

 iSCC Total electronic   Diff electronic      SCC error    
    1   -0.84465633E+02    0.00000000E+00    0.17999597E-01
    2   -0.84496093E+02   -0.30460696E-01    0.14287588E-01
    3   -0.84496094E+02   -0.10667869E-05    0.99184259E-03
    4   -0.84496095E+02   -0.10366818E-05    0.27603299E-04
    5   -0.84496096E+02   -0.20794010E-06    0.13221446E-04
    6   -0.84496096E+02   -0.37196912E-09    0.13190052E-06
