  20  20   1   0
  0.4081936E+02  0.8756818E-09  0.1223436E-08  0.7620238E-09  0.5000000E-15
   1.0000000000000000E-004
  CAR 
 CsPbBr3 cubic bulk                      
      8.54395875    -22.28514948  301      0.24579046      1.00000000
    -22.285  0.0000E+00  0.0000E+00
    -22.182  0.0000E+00  0.0000E+00
    -22.080  0.0000E+00  0.0000E+00
    -21.977  0.0000E+00  0.0000E+00
    -21.874  0.0000E+00  0.0000E+00
    -21.771  0.0000E+00  0.0000E+00
    -21.669  0.0000E+00  0.0000E+00
    -21.566  0.0000E+00  0.0000E+00
    -21.463  0.0000E+00  0.0000E+00
    -21.360  0.0000E+00  0.0000E+00
    -21.258  0.0000E+00  0.0000E+00
    -21.155  0.0000E+00  0.0000E+00
    -21.052  0.0000E+00  0.0000E+00
    -20.949  0.0000E+00  0.0000E+00
    -20.846  0.7785E+02  0.8000E+01
    -20.744  0.0000E+00  0.8000E+01
    -20.641  0.0000E+00  0.8000E+01
    -20.538  0.0000E+00  0.8000E+01
    -20.435  0.0000E+00  0.8000E+01
    -20.333  0.0000E+00  0.8000E+01
    -20.230  0.0000E+00  0.8000E+01
    -20.127  0.0000E+00  0.8000E+01
    -20.024  0.0000E+00  0.8000E+01
    -19.922  0.0000E+00  0.8000E+01
    -19.819  0.0000E+00  0.8000E+01
    -19.716  0.0000E+00  0.8000E+01
    -19.613  0.0000E+00  0.8000E+01
    -19.511  0.0000E+00  0.8000E+01
    -19.408  0.0000E+00  0.8000E+01
    -19.305  0.0000E+00  0.8000E+01
    -19.202  0.0000E+00  0.8000E+01
    -19.099  0.0000E+00  0.8000E+01
    -18.997  0.0000E+00  0.8000E+01
    -18.894  0.0000E+00  0.8000E+01
    -18.791  0.0000E+00  0.8000E+01
    -18.688  0.0000E+00  0.8000E+01
    -18.586  0.0000E+00  0.8000E+01
    -18.483  0.0000E+00  0.8000E+01
    -18.380  0.0000E+00  0.8000E+01
    -18.277  0.0000E+00  0.8000E+01
    -18.175  0.0000E+00  0.8000E+01
    -18.072  0.0000E+00  0.8000E+01
    -17.969  0.0000E+00  0.8000E+01
    -17.866  0.0000E+00  0.8000E+01
    -17.764  0.0000E+00  0.8000E+01
    -17.661  0.0000E+00  0.8000E+01
    -17.558  0.0000E+00  0.8000E+01
    -17.455  0.0000E+00  0.8000E+01
    -17.352  0.0000E+00  0.8000E+01
    -17.250  0.0000E+00  0.8000E+01
    -17.147  0.0000E+00  0.8000E+01
    -17.044  0.0000E+00  0.8000E+01
    -16.941  0.0000E+00  0.8000E+01
    -16.839  0.0000E+00  0.8000E+01
    -16.736  0.0000E+00  0.8000E+01
    -16.633  0.2218E+02  0.1028E+02
    -16.530  0.1473E+03  0.3114E+02
    -16.428  0.7783E+02  0.4800E+02
    -16.325  0.0000E+00  0.4800E+02
    -16.222  0.0000E+00  0.4800E+02
    -16.119  0.0000E+00  0.4800E+02
    -16.017  0.0000E+00  0.4800E+02
    -15.914  0.0000E+00  0.4800E+02
    -15.811  0.0000E+00  0.4800E+02
    -15.708  0.0000E+00  0.4800E+02
    -15.606  0.0000E+00  0.4800E+02
    -15.503  0.0000E+00  0.4800E+02
    -15.400  0.0000E+00  0.4800E+02
    -15.297  0.0000E+00  0.4800E+02
    -15.194  0.0000E+00  0.4800E+02
    -15.092  0.0000E+00  0.4800E+02
    -14.989  0.0000E+00  0.4800E+02
    -14.886  0.0000E+00  0.4800E+02
    -14.783  0.0000E+00  0.4800E+02
    -14.681  0.0000E+00  0.4800E+02
    -14.578  0.0000E+00  0.4800E+02
    -14.475  0.0000E+00  0.4800E+02
    -14.372  0.2281E-02  0.4800E+02
    -14.270  0.8173E+01  0.4895E+02
    -14.167  0.1936E+02  0.5210E+02
    -14.064  0.3265E+02  0.5624E+02
    -13.961  0.5321E+02  0.6280E+02
    -13.859  0.4511E+02  0.6919E+02
    -13.756  0.9731E+01  0.7200E+02
    -13.653  0.0000E+00  0.7200E+02
    -13.550  0.0000E+00  0.7200E+02
    -13.447  0.0000E+00  0.7200E+02
    -13.345  0.0000E+00  0.7200E+02
    -13.242  0.0000E+00  0.7200E+02
    -13.139  0.0000E+00  0.7200E+02
    -13.036  0.0000E+00  0.7200E+02
    -12.934  0.0000E+00  0.7200E+02
    -12.831  0.0000E+00  0.7200E+02
    -12.728  0.0000E+00  0.7200E+02
    -12.625  0.0000E+00  0.7200E+02
    -12.523  0.0000E+00  0.7200E+02
    -12.420  0.0000E+00  0.7200E+02
    -12.317  0.0000E+00  0.7200E+02
    -12.214  0.0000E+00  0.7200E+02
    -12.112  0.0000E+00  0.7200E+02
    -12.009  0.0000E+00  0.7200E+02
    -11.906  0.0000E+00  0.7200E+02
    -11.803  0.0000E+00  0.7200E+02
    -11.700  0.0000E+00  0.7200E+02
    -11.598  0.0000E+00  0.7200E+02
    -11.495  0.0000E+00  0.7200E+02
    -11.392  0.0000E+00  0.7200E+02
    -11.289  0.0000E+00  0.7200E+02
    -11.187  0.0000E+00  0.7200E+02
    -11.084  0.0000E+00  0.7200E+02
    -10.981  0.0000E+00  0.7200E+02
    -10.878  0.0000E+00  0.7200E+02
    -10.776  0.0000E+00  0.7200E+02
    -10.673  0.0000E+00  0.7200E+02
    -10.570  0.0000E+00  0.7200E+02
    -10.467  0.0000E+00  0.7200E+02
    -10.365  0.0000E+00  0.7200E+02
    -10.262  0.0000E+00  0.7200E+02
    -10.159  0.0000E+00  0.7200E+02
    -10.056  0.0000E+00  0.7200E+02
     -9.954  0.0000E+00  0.7200E+02
     -9.851  0.0000E+00  0.7200E+02
     -9.748  0.0000E+00  0.7200E+02
     -9.645  0.0000E+00  0.7200E+02
     -9.542  0.0000E+00  0.7200E+02
     -9.440  0.0000E+00  0.7200E+02
     -9.337  0.0000E+00  0.7200E+02
     -9.234  0.0000E+00  0.7200E+02
     -9.131  0.0000E+00  0.7200E+02
     -9.029  0.0000E+00  0.7200E+02
     -8.926  0.0000E+00  0.7200E+02
     -8.823  0.0000E+00  0.7200E+02
     -8.720  0.0000E+00  0.7200E+02
     -8.618  0.0000E+00  0.7200E+02
     -8.515  0.0000E+00  0.7200E+02
     -8.412  0.0000E+00  0.7200E+02
     -8.309  0.0000E+00  0.7200E+02
     -8.207  0.6615E+00  0.7207E+02
     -8.104  0.0000E+00  0.7211E+02
     -8.001  0.5180E+01  0.7264E+02
     -7.898  0.3343E-01  0.7278E+02
     -7.795  0.9724E+01  0.7422E+02
     -7.693  0.4634E+01  0.7470E+02
     -7.590  0.8615E+01  0.7600E+02
     -7.487  0.4660E+01  0.7648E+02
     -7.384  0.8873E+01  0.7780E+02
     -7.282  0.8052E+02  0.8650E+02
     -7.179  0.7966E+02  0.1029E+03
     -7.076  0.1133E+01  0.1033E+03
     -6.973  0.2162E+01  0.1039E+03
     -6.871  0.0000E+00  0.1039E+03
     -6.768  0.1466E+00  0.1039E+03
     -6.665  0.0000E+00  0.1040E+03
     -6.562  0.0000E+00  0.1040E+03
     -6.460  0.0000E+00  0.1040E+03
     -6.357  0.0000E+00  0.1040E+03
     -6.254  0.0000E+00  0.1040E+03
     -6.151  0.0000E+00  0.1040E+03
     -6.048  0.0000E+00  0.1040E+03
     -5.946  0.0000E+00  0.1040E+03
     -5.843  0.0000E+00  0.1040E+03
     -5.740  0.0000E+00  0.1040E+03
     -5.637  0.0000E+00  0.1040E+03
     -5.535  0.0000E+00  0.1040E+03
     -5.432  0.0000E+00  0.1040E+03
     -5.329  0.0000E+00  0.1040E+03
     -5.226  0.0000E+00  0.1040E+03
     -5.124  0.0000E+00  0.1040E+03
     -5.021  0.0000E+00  0.1040E+03
     -4.918  0.0000E+00  0.1040E+03
     -4.815  0.0000E+00  0.1040E+03
     -4.713  0.0000E+00  0.1040E+03
     -4.610  0.0000E+00  0.1040E+03
     -4.507  0.0000E+00  0.1040E+03
     -4.404  0.0000E+00  0.1040E+03
     -4.302  0.0000E+00  0.1040E+03
     -4.199  0.0000E+00  0.1040E+03
     -4.096  0.0000E+00  0.1040E+03
     -3.993  0.0000E+00  0.1040E+03
     -3.890  0.0000E+00  0.1040E+03
     -3.788  0.0000E+00  0.1040E+03
     -3.685  0.0000E+00  0.1040E+03
     -3.582  0.0000E+00  0.1040E+03
     -3.479  0.0000E+00  0.1040E+03
     -3.377  0.1037E+01  0.1041E+03
     -3.274  0.3244E+01  0.1044E+03
     -3.171  0.1121E+02  0.1056E+03
     -3.068  0.9283E+01  0.1083E+03
     -2.966  0.1075E+02  0.1094E+03
     -2.863  0.1273E+02  0.1108E+03
     -2.760  0.1514E+02  0.1127E+03
     -2.657  0.1081E+02  0.1138E+03
     -2.555  0.2162E+01  0.1140E+03
     -2.452  0.1081E+02  0.1151E+03
     -2.349  0.2614E+02  0.1178E+03
     -2.246  0.9466E+01  0.1190E+03
     -2.143  0.1985E+02  0.1218E+03
     -2.041  0.1732E+02  0.1239E+03
     -1.938  0.8627E+01  0.1268E+03
     -1.835  0.4326E+01  0.1272E+03
     -1.732  0.3697E+02  0.1319E+03
     -1.630  0.1215E+02  0.1347E+03
     -1.527  0.4211E+02  0.1397E+03
     -1.424  0.4215E+02  0.1452E+03
     -1.321  0.4619E+02  0.1521E+03
     -1.219  0.3657E+02  0.1574E+03
     -1.116  0.4724E+02  0.1643E+03
     -1.013  0.2268E+02  0.1677E+03
     -0.910  0.1548E+02  0.1693E+03
     -0.808  0.5658E+01  0.1706E+03
     -0.705  0.1681E+02  0.1732E+03
     -0.602  0.4888E+01  0.1738E+03
     -0.499  0.0000E+00  0.1747E+03
     -0.396  0.1413E+01  0.1748E+03
     -0.294  0.5360E+01  0.1754E+03
     -0.191  0.4318E+01  0.1759E+03
     -0.088  0.0000E+00  0.1759E+03
      0.015  0.0000E+00  0.1759E+03
      0.117  0.1094E-02  0.1759E+03
      0.220  0.0000E+00  0.1760E+03
      0.323  0.0000E+00  0.1760E+03
      0.426  0.0000E+00  0.1760E+03
      0.528  0.0000E+00  0.1760E+03
      0.631  0.0000E+00  0.1760E+03
      0.734  0.0000E+00  0.1760E+03
      0.837  0.0000E+00  0.1760E+03
      0.939  0.0000E+00  0.1760E+03
      1.042  0.0000E+00  0.1760E+03
      1.145  0.0000E+00  0.1760E+03
      1.248  0.0000E+00  0.1760E+03
      1.351  0.0000E+00  0.1760E+03
      1.453  0.0000E+00  0.1760E+03
      1.556  0.0000E+00  0.1760E+03
      1.659  0.0000E+00  0.1760E+03
      1.762  0.0000E+00  0.1760E+03
      1.864  0.0000E+00  0.1760E+03
      1.967  0.0000E+00  0.1760E+03
      2.070  0.0000E+00  0.1760E+03
      2.173  0.0000E+00  0.1760E+03
      2.275  0.0000E+00  0.1760E+03
      2.378  0.1510E-07  0.1760E+03
      2.481  0.1081E+01  0.1761E+03
      2.584  0.2937E+01  0.1764E+03
      2.686  0.4331E+01  0.1771E+03
      2.789  0.7083E-04  0.1773E+03
      2.892  0.4374E+01  0.1778E+03
      2.995  0.9731E+01  0.1789E+03
      3.097  0.7801E+00  0.1790E+03
      3.200  0.3800E+01  0.1803E+03
      3.303  0.4281E+01  0.1808E+03
      3.406  0.7569E+01  0.1816E+03
      3.509  0.4246E+01  0.1820E+03
      3.611  0.2162E+01  0.1822E+03
      3.714  0.6562E+01  0.1829E+03
      3.817  0.4751E+01  0.1836E+03
      3.920  0.1215E+02  0.1850E+03
      4.022  0.1542E+02  0.1869E+03
      4.125  0.1072E+01  0.1879E+03
      4.228  0.8650E+01  0.1889E+03
      4.331  0.8650E+01  0.1898E+03
      4.433  0.2099E+01  0.1900E+03
      4.536  0.6825E-03  0.1900E+03
      4.639  0.4995E+01  0.1905E+03
      4.742  0.3749E+01  0.1913E+03
      4.844  0.5315E+01  0.1919E+03
      4.947  0.1297E+02  0.1932E+03
      5.050  0.4406E+01  0.1937E+03
      5.153  0.2130E+01  0.1942E+03
      5.256  0.1494E+02  0.1958E+03
      5.358  0.6106E+01  0.1964E+03
      5.461  0.4561E+00  0.1967E+03
      5.564  0.1063E+02  0.1979E+03
      5.667  0.8489E+01  0.1994E+03
      5.769  0.5954E+01  0.2003E+03
      5.872  0.4081E+01  0.2008E+03
      5.975  0.5406E+01  0.2019E+03
      6.078  0.8639E+01  0.2028E+03
      6.180  0.1127E+02  0.2039E+03
      6.283  0.8937E+01  0.2060E+03
      6.386  0.9637E+01  0.2084E+03
      6.489  0.1652E+02  0.2101E+03
      6.591  0.2168E+02  0.2128E+03
      6.694  0.2242E+02  0.2155E+03
      6.797  0.1538E+02  0.2171E+03
      6.900  0.5595E+01  0.2192E+03
      7.003  0.2377E+02  0.2221E+03
      7.105  0.1081E+02  0.2233E+03
      7.208  0.6487E+01  0.2240E+03
      7.311  0.0000E+00  0.2240E+03
      7.414  0.0000E+00  0.2240E+03
      7.516  0.0000E+00  0.2240E+03
      7.619  0.0000E+00  0.2240E+03
      7.722  0.0000E+00  0.2240E+03
      7.825  0.0000E+00  0.2240E+03
      7.927  0.0000E+00  0.2240E+03
      8.030  0.0000E+00  0.2240E+03
      8.133  0.0000E+00  0.2240E+03
      8.236  0.0000E+00  0.2240E+03
      8.338  0.0000E+00  0.2240E+03
      8.441  0.0000E+00  0.2240E+03
      8.544  0.0000E+00  0.2240E+03
      8.54395875    -22.28514948  301      0.24579046      1.00000000
    -22.285  0.0000E+00  0.0000E+00  0.0000E+00
    -22.182  0.0000E+00  0.0000E+00  0.0000E+00
    -22.080  0.0000E+00  0.0000E+00  0.0000E+00
    -21.977  0.0000E+00  0.0000E+00  0.0000E+00
    -21.874  0.0000E+00  0.0000E+00  0.0000E+00
    -21.771  0.0000E+00  0.0000E+00  0.0000E+00
    -21.669  0.0000E+00  0.0000E+00  0.0000E+00
    -21.566  0.0000E+00  0.0000E+00  0.0000E+00
    -21.463  0.0000E+00  0.0000E+00  0.0000E+00
    -21.360  0.0000E+00  0.0000E+00  0.0000E+00
    -21.258  0.0000E+00  0.0000E+00  0.0000E+00
    -21.155  0.0000E+00  0.0000E+00  0.0000E+00
    -21.052  0.0000E+00  0.0000E+00  0.0000E+00
    -20.949  0.0000E+00  0.0000E+00  0.0000E+00
    -20.846  0.1727E+02  0.9273E-05  0.2004E-05
    -20.744  0.0000E+00  0.0000E+00  0.0000E+00
    -20.641  0.0000E+00  0.0000E+00  0.0000E+00
    -20.538  0.0000E+00  0.0000E+00  0.0000E+00
    -20.435  0.0000E+00  0.0000E+00  0.0000E+00
    -20.333  0.0000E+00  0.0000E+00  0.0000E+00
    -20.230  0.0000E+00  0.0000E+00  0.0000E+00
    -20.127  0.0000E+00  0.0000E+00  0.0000E+00
    -20.024  0.0000E+00  0.0000E+00  0.0000E+00
    -19.922  0.0000E+00  0.0000E+00  0.0000E+00
    -19.819  0.0000E+00  0.0000E+00  0.0000E+00
    -19.716  0.0000E+00  0.0000E+00  0.0000E+00
    -19.613  0.0000E+00  0.0000E+00  0.0000E+00
    -19.511  0.0000E+00  0.0000E+00  0.0000E+00
    -19.408  0.0000E+00  0.0000E+00  0.0000E+00
    -19.305  0.0000E+00  0.0000E+00  0.0000E+00
    -19.202  0.0000E+00  0.0000E+00  0.0000E+00
    -19.099  0.0000E+00  0.0000E+00  0.0000E+00
    -18.997  0.0000E+00  0.0000E+00  0.0000E+00
    -18.894  0.0000E+00  0.0000E+00  0.0000E+00
    -18.791  0.0000E+00  0.0000E+00  0.0000E+00
    -18.688  0.0000E+00  0.0000E+00  0.0000E+00
    -18.586  0.0000E+00  0.0000E+00  0.0000E+00
    -18.483  0.0000E+00  0.0000E+00  0.0000E+00
    -18.380  0.0000E+00  0.0000E+00  0.0000E+00
    -18.277  0.0000E+00  0.0000E+00  0.0000E+00
    -18.175  0.0000E+00  0.0000E+00  0.0000E+00
    -18.072  0.0000E+00  0.0000E+00  0.0000E+00
    -17.969  0.0000E+00  0.0000E+00  0.0000E+00
    -17.866  0.0000E+00  0.0000E+00  0.0000E+00
    -17.764  0.0000E+00  0.0000E+00  0.0000E+00
    -17.661  0.0000E+00  0.0000E+00  0.0000E+00
    -17.558  0.0000E+00  0.0000E+00  0.0000E+00
    -17.455  0.0000E+00  0.0000E+00  0.0000E+00
    -17.352  0.0000E+00  0.0000E+00  0.0000E+00
    -17.250  0.0000E+00  0.0000E+00  0.0000E+00
    -17.147  0.0000E+00  0.0000E+00  0.0000E+00
    -17.044  0.0000E+00  0.0000E+00  0.0000E+00
    -16.941  0.0000E+00  0.0000E+00  0.0000E+00
    -16.839  0.0000E+00  0.0000E+00  0.0000E+00
    -16.736  0.0000E+00  0.0000E+00  0.0000E+00
    -16.633  0.2314E-04  0.1315E-04  0.3908E-05
    -16.530  0.4256E-04  0.4433E-04  0.4839E-05
    -16.428  0.1822E-04  0.1037E-04  0.1452E-05
    -16.325  0.0000E+00  0.0000E+00  0.0000E+00
    -16.222  0.0000E+00  0.0000E+00  0.0000E+00
    -16.119  0.0000E+00  0.0000E+00  0.0000E+00
    -16.017  0.0000E+00  0.0000E+00  0.0000E+00
    -15.914  0.0000E+00  0.0000E+00  0.0000E+00
    -15.811  0.0000E+00  0.0000E+00  0.0000E+00
    -15.708  0.0000E+00  0.0000E+00  0.0000E+00
    -15.606  0.0000E+00  0.0000E+00  0.0000E+00
    -15.503  0.0000E+00  0.0000E+00  0.0000E+00
    -15.400  0.0000E+00  0.0000E+00  0.0000E+00
    -15.297  0.0000E+00  0.0000E+00  0.0000E+00
    -15.194  0.0000E+00  0.0000E+00  0.0000E+00
    -15.092  0.0000E+00  0.0000E+00  0.0000E+00
    -14.989  0.0000E+00  0.0000E+00  0.0000E+00
    -14.886  0.0000E+00  0.0000E+00  0.0000E+00
    -14.783  0.0000E+00  0.0000E+00  0.0000E+00
    -14.681  0.0000E+00  0.0000E+00  0.0000E+00
    -14.578  0.0000E+00  0.0000E+00  0.0000E+00
    -14.475  0.0000E+00  0.0000E+00  0.0000E+00
    -14.372  0.9195E-06  0.7134E-08  0.1153E-08
    -14.270  0.2107E-02  0.7250E-03  0.1072E-04
    -14.167  0.1355E-02  0.3332E-02  0.8087E-04
    -14.064  0.8413E-03  0.4531E-02  0.2758E-03
    -13.961  0.1906E-02  0.5459E-02  0.4635E-03
    -13.859  0.7662E-03  0.2556E-02  0.4759E-03
    -13.756  0.2912E-03  0.5488E-03  0.8089E-04
    -13.653  0.0000E+00  0.0000E+00  0.0000E+00
    -13.550  0.0000E+00  0.0000E+00  0.0000E+00
    -13.447  0.0000E+00  0.0000E+00  0.0000E+00
    -13.345  0.0000E+00  0.0000E+00  0.0000E+00
    -13.242  0.0000E+00  0.0000E+00  0.0000E+00
    -13.139  0.0000E+00  0.0000E+00  0.0000E+00
    -13.036  0.0000E+00  0.0000E+00  0.0000E+00
    -12.934  0.0000E+00  0.0000E+00  0.0000E+00
    -12.831  0.0000E+00  0.0000E+00  0.0000E+00
    -12.728  0.0000E+00  0.0000E+00  0.0000E+00
    -12.625  0.0000E+00  0.0000E+00  0.0000E+00
    -12.523  0.0000E+00  0.0000E+00  0.0000E+00
    -12.420  0.0000E+00  0.0000E+00  0.0000E+00
    -12.317  0.0000E+00  0.0000E+00  0.0000E+00
    -12.214  0.0000E+00  0.0000E+00  0.0000E+00
    -12.112  0.0000E+00  0.0000E+00  0.0000E+00
    -12.009  0.0000E+00  0.0000E+00  0.0000E+00
    -11.906  0.0000E+00  0.0000E+00  0.0000E+00
    -11.803  0.0000E+00  0.0000E+00  0.0000E+00
    -11.700  0.0000E+00  0.0000E+00  0.0000E+00
    -11.598  0.0000E+00  0.0000E+00  0.0000E+00
    -11.495  0.0000E+00  0.0000E+00  0.0000E+00
    -11.392  0.0000E+00  0.0000E+00  0.0000E+00
    -11.289  0.0000E+00  0.0000E+00  0.0000E+00
    -11.187  0.0000E+00  0.0000E+00  0.0000E+00
    -11.084  0.0000E+00  0.0000E+00  0.0000E+00
    -10.981  0.0000E+00  0.0000E+00  0.0000E+00
    -10.878  0.0000E+00  0.0000E+00  0.0000E+00
    -10.776  0.0000E+00  0.0000E+00  0.0000E+00
    -10.673  0.0000E+00  0.0000E+00  0.0000E+00
    -10.570  0.0000E+00  0.0000E+00  0.0000E+00
    -10.467  0.0000E+00  0.0000E+00  0.0000E+00
    -10.365  0.0000E+00  0.0000E+00  0.0000E+00
    -10.262  0.0000E+00  0.0000E+00  0.0000E+00
    -10.159  0.0000E+00  0.0000E+00  0.0000E+00
    -10.056  0.0000E+00  0.0000E+00  0.0000E+00
     -9.954  0.0000E+00  0.0000E+00  0.0000E+00
     -9.851  0.0000E+00  0.0000E+00  0.0000E+00
     -9.748  0.0000E+00  0.0000E+00  0.0000E+00
     -9.645  0.0000E+00  0.0000E+00  0.0000E+00
     -9.542  0.0000E+00  0.0000E+00  0.0000E+00
     -9.440  0.0000E+00  0.0000E+00  0.0000E+00
     -9.337  0.0000E+00  0.0000E+00  0.0000E+00
     -9.234  0.0000E+00  0.0000E+00  0.0000E+00
     -9.131  0.0000E+00  0.0000E+00  0.0000E+00
     -9.029  0.0000E+00  0.0000E+00  0.0000E+00
     -8.926  0.0000E+00  0.0000E+00  0.0000E+00
     -8.823  0.0000E+00  0.0000E+00  0.0000E+00
     -8.720  0.0000E+00  0.0000E+00  0.0000E+00
     -8.618  0.0000E+00  0.0000E+00  0.0000E+00
     -8.515  0.0000E+00  0.0000E+00  0.0000E+00
     -8.412  0.0000E+00  0.0000E+00  0.0000E+00
     -8.309  0.0000E+00  0.0000E+00  0.0000E+00
     -8.207  0.2989E-17  0.2842E-03  0.5308E-05
     -8.104  0.0000E+00  0.0000E+00  0.0000E+00
     -8.001  0.1787E-05  0.6023E-02  0.3244E-04
     -7.898  0.7722E-20  0.8840E-04  0.2650E-06
     -7.795  0.1452E-04  0.2775E-01  0.4963E-04
     -7.693  0.1025E-04  0.2292E-01  0.2853E-04
     -7.590  0.1390E-04  0.5490E-01  0.2266E-04
     -7.487  0.1851E-05  0.3342E-01  0.2646E-04
     -7.384  0.1675E-04  0.1008E+00  0.2996E-04
     -7.282  0.5623E-04  0.1442E+02  0.6945E-04
     -7.179  0.2981E-04  0.1389E+02  0.3713E-04
     -7.076  0.5490E-05  0.1529E-01  0.2915E-05
     -6.973  0.7382E-05  0.1161E-01  0.7594E-05
     -6.871  0.0000E+00  0.0000E+00  0.0000E+00
     -6.768  0.8097E-06  0.3946E-03  0.1385E-06
     -6.665  0.0000E+00  0.0000E+00  0.0000E+00
     -6.562  0.0000E+00  0.0000E+00  0.0000E+00
     -6.460  0.0000E+00  0.0000E+00  0.0000E+00
     -6.357  0.0000E+00  0.0000E+00  0.0000E+00
     -6.254  0.0000E+00  0.0000E+00  0.0000E+00
     -6.151  0.0000E+00  0.0000E+00  0.0000E+00
     -6.048  0.0000E+00  0.0000E+00  0.0000E+00
     -5.946  0.0000E+00  0.0000E+00  0.0000E+00
     -5.843  0.0000E+00  0.0000E+00  0.0000E+00
     -5.740  0.0000E+00  0.0000E+00  0.0000E+00
     -5.637  0.0000E+00  0.0000E+00  0.0000E+00
     -5.535  0.0000E+00  0.0000E+00  0.0000E+00
     -5.432  0.0000E+00  0.0000E+00  0.0000E+00
     -5.329  0.0000E+00  0.0000E+00  0.0000E+00
     -5.226  0.0000E+00  0.0000E+00  0.0000E+00
     -5.124  0.0000E+00  0.0000E+00  0.0000E+00
     -5.021  0.0000E+00  0.0000E+00  0.0000E+00
     -4.918  0.0000E+00  0.0000E+00  0.0000E+00
     -4.815  0.0000E+00  0.0000E+00  0.0000E+00
     -4.713  0.0000E+00  0.0000E+00  0.0000E+00
     -4.610  0.0000E+00  0.0000E+00  0.0000E+00
     -4.507  0.0000E+00  0.0000E+00  0.0000E+00
     -4.404  0.0000E+00  0.0000E+00  0.0000E+00
     -4.302  0.0000E+00  0.0000E+00  0.0000E+00
     -4.199  0.0000E+00  0.0000E+00  0.0000E+00
     -4.096  0.0000E+00  0.0000E+00  0.0000E+00
     -3.993  0.0000E+00  0.0000E+00  0.0000E+00
     -3.890  0.0000E+00  0.0000E+00  0.0000E+00
     -3.788  0.0000E+00  0.0000E+00  0.0000E+00
     -3.685  0.0000E+00  0.0000E+00  0.0000E+00
     -3.582  0.0000E+00  0.0000E+00  0.0000E+00
     -3.479  0.0000E+00  0.0000E+00  0.0000E+00
     -3.377  0.4946E-04  0.1424E-02  0.4440E-04
     -3.274  0.4851E-04  0.2100E-02  0.1784E-03
     -3.171  0.3814E-03  0.1594E-01  0.1291E-02
     -3.068  0.3150E-03  0.8605E-02  0.9061E-03
     -2.966  0.2085E-03  0.6424E-02  0.9871E-03
     -2.863  0.4847E-03  0.2119E-01  0.1048E-02
     -2.760  0.2596E-03  0.1007E-01  0.1219E-02
     -2.657  0.9096E-03  0.1004E-01  0.6451E-03
     -2.555  0.1667E-17  0.3866E-02  0.2080E-03
     -2.452  0.4443E-03  0.2032E-01  0.1185E-02
     -2.349  0.3259E-02  0.2279E-01  0.3192E-02
     -2.246  0.2780E-02  0.6909E-02  0.1092E-02
     -2.143  0.7778E-02  0.2499E-01  0.2435E-02
     -2.041  0.1378E-01  0.3192E-01  0.2979E-02
     -1.938  0.4801E-02  0.2465E-01  0.1545E-02
     -1.835  0.2156E-03  0.2477E-01  0.5424E-03
     -1.732  0.4963E-02  0.1352E+00  0.1119E-01
     -1.630  0.1144E-02  0.3960E-01  0.2865E-02
     -1.527  0.4909E-02  0.6774E-01  0.1610E-01
     -1.424  0.2822E-02  0.5970E-01  0.2073E-01
     -1.321  0.4932E-02  0.6763E-01  0.1050E-01
     -1.219  0.1931E-02  0.6479E-01  0.1042E-01
     -1.116  0.1374E-02  0.4601E-01  0.1262E-01
     -1.013  0.8734E-03  0.1598E-01  0.6933E-02
     -0.910  0.5138E-03  0.1704E-01  0.2720E-02
     -0.808  0.2925E-03  0.5041E-02  0.9255E-03
     -0.705  0.3624E-03  0.1060E-01  0.2721E-02
     -0.602  0.4066E-03  0.2437E-02  0.3685E-03
     -0.499  0.0000E+00  0.0000E+00  0.0000E+00
     -0.396  0.2690E-16  0.8087E-04  0.2459E-03
     -0.294  0.2568E-04  0.1425E-02  0.9197E-03
     -0.191  0.2168E-04  0.1698E-02  0.4401E-03
     -0.088  0.0000E+00  0.0000E+00  0.0000E+00
      0.015  0.0000E+00  0.0000E+00  0.0000E+00
      0.117  0.2861E-20  0.1733E-06  0.1690E-06
      0.220  0.0000E+00  0.0000E+00  0.0000E+00
      0.323  0.0000E+00  0.0000E+00  0.0000E+00
      0.426  0.0000E+00  0.0000E+00  0.0000E+00
      0.528  0.0000E+00  0.0000E+00  0.0000E+00
      0.631  0.0000E+00  0.0000E+00  0.0000E+00
      0.734  0.0000E+00  0.0000E+00  0.0000E+00
      0.837  0.0000E+00  0.0000E+00  0.0000E+00
      0.939  0.0000E+00  0.0000E+00  0.0000E+00
      1.042  0.0000E+00  0.0000E+00  0.0000E+00
      1.145  0.0000E+00  0.0000E+00  0.0000E+00
      1.248  0.0000E+00  0.0000E+00  0.0000E+00
      1.351  0.0000E+00  0.0000E+00  0.0000E+00
      1.453  0.0000E+00  0.0000E+00  0.0000E+00
      1.556  0.0000E+00  0.0000E+00  0.0000E+00
      1.659  0.0000E+00  0.0000E+00  0.0000E+00
      1.762  0.0000E+00  0.0000E+00  0.0000E+00
      1.864  0.0000E+00  0.0000E+00  0.0000E+00
      1.967  0.0000E+00  0.0000E+00  0.0000E+00
      2.070  0.0000E+00  0.0000E+00  0.0000E+00
      2.173  0.0000E+00  0.0000E+00  0.0000E+00
      2.275  0.0000E+00  0.0000E+00  0.0000E+00
      2.378  0.6267E-12  0.3267E-11  0.4427E-11
      2.481  0.4488E-04  0.2340E-03  0.3171E-03
      2.584  0.9350E-04  0.5022E-03  0.1781E-02
      2.686  0.3967E-04  0.7407E-03  0.1669E-02
      2.789  0.3070E-08  0.1037E-07  0.1295E-07
      2.892  0.1961E-03  0.6399E-03  0.7991E-03
      2.995  0.1646E-03  0.5412E-02  0.3872E-02
      3.097  0.7779E-04  0.4540E-03  0.3137E-03
      3.200  0.8729E-04  0.7346E-03  0.2746E-02
      3.303  0.1137E-02  0.1349E-02  0.2084E-02
      3.406  0.6542E-03  0.1996E-02  0.6448E-02
      3.509  0.4429E-03  0.1274E-02  0.3322E-02
      3.611  0.6576E-03  0.3523E-03  0.9004E-03
      3.714  0.3168E-03  0.9156E-03  0.3235E-02
      3.817  0.1525E-03  0.8286E-03  0.2982E-02
      3.920  0.4147E-03  0.1733E-02  0.4955E-02
      4.022  0.9830E-03  0.3822E-02  0.7256E-02
      4.125  0.8917E-04  0.3032E-03  0.1795E-03
      4.228  0.8175E-03  0.1404E-02  0.1703E-02
      4.331  0.1161E-02  0.2194E-02  0.3027E-02
      4.433  0.6522E-03  0.4915E-03  0.5563E-03
      4.536  0.4043E-19  0.2280E-06  0.8975E-06
      4.639  0.3476E-14  0.1785E-02  0.5804E-02
      4.742  0.5819E-03  0.9025E-03  0.5807E-02
      4.844  0.1333E-01  0.2702E-02  0.4158E-02
      4.947  0.5128E-02  0.3001E-02  0.9835E-02
      5.050  0.1340E-03  0.6529E-03  0.2423E-02
      5.153  0.1391E-01  0.3236E-02  0.1284E-02
      5.256  0.6174E-02  0.5625E-02  0.1597E-01
      5.358  0.7043E-03  0.5651E-03  0.7969E-02
      5.461  0.7557E-15  0.6645E-05  0.7375E-03
      5.564  0.4741E-02  0.1970E-02  0.1960E-01
      5.667  0.2895E-04  0.4844E-03  0.1056E-01
      5.769  0.1269E-02  0.1318E-02  0.1466E-01
      5.872  0.2690E-01  0.9419E-02  0.2803E-01
      5.975  0.2802E-01  0.8758E-02  0.7262E-01
      6.078  0.1060E-01  0.5352E-02  0.1385E+00
      6.180  0.1656E-01  0.1326E-01  0.2780E+00
      6.283  0.1905E-01  0.1059E-01  0.2310E+00
      6.386  0.3713E-01  0.1298E-01  0.1739E+00
      6.489  0.4285E-01  0.2454E-01  0.4181E+00
      6.591  0.2266E-01  0.2889E-01  0.6137E+00
      6.694  0.2742E-01  0.4011E-01  0.6596E+00
      6.797  0.1451E-01  0.1415E-01  0.5097E+00
      6.900  0.5397E-03  0.1792E-02  0.2215E+00
      7.003  0.4030E-01  0.5154E-01  0.7880E+00
      7.105  0.1453E-01  0.1743E-01  0.2507E+00
      7.208  0.6627E-03  0.1282E-01  0.1803E+00
      7.311  0.0000E+00  0.0000E+00  0.0000E+00
      7.414  0.0000E+00  0.0000E+00  0.0000E+00
      7.516  0.0000E+00  0.0000E+00  0.0000E+00
      7.619  0.0000E+00  0.0000E+00  0.0000E+00
      7.722  0.0000E+00  0.0000E+00  0.0000E+00
      7.825  0.0000E+00  0.0000E+00  0.0000E+00
      7.927  0.0000E+00  0.0000E+00  0.0000E+00
      8.030  0.0000E+00  0.0000E+00  0.0000E+00
      8.133  0.0000E+00  0.0000E+00  0.0000E+00
      8.236  0.0000E+00  0.0000E+00  0.0000E+00
      8.338  0.0000E+00  0.0000E+00  0.0000E+00
      8.441  0.0000E+00  0.0000E+00  0.0000E+00
      8.544  0.0000E+00  0.0000E+00  0.0000E+00
      8.54395875    -22.28514948  301      0.24579046      1.00000000
    -22.285  0.0000E+00  0.0000E+00  0.0000E+00
    -22.182  0.0000E+00  0.0000E+00  0.0000E+00
    -22.080  0.0000E+00  0.0000E+00  0.0000E+00
    -21.977  0.0000E+00  0.0000E+00  0.0000E+00
    -21.874  0.0000E+00  0.0000E+00  0.0000E+00
    -21.771  0.0000E+00  0.0000E+00  0.0000E+00
    -21.669  0.0000E+00  0.0000E+00  0.0000E+00
    -21.566  0.0000E+00  0.0000E+00  0.0000E+00
    -21.463  0.0000E+00  0.0000E+00  0.0000E+00
    -21.360  0.0000E+00  0.0000E+00  0.0000E+00
    -21.258  0.0000E+00  0.0000E+00  0.0000E+00
    -21.155  0.0000E+00  0.0000E+00  0.0000E+00
    -21.052  0.0000E+00  0.0000E+00  0.0000E+00
    -20.949  0.0000E+00  0.0000E+00  0.0000E+00
    -20.846  0.1727E+02  0.9271E-05  0.2024E-05
    -20.744  0.0000E+00  0.0000E+00  0.0000E+00
    -20.641  0.0000E+00  0.0000E+00  0.0000E+00
    -20.538  0.0000E+00  0.0000E+00  0.0000E+00
    -20.435  0.0000E+00  0.0000E+00  0.0000E+00
    -20.333  0.0000E+00  0.0000E+00  0.0000E+00
    -20.230  0.0000E+00  0.0000E+00  0.0000E+00
    -20.127  0.0000E+00  0.0000E+00  0.0000E+00
    -20.024  0.0000E+00  0.0000E+00  0.0000E+00
    -19.922  0.0000E+00  0.0000E+00  0.0000E+00
    -19.819  0.0000E+00  0.0000E+00  0.0000E+00
    -19.716  0.0000E+00  0.0000E+00  0.0000E+00
    -19.613  0.0000E+00  0.0000E+00  0.0000E+00
    -19.511  0.0000E+00  0.0000E+00  0.0000E+00
    -19.408  0.0000E+00  0.0000E+00  0.0000E+00
    -19.305  0.0000E+00  0.0000E+00  0.0000E+00
    -19.202  0.0000E+00  0.0000E+00  0.0000E+00
    -19.099  0.0000E+00  0.0000E+00  0.0000E+00
    -18.997  0.0000E+00  0.0000E+00  0.0000E+00
    -18.894  0.0000E+00  0.0000E+00  0.0000E+00
    -18.791  0.0000E+00  0.0000E+00  0.0000E+00
    -18.688  0.0000E+00  0.0000E+00  0.0000E+00
    -18.586  0.0000E+00  0.0000E+00  0.0000E+00
    -18.483  0.0000E+00  0.0000E+00  0.0000E+00
    -18.380  0.0000E+00  0.0000E+00  0.0000E+00
    -18.277  0.0000E+00  0.0000E+00  0.0000E+00
    -18.175  0.0000E+00  0.0000E+00  0.0000E+00
    -18.072  0.0000E+00  0.0000E+00  0.0000E+00
    -17.969  0.0000E+00  0.0000E+00  0.0000E+00
    -17.866  0.0000E+00  0.0000E+00  0.0000E+00
    -17.764  0.0000E+00  0.0000E+00  0.0000E+00
    -17.661  0.0000E+00  0.0000E+00  0.0000E+00
    -17.558  0.0000E+00  0.0000E+00  0.0000E+00
    -17.455  0.0000E+00  0.0000E+00  0.0000E+00
    -17.352  0.0000E+00  0.0000E+00  0.0000E+00
    -17.250  0.0000E+00  0.0000E+00  0.0000E+00
    -17.147  0.0000E+00  0.0000E+00  0.0000E+00
    -17.044  0.0000E+00  0.0000E+00  0.0000E+00
    -16.941  0.0000E+00  0.0000E+00  0.0000E+00
    -16.839  0.0000E+00  0.0000E+00  0.0000E+00
    -16.736  0.0000E+00  0.0000E+00  0.0000E+00
    -16.633  0.1854E-04  0.1056E-04  0.3137E-05
    -16.530  0.3794E-04  0.5232E-04  0.5609E-05
    -16.428  0.1773E-04  0.1045E-04  0.1455E-05
    -16.325  0.0000E+00  0.0000E+00  0.0000E+00
    -16.222  0.0000E+00  0.0000E+00  0.0000E+00
    -16.119  0.0000E+00  0.0000E+00  0.0000E+00
    -16.017  0.0000E+00  0.0000E+00  0.0000E+00
    -15.914  0.0000E+00  0.0000E+00  0.0000E+00
    -15.811  0.0000E+00  0.0000E+00  0.0000E+00
    -15.708  0.0000E+00  0.0000E+00  0.0000E+00
    -15.606  0.0000E+00  0.0000E+00  0.0000E+00
    -15.503  0.0000E+00  0.0000E+00  0.0000E+00
    -15.400  0.0000E+00  0.0000E+00  0.0000E+00
    -15.297  0.0000E+00  0.0000E+00  0.0000E+00
    -15.194  0.0000E+00  0.0000E+00  0.0000E+00
    -15.092  0.0000E+00  0.0000E+00  0.0000E+00
    -14.989  0.0000E+00  0.0000E+00  0.0000E+00
    -14.886  0.0000E+00  0.0000E+00  0.0000E+00
    -14.783  0.0000E+00  0.0000E+00  0.0000E+00
    -14.681  0.0000E+00  0.0000E+00  0.0000E+00
    -14.578  0.0000E+00  0.0000E+00  0.0000E+00
    -14.475  0.0000E+00  0.0000E+00  0.0000E+00
    -14.372  0.9195E-06  0.7134E-08  0.1153E-08
    -14.270  0.2110E-02  0.7215E-03  0.1079E-04
    -14.167  0.1659E-02  0.3232E-02  0.7317E-04
    -14.064  0.4875E-03  0.4923E-02  0.2335E-03
    -13.961  0.1719E-02  0.5532E-02  0.6346E-03
    -13.859  0.1063E-02  0.2716E-02  0.4163E-03
    -13.756  0.1603E-03  0.5028E-03  0.7839E-04
    -13.653  0.0000E+00  0.0000E+00  0.0000E+00
    -13.550  0.0000E+00  0.0000E+00  0.0000E+00
    -13.447  0.0000E+00  0.0000E+00  0.0000E+00
    -13.345  0.0000E+00  0.0000E+00  0.0000E+00
    -13.242  0.0000E+00  0.0000E+00  0.0000E+00
    -13.139  0.0000E+00  0.0000E+00  0.0000E+00