 vasp.5.4.4.18Apr17-6-g9f103f2a35 (build Jun 29 2021 12:58:12) complex           
 executed on tx2_gcc-7.3_libsci-1 date 2021.09.21  08:32:47
 running on   64 total cores
 distrk:  each k-point on   64 cores,    1 groups
 distr:  one band on NCORES_PER_BAND=   8 cores,    8 groups


--------------------------------------------------------------------------------------------------------


 INCAR:
 POTCAR:    PAW_PBE Cs_sv 08Apr2002               
 POTCAR:    PAW_PBE Pb_d 06Sep2000                
 POTCAR:    PAW_PBE Br 06Sep2000                  
 POTCAR:    PAW_PBE Cs_sv 08Apr2002               
   SHA256 =  c1463496f0f6037ed62c6012a8013a89ee9ad6ffb38599dcd6c079e7ed31779b Cs
   COPYR  = (c) Copyright 08Apr2002 Georg Kresse                                
   COPYR  = This file is part of the software VASP. Any use, copying, and all ot
   COPYR  = If you do not have a valid VASP license, you may not use, copy or di
   VRHFIN =Cs: 5s5p6s                                                           
   LEXCH  = PE                                                                  
   EATOM  =   555.6835 eV,   40.8416 Ry                                         
                                                                                
   TITEL  = PAW_PBE Cs_sv 08Apr2002                                             
   LULTRA =        F    use ultrasoft PP ?                                      
   IUNSCR =        1    unscreen: 0-lin 1-nonlin 2-no                           
   RPACOR =    2.200    partial core radius                                     
   POMASS =  132.900; ZVAL   =    9.000    mass and valenz                      
   RCORE  =    2.500    outmost cutoff radius                                   
   RWIGS  =    2.500; RWIGS  =    1.323    wigner-seitz radius (au A)           
   ENMAX  =  220.318; ENMIN  =  165.238 eV                                      
   RCLOC  =    2.207    cutoff for local pot                                    
   LCOR   =        T    correct aug charges                                     
   LPAW   =        T    paw PP                                                  
   EAUG   =  407.933                                                            
   DEXC   =    0.000                                                            
   RMAX   =    2.554    core radius for proj-oper                               
   RAUG   =    1.300    factor for augmentation sphere                          
   RDEP   =    2.590    radius for radial grids                                 
   RDEPT  =    2.117    core radius for aug-charge                              
                                                                                
   Atomic configuration                                                         
   13 entries                                                                   
     n  l   j            E        occ.                                          
     1  0  0.50    -35790.1377   2.0000                                         
     2  0  0.50     -5613.6201   2.0000                                         
     2  1  1.50     -5035.0101   6.0000                                         
     3  0  0.50     -1167.0767   2.0000                                         
     3  1  1.50      -980.9754   6.0000                                         
     3  2  2.50      -708.0703  10.0000                                         
     4  0  0.50      -220.2386   2.0000                                         
     4  1  1.50      -160.7596   6.0000                                         
     4  2  2.50       -74.2354  10.0000                                         
     5  0  0.50       -26.7287   2.0000                                         
     6  0  0.50        -2.0862   1.0000                                         
     5  1  1.50       -13.5159   6.0000                                         
     5  2  2.50        -0.4136   0.0000                                         
   Description                                                                  
     l       E           TYP  RCUT    TYP  RCUT                                 
     0    -26.7287425     23  1.900                                             
     0     -2.0862306     23  1.900                                             
     1    -13.5158719     23  2.500                                             
     1     -2.7211652     23  2.500                                             
     2     -0.4136171     23  2.500                                             
  local pseudopotential read in
  partial core-charges read in
  partial kinetic energy density read in
  atomic valenz-charges read in
  non local Contribution for L=           0  read in
    real space projection operators read in
  non local Contribution for L=           0  read in
    real space projection operators read in
  non local Contribution for L=           1  read in
    real space projection operators read in
  non local Contribution for L=           1  read in
    real space projection operators read in
  non local Contribution for L=           2  read in
    real space projection operators read in
    PAW grid and wavefunctions read in

   number of l-projection  operators is LMAX  =           5
   number of lm-projection operators is LMMAX =          13

 POTCAR:    PAW_PBE Pb_d 06Sep2000                
   SHA256 =  fb885b08f0fba73a15f6a6b0e39bd200c13ec96ef97cf3ecd8e63bade5137abd Pb
   COPYR  = (c) Copyright 06Sep2000 Georg Kresse                                
   COPYR  = This file is part of the software VASP. Any use, copying, and all ot
   COPYR  = If you do not have a valid VASP license, you may not use, copy or di
   VRHFIN =Pb:                                                                  
   LEXCH  = PE                                                                  
   EATOM  =  1661.6185 eV,  122.1255 Ry                                         
                                                                                
   TITEL  = PAW_PBE Pb_d 06Sep2000                                              
   LULTRA =        F    use ultrasoft PP ?                                      
   IUNSCR =        1    unscreen: 0-lin 1-nonlin 2-no                           
   RPACOR =    2.200    partial core radius                                     
   POMASS =  207.200; ZVAL   =   14.000    mass and valenz                      
   RCORE  =    2.500    outmost cutoff radius                                   
   RWIGS  =    3.260; RWIGS  =    1.725    wigner-seitz radius (au A)           
   ENMAX  =  237.835; ENMIN  =  178.376 eV                                      
   ICORE  =        3    local potential                                         
   LCOR   =        T    correct aug charges                                     
   LPAW   =        T    paw PP                                                  
   EAUG   =  391.914                                                            
   DEXC   =    0.000                                                            
   RMAX   =    2.565    core radius for proj-oper                               
   RAUG   =    1.300    factor for augmentation sphere                          
   RDEP   =    2.643    radius for radial grids                                 
   RDEPT  =    2.092    core radius for aug-charge                              
                                                                                
   Atomic configuration                                                         
   16 entries                                                                   
     n  l   j            E        occ.                                          
     1  0  0.50    -88091.8466   2.0000                                         
     2  0  0.50    -15753.4197   2.0000                                         
     2  1  1.50    -13508.1797   6.0000                                         
     3  0  0.50     -3781.7194   2.0000                                         
     3  1  1.50     -3138.2529   6.0000                                         
     3  2  2.50     -2483.2977  10.0000                                         
     4  0  0.50      -856.2895   2.0000                                         
     4  1  1.50      -645.4942   6.0000                                         
     4  2  2.50      -401.8768  10.0000                                         
     4  3  3.50      -132.9059  14.0000                                         
     5  0  0.50      -144.0950   2.0000                                         
     5  1  1.50       -85.7879   6.0000                                         
     5  2  2.50       -21.1769  10.0000                                         
     6  0  0.50       -12.0372   2.0000                                         
     6  1  1.50        -3.4971   2.0000                                         
     5  3  2.50        -2.7212   0.0000                                         
   Description                                                                  
     l       E           TYP  RCUT    TYP  RCUT                                 
     2    -21.1768523     23  2.500                                             
     2      1.3605826     23  2.500                                             
     0    -12.0371562     23  2.500                                             
     0     13.6058260     23  2.500                                             
     1     -3.4971339     23  2.500                                             
     1     13.6058260     23  2.500                                             
     3     -1.3605826      7  2.500                                             
  local pseudopotential read in
  partial core-charges read in
  partial kinetic energy density read in
  atomic valenz-charges read in
  non local Contribution for L=           2  read in
    real space projection operators read in
  non local Contribution for L=           2  read in
    real space projection operators read in
  non local Contribution for L=           0  read in
    real space projection operators read in
  non local Contribution for L=           0  read in
    real space projection operators read in
  non local Contribution for L=           1  read in
    real space projection operators read in
  non local Contribution for L=           1  read in
    real space projection operators read in
    PAW grid and wavefunctions read in

   number of l-projection  operators is LMAX  =           6
   number of lm-projection operators is LMMAX =          18

 POTCAR:    PAW_PBE Br 06Sep2000                  
   SHA256 =  96a73d2954943bbee26f4990d676cc6c3bf44b8dd2c75cd4b3b825d8403f0103 Br
   COPYR  = (c) Copyright 06Sep2000 Georg Kresse                                
   COPYR  = This file is part of the software VASP. Any use, copying, and all ot
   COPYR  = If you do not have a valid VASP license, you may not use, copy or di
   VRHFIN =Br: s2p5                                                             
   LEXCH  = PE                                                                  
   EATOM  =   368.4488 eV,   27.0802 Ry                                         
                                                                                
   TITEL  = PAW_PBE Br 06Sep2000                                                
   LULTRA =        F    use ultrasoft PP ?                                      
   IUNSCR =        1    unscreen: 0-lin 1-nonlin 2-no                           
   RPACOR =    1.900    partial core radius                                     
   POMASS =   79.904; ZVAL   =    7.000    mass and valenz                      
   RCORE  =    2.100    outmost cutoff radius                                   
   RWIGS  =    2.200; RWIGS  =    1.164    wigner-seitz radius (au A)           
   ENMAX  =  216.285; ENMIN  =  162.214 eV                                      
   ICORE  =        3    local potential                                         
   LCOR   =        T    correct aug charges                                     
   LPAW   =        T    paw PP                                                  
   EAUG   =  503.852                                                            
   DEXC   =    0.000                                                            
   RMAX   =    2.139    core radius for proj-oper                               
   RAUG   =    1.300    factor for augmentation sphere                          
   RDEP   =    2.186    radius for radial grids                                 
   RDEPT  =    1.890    core radius for aug-charge                              
                                                                                
   Atomic configuration                                                         
   10 entries                                                                   
     n  l   j            E        occ.                                          
     1  0  0.50    -13316.2796   2.0000                                         
     2  0  0.50     -1732.8239   2.0000                                         
     2  1  1.50     -1528.2193   6.0000                                         
     3  0  0.50      -238.0460   2.0000                                         
     3  1  1.50      -173.4609   6.0000                                         
     3  2  2.50       -66.7132  10.0000                                         
     4  0  0.50       -20.1334   2.0000                                         
     4  1  0.50        -7.8591   5.0000                                         
     4  2  2.50        -8.1635   0.0000                                         
     4  3  2.50        -8.1635   0.0000                                         
   Description                                                                  
     l       E           TYP  RCUT    TYP  RCUT                                 
     0    -20.1333652     23  2.100                                             
     0    -21.4939478     23  2.100                                             
     1     -7.8591052     23  2.100                                             
     1     -3.1608434     23  2.100                                             
     2     -8.1634956     23  2.100                                             
     3     -1.3605826      7  2.100                                             
  local pseudopotential read in
  partial core-charges read in
  partial kinetic energy density read in
  atomic valenz-charges read in
  non local Contribution for L=           0  read in
    real space projection operators read in
  non local Contribution for L=           0  read in
    real space projection operators read in
  non local Contribution for L=           1  read in
    real space projection operators read in
  non local Contribution for L=           1  read in
    real space projection operators read in
  non local Contribution for L=           2  read in
    real space projection operators read in
    PAW grid and wavefunctions read in

   number of l-projection  operators is LMAX  =           5
   number of lm-projection operators is LMMAX =          13

 Optimization of the real space projectors (new method)

 maximal supplied QI-value         = 15.12
 optimisation between [QCUT,QGAM] = [  8.77, 17.69] = [ 21.53, 87.61] Ry 
 Optimized for a Real-space Cutoff    1.85 Angstroem

   l    n(q)    QCUT    max X(q) W(low)/X(q) W(high)/X(q)  e(spline) 
   0     10     8.768    25.322    0.81E-04    0.51E-04    0.48E-06
   0     10     8.768    99.187    0.78E-04    0.50E-04    0.47E-06
   1      9     8.768    11.761    0.21E-03    0.20E-03    0.37E-06
   1      9     8.768     8.275    0.24E-03    0.22E-03    0.41E-06
   2      9     8.768     3.829    0.23E-04    0.15E-03    0.18E-06
 Optimization of the real space projectors (new method)

 maximal supplied QI-value         = 15.12
 optimisation between [QCUT,QGAM] = [  8.77, 17.69] = [ 21.53, 87.61] Ry 
 Optimized for a Real-space Cutoff    1.59 Angstroem

   l    n(q)    QCUT    max X(q) W(low)/X(q) W(high)/X(q)  e(spline) 
   2      7     8.768     3.846    0.48E-04    0.11E-03    0.11E-06
   2      7     8.768     8.593    0.20E-03    0.22E-04    0.24E-06
   0      8     8.768    20.082    0.68E-04    0.88E-04    0.41E-07
   0      8     8.768     8.597    0.89E-04    0.13E-03    0.59E-07
   1      8     8.768    33.223    0.15E-03    0.53E-04    0.87E-07
   1      8     8.768    15.899    0.14E-03    0.44E-04    0.78E-07
 Optimization of the real space projectors (new method)

 maximal supplied QI-value         = 17.95
 optimisation between [QCUT,QGAM] = [  8.80, 17.59] = [ 21.67, 86.68] Ry 
 Optimized for a Real-space Cutoff    1.59 Angstroem

   l    n(q)    QCUT    max X(q) W(low)/X(q) W(high)/X(q)  e(spline) 
   0      8     8.797   175.082    0.82E-04    0.14E-03    0.89E-07
   0      8     8.797   174.004    0.79E-04    0.14E-03    0.86E-07
   1      8     8.797    54.315    0.16E-03    0.14E-04    0.30E-06
   1      8     8.797    42.441    0.16E-03    0.14E-04    0.30E-06
   2      7     8.797     3.596    0.92E-04    0.15E-03    0.85E-07
  PAW_PBE Cs_sv 08Apr2002               :
 energy of atom  1       EATOM= -555.6835
 kinetic energy error for atom=    0.0069 (will be added to EATOM!!)
  PAW_PBE Pb_d 06Sep2000                :
 energy of atom  2       EATOM=-1661.6185
 kinetic energy error for atom=    0.0498 (will be added to EATOM!!)
  PAW_PBE Br 06Sep2000                  :
 energy of atom  3       EATOM= -368.4488
 kinetic energy error for atom=    0.0072 (will be added to EATOM!!)


 POSCAR: Cs4 Pb4 Br12                            
  positions in direct lattice
  velocities in cartesian coordinates

 METAGGA = SCAN     LMAXTAU =  6    LMIXTAU =  F

 exchange correlation table for  LEXCH =        8
   RHO(1)=    0.500       N(1)  =     2000
   RHO(2)=  100.500       N(2)  =     4000

 VTST: version 3.2, (02/03/18)

 CHAIN: initializing optimizer
 
 OPT: Using VASP Conjugate-Gradient optimizer
 CHAIN: Read ICHAIN            0

 POSCAR: Cs4 Pb4 Br12                            
  positions in direct lattice
  velocities in cartesian coordinates



--------------------------------------------------------------------------------------------------------


 ion  position               nearest neighbor table
   1  0.076  0.250  0.467-
   2  0.424  0.750  0.967-
   3  0.576  0.250  0.033-
   4  0.924  0.750  0.533-
   5  0.000  0.000  0.000-  15 3.00  18 3.00  17 3.03  16 3.03  10 3.08  11 3.08
   6  0.500  0.000  0.500-  16 3.00  17 3.00  15 3.03  18 3.03   9 3.08  12 3.08
   7  0.500  0.500  0.500-  13 3.00  19 3.00  14 3.03  20 3.03   9 3.08  12 3.08
   8  0.000  0.500  0.000-  14 3.00  20 3.00  19 3.03  13 3.03  10 3.08  11 3.08
   9  0.507  0.750  0.453-   6 3.08   7 3.08
  10  0.993  0.250  0.953-   5 3.08   8 3.08
  11  0.007  0.750  0.047-   5 3.08   8 3.08
  12  0.493  0.250  0.547-   6 3.08   7 3.08
  13  0.306  0.468  0.179-   7 3.00   8 3.03
  14  0.194  0.532  0.679-   8 3.00   7 3.03
  15  0.806  0.032  0.321-   5 3.00   6 3.03
  16  0.694  0.968  0.821-   6 3.00   5 3.03
  17  0.306  0.032  0.179-   6 3.00   5 3.03
  18  0.194  0.968  0.679-   5 3.00   6 3.03
  19  0.694  0.532  0.821-   7 3.00   8 3.03
  20  0.806  0.468  0.321-   8 3.00   7 3.03

  LATTYP: Found a simple orthorhombic cell.
 ALAT       =     7.6202381905
 B/A-ratio  =     1.1491528326
 C/A-ratio  =     1.6055088818
  
  Lattice vectors:
  
 A1 = (   0.0000000000,   0.0000000000,   7.6202381905)
 A2 = (  -8.7568183018,   0.0000000000,   0.0000000000)
 A3 = (   0.0000000000, -12.2343600960,   0.0000000000)


Analysis of symmetry for initial positions (statically):
=====================================================================
 Subroutine PRICEL returns:
 Original cell was already a primitive cell.
 

 Routine SETGRP: Setting up the symmetry group for a 
 simple orthorhombic supercell.


 Subroutine GETGRP returns: Found  8 space group operations
 (whereof  2 operations were pure point group operations)
 out of a pool of  8 trial point group operations.


The static configuration has the point symmetry S_2 .
 The point group associated with its full space group is D_2h.


Analysis of symmetry for dynamics (positions and initial velocities):
=====================================================================
 Subroutine PRICEL returns:
 Original cell was already a primitive cell.
 

 Routine SETGRP: Setting up the symmetry group for a 
 simple orthorhombic supercell.


 Subroutine GETGRP returns: Found  8 space group operations
 (whereof  2 operations were pure point group operations)
 out of a pool of  8 trial point group operations.


The dynamic configuration has the point symmetry S_2 .
 The point group associated with its full space group is D_2h.


 Subroutine INISYM returns: Found  8 space group operations
 (whereof  2 operations are pure point group operations),
 and found     1 'primitive' translations



 KPOINTS: 1x1x1                                   

Automatic generation of k-mesh.
Space group operators:
 irot       det(A)        alpha          n_x          n_y          n_z        tau_x        tau_y        tau_z
    1     1.000000     0.000000     1.000000     0.000000     0.000000     0.000000     0.000000     0.000000
    2    -1.000000     0.000000     1.000000     0.000000     0.000000     0.000000     0.000000     0.000000
    3     1.000000   180.000000     0.000000     1.000000     0.000000     0.000000    -0.500000     0.000000
    4    -1.000000   180.000000     0.000000     1.000000     0.000000     0.000000    -0.500000     0.000000
    5     1.000000   179.999999     1.000000     0.000000     0.000000    -0.500000    -0.500000     0.500000
    6    -1.000000   179.999999     1.000000     0.000000     0.000000    -0.500000    -0.500000     0.500000
    7     1.000000   180.000000     0.000000     0.000000     1.000000    -0.500000     0.000000     0.500000
    8    -1.000000   180.000000     0.000000     0.000000     1.000000    -0.500000     0.000000     0.500000
 
 Subroutine IBZKPT returns following result:
 ===========================================
 
 Found      8 irreducible k-points:
 
 Following reciprocal coordinates:
            Coordinates               Weight
  0.000000  0.000000  0.000000      1.000000
  0.333333  0.000000  0.000000      2.000000
  0.000000  0.500000  0.000000      1.000000
  0.333333  0.500000  0.000000      2.000000
  0.000000  0.000000  0.333333      2.000000
  0.333333  0.000000  0.333333      4.000000
  0.000000  0.500000  0.333333      2.000000
  0.333333  0.500000  0.333333      4.000000
 
 Following cartesian coordinates:
            Coordinates               Weight
  0.000000  0.000000  0.000000      1.000000
  0.038066  0.000000  0.000000      2.000000
  0.000000  0.040869  0.000000      1.000000
  0.038066  0.040869  0.000000      2.000000
  0.000000  0.000000  0.043743      2.000000
  0.038066  0.000000  0.043743      4.000000
  0.000000  0.040869  0.043743      2.000000
  0.038066  0.040869  0.043743      4.000000
 


--------------------------------------------------------------------------------------------------------




 Dimension of arrays:
   k-points           NKPTS =      8   k-points in BZ     NKDIM =      8   number of bands    NBANDS=    112
   number of dos      NEDOS =    301   number of ions     NIONS =     20
   non local maximal  LDIM  =      6   non local SUM 2l+1 LMDIM =     18
   total plane-waves  NPLWV = 168000
   max r-space proj   IRMAX =   5490   max aug-charges    IRDMAX=  87594
   dimension x,y,z NGX =    50 NGY =   70 NGZ =   48
   dimension x,y,z NGXF=   100 NGYF=  140 NGZF=   96
   support grid    NGXF=   200 NGYF=  280 NGZF=  192
   ions per type =               4   4  12
   NGX,Y,Z   is equivalent  to a cutoff of   9.49,  9.51, 10.47 a.u.
   NGXF,Y,Z  is equivalent  to a cutoff of  18.98, 19.02, 20.94 a.u.

 SYSTEM =  CsPbBr3 cubic bulk                      
 POSCAR =  Cs4 Pb4 Br12                            

 Startparameter for this run:
   NWRITE =      2    write-flag & timer
   PREC   = accura    normal or accurate (medium, high low for compatibility)
   ISTART =      0    job   : 0-new  1-cont  2-samecut
   ICHARG =      2    charge: 1-file 2-atom 10-const
   ISPIN  =      1    spin polarized calculation?
   LNONCOLLINEAR =      F non collinear calculations
   LSORBIT =      F    spin-orbit coupling
   INIWAV =      1    electr: 0-lowe 1-rand  2-diag
   LASPH  =      T    aspherical Exc in radial PAW
   METAGGA=      F    non-selfconsistent MetaGGA calc.

 Electronic Relaxation 1
   ENCUT  =  300.0 eV  22.05 Ry    4.70 a.u.  12.37 17.28 10.76*2*pi/ulx,y,z
   ENINI  =  300.0     initial cutoff
   ENAUG  =  503.9 eV  augmentation charge cutoff
   NELM   =    200;   NELMIN=  2; NELMDL= -5     # of ELM steps 
   EDIFF  = 0.1E-05   stopping-criterion for ELM
   LREAL  =      T    real-space projection
   NLSPLINE    = F    spline interpolate recip. space projectors
   LCOMPAT=      F    compatible to vasp.4.4
   GGA_COMPAT  = T    GGA compatible to vasp.4.4-vasp.4.6
   LMAXPAW     = -100 max onsite density
   LMAXMIX     =    2 max onsite mixed and CHGCAR
   VOSKOWN=      0    Vosko Wilk Nusair interpolation
   ROPT   =   -0.00025  -0.00025  -0.00025
 Ionic relaxation
   EDIFFG = -.1E-01   stopping-criterion for IOM
   NSW    =      0    number of steps for IOM
   NBLOCK =      1;   KBLOCK =      1    inner block; outer block 
   IBRION =     -1    ionic relax: 0-MD 1-quasi-New 2-CG
   NFREE  =      1    steps in history (QN), initial steepest desc. (CG)
   ISIF   =      3    stress and relaxation
   IWAVPR =     10    prediction:  0-non 1-charg 2-wave 3-comb
   ISYM   =      2    0-nonsym 1-usesym 2-fastsym
   LCORR  =      T    Harris-Foulkes like correction to forces

   POTIM  = 0.5000    time-step for ionic-motion
   TEIN   =    0.0    initial temperature
   TEBEG  =    0.0;   TEEND  =   0.0 temperature during run
   SMASS  =  -3.00    Nose mass-parameter (am)
   estimated Nose-frequenzy (Omega)   =  0.10E-29 period in steps =****** mass=  -0.175E-26a.u.
   SCALEE = 1.0000    scale energy and forces
   NPACO  =    256;   APACO  = 16.0  distance and # of slots for P.C.
   PSTRESS=    0.0 pullay stress

  Mass of Ions in am
   POMASS = 132.90207.20 79.90
  Ionic Valenz
   ZVAL   =   9.00 14.00  7.00
  Atomic Wigner-Seitz radii
   RWIGS  =  -1.00 -1.00 -1.00
  virtual crystal weights 
   VCA    =   1.00  1.00  1.00
   NELECT =     176.0000    total number of electrons
   NUPDOWN=      -1.0000    fix difference up-down

 DOS related values:
   EMIN   =  10.00;   EMAX   =-10.00  energy-range for DOS
   EFERMI =   0.00
   ISMEAR =     0;   SIGMA  =   0.01  broadening in eV -4-tet -1-fermi 0-gaus

 Electronic relaxation 2 (details)
   IALGO  =     38    algorithm
   LDIAG  =      T    sub-space diagonalisation (order eigenvalues)
   LSUBROT=      F    optimize rotation matrix (better conditioning)
   TURBO    =      0    0=normal 1=particle mesh
   IRESTART =      0    0=no restart 2=restart with 2 vectors
   NREBOOT  =      0    no. of reboots
   NMIN     =      0    reboot dimension
   EREF     =   0.00    reference energy to select bands
   IMIX   =      4    mixing-type and parameters
     AMIX     =   0.40;   BMIX     =  1.00
     AMIX_MAG =   1.60;   BMIX_MAG =  1.00
     AMIN     =   0.10
     WC   =   100.;   INIMIX=   1;  MIXPRE=   1;  MAXMIX= -45

 Intra band minimization:
   WEIMIN = 0.0000     energy-eigenvalue tresh-hold
   EBREAK =  0.22E-08  absolut break condition
   DEPER  =   0.30     relativ break condition  

   TIME   =   0.40     timestep for ELM

  volume/ion in A,a.u.               =      40.82       275.46
  Fermi-wavevector in a.u.,A,eV,Ry     =   0.981628  1.855008 13.110490  0.963594
  Thomas-Fermi vector in A             =   2.112649

 Write flags
   LWAVE        =      F    write WAVECAR
   LDOWNSAMPLE  =      F    k-point downsampling of WAVECAR
   LCHARG       =      F    write CHGCAR
   LVTOT        =      F    write LOCPOT, total local potential
   LVHAR        =      T    write LOCPOT, Hartree potential only
   LELF         =      F    write electronic localiz. function (ELF)
   LORBIT       =     10    0 simple, 1 ext, 2 COOP (PROOUT), +10 PAW based schemes


 Dipole corrections
   LMONO  =      F    monopole corrections only (constant potential shift)
   LDIPOL =      F    correct potential (dipole corrections)
   IDIPOL =      0    1-x, 2-y, 3-z, 4-all directions 
   EPSILON=  1.0000000 bulk dielectric constant

 Exchange correlation treatment:
   GGA     =    --    GGA type
   LEXCH   =     8    internal setting for exchange type
   VOSKOWN=      0    Vosko Wilk Nusair interpolation
   LHFCALC =     F    Hartree Fock is set to
   LHFONE  =     F    Hartree Fock one center treatment
   AEXX    =    0.0000 exact exchange contribution

 Linear response parameters
   LEPSILON=     F    determine dielectric tensor
   LRPA    =     F    only Hartree local field effects (RPA)
   LNABLA  =     F    use nabla operator in PAW spheres
   LVEL    =     F    velocity operator in full k-point grid
   LINTERFAST=   F  fast interpolation
   KINTER  =     0    interpolate to denser k-point grid
   CSHIFT  =0.1000    complex shift for real part using Kramers Kronig
   OMEGAMAX=  -1.0    maximum frequency
   DEG_THRESHOLD= 0.2000000E-02 threshold for treating states as degnerate
   RTIME   =   -0.100 relaxation time in fs
  (WPLASMAI=    0.000 imaginary part of plasma frequency in eV, 0.658/RTIME)
   DFIELD  = 0.0000000 0.0000000 0.0000000 field for delta impulse in time

 Orbital magnetization related:
   ORBITALMAG=     F  switch on orbital magnetization
   LCHIMAG   =     F  perturbation theory with respect to B field
   DQ        =  0.001000  dq finite difference perturbation B field
   LLRAUG    =     F  two centre corrections for induced B field



--------------------------------------------------------------------------------------------------------


 Static calculation
 charge density and potential will be updated during run
 non-spin polarized calculation
 Variant of blocked Davidson
 Davidson routine will perform the subspace rotation
 perform sub-space diagonalisation
    after iterative eigenvector-optimisation
 modified Broyden-mixing scheme, WC =      100.0
 initial mixing is a Kerker type mixing with AMIX =  0.4000 and BMIX =      1.0000
 Hartree-type preconditioning will be used
 using additional bands           24
 real space projection scheme for non local part
 use partial core corrections
 calculate Harris-corrections to forces   (improved forces if not selfconsistent)
 use gradient corrections 
 use of overlap-Matrix (Vanderbilt PP)
 Gauss-broadening in eV      SIGMA  =   0.01


--------------------------------------------------------------------------------------------------------


  energy-cutoff  :      300.00
  volume of cell :      816.39
      direct lattice vectors                 reciprocal lattice vectors
     8.756818302  0.000000000  0.000000000     0.114196728  0.000000000  0.000000000
     0.000000000 12.234360096  0.000000000     0.000000000  0.081737009  0.000000000
     0.000000000  0.000000000  7.620238191     0.000000000  0.000000000  0.131229494

  length of vectors
     8.756818302 12.234360096  7.620238191     0.114196728  0.081737009  0.131229494



 k-points in units of 2pi/SCALE and weight: 1x1x1                                   
   0.00000000  0.00000000  0.00000000       0.056
   0.03806558  0.00000000  0.00000000       0.111
   0.00000000  0.04086850  0.00000000       0.056
   0.03806558  0.04086850  0.00000000       0.111
   0.00000000  0.00000000  0.04374316       0.111
   0.03806558  0.00000000  0.04374316       0.222
   0.00000000  0.04086850  0.04374316       0.111
   0.03806558  0.04086850  0.04374316       0.222

 k-points in reciprocal lattice and weights: 1x1x1                                   
   0.00000000  0.00000000  0.00000000       0.056
   0.33333333  0.00000000  0.00000000       0.111
   0.00000000  0.50000000  0.00000000       0.056
   0.33333333  0.50000000  0.00000000       0.111
   0.00000000  0.00000000  0.33333333       0.111
   0.33333333  0.00000000  0.33333333       0.222
   0.00000000  0.50000000  0.33333333       0.111
   0.33333333  0.50000000  0.33333333       0.222

 position of ions in fractional coordinates (direct lattice) 
   0.07630993  0.25000000  0.46716500
   0.42369007  0.75000000  0.96716500
   0.57630993  0.25000000  0.03283500
   0.92369007  0.75000000  0.53283500
   0.00000000  0.00000000  0.00000000
   0.50000000  0.00000000  0.50000000
   0.50000000  0.50000000  0.50000000
   0.00000000  0.50000000  0.00000000
   0.50721759  0.75000000  0.45267432
   0.99278241  0.25000000  0.95267432
   0.00721759  0.75000000  0.04732568
   0.49278241  0.25000000  0.54732568
   0.30572534  0.46840758  0.17903872
   0.19427466  0.53159242  0.67903872
   0.80572534  0.03159242  0.32096128
   0.69427466  0.96840758  0.82096128
   0.30572534  0.03159242  0.17903872
   0.19427466  0.96840758  0.67903872
   0.69427466  0.53159242  0.82096128
   0.80572534  0.46840758  0.32096128

 position of ions in cartesian coordinates  (Angst):
   0.66823217  3.05859002  3.55990854
   3.71017698  9.17577007  7.37002764
   5.04664132  3.05859002  0.25021056
   8.08858613  9.17577007  4.06032965
   0.00000000  0.00000000  0.00000000
   4.37840915  0.00000000  3.81011910
   4.37840915  6.11718005  3.81011910
   0.00000000  6.11718005  0.00000000
   4.44161227  9.17577007  3.44948618
   8.69361519  3.05859002  7.25960527
   0.06320312  9.17577007  0.36063292
   4.31520603  3.05859002  4.17075201
   2.67718123  5.73066700  1.36431767
   1.70122792  6.50369309  5.17443677
   7.05559038  0.38651305  2.44580142
   6.07963707 11.84784705  6.25592052
   2.67718123  0.38651305  1.36431767
   1.70122792 11.84784705  5.17443677
   6.07963707  6.50369309  6.25592052
   7.05559038  5.73066700  2.44580142



--------------------------------------------------------------------------------------------------------


 k-point  1 :   0.0000 0.0000 0.0000  plane waves:    9651
 k-point  2 :   0.3333 0.0000 0.0000  plane waves:    9635
 k-point  3 :   0.0000 0.5000 0.0000  plane waves:    9630
 k-point  4 :   0.3333 0.5000 0.0000  plane waves:    9604
 k-point  5 :   0.0000 0.0000 0.3333  plane waves:    9644
 k-point  6 :   0.3333 0.0000 0.3333  plane waves:    9617
 k-point  7 :   0.0000 0.5000 0.3333  plane waves:    9640
 k-point  8 :   0.3333 0.5000 0.3333  plane waves:    9640

 maximum and minimum number of plane-waves per node :      1236     1184

 maximum number of plane-waves:      9651
 maximum index in each direction: 
   IXMAX=   12   IYMAX=   17   IZMAX=   10
   IXMIN=  -12   IYMIN=  -17   IZMIN=  -11


 real space projection operators:
  total allocation   :       8190.06 KBytes
  max/ min on nodes  :       1141.38        938.75


 parallel 3D FFT for wavefunctions:
    minimum data exchange during FFTs selected (reduces bandwidth)
 parallel 3D FFT for charge:
    minimum data exchange during FFTs selected (reduces bandwidth)


 total amount of memory used by VASP MPI-rank0    43652. kBytes
=======================================================================

   base      :      30000. kBytes
   nonlr-proj:       3258. kBytes
   fftplans  :       4445. kBytes
   grid      :       3667. kBytes
   one-center:         46. kBytes
   wavefun   :       2236. kBytes

     INWAV:  cpu time    0.0000: real time    0.0000
 Broyden mixing: mesh for mixing (old mesh)
   NGX = 25   NGY = 35   NGZ = 21
  (NGX  =100   NGY  =140   NGZ  = 96)
  gives a total of  18375 points

 initial charge density was supplied:
 charge density of overlapping atoms calculated
 number of electron     176.0000000 magnetization 
 keeping initial charge density in first step


--------------------------------------------------------------------------------------------------------


 Maximum index for non-local projection operator          936
 Maximum index for augmentation-charges         4616 (set IRDMAX)


--------------------------------------------------------------------------------------------------------


 First call to EWALD:  gamma=   0.190
 Maximum number of real-space cells 3x 2x 3
 Maximum number of reciprocal cells 3x 3x 2

    FEWALD:  cpu time    0.0022: real time    0.0022


--------------------------------------- Iteration      1(   1)  ---------------------------------------


    POTLOK:  cpu time    0.1290: real time    0.1364
    SETDIJ:  cpu time    1.0967: real time    1.0967
     EDDAV:  cpu time    4.3666: real time    4.3718
       DOS:  cpu time    0.0007: real time    0.0007
    --------------------------------------------
      LOOP:  cpu time    5.5930: real time    5.6056

 eigenvalue-minimisations  :  1848
 total energy-change (2. order) : 0.6608590E+03  (-0.5604679E+04)
 number of electron     176.0000000 magnetization 
 augmentation part      176.0000000 magnetization 

 Free energy of the ion-electron system (eV)
  ---------------------------------------------------
  alpha Z        PSCENC =       441.95814110
  Ewald energy   TEWEN  =     -9185.66428050
  -Hartree energ DENC   =     -3673.67824588
  -exchange      EXHF   =         0.00000000
  -V(xc)+E(xc)   XCENC  =       461.49584107
  PAW double counting   =     10816.98087266   -11353.96092700
  entropy T*S    EENTRO =        -0.00142534
  eigenvalues    EBANDS =      -136.55110931
  atomic energy  EATOM  =     13290.28009929
  Solvation  Ediel_sol  =         0.00000000
  ---------------------------------------------------
  free energy    TOTEN  =       660.85896607 eV

  energy without entropy =      660.86039141  energy(sigma->0) =      660.85967874


--------------------------------------------------------------------------------------------------------




--------------------------------------- Iteration      1(   2)  ---------------------------------------


     EDDAV:  cpu time    4.9201: real time    4.9357
       DOS:  cpu time    0.0003: real time    0.0003
    --------------------------------------------
      LOOP:  cpu time    4.9204: real time    4.9360

 eigenvalue-minimisations  :  2192
 total energy-change (2. order) :-0.1236307E+04  (-0.1189019E+04)
 number of electron     176.0000000 magnetization 
 augmentation part      176.0000000 magnetization 

 Free energy of the ion-electron system (eV)
  ---------------------------------------------------
  alpha Z        PSCENC =       441.95814110
  Ewald energy   TEWEN  =     -9185.66428050
  -Hartree energ DENC   =     -3673.67824588
  -exchange      EXHF   =         0.00000000
  -V(xc)+E(xc)   XCENC  =       461.49584107
  PAW double counting   =     10816.98087266   -11353.96092700
  entropy T*S    EENTRO =        -0.00000000
  eigenvalues    EBANDS =     -1372.85927588
  atomic energy  EATOM  =     13290.28009929
  Solvation  Ediel_sol  =         0.00000000
  ---------------------------------------------------
  free energy    TOTEN  =      -575.44777515 eV

  energy without entropy =     -575.44777515  energy(sigma->0) =     -575.44777515


--------------------------------------------------------------------------------------------------------




--------------------------------------- Iteration      1(   3)  ---------------------------------------


     EDDAV:  cpu time    5.2036: real time    5.2339
       DOS:  cpu time    0.0003: real time    0.0003
    --------------------------------------------
      LOOP:  cpu time    5.2039: real time    5.2342

 eigenvalue-minimisations  :  2416
 total energy-change (2. order) :-0.1733083E+03  (-0.1721470E+03)
 number of electron     176.0000000 magnetization 
 augmentation part      176.0000000 magnetization 

 Free energy of the ion-electron system (eV)
  ---------------------------------------------------
  alpha Z        PSCENC =       441.95814110
  Ewald energy   TEWEN  =     -9185.66428050
  -Hartree energ DENC   =     -3673.67824588
  -exchange      EXHF   =         0.00000000
  -V(xc)+E(xc)   XCENC  =       461.49584107
  PAW double counting   =     10816.98087266   -11353.96092700
  entropy T*S    EENTRO =        -0.00000000
  eigenvalues    EBANDS =     -1546.16756571
  atomic energy  EATOM  =     13290.28009929
  Solvation  Ediel_sol  =         0.00000000
  ---------------------------------------------------
  free energy    TOTEN  =      -748.75606498 eV

  energy without entropy =     -748.75606498  energy(sigma->0) =     -748.75606498


--------------------------------------------------------------------------------------------------------




--------------------------------------- Iteration      1(   4)  ---------------------------------------


     EDDAV:  cpu time    4.8958: real time    4.8985
       DOS:  cpu time    0.0003: real time    0.0003
    --------------------------------------------
      LOOP:  cpu time    4.8961: real time    4.8988

 eigenvalue-minimisations  :  2176
 total energy-change (2. order) :-0.5778841E+01  (-0.5758885E+01)
 number of electron     176.0000000 magnetization 
 augmentation part      176.0000000 magnetization 

 Free energy of the ion-electron system (eV)
  ---------------------------------------------------
  alpha Z        PSCENC =       441.95814110
  Ewald energy   TEWEN  =     -9185.66428050
  -Hartree energ DENC   =     -3673.67824588
  -exchange      EXHF   =         0.00000000
  -V(xc)+E(xc)   XCENC  =       461.49584107
  PAW double counting   =     10816.98087266   -11353.96092700
  entropy T*S    EENTRO =        -0.00000000
  eigenvalues    EBANDS =     -1551.94640670
  atomic energy  EATOM  =     13290.28009929
  Solvation  Ediel_sol  =         0.00000000
  ---------------------------------------------------
  free energy    TOTEN  =      -754.53490598 eV

  energy without entropy =     -754.53490598  energy(sigma->0) =     -754.53490598


--------------------------------------------------------------------------------------------------------




--------------------------------------- Iteration      1(   5)  ---------------------------------------


     EDDAV:  cpu time    5.0854: real time    5.1249
       DOS:  cpu time    0.0004: real time    0.0004
    CHARGE:  cpu time    0.9523: real time    0.9523
    MIXING:  cpu time    0.0008: real time    0.0008
    --------------------------------------------
      LOOP:  cpu time    6.0389: real time    6.0785

 eigenvalue-minimisations  :  2344
 total energy-change (2. order) :-0.2518735E+00  (-0.2517104E+00)
 number of electron     176.0000001 magnetization 
 augmentation part       -3.2280008 magnetization 

 Broyden mixing:
  rms(total) = 0.68858E+00    rms(broyden)= 0.68832E+00
  rms(prec ) = 0.96554E+00
  weight for this iteration     100.00

 Free energy of the ion-electron system (eV)
  ---------------------------------------------------
  alpha Z        PSCENC =       441.95814110
  Ewald energy   TEWEN  =     -9185.66428050
  -Hartree energ DENC   =     -3673.67824588
  -exchange      EXHF   =         0.00000000
  -V(xc)+E(xc)   XCENC  =       461.49584107
  PAW double counting   =     10816.98087266   -11353.96092700
  entropy T*S    EENTRO =        -0.00000000
  eigenvalues    EBANDS =     -1552.19828025
  atomic energy  EATOM  =     13290.28009929
  Solvation  Ediel_sol  =         0.00000000
  ---------------------------------------------------
  free energy    TOTEN  =      -754.78677952 eV

  energy without entropy =     -754.78677952  energy(sigma->0) =     -754.78677952


--------------------------------------------------------------------------------------------------------




--------------------------------------- Iteration      1(   6)  ---------------------------------------


    POTLOK:  cpu time    0.1709: real time    0.1731
    SETDIJ:  cpu time    1.0979: real time    1.0979
     EDDAV:  cpu time    5.1355: real time    5.1358
       DOS:  cpu time    0.0004: real time    0.0004
    CHARGE:  cpu time    0.9185: real time    0.9186
    MIXING:  cpu time    0.0009: real time    0.0009
    --------------------------------------------
      LOOP:  cpu time    7.3241: real time    7.3266

 eigenvalue-minimisations  :  2384
 total energy-change (2. order) : 0.3993865E+02  (-0.1195868E+01)
 number of electron     176.0000002 magnetization 
 augmentation part       -2.4943332 magnetization 

 Broyden mixing:
  rms(total) = 0.49158E+00    rms(broyden)= 0.49150E+00
  rms(prec ) = 0.61398E+00
  weight for this iteration     100.00

 eigenvalues of (default mixing * dielectric matrix)
  average eigenvalue GAMMA=   1.1205
  1.1205

 Free energy of the ion-electron system (eV)
  ---------------------------------------------------
  alpha Z        PSCENC =       441.95814110
  Ewald energy   TEWEN  =     -9185.66428050
  -Hartree energ DENC   =     -3663.09158452
  -exchange      EXHF   =         0.00000000
  -V(xc)+E(xc)   XCENC  =       476.89926967
  PAW double counting   =     10935.65524706   -11471.39613664
  entropy T*S    EENTRO =        -0.00000000
  eigenvalues    EBANDS =     -1539.48888522
  atomic energy  EATOM  =     13290.28009929
  Solvation  Ediel_sol  =         0.00000000
  ---------------------------------------------------
  free energy    TOTEN  =      -714.84812977 eV

  energy without entropy =     -714.84812977  energy(sigma->0) =     -714.84812977


--------------------------------------------------------------------------------------------------------




--------------------------------------- Iteration      1(   7)  ---------------------------------------


    POTLOK:  cpu time    0.1656: real time    0.1723
    SETDIJ:  cpu time    1.0976: real time    1.0976
     EDDAV:  cpu time    4.8748: real time    4.8750
       DOS:  cpu time    0.0004: real time    0.0004
    CHARGE:  cpu time    0.9236: real time    0.9236
    MIXING:  cpu time    0.0010: real time    0.0010
    --------------------------------------------
      LOOP:  cpu time    7.0629: real time    7.0699

 eigenvalue-minimisations  :  2208
 total energy-change (2. order) : 0.2494797E+00  (-0.4035360E+00)
 number of electron     176.0000002 magnetization 
 augmentation part       -2.2243763 magnetization 

 Broyden mixing:
  rms(total) = 0.26060E+00    rms(broyden)= 0.26059E+00
  rms(prec ) = 0.28581E+00
  weight for this iteration     100.00

 eigenvalues of (default mixing * dielectric matrix)
  average eigenvalue GAMMA=   1.3085
  1.3085  1.3085

 Free energy of the ion-electron system (eV)
  ---------------------------------------------------
  alpha Z        PSCENC =       441.95814110
  Ewald energy   TEWEN  =     -9185.66428050
  -Hartree energ DENC   =     -3681.87576076
  -exchange      EXHF   =         0.00000000
  -V(xc)+E(xc)   XCENC  =       479.46263215
  PAW double counting   =     11219.99042897   -11754.54842513
  entropy T*S    EENTRO =        -0.00000000
  eigenvalues    EBANDS =     -1524.20148516
  atomic energy  EATOM  =     13290.28009929
  Solvation  Ediel_sol  =         0.00000000
  ---------------------------------------------------
  free energy    TOTEN  =      -714.59865004 eV

  energy without entropy =     -714.59865004  energy(sigma->0) =     -714.59865004


--------------------------------------------------------------------------------------------------------




--------------------------------------- Iteration      1(   8)  ---------------------------------------


    POTLOK:  cpu time    0.1293: real time    0.1606
    SETDIJ:  cpu time    1.0970: real time    1.0970
     EDDAV:  cpu time    4.7803: real time    4.7806
       DOS:  cpu time    0.0003: real time    0.0003
    CHARGE:  cpu time    0.9165: real time    0.9166
    MIXING:  cpu time    0.0011: real time    0.0011
    --------------------------------------------
      LOOP:  cpu time    6.9245: real time    6.9562

 eigenvalue-minimisations  :  2144
 total energy-change (2. order) :-0.9980553E-01  (-0.1921998E-01)
 number of electron     176.0000002 magnetization 
 augmentation part       -2.2716592 magnetization 

 Broyden mixing:
  rms(total) = 0.14877E+00    rms(broyden)= 0.14876E+00
  rms(prec ) = 0.16537E+00
  weight for this iteration     100.00

 eigenvalues of (default mixing * dielectric matrix)
  average eigenvalue GAMMA=   1.6945
  1.1131  1.3012  2.6693

 Free energy of the ion-electron system (eV)
  ---------------------------------------------------
  alpha Z        PSCENC =       441.95814110
  Ewald energy   TEWEN  =     -9185.66428050
  -Hartree energ DENC   =     -3683.71098093
  -exchange      EXHF   =         0.00000000
  -V(xc)+E(xc)   XCENC  =       479.78917158
  PAW double counting   =     11330.88944533   -11865.55409043
  entropy T*S    EENTRO =        -0.00000000
  eigenvalues    EBANDS =     -1522.68596099
  atomic energy  EATOM  =     13290.28009929
  Solvation  Ediel_sol  =         0.00000000
  ---------------------------------------------------
  free energy    TOTEN  =      -714.69845557 eV

  energy without entropy =     -714.69845557  energy(sigma->0) =     -714.69845557


--------------------------------------------------------------------------------------------------------




--------------------------------------- Iteration      1(   9)  ---------------------------------------


    POTLOK:  cpu time    0.1635: real time    0.1720
    SETDIJ:  cpu time    1.0983: real time    1.0984
     EDDAV:  cpu time    4.5490: real time    4.5492
       DOS:  cpu time    0.0007: real time    0.0007
    CHARGE:  cpu time    0.9175: real time    0.9176
    MIXING:  cpu time    0.0009: real time    0.0009
    --------------------------------------------
      LOOP:  cpu time    6.7300: real time    6.7388

 eigenvalue-minimisations  :  1984
 total energy-change (2. order) :-0.4169008E-01  (-0.9398148E-02)
 number of electron     176.0000002 magnetization 
 augmentation part       -2.2942419 magnetization 

 Broyden mixing:
  rms(total) = 0.32379E-01    rms(broyden)= 0.32376E-01
  rms(prec ) = 0.34742E-01
  weight for this iteration     100.00

 eigenvalues of (default mixing * dielectric matrix)
  average eigenvalue GAMMA=   1.4604
  2.5330  1.2414  1.2414  0.8256

 Free energy of the ion-electron system (eV)
  ---------------------------------------------------
  alpha Z        PSCENC =       441.95814110
  Ewald energy   TEWEN  =     -9185.66428050
  -Hartree energ DENC   =     -3686.01749551
  -exchange      EXHF   =         0.00000000
  -V(xc)+E(xc)   XCENC  =       480.77795560
  PAW double counting   =     11489.72971266   -12024.69057523
  entropy T*S    EENTRO =        -0.00000000
  eigenvalues    EBANDS =     -1521.11370305
  atomic energy  EATOM  =     13290.28009929
  Solvation  Ediel_sol  =         0.00000000
  ---------------------------------------------------
  free energy    TOTEN  =      -714.74014565 eV

  energy without entropy =     -714.74014565  energy(sigma->0) =     -714.74014565


--------------------------------------------------------------------------------------------------------




--------------------------------------- Iteration      1(  10)  ---------------------------------------


    POTLOK:  cpu time    0.1199: real time    0.1636
    SETDIJ:  cpu time    1.0968: real time    1.0968
     EDDAV:  cpu time    5.4236: real time    5.4237
       DOS:  cpu time    0.0004: real time    0.0004
    CHARGE:  cpu time    0.9245: real time    0.9245
    MIXING:  cpu time    0.0010: real time    0.0010
    --------------------------------------------
      LOOP:  cpu time    7.5661: real time    7.6100

 eigenvalue-minimisations  :  2592
 total energy-change (2. order) :-0.1247992E-02  (-0.6477388E-03)
 number of electron     176.0000002 magnetization 
 augmentation part       -2.2873029 magnetization 

 Broyden mixing:
  rms(total) = 0.19353E-01    rms(broyden)= 0.19353E-01
  rms(prec ) = 0.21615E-01
  weight for this iteration     100.00

 eigenvalues of (default mixing * dielectric matrix)
  average eigenvalue GAMMA=   1.6143
  2.4810  2.4810  1.1331  1.1331  0.8432

 Free energy of the ion-electron system (eV)
  ---------------------------------------------------
  alpha Z        PSCENC =       441.95814110
  Ewald energy   TEWEN  =     -9185.66428050
  -Hartree energ DENC   =     -3685.13674663
  -exchange      EXHF   =         0.00000000
  -V(xc)+E(xc)   XCENC  =       480.67755110
  PAW double counting   =     11474.59511003   -12009.61660898
  entropy T*S    EENTRO =        -0.00000000
  eigenvalues    EBANDS =     -1521.83465905
  atomic energy  EATOM  =     13290.28009929
  Solvation  Ediel_sol  =         0.00000000
  ---------------------------------------------------
  free energy    TOTEN  =      -714.74139364 eV

  energy without entropy =     -714.74139364  energy(sigma->0) =     -714.74139364


--------------------------------------------------------------------------------------------------------




--------------------------------------- Iteration      1(  11)  ---------------------------------------


    POTLOK:  cpu time    0.1433: real time    0.1668
    SETDIJ:  cpu time    1.0940: real time    1.0940
     EDDAV:  cpu time    4.5152: real time    4.5153
       DOS:  cpu time    0.0004: real time    0.0004
    CHARGE:  cpu time    0.9223: real time    0.9223
    MIXING:  cpu time    0.0013: real time    0.0013
    --------------------------------------------
      LOOP:  cpu time    6.6764: real time    6.7001

 eigenvalue-minimisations  :  1960
 total energy-change (2. order) :-0.1905372E-02  (-0.2164245E-03)
 number of electron     176.0000002 magnetization 
 augmentation part       -2.2875503 magnetization 

 Broyden mixing:
  rms(total) = 0.69179E-02    rms(broyden)= 0.69175E-02
  rms(prec ) = 0.84612E-02
  weight for this iteration     100.00

 eigenvalues of (default mixing * dielectric matrix)
  average eigenvalue GAMMA=   1.5801
  2.6255  2.6255  1.2117  1.2117  0.9030  0.9030

 Free energy of the ion-electron system (eV)
  ---------------------------------------------------
  alpha Z        PSCENC =       441.95814110
  Ewald energy   TEWEN  =     -9185.66428050
  -Hartree energ DENC   =     -3683.67970611
  -exchange      EXHF   =         0.00000000
  -V(xc)+E(xc)   XCENC  =       480.62519743
  PAW double counting   =     11461.01737559   -11996.24875944
  entropy T*S    EENTRO =        -0.00000000
  eigenvalues    EBANDS =     -1523.03136636
  atomic energy  EATOM  =     13290.28009929
  Solvation  Ediel_sol  =         0.00000000
  ---------------------------------------------------
  free energy    TOTEN  =      -714.74329901 eV

  energy without entropy =     -714.74329901  energy(sigma->0) =     -714.74329901


--------------------------------------------------------------------------------------------------------




--------------------------------------- Iteration      1(  12)  ---------------------------------------


    POTLOK:  cpu time    0.1220: real time    0.1672
    SETDIJ:  cpu time    1.0957: real time    1.0957
     EDDAV:  cpu time    4.7935: real time    4.7937
       DOS:  cpu time    0.0004: real time    0.0004
    CHARGE:  cpu time    0.9231: real time    0.9231
    MIXING:  cpu time    0.0010: real time    0.0010
    --------------------------------------------
      LOOP:  cpu time    6.9356: real time    6.9811

 eigenvalue-minimisations  :  2152
 total energy-change (2. order) :-0.6550846E-05  (-0.4926279E-04)
 number of electron     176.0000002 magnetization 
 augmentation part       -2.2892525 magnetization 

 Broyden mixing:
  rms(total) = 0.23902E-02    rms(broyden)= 0.23897E-02
  rms(prec ) = 0.27760E-02
  weight for this iteration     100.00

 eigenvalues of (default mixing * dielectric matrix)
  average eigenvalue GAMMA=   1.6314
  3.0912  2.2265  1.9704  0.9464  0.9464  1.1193  1.1193

 Free energy of the ion-electron system (eV)
  ---------------------------------------------------
  alpha Z        PSCENC =       441.95814110
  Ewald energy   TEWEN  =     -9185.66428050
  -Hartree energ DENC   =     -3683.87273154
  -exchange      EXHF   =         0.00000000
  -V(xc)+E(xc)   XCENC  =       480.68496669
  PAW double counting   =     11465.71415596   -12000.98516386
  entropy T*S    EENTRO =        -0.00000000
  eigenvalues    EBANDS =     -1522.85849269
  atomic energy  EATOM  =     13290.28009929
  Solvation  Ediel_sol  =         0.00000000
  ---------------------------------------------------
  free energy    TOTEN  =      -714.74330556 eV

  energy without entropy =     -714.74330556  energy(sigma->0) =     -714.74330556


--------------------------------------------------------------------------------------------------------




--------------------------------------- Iteration      1(  13)  ---------------------------------------


    POTLOK:  cpu time    0.1280: real time    0.1644
    SETDIJ:  cpu time    1.0970: real time    1.0971
     EDDAV:  cpu time    4.8378: real time    4.8380
       DOS:  cpu time    0.0003: real time    0.0003
    CHARGE:  cpu time    0.9185: real time    0.9185
    MIXING:  cpu time    0.0013: real time    0.0013
    --------------------------------------------
      LOOP:  cpu time    6.9829: real time    7.0196

 eigenvalue-minimisations  :  2184
 total energy-change (2. order) : 0.1989651E-04  (-0.6369474E-05)
 number of electron     176.0000002 magnetization 
 augmentation part       -2.2892438 magnetization 

 Broyden mixing:
  rms(total) = 0.75791E-03    rms(broyden)= 0.75728E-03
  rms(prec ) = 0.82782E-03
  weight for this iteration     100.00

 eigenvalues of (default mixing * dielectric matrix)
  average eigenvalue GAMMA=   1.6327
  2.9926  2.5217  2.0407  1.2956  1.2956  0.9541  0.9807  0.9807

 Free energy of the ion-electron system (eV)
  ---------------------------------------------------
  alpha Z        PSCENC =       441.95814110
  Ewald energy   TEWEN  =     -9185.66428050
  -Hartree energ DENC   =     -3684.06182829
  -exchange      EXHF   =         0.00000000
  -V(xc)+E(xc)   XCENC  =       480.70115876
  PAW double counting   =     11464.89079536   -12000.16372622
  entropy T*S    EENTRO =        -0.00000000
  eigenvalues    EBANDS =     -1522.68364515
  atomic energy  EATOM  =     13290.28009929
  Solvation  Ediel_sol  =         0.00000000
  ---------------------------------------------------
  free energy    TOTEN  =      -714.74328566 eV

  energy without entropy =     -714.74328566  energy(sigma->0) =     -714.74328566


--------------------------------------------------------------------------------------------------------




--------------------------------------- Iteration      1(  14)  ---------------------------------------


    POTLOK:  cpu time    0.1217: real time    0.1711
    SETDIJ:  cpu time    1.0950: real time    1.0950
     EDDAV:  cpu time    4.3079: real time    4.3081
       DOS:  cpu time    0.0006: real time    0.0006
    CHARGE:  cpu time    0.9186: real time    0.9186
    MIXING:  cpu time    0.0014: real time    0.0014
    --------------------------------------------
      LOOP:  cpu time    6.4453: real time    6.4949

 eigenvalue-minimisations  :  1800
 total energy-change (2. order) :-0.2172033E-04  (-0.3875216E-06)
 number of electron     176.0000002 magnetization 
 augmentation part       -2.2890171 magnetization 

 Broyden mixing:
  rms(total) = 0.25188E-03    rms(broyden)= 0.25031E-03
  rms(prec ) = 0.29031E-03
  weight for this iteration     100.00

 eigenvalues of (default mixing * dielectric matrix)
  average eigenvalue GAMMA=   1.6814
  2.9059  2.4733  2.4733  2.0633  1.1537  1.1537  0.9351  0.9869  0.9869

 Free energy of the ion-electron system (eV)
  ---------------------------------------------------
  alpha Z        PSCENC =       441.95814110
  Ewald energy   TEWEN  =     -9185.66428050
  -Hartree energ DENC   =     -3684.07046476
  -exchange      EXHF   =         0.00000000
  -V(xc)+E(xc)   XCENC  =       480.70039308
  PAW double counting   =     11464.37939255   -11999.65054178
  entropy T*S    EENTRO =        -0.00000000
  eigenvalues    EBANDS =     -1522.67604636
  atomic energy  EATOM  =     13290.28009929
  Solvation  Ediel_sol  =         0.00000000
  ---------------------------------------------------
  free energy    TOTEN  =      -714.74330738 eV

  energy without entropy =     -714.74330738  energy(sigma->0) =     -714.74330738


--------------------------------------------------------------------------------------------------------




--------------------------------------- Iteration      1(  15)  ---------------------------------------


    POTLOK:  cpu time    0.1492: real time    0.1618
    SETDIJ:  cpu time    1.0947: real time    1.0947
     EDDAV:  cpu time    3.5653: real time    3.5655
       DOS:  cpu time    0.0004: real time    0.0004
    CHARGE:  cpu time    0.9171: real time    0.9172
    MIXING:  cpu time    0.0011: real time    0.0011
    --------------------------------------------
      LOOP:  cpu time    5.7279: real time    5.7406

 eigenvalue-minimisations  :  1264
 total energy-change (2. order) : 0.1528666E-05  (-0.5524248E-07)
 number of electron     176.0000002 magnetization 
 augmentation part       -2.2890373 magnetization 

 Broyden mixing:
  rms(total) = 0.73414E-04    rms(broyden)= 0.67971E-04
  rms(prec ) = 0.85954E-04
  weight for this iteration     100.00

 eigenvalues of (default mixing * dielectric matrix)
  average eigenvalue GAMMA=   1.6648
  3.1766  2.7331  2.4792  1.8467  1.2265  1.2265  0.9511  0.9511  1.0288  1.0288

 Free energy of the ion-electron system (eV)
  ---------------------------------------------------
  alpha Z        PSCENC =       441.95814110
  Ewald energy   TEWEN  =     -9185.66428050
  -Hartree energ DENC   =     -3684.06084091
  -exchange      EXHF   =         0.00000000
  -V(xc)+E(xc)   XCENC  =       480.69988039
  PAW double counting   =     11464.50334039   -11999.77376593
  entropy T*S    EENTRO =        -0.00000000
  eigenvalues    EBANDS =     -1522.68587968
  atomic energy  EATOM  =     13290.28009929
  Solvation  Ediel_sol  =         0.00000000
  ---------------------------------------------------
  free energy    TOTEN  =      -714.74330586 eV

  energy without entropy =     -714.74330586  energy(sigma->0) =     -714.74330586


--------------------------------------------------------------------------------------------------------




--------------------------------------- Iteration      1(  16)  ---------------------------------------


    POTLOK:  cpu time    0.1540: real time    0.1727
    SETDIJ:  cpu time    1.0956: real time    1.0956
     EDDAV:  cpu time    3.5102: real time    3.5104
       DOS:  cpu time    0.0007: real time    0.0007
    CHARGE:  cpu time    0.9228: real time    0.9229
    MIXING:  cpu time    0.0011: real time    0.0011
    --------------------------------------------
      LOOP:  cpu time    5.6844: real time    5.7032

 eigenvalue-minimisations  :  1224
 total energy-change (2. order) : 0.1487969E-05  (-0.1928002E-07)
 number of electron     176.0000002 magnetization 
 augmentation part       -2.2890881 magnetization 

 Broyden mixing:
  rms(total) = 0.47567E-04    rms(broyden)= 0.38667E-04
  rms(prec ) = 0.43943E-04
  weight for this iteration     100.00
  WARNING: grid for Broyden might be to small

 eigenvalues of (default mixing * dielectric matrix)
  average eigenvalue GAMMA=   1.6877
  3.0053  2.8707  2.6620  1.9069  1.9069  1.1807  1.1807  0.9886  0.9886  0.9373
  0.9373

 Free energy of the ion-electron system (eV)
  ---------------------------------------------------
  alpha Z        PSCENC =       441.95814110
  Ewald energy   TEWEN  =     -9185.66428050
  -Hartree energ DENC   =     -3684.06785154
  -exchange      EXHF   =         0.00000000
  -V(xc)+E(xc)   XCENC  =       480.70045110
  PAW double counting   =     11464.45127020   -11999.72185653
  entropy T*S    EENTRO =        -0.00000000
  eigenvalues    EBANDS =     -1522.67927748
  atomic energy  EATOM  =     13290.28009929
  Solvation  Ediel_sol  =         0.00000000
  ---------------------------------------------------
  free energy    TOTEN  =      -714.74330437 eV

  energy without entropy =     -714.74330437  energy(sigma->0) =     -714.74330437


--------------------------------------------------------------------------------------------------------




--------------------------------------- Iteration      1(  17)  ---------------------------------------


    POTLOK:  cpu time    0.1347: real time    0.1655
    SETDIJ:  cpu time    1.0967: real time    1.0967
     EDDAV:  cpu time    3.3183: real time    3.3184
       DOS:  cpu time    0.0004: real time    0.0004
    CHARGE:  cpu time    0.9180: real time    0.9180
    MIXING:  cpu time    0.0017: real time    0.0017
    --------------------------------------------
      LOOP:  cpu time    5.4697: real time    5.5006

 eigenvalue-minimisations  :  1088
 total energy-change (2. order) : 0.1266369E-05  (-0.5163746E-08)
 number of electron     176.0000002 magnetization 
 augmentation part       -2.2890578 magnetization 

 Broyden mixing:
  rms(total) = 0.30564E-04    rms(broyden)= 0.12919E-04
  rms(prec ) = 0.15647E-04
  weight for this iteration     100.00
  WARNING: grid for Broyden might be to small

 eigenvalues of (default mixing * dielectric matrix)
  average eigenvalue GAMMA=   1.7339
  3.6720  3.0685  2.4644  2.3806  1.9345  1.2743  1.1449  1.1449  0.9648  0.9648
  0.9215  0.8719

 Free energy of the ion-electron system (eV)
  ---------------------------------------------------
  alpha Z        PSCENC =       441.95814110
  Ewald energy   TEWEN  =     -9185.66428050
  -Hartree energ DENC   =     -3684.07045967
  -exchange      EXHF   =         0.00000000
  -V(xc)+E(xc)   XCENC  =       480.70061522
  PAW double counting   =     11464.44947663   -11999.71974784
  entropy T*S    EENTRO =        -0.00000000
  eigenvalues    EBANDS =     -1522.67714731
  atomic energy  EATOM  =     13290.28009929
  Solvation  Ediel_sol  =         0.00000000
  ---------------------------------------------------
  free energy    TOTEN  =      -714.74330310 eV

  energy without entropy =     -714.74330310  energy(sigma->0) =     -714.74330310


--------------------------------------------------------------------------------------------------------




--------------------------------------- Iteration      1(  18)  ---------------------------------------


    POTLOK:  cpu time    0.1764: real time    0.1794
    SETDIJ:  cpu time    1.0948: real time    1.0948
     EDDAV:  cpu time    3.2935: real time    3.2936
       DOS:  cpu time    0.0003: real time    0.0003
    --------------------------------------------
      LOOP:  cpu time    4.5649: real time    4.5681

 eigenvalue-minimisations  :  1072
 total energy-change (2. order) : 0.2061788E-06  (-0.2847354E-08)
 number of electron     176.0000002 magnetization 
 augmentation part       -2.2890578 magnetization 

 Free energy of the ion-electron system (eV)
  ---------------------------------------------------
  alpha Z        PSCENC =       441.95814110
  Ewald energy   TEWEN  =     -9185.66428050
  -Hartree energ DENC   =     -3684.07122361
  -exchange      EXHF   =         0.00000000
  -V(xc)+E(xc)   XCENC  =       480.70062455
  PAW double counting   =     11464.44316942   -11999.71375693
  entropy T*S    EENTRO =        -0.00000000
  eigenvalues    EBANDS =     -1522.67607620
  atomic energy  EATOM  =     13290.28009929
  Solvation  Ediel_sol  =         0.00000000
  ---------------------------------------------------
  free energy    TOTEN  =      -714.74330290 eV

  energy without entropy =     -714.74330290  energy(sigma->0) =     -714.74330290


--------------------------------------------------------------------------------------------------------




 average (electrostatic) potential at core
  the test charge radii are     1.1312  1.1541  1.0178
  (the norm of the test charge is              1.0000)
       1 -55.3572       2 -55.3571       3 -55.3572       4 -55.3571       5-101.8701
       6-101.8701       7-101.8701       8-101.8701       9 -69.0390      10 -69.0390
      11 -69.0390      12 -69.0390      13 -69.0469      14 -69.0469      15 -69.0469
      16 -69.0469      17 -69.0469      18 -69.0469      19 -69.0469      20 -69.0469



 E-fermi :   0.2458     XC(G=0):  -8.0062     alpha+bet : -6.9336


 k-point     1 :       0.0000    0.0000    0.0000
  band No.  band energies     occupation 
      1     -20.8838      2.00000
      2     -20.8827      2.00000
      3     -20.8795      2.00000
      4     -20.8789      2.00000
      5     -16.6439      2.00000
      6     -16.6439      2.00000
      7     -16.6420      2.00000
      8     -16.6179      2.00000
      9     -16.6080      2.00000
     10     -16.5808      2.00000
     11     -16.5683      2.00000
     12     -16.5680      2.00000
     13     -16.5394      2.00000
     14     -16.5391      2.00000
     15     -16.5385      2.00000
     16     -16.5380      2.00000
     17     -16.5148      2.00000
     18     -16.5144      2.00000
     19     -16.5141      2.00000
     20     -16.5136      2.00000
     21     -16.5056      2.00000
     22     -16.5055      2.00000
     23     -16.5053      2.00000
     24     -16.5048      2.00000
     25     -14.3521      2.00000
     26     -14.2215      2.00000
     27     -14.0942      2.00000
     28     -14.0875      2.00000
     29     -14.0397      2.00000
     30     -14.0268      2.00000
     31     -13.9937      2.00000
     32     -13.9935      2.00000
     33     -13.9853      2.00000
     34     -13.8286      2.00000
     35     -13.8027      2.00000
     36     -13.8022      2.00000
     37      -8.2085      2.00000
     38      -7.8164      2.00000
     39      -7.3349      2.00000
     40      -7.3139      2.00000
     41      -7.3073      2.00000
     42      -7.2941      2.00000
     43      -7.2938      2.00000
     44      -7.2847      2.00000
     45      -7.2805      2.00000
     46      -7.2687      2.00000
     47      -7.2684      2.00000
     48      -7.2619      2.00000
     49      -7.2471      2.00000
     50      -7.2461      2.00000
     51      -7.2257      2.00000
     52      -6.7601      2.00000
     53      -3.3889      2.00000
     54      -3.3145      2.00000
     55      -3.1837      2.00000
     56      -3.1689      2.00000
     57      -3.1427      2.00000
     58      -2.9216      2.00000
     59      -2.2190      2.00000
     60      -1.9996      2.00000
     61      -1.9826      2.00000
     62      -1.8976      2.00000
     63      -1.8255      2.00000
     64      -1.6670      2.00000
     65      -1.6658      2.00000
     66      -1.6531      2.00000
     67      -1.6014      2.00000
     68      -1.5958      2.00000
     69      -1.5318      2.00000
     70      -1.5218      2.00000
     71      -1.5101      2.00000
     72      -1.5078      2.00000
     73      -1.4644      2.00000
     74      -1.4402      2.00000
     75      -1.3870      2.00000
     76      -1.3786      2.00000
     77      -1.3641      2.00000
     78      -1.2295      2.00000
     79      -1.2269      2.00000
     80      -1.1642      2.00000
     81      -1.0431      2.00000
     82      -1.0349      2.00000
     83      -1.0314      2.00000
     84      -0.9471      2.00000
     85      -0.8487      2.00000
     86      -0.7263      2.00000
     87      -0.3059      2.00000
     88       0.1392      2.00000
     89       2.4174      0.00000
     90       2.5090      0.00000
     91       2.9039      0.00000
     92       2.9650      0.00000
     93       3.1059      0.00000
     94       3.3470      0.00000
     95       4.8156      0.00000
     96       5.0568      0.00000
     97       5.4624      0.00000
     98       5.7597      0.00000
     99       5.7677      0.00000
    100       5.8445      0.00000
    101       5.9513      0.00000
    102       6.0169      0.00000
    103       6.0610      0.00000
    104       6.1728      0.00000
    105       6.2885      0.00000
    106       6.3077      0.00000
    107       6.5053      0.00000
    108       6.6546      0.00000
    109       6.9111      0.00000
    110       6.9674      0.00000
    111       6.9949      0.00000
    112       7.0101      0.00000

 k-point     2 :       0.3333    0.0000    0.0000
  band No.  band energies     occupation 
      1     -20.8827      2.00000
      2     -20.8817      2.00000
      3     -20.8806      2.00000
      4     -20.8798      2.00000
      5     -16.6356      2.00000
      6     -16.6257      2.00000
      7     -16.6257      2.00000
      8     -16.6237      2.00000
      9     -16.6009      2.00000
     10     -16.5878      2.00000
     11     -16.5878      2.00000
     12     -16.5874      2.00000
     13     -16.5393      2.00000
     14     -16.5391      2.00000
     15     -16.5384      2.00000
     16     -16.5381      2.00000
     17     -16.5146      2.00000
     18     -16.5144      2.00000
     19     -16.5142      2.00000
     20     -16.5138      2.00000
     21     -16.5056      2.00000
     22     -16.5056      2.00000
     23     -16.5053      2.00000
     24     -16.5050      2.00000
     25     -14.3100      2.00000
     26     -14.1985      2.00000
     27     -14.1902      2.00000
     28     -14.1233      2.00000
     29     -14.0332      2.00000
     30     -14.0287      2.00000
     31     -13.9452      2.00000
     32     -13.9431      2.00000
     33     -13.9132      2.00000
     34     -13.8501      2.00000
     35     -13.8495      2.00000
     36     -13.8483      2.00000
     37      -8.0068      2.00000
     38      -7.6125      2.00000
     39      -7.5467      2.00000
     40      -7.3372      2.00000
     41      -7.3087      2.00000
     42      -7.3067      2.00000
     43      -7.2907      2.00000
     44      -7.2902      2.00000
     45      -7.2823      2.00000
     46      -7.2793      2.00000
     47      -7.2648      2.00000
     48      -7.2534      2.00000
     49      -7.2516      2.00000
     50      -7.2486      2.00000
     51      -7.2307      2.00000
     52      -7.0758      2.00000
     53      -3.1563      2.00000
     54      -3.0763      2.00000
     55      -2.9273      2.00000
     56      -2.8608      2.00000
     57      -2.8405      2.00000
     58      -2.8073      2.00000
     59      -2.2920      2.00000
     60      -2.1789      2.00000
     61      -2.1485      2.00000
     62      -2.0462      2.00000
     63      -2.0324      2.00000
     64      -2.0296      2.00000
     65      -1.7933      2.00000
     66      -1.7190      2.00000
     67      -1.7095      2.00000
     68      -1.6629      2.00000
     69      -1.5461      2.00000
     70      -1.5342      2.00000
     71      -1.4987      2.00000
     72      -1.4640      2.00000
     73      -1.4110      2.00000
     74      -1.3833      2.00000
     75      -1.3820      2.00000
     76      -1.3557      2.00000
     77      -1.3155      2.00000
     78      -1.2991      2.00000
     79      -1.2758      2.00000
     80      -1.1465      2.00000
     81      -1.1124      2.00000
     82      -1.0870      2.00000
     83      -1.0555      2.00000
     84      -1.0436      2.00000
     85      -0.7770      2.00000
     86      -0.6596      2.00000
     87      -0.6015      2.00000
     88      -0.2699      2.00000
     89       2.5849      0.00000
     90       2.9258      0.00000
     91       3.1953      0.00000
     92       3.5343      0.00000
     93       3.8062      0.00000
     94       4.1252      0.00000
     95       4.5603      0.00000
     96       4.9068      0.00000
     97       5.1374      0.00000
     98       5.1783      0.00000
     99       5.3217      0.00000
    100       5.6566      0.00000
    101       5.6853      0.00000
    102       6.1407      0.00000
    103       6.2789      0.00000
    104       6.3025      0.00000
    105       6.3085      0.00000
    106       6.3328      0.00000
    107       6.5410      0.00000
    108       6.5630      0.00000
    109       6.9097      0.00000
    110       6.9289      0.00000
    111       6.9401      0.00000
    112       7.1426      0.00000

 k-point     3 :       0.0000    0.5000    0.0000
  band No.  band energies     occupation 
      1     -20.8833      2.00000
      2     -20.8832      2.00000
      3     -20.8792      2.00000
      4     -20.8791      2.00000
      5     -16.6439      2.00000
      6     -16.6439      2.00000
      7     -16.6250      2.00000
      8     -16.6250      2.00000
      9     -16.5993      2.00000
     10     -16.5993      2.00000
     11     -16.5682      2.00000
     12     -16.5682      2.00000
     13     -16.5389      2.00000
     14     -16.5389      2.00000
     15     -16.5384      2.00000
     16     -16.5384      2.00000
     17     -16.5145      2.00000
     18     -16.5145      2.00000
     19     -16.5140      2.00000
     20     -16.5140      2.00000
     21     -16.5055      2.00000
     22     -16.5055      2.00000
     23     -16.5052      2.00000
     24     -16.5052      2.00000
     25     -14.3050      2.00000
     26     -14.3050      2.00000
     27     -14.0909      2.00000
     28     -14.0909      2.00000
     29     -14.0099      2.00000
     30     -14.0099      2.00000
     31     -13.9980      2.00000
     32     -13.9980      2.00000
     33     -13.9072      2.00000
     34     -13.9072      2.00000
     35     -13.8025      2.00000
     36     -13.8025      2.00000
     37      -8.0249      2.00000
     38      -8.0249      2.00000
     39      -7.3247      2.00000
     40      -7.3246      2.00000
     41      -7.3040      2.00000
     42      -7.3040      2.00000
     43      -7.2831      2.00000
     44      -7.2831      2.00000
     45      -7.2671      2.00000
     46      -7.2671      2.00000
     47      -7.2615      2.00000
     48      -7.2615      2.00000
     49      -7.2556      2.00000
     50      -7.2556      2.00000
     51      -7.0269      2.00000
     52      -7.0269      2.00000
     53      -3.3496      2.00000
     54      -3.3496      2.00000
     55      -3.1322      2.00000
     56      -3.1322      2.00000
     57      -2.4978      2.00000
     58      -2.4978      2.00000
     59      -2.2975      2.00000
     60      -2.2975      2.00000
     61      -2.1108      2.00000
     62      -2.1108      2.00000
     63      -1.8333      2.00000
     64      -1.8333      2.00000
     65      -1.7703      2.00000
     66      -1.7703      2.00000
     67      -1.6207      2.00000
     68      -1.6207      2.00000
     69      -1.5311      2.00000
     70      -1.5311      2.00000
     71      -1.5035      2.00000
     72      -1.5035      2.00000
     73      -1.4032      2.00000
     74      -1.4032      2.00000
     75      -1.3694      2.00000
     76      -1.3694      2.00000
     77      -1.2758      2.00000
     78      -1.2758      2.00000
     79      -1.2407      2.00000
     80      -1.2407      2.00000
     81      -1.1686      2.00000
     82      -1.1686      2.00000
     83      -0.9719      2.00000
     84      -0.9719      2.00000
     85      -0.8341      2.00000
     86      -0.8341      2.00000
     87      -0.2105      2.00000
     88      -0.2105      2.00000
     89       2.7059      0.00000
     90       2.7059      0.00000
     91       3.1545      0.00000
     92       3.1545      0.00000
     93       3.8572      0.00000
     94       3.8572      0.00000
     95       4.4200      0.00000
     96       4.4200      0.00000
     97       5.3755      0.00000
     98       5.3755      0.00000
     99       5.5105      0.00000
    100       5.5105      0.00000
    101       6.0149      0.00000
    102       6.0149      0.00000
    103       6.1335      0.00000
    104       6.1335      0.00000
    105       6.3738      0.00000
[...]
     60      -2.4134      2.00000
     61      -2.2396      2.00000
     62      -2.2396      2.00000
     63      -2.0145      2.00000
     64      -2.0145      2.00000
     65      -1.7534      2.00000
     66      -1.7534      2.00000
     67      -1.7248      2.00000
     68      -1.7248      2.00000
     69      -1.5680      2.00000
     70      -1.5680      2.00000
     71      -1.5517      2.00000
     72      -1.5517      2.00000
     73      -1.4144      2.00000
     74      -1.4144      2.00000
     75      -1.3891      2.00000
     76      -1.3891      2.00000
     77      -1.2628      2.00000
     78      -1.2628      2.00000
     79      -1.1932      2.00000
     80      -1.1932      2.00000
     81      -1.1860      2.00000
     82      -1.1860      2.00000
     83      -1.1256      2.00000
     84      -1.1256      2.00000
     85      -0.9342      2.00000
     86      -0.9342      2.00000
     87      -0.7850      2.00000
     88      -0.7850      2.00000
     89       3.4938      0.00000
     90       3.4938      0.00000
     91       3.8145      0.00000
     92       3.8145      0.00000
     93       3.9653      0.00000
     94       3.9653      0.00000
     95       4.2919      0.00000
     96       4.2919      0.00000
     97       4.8301      0.00000
     98       4.8301      0.00000
     99       5.1942      0.00000
    100       5.1942      0.00000
    101       5.9110      0.00000
    102       5.9110      0.00000
    103       6.1083      0.00000
    104       6.1083      0.00000
    105       6.4327      0.00000
    106       6.4327      0.00000
    107       6.4519      0.00000
    108       6.4519      0.00000
    109       6.8035      0.00000
    110       6.8035      0.00000
    111       7.1357      0.00000
    112       7.1393      0.00000

 k-point     8 :       0.3333    0.5000    0.3333
  band No.  band energies     occupation 
      1     -20.8817      2.00000
      2     -20.8817      2.00000
      3     -20.8804      2.00000
      4     -20.8804      2.00000
      5     -16.6321      2.00000
      6     -16.6321      2.00000
      7     -16.6203      2.00000
      8     -16.6203      2.00000
      9     -16.5996      2.00000
     10     -16.5996      2.00000
     11     -16.5862      2.00000
     12     -16.5862      2.00000
     13     -16.5388      2.00000
     14     -16.5388      2.00000
     15     -16.5388      2.00000
     16     -16.5388      2.00000
     17     -16.5143      2.00000
     18     -16.5143      2.00000
     19     -16.5141      2.00000
     20     -16.5141      2.00000
     21     -16.5053      2.00000
     22     -16.5053      2.00000
     23     -16.5052      2.00000
     24     -16.5052      2.00000
     25     -14.2130      2.00000
     26     -14.2130      2.00000
     27     -14.1242      2.00000
     28     -14.1242      2.00000
     29     -14.0588      2.00000
     30     -14.0588      2.00000
     31     -13.9773      2.00000
     32     -13.9773      2.00000
     33     -13.8928      2.00000
     34     -13.8928      2.00000
     35     -13.8664      2.00000
     36     -13.8664      2.00000
     37      -7.6933      2.00000
     38      -7.6933      2.00000
     39      -7.4579      2.00000
     40      -7.4579      2.00000
     41      -7.2982      2.00000
     42      -7.2982      2.00000
     43      -7.2781      2.00000
     44      -7.2781      2.00000
     45      -7.2662      2.00000
     46      -7.2661      2.00000
     47      -7.2629      2.00000
     48      -7.2629      2.00000
     49      -7.2498      2.00000
     50      -7.2498      2.00000
     51      -7.2340      2.00000
     52      -7.2340      2.00000
     53      -3.1557      2.00000
     54      -3.1557      2.00000
     55      -2.8050      2.00000
     56      -2.8050      2.00000
     57      -2.4935      2.00000
     58      -2.4935      2.00000
     59      -2.3987      2.00000
     60      -2.3987      2.00000
     61      -2.2050      2.00000
     62      -2.2050      2.00000
     63      -2.0182      2.00000
     64      -2.0182      2.00000
     65      -1.8035      2.00000
     66      -1.8035      2.00000
     67      -1.7474      2.00000
     68      -1.7474      2.00000
     69      -1.5578      2.00000
     70      -1.5578      2.00000
     71      -1.4501      2.00000
     72      -1.4501      2.00000
     73      -1.4125      2.00000
     74      -1.4125      2.00000
     75      -1.3255      2.00000
     76      -1.3255      2.00000
     77      -1.2622      2.00000
     78      -1.2622      2.00000
     79      -1.1978      2.00000
     80      -1.1978      2.00000
     81      -1.1344      2.00000
     82      -1.1344      2.00000
     83      -1.1073      2.00000
     84      -1.1073      2.00000
     85      -0.9034      2.00000
     86      -0.9034      2.00000
     87      -0.7112      2.00000
     88      -0.7112      2.00000
     89       3.1076      0.00000
     90       3.1076      0.00000
     91       3.8465      0.00000
     92       3.8465      0.00000
     93       4.0352      0.00000
     94       4.0352      0.00000
     95       4.1544      0.00000
     96       4.1544      0.00000
     97       4.8915      0.00000
     98       4.8915      0.00000
     99       5.5549      0.00000
    100       5.5549      0.00000
    101       6.1866      0.00000
    102       6.1866      0.00000
    103       6.2910      0.00000
    104       6.2910      0.00000
    105       6.5161      0.00000
    106       6.5161      0.00000
    107       6.6780      0.00000
    108       6.6780      0.00000
    109       6.8034      0.00000
    110       6.8034      0.00000
    111       6.9791      0.00000
    112       6.9791      0.00000


--------------------------------------------------------------------------------------------------------


 soft charge-density along one line, spin component           1
         0         1         2         3         4         5         6         7         8         9
 total charge-density along one line

 pseudopotential strength for first ion, spin component:           1
 18.006  -4.714   0.000  -0.000  -0.001  -0.000   0.000   0.001
 -4.714   1.243  -0.000   0.000   0.000   0.000  -0.000  -0.000
  0.000  -0.000   2.279  -0.000   0.000  -2.729   0.000  -0.000
 -0.000   0.000  -0.000   2.280  -0.001   0.000  -2.730   0.001
 -0.001   0.000   0.000  -0.001   2.280  -0.000   0.001  -2.730
 -0.000   0.000  -2.729   0.000  -0.000   3.236  -0.000   0.000
  0.000  -0.000   0.000  -2.730   0.001  -0.000   3.238  -0.001
  0.001  -0.000  -0.000   0.001  -2.730   0.000  -0.001   3.237
  0.000  -0.000  -0.000  -0.000  -0.000   0.000   0.000   0.000
 -0.000   0.000  -0.000   0.000  -0.000   0.000  -0.000   0.000
  0.000  -0.000   0.000  -0.001   0.000  -0.000   0.001  -0.001
 -0.001   0.000  -0.000  -0.000   0.000   0.000   0.001  -0.000
  0.000  -0.000  -0.000   0.000  -0.001   0.000  -0.000   0.002
 total augmentation occupancy for first ion, spin component:           1
  1.910  -0.142   0.000  -0.000  -0.000   0.000  -0.000  -0.001   0.000  -0.000   0.001  -0.001   0.000
 -0.142   0.114   0.000  -0.002  -0.003   0.000   0.000   0.002   0.000   0.000  -0.002   0.004   0.001
  0.000   0.000   2.015   0.000  -0.000   0.002   0.000   0.000   0.001  -0.000  -0.000  -0.000   0.000
 -0.000  -0.002   0.000   2.018  -0.002   0.000   0.004  -0.001   0.000   0.000  -0.002  -0.000   0.000
 -0.000  -0.003  -0.000  -0.002   2.016  -0.000  -0.001   0.003   0.000   0.000   0.001   0.001  -0.003
  0.000   0.000   0.002   0.000  -0.000   0.008  -0.000  -0.000  -0.001  -0.001   0.000   0.000  -0.000
 -0.000   0.000   0.000   0.004  -0.001  -0.000   0.007   0.001   0.000   0.000   0.001  -0.001   0.000
 -0.001   0.002   0.000  -0.001   0.003  -0.000   0.001   0.008   0.000   0.000  -0.001  -0.001   0.002
  0.000   0.000   0.001   0.000   0.000  -0.001   0.000   0.000   0.006   0.001   0.000  -0.000   0.000
 -0.000   0.000  -0.000   0.000   0.000  -0.001   0.000   0.000   0.001   0.004   0.000   0.000  -0.000
  0.001  -0.002  -0.000  -0.002   0.001   0.000   0.001  -0.001   0.000   0.000   0.006  -0.001  -0.001
 -0.001   0.004  -0.000  -0.000   0.001   0.000  -0.001  -0.001  -0.000   0.000  -0.001   0.003   0.001
  0.000   0.001   0.000   0.000  -0.003  -0.000   0.000   0.002   0.000  -0.000  -0.001   0.001   0.005


------------------------ aborting loop because EDIFF is reached ----------------------------------------





 total charge     

# of ion       s       p       d       tot
------------------------------------------
    1        1.785   4.719   0.017   6.521
    2        1.785   4.719   0.017   6.521
    3        1.785   4.719   0.017   6.521
    4        1.785   4.719   0.017   6.521
    5        1.551   0.405   9.830  11.786
    6        1.551   0.404   9.830  11.785
    7        1.551   0.404   9.830  11.785
    8        1.551   0.405   9.830  11.786
    9        1.612   3.279   0.005   4.897
   10        1.612   3.280   0.005   4.897
   11        1.612   3.280   0.005   4.897
   12        1.612   3.279   0.005   4.897
   13        1.615   3.268   0.006   4.889
   14        1.614   3.289   0.006   4.908
   15        1.614   3.289   0.006   4.908
   16        1.615   3.268   0.006   4.889
   17        1.615   3.268   0.006   4.889
   18        1.614   3.289   0.006   4.908
   19        1.615   3.268   0.006   4.889
   20        1.614   3.289   0.006   4.908
--------------------------------------------------
tot         32.710  59.837  39.455 132.002

    CHARGE:  cpu time    0.1414: real time    0.1414
    FORLOC:  cpu time    0.0037: real time    0.0037
    FORNL :  cpu time    0.6176: real time    0.6177
    STRESS:  cpu time   13.8241: real time   13.8245
    FORCOR:  cpu time    0.1033: real time    0.1033
    FORHAR:  cpu time    0.0111: real time    0.0111
    MIXING:  cpu time    0.0012: real time    0.0012
    OFIELD:  cpu time    0.0000: real time    0.0000

  FORCE on cell =-STRESS in cart. coord.  units (eV):
  Direction    XX          YY          ZZ          XY          YZ          ZX
  --------------------------------------------------------------------------------------
  Alpha Z   441.95814   441.95814   441.95814
  Ewald   -2914.57070 -3104.87625 -3166.24326     0.00000    -0.00000     0.00000
  Hartree  1334.62633  1181.33855  1168.10515    -0.00000    -0.00000    -0.00000
  E(xc)    -738.18698  -738.48066  -738.17267    -0.00000    -0.00000    -0.02727
  Local   -1677.91526 -1332.84452 -1264.52982    -0.00000    -0.00000    -0.00000
  n-local   898.78364   895.11711   897.04635     0.00000     0.00000    -0.02195
  augment   407.74660   406.75013   405.77504    -0.00000    -0.00001     0.00000
  Kinetic  2243.33656  2244.25101  2255.32894    -0.00001    -0.00000    -1.43665
  Fock        0.00000     0.00000     0.00000     0.00000     0.00000     0.00000
  -------------------------------------------------------------------------------------
  Total      -4.22168    -6.78648    -0.73212     0.00000     0.00000     0.00000
  in kB      -8.28513   -13.31861    -1.43680     0.00000     0.00000     0.00000
  external pressure =       -7.68 kB  Pullay stress =        0.00 kB


 VOLUME and BASIS-vectors are now :
 -----------------------------------------------------------------------------
  energy-cutoff  :      300.00
  volume of cell :      816.39
      direct lattice vectors                 reciprocal lattice vectors
     8.756818302  0.000000000  0.000000000     0.114196728  0.000000000  0.000000000
     0.000000000 12.234360096  0.000000000     0.000000000  0.081737009  0.000000000
     0.000000000  0.000000000  7.620238191     0.000000000  0.000000000  0.131229494

  length of vectors
     8.756818302 12.234360096  7.620238191     0.114196728  0.081737009  0.131229494


 FORCES acting on ions
    electron-ion (+dipol)            ewald-force                    non-local-force                 convergence-correction
 -----------------------------------------------------------------------------------------------
   0.248E+02 -.239E-12 -.233E+02   -.247E+02 -.355E-13 0.233E+02   -.130E+00 0.000E+00 -.460E-01   0.283E-04 -.116E-12 -.532E-04
   -.248E+02 -.343E-12 -.233E+02   0.247E+02 0.142E-13 0.233E+02   0.130E+00 0.000E+00 -.460E-01   -.283E-04 0.120E-12 -.532E-04
   0.248E+02 -.116E-14 0.233E+02   -.247E+02 -.142E-13 -.233E+02   -.130E+00 0.000E+00 0.460E-01   0.283E-04 -.852E-13 0.532E-04
   -.248E+02 0.217E-11 0.233E+02   0.247E+02 0.000E+00 -.233E+02   0.130E+00 0.000E+00 0.460E-01   -.283E-04 0.152E-12 0.532E-04
   -.207E-12 0.860E-12 -.227E-10   -.497E-13 0.355E-14 -.568E-13   0.000E+00 0.000E+00 0.152E-22   0.222E-12 -.163E-12 -.156E-13
   0.194E-11 -.132E-11 -.178E-10   0.142E-13 0.213E-13 0.000E+00   0.000E+00 0.000E+00 -.205E-22   0.567E-13 -.157E-12 0.147E-13
   0.411E-13 -.336E-11 -.212E-10   0.568E-13 -.178E-13 0.142E-13   0.000E+00 0.000E+00 0.203E-22   0.616E-13 0.108E-12 0.158E-13
   -.540E-12 0.110E-12 -.225E-10   -.142E-13 -.711E-14 -.711E-13   0.000E+00 0.000E+00 -.154E-22   0.228E-12 0.108E-12 -.370E-13
   0.957E+01 0.481E-12 0.342E+02   -.966E+01 0.568E-13 -.343E+02   0.849E-01 -.265E-22 0.125E+00   0.148E-04 0.825E-13 0.479E-04
   -.957E+01 -.144E-11 0.342E+02   0.966E+01 0.000E+00 -.343E+02   -.849E-01 -.265E-22 0.125E+00   -.148E-04 -.119E-12 0.479E-04
   0.957E+01 0.291E-12 -.342E+02   -.966E+01 0.000E+00 0.343E+02   0.849E-01 0.529E-22 -.125E+00   0.148E-04 0.710E-13 -.479E-04
   -.957E+01 0.196E-11 -.342E+02   0.966E+01 0.284E-13 0.343E+02   -.849E-01 0.529E-22 -.125E+00   -.148E-04 -.134E-12 -.479E-04
   -.224E+02 0.159E+02 0.331E+02   0.226E+02 -.161E+02 -.334E+02   -.211E+00 0.170E+00 0.326E+00   0.136E-04 -.262E-04 -.123E-05
   0.224E+02 -.159E+02 0.331E+02   -.226E+02 0.161E+02 -.334E+02   0.211E+00 -.170E+00 0.326E+00   -.136E-04 0.262E-04 -.123E-05
   -.224E+02 -.159E+02 -.331E+02   0.226E+02 0.161E+02 0.334E+02   -.211E+00 -.170E+00 -.326E+00   0.136E-04 0.262E-04 0.123E-05
   0.224E+02 0.159E+02 -.331E+02   -.226E+02 -.161E+02 0.334E+02   0.211E+00 0.170E+00 -.326E+00   -.136E-04 -.262E-04 0.123E-05
   -.224E+02 -.159E+02 0.331E+02   0.226E+02 0.161E+02 -.334E+02   -.211E+00 -.170E+00 0.326E+00   0.136E-04 0.262E-04 -.123E-05
   0.224E+02 0.159E+02 0.331E+02   -.226E+02 -.161E+02 -.334E+02   0.211E+00 0.170E+00 0.326E+00   -.136E-04 -.262E-04 -.123E-05
   0.224E+02 -.159E+02 -.331E+02   -.226E+02 0.161E+02 0.334E+02   0.211E+00 -.170E+00 -.326E+00   -.136E-04 0.262E-04 0.123E-05
   -.224E+02 0.159E+02 -.331E+02   0.226E+02 -.161E+02 0.334E+02   -.211E+00 0.170E+00 -.326E+00   0.136E-04 -.262E-04 0.123E-05
 -----------------------------------------------------------------------------------------------
   0.783E-11 0.211E-11 -.357E-09   0.284E-13 0.114E-12 -.284E-13   0.000E+00 0.000E+00 -.555E-16   0.567E-12 -.170E-12 0.473E-13


 POSITION                                       TOTAL-FORCE (eV/Angst)
 -----------------------------------------------------------------------------------
      0.66823      3.05859      3.55991        -0.005285     -0.000000     -0.003528
      3.71018      9.17577      7.37003         0.005285     -0.000000     -0.003528
      5.04664      3.05859      0.25021        -0.005285     -0.000000      0.003528
      8.08859      9.17577      4.06033         0.005285     -0.000000      0.003528
      0.00000      0.00000      0.00000        -0.000000     -0.000000      0.000000
      4.37841      0.00000      3.81012        -0.000000     -0.000000      0.000000
      4.37841      6.11718      3.81012        -0.000000     -0.000000      0.000000
      0.00000      6.11718      0.00000        -0.000000     -0.000000      0.000000
      4.44161      9.17577      3.44949        -0.004640     -0.000000     -0.005860
      8.69362      3.05859      7.25961         0.004640     -0.000000     -0.005860
      0.06320      9.17577      0.36063        -0.004640     -0.000000      0.005860
      4.31521      3.05859      4.17075         0.004640     -0.000000      0.005860
      2.67718      5.73067      1.36432         0.002964      0.006583     -0.004122
      1.70123      6.50369      5.17444        -0.002964     -0.006583     -0.004122
      7.05559      0.38651      2.44580         0.002964     -0.006583      0.004122
      6.07964     11.84785      6.25592        -0.002964      0.006583      0.004122
      2.67718      0.38651      1.36432         0.002964     -0.006583     -0.004122
      1.70123     11.84785      5.17444        -0.002964      0.006583     -0.004122
      6.07964      6.50369      6.25592        -0.002964     -0.006583      0.004122
      7.05559      5.73067      2.44580         0.002964      0.006583      0.004122
 -----------------------------------------------------------------------------------
    total drift:                                0.000000      0.000000     -0.000000


--------------------------------------------------------------------------------------------------------



  FREE ENERGIE OF THE ION-ELECTRON SYSTEM (eV)
  ---------------------------------------------------
  free  energy   TOTEN  =      -714.74330290 eV

  energy  without entropy=     -714.74330290  energy(sigma->0) =     -714.74330290



--------------------------------------------------------------------------------------------------------


    POTLOK:  cpu time    1.2000: real time    1.2000


--------------------------------------------------------------------------------------------------------


 stress matrix after NEB project (eV)
     -4.22168      0.00000      0.00000
      0.00000     -6.78648      0.00000
     -0.00000      0.00000     -0.73212
  FORCES: max atom, RMS     0.008314    0.006848
  FORCE total and by dimension    0.030625    0.006583
  Stress total and by dimension    8.025887    6.786479
     LOOP+:  cpu time  127.8306: real time  128.2698
    4ORBIT:  cpu time    0.0000: real time    0.0000



 total charge     

# of ion       s       p       d       tot
------------------------------------------
    1        1.785   4.719   0.017   6.521
    2        1.785   4.719   0.017   6.521
    3        1.785   4.719   0.017   6.521
    4        1.785   4.719   0.017   6.521
    5        1.551   0.405   9.830  11.786
    6        1.551   0.404   9.830  11.785
    7        1.551   0.404   9.830  11.785
    8        1.551   0.405   9.830  11.786
    9        1.612   3.279   0.005   4.897
   10        1.612   3.280   0.005   4.897
   11        1.612   3.280   0.005   4.897
   12        1.612   3.279   0.005   4.897
   13        1.615   3.268   0.006   4.889
   14        1.614   3.289   0.006   4.908
   15        1.614   3.289   0.006   4.908
   16        1.615   3.268   0.006   4.889
   17        1.615   3.268   0.006   4.889
   18        1.614   3.289   0.006   4.908
   19        1.615   3.268   0.006   4.889
   20        1.614   3.289   0.006   4.908
--------------------------------------------------
tot         32.710  59.837  39.455 132.002


 total amount of memory used by VASP MPI-rank0    43652. kBytes
=======================================================================

   base      :      30000. kBytes
   nonlr-proj:       3258. kBytes
   fftplans  :       4445. kBytes
   grid      :       3667. kBytes
   one-center:         46. kBytes
   wavefun   :       2236. kBytes

  
  
 General timing and accounting informations for this job:
 ========================================================
  
                  Total CPU time used (sec):      134.368
                            User time (sec):      133.532
                          System time (sec):        0.836
                         Elapsed time (sec):      134.934
  
                   Maximum memory used (kb):       82964.
                   Average memory used (kb):           0.
  
                          Minor page faults:        20410
                          Major page faults:            0
                 Voluntary context switches:         1441
