PROCAR new format
# of k-points:    8         # of bands:  112         # of ions:   20

 k-point     1 :    0.00000000 0.00000000 0.00000000     weight = 0.05555556

band     1 # energy  -20.88382637 # occ.  2.00000000

ion      s      p      d    tot
    1  0.224  0.000  0.000  0.224
    2  0.219  0.000  0.000  0.219
    3  0.224  0.000  0.000  0.224
    4  0.219  0.000  0.000  0.219
    5  0.000  0.000  0.000  0.000
    6  0.000  0.000  0.000  0.000
    7  0.000  0.000  0.000  0.000
    8  0.000  0.000  0.000  0.000
    9  0.000  0.000  0.000  0.000
   10  0.000  0.000  0.000  0.000
   11  0.000  0.000  0.000  0.000
   12  0.000  0.000  0.000  0.000
   13  0.000  0.000  0.000  0.000
   14  0.000  0.000  0.000  0.000
   15  0.000  0.000  0.000  0.000
   16  0.000  0.000  0.000  0.000
   17  0.000  0.000  0.000  0.000
   18  0.000  0.000  0.000  0.000
   19  0.000  0.000  0.000  0.000
   20  0.000  0.000  0.000  0.000
tot    0.887  0.000  0.000  0.887

band     2 # energy  -20.88268609 # occ.  2.00000000

ion      s      p      d    tot
    1  0.219  0.000  0.000  0.219
    2  0.224  0.000  0.000  0.224
    3  0.219  0.000  0.000  0.219
    4  0.224  0.000  0.000  0.224
    5  0.000  0.000  0.000  0.000
    6  0.000  0.000  0.000  0.000
    7  0.000  0.000  0.000  0.000
    8  0.000  0.000  0.000  0.000
    9  0.000  0.000  0.000  0.000
   10  0.000  0.000  0.000  0.000
   11  0.000  0.000  0.000  0.000
   12  0.000  0.000  0.000  0.000
   13  0.000  0.000  0.000  0.000
   14  0.000  0.000  0.000  0.000
   15  0.000  0.000  0.000  0.000
   16  0.000  0.000  0.000  0.000
   17  0.000  0.000  0.000  0.000
   18  0.000  0.000  0.000  0.000
   19  0.000  0.000  0.000  0.000
   20  0.000  0.000  0.000  0.000
tot    0.887  0.000  0.000  0.887

band     3 # energy  -20.87951933 # occ.  2.00000000

ion      s      p      d    tot
    1  0.226  0.000  0.000  0.226
    2  0.218  0.000  0.000  0.218
    3  0.226  0.000  0.000  0.226
    4  0.218  0.000  0.000  0.218
    5  0.000  0.000  0.000  0.000
    6  0.000  0.000  0.000  0.000
    7  0.000  0.000  0.000  0.000
    8  0.000  0.000  0.000  0.000
    9  0.000  0.000  0.000  0.000
   10  0.000  0.000  0.000  0.000
   11  0.000  0.000  0.000  0.000
   12  0.000  0.000  0.000  0.000
   13  0.000  0.000  0.000  0.000
   14  0.000  0.000  0.000  0.000
   15  0.000  0.000  0.000  0.000
   16  0.000  0.000  0.000  0.000
   17  0.000  0.000  0.000  0.000
   18  0.000  0.000  0.000  0.000
   19  0.000  0.000  0.000  0.000
   20  0.000  0.000  0.000  0.000
tot    0.888  0.000  0.000  0.888

band     4 # energy  -20.87887423 # occ.  2.00000000

ion      s      p      d    tot
    1  0.218  0.000  0.000  0.218
    2  0.226  0.000  0.000  0.226
    3  0.218  0.000  0.000  0.218
    4  0.226  0.000  0.000  0.226
    5  0.000  0.000  0.000  0.000
    6  0.000  0.000  0.000  0.000
    7  0.000  0.000  0.000  0.000
    8  0.000  0.000  0.000  0.000
    9  0.000  0.000  0.000  0.000
   10  0.000  0.000  0.000  0.000
   11  0.000  0.000  0.000  0.000
   12  0.000  0.000  0.000  0.000
   13  0.000  0.000  0.000  0.000
   14  0.000  0.000  0.000  0.000
   15  0.000  0.000  0.000  0.000
   16  0.000  0.000  0.000  0.000
   17  0.000  0.000  0.000  0.000
   18  0.000  0.000  0.000  0.000
   19  0.000  0.000  0.000  0.000
   20  0.000  0.000  0.000  0.000
tot    0.888  0.000  0.000  0.888

band     5 # energy  -16.64386165 # occ.  2.00000000

ion      s      p      d    tot
    1  0.000  0.000  0.000  0.000
    2  0.000  0.000  0.000  0.000
    3  0.000  0.000  0.000  0.000
    4  0.000  0.000  0.000  0.000
    5  0.000  0.000  0.233  0.233
    6  0.000  0.000  0.233  0.233
    7  0.000  0.000  0.233  0.233
    8  0.000  0.000  0.233  0.233
    9  0.000  0.000  0.000  0.000
   10  0.000  0.000  0.000  0.000
   11  0.000  0.000  0.000  0.000
   12  0.000  0.000  0.000  0.000
   13  0.004  0.000  0.000  0.004
   14  0.004  0.000  0.000  0.004
   15  0.004  0.000  0.000  0.004
   16  0.004  0.000  0.000  0.004
   17  0.004  0.000  0.000  0.004
   18  0.004  0.000  0.000  0.004
   19  0.004  0.000  0.000  0.004
   20  0.004  0.000  0.000  0.004
tot    0.030  0.000  0.934  0.964

band     6 # energy  -16.64385278 # occ.  2.00000000

ion      s      p      d    tot
    1  0.000  0.000  0.000  0.000
    2  0.000  0.000  0.000  0.000
    3  0.000  0.000  0.000  0.000
    4  0.000  0.000  0.000  0.000
    5  0.000  0.000  0.233  0.233
    6  0.000  0.000  0.233  0.233
    7  0.000  0.000  0.233  0.233
    8  0.000  0.000  0.233  0.233
    9  0.000  0.000  0.000  0.000
   10  0.000  0.000  0.000  0.000
   11  0.000  0.000  0.000  0.000
   12  0.000  0.000  0.000  0.000
   13  0.004  0.000  0.000  0.004
   14  0.004  0.000  0.000  0.004
   15  0.004  0.000  0.000  0.004
   16  0.004  0.000  0.000  0.004
   17  0.004  0.000  0.000  0.004
   18  0.004  0.000  0.000  0.004
   19  0.004  0.000  0.000  0.004
   20  0.004  0.000  0.000  0.004
tot    0.030  0.000  0.934  0.964

band     7 # energy  -16.64201662 # occ.  2.00000000

ion      s      p      d    tot
    1  0.000  0.000  0.000  0.000
    2  0.000  0.000  0.000  0.000
    3  0.000  0.000  0.000  0.000
    4  0.000  0.000  0.000  0.000
    5  0.000  0.000  0.235  0.235
    6  0.000  0.000  0.235  0.235
    7  0.000  0.000  0.235  0.235
    8  0.000  0.000  0.235  0.235
    9  0.004  0.000  0.000  0.004
   10  0.004  0.000  0.000  0.004
   11  0.004  0.000  0.000  0.004
   12  0.004  0.000  0.000  0.004
   13  0.001  0.000  0.000  0.001
   14  0.001  0.000  0.000  0.001
   15  0.001  0.000  0.000  0.001
   16  0.001  0.000  0.000  0.001
   17  0.001  0.000  0.000  0.001
   18  0.001  0.000  0.000  0.001
   19  0.001  0.000  0.000  0.001
   20  0.001  0.000  0.000  0.001
tot    0.025  0.000  0.941  0.966

band     8 # energy  -16.61790792 # occ.  2.00000000

ion      s      p      d    tot
    1  0.000  0.000  0.000  0.000
    2  0.000  0.000  0.000  0.000
    3  0.000  0.000  0.000  0.000
    4  0.000  0.000  0.000  0.000
    5  0.000  0.000  0.238  0.238
    6  0.000  0.000  0.238  0.238
    7  0.000  0.000  0.238  0.238
    8  0.000  0.000  0.238  0.238
    9  0.004  0.000  0.000  0.004
   10  0.004  0.000  0.000  0.004
   11  0.004  0.000  0.000  0.004
   12  0.004  0.000  0.000  0.004
   13  0.000  0.000  0.000  0.000
   14  0.000  0.000  0.000  0.000
   15  0.000  0.000  0.000  0.000
   16  0.000  0.000  0.000  0.000
   17  0.000  0.000  0.000  0.000
   18  0.000  0.000  0.000  0.000
   19  0.000  0.000  0.000  0.000
   20  0.000  0.000  0.000  0.000
tot    0.016  0.001  0.953  0.969

band     9 # energy  -16.60800627 # occ.  2.00000000

ion      s      p      d    tot
    1  0.000  0.000  0.000  0.000
    2  0.000  0.000  0.000  0.000
    3  0.000  0.000  0.000  0.000
    4  0.000  0.000  0.000  0.000
    5  0.000  0.000  0.239  0.239
    6  0.000  0.000  0.239  0.239
    7  0.000  0.000  0.239  0.239
    8  0.000  0.000  0.239  0.239
    9  0.000  0.000  0.000  0.000
   10  0.000  0.000  0.000  0.000
   11  0.000  0.000  0.000  0.000
   12  0.000  0.000  0.000  0.000
   13  0.001  0.000  0.000  0.002
   14  0.001  0.000  0.000  0.002
   15  0.001  0.000  0.000  0.002
   16  0.001  0.000  0.000  0.002
   17  0.001  0.000  0.000  0.002
   18  0.001  0.000  0.000  0.002
   19  0.001  0.000  0.000  0.002
   20  0.001  0.000  0.000  0.002
tot    0.012  0.001  0.958  0.971

band    10 # energy  -16.58083543 # occ.  2.00000000

ion      s      p      d    tot
    1  0.000  0.000  0.000  0.000
    2  0.000  0.000  0.000  0.000
    3  0.000  0.000  0.000  0.000
    4  0.000  0.000  0.000  0.000
    5  0.000  0.000  0.243  0.243
    6  0.000  0.000  0.243  0.243
    7  0.000  0.000  0.243  0.243
    8  0.000  0.000  0.243  0.243
    9  0.000  0.000  0.000  0.000
   10  0.000  0.000  0.000  0.000
   11  0.000  0.000  0.000  0.000
   12  0.000  0.000  0.000  0.000
   13  0.000  0.000  0.000  0.000
   14  0.000  0.000  0.000  0.000
   15  0.000  0.000  0.000  0.000
   16  0.000  0.000  0.000  0.000
   17  0.000  0.000  0.000  0.000
   18  0.000  0.000  0.000  0.000
   19  0.000  0.000  0.000  0.000
   20  0.000  0.000  0.000  0.000
tot    0.000  0.002  0.974  0.975

band    11 # energy  -16.56830946 # occ.  2.00000000

ion      s      p      d    tot
    1  0.000  0.000  0.000  0.000
    2  0.000  0.000  0.000  0.000
    3  0.000  0.000  0.000  0.000
    4  0.000  0.000  0.000  0.000
    5  0.000  0.000  0.243  0.243
    6  0.000  0.000  0.243  0.243
    7  0.000  0.000  0.243  0.243
    8  0.000  0.000  0.243  0.243
    9  0.000  0.000  0.000  0.000
   10  0.000  0.000  0.000  0.000
   11  0.000  0.000  0.000  0.000
   12  0.000  0.000  0.000  0.000
   13  0.000  0.000  0.000  0.000
   14  0.000  0.000  0.000  0.000
   15  0.000  0.000  0.000  0.000
   16  0.000  0.000  0.000  0.000
   17  0.000  0.000  0.000  0.000
   18  0.000  0.000  0.000  0.000
   19  0.000  0.000  0.000  0.000
   20  0.000  0.000  0.000  0.000
tot    0.000  0.002  0.973  0.975

band    12 # energy  -16.56802271 # occ.  2.00000000

ion      s      p      d    tot
    1  0.000  0.000  0.000  0.000
    2  0.000  0.000  0.000  0.000
    3  0.000  0.000  0.000  0.000
    4  0.000  0.000  0.000  0.000
    5  0.000  0.000  0.243  0.243
    6  0.000  0.000  0.243  0.243
    7  0.000  0.000  0.243  0.243
    8  0.000  0.000  0.243  0.243
    9  0.000  0.000  0.000  0.000
   10  0.000  0.000  0.000  0.000
   11  0.000  0.000  0.000  0.000
   12  0.000  0.000  0.000  0.000
   13  0.000  0.000  0.000  0.000
   14  0.000  0.000  0.000  0.000
   15  0.000  0.000  0.000  0.000
   16  0.000  0.000  0.000  0.000
   17  0.000  0.000  0.000  0.000
   18  0.000  0.000  0.000  0.000
   19  0.000  0.000  0.000  0.000
   20  0.000  0.000  0.000  0.000
tot    0.000  0.002  0.973  0.975

band    13 # energy  -16.53942850 # occ.  2.00000000

ion      s      p      d    tot
    1  0.000  0.000  0.000  0.000
    2  0.000  0.000  0.000  0.000
    3  0.000  0.000  0.000  0.000
    4  0.000  0.000  0.000  0.000
    5  0.000  0.000  0.244  0.244
    6  0.000  0.000  0.244  0.244
    7  0.000  0.000  0.244  0.244
    8  0.000  0.000  0.244  0.244
    9  0.000  0.000  0.000  0.000
   10  0.000  0.000  0.000  0.000
   11  0.000  0.000  0.000  0.000
   12  0.000  0.000  0.000  0.000
   13  0.000  0.000  0.000  0.000
   14  0.000  0.000  0.000  0.000
   15  0.000  0.000  0.000  0.000
   16  0.000  0.000  0.000  0.000
   17  0.000  0.000  0.000  0.000
   18  0.000  0.000  0.000  0.000
   19  0.000  0.000  0.000  0.000
   20  0.000  0.000  0.000  0.000
tot    0.000  0.000  0.977  0.978

band    14 # energy  -16.53905413 # occ.  2.00000000

ion      s      p      d    tot
    1  0.000  0.000  0.000  0.000
    2  0.000  0.000  0.000  0.000
    3  0.000  0.000  0.000  0.000
    4  0.000  0.000  0.000  0.000
    5  0.000  0.000  0.244  0.244
    6  0.000  0.000  0.244  0.244
    7  0.000  0.000  0.244  0.244
    8  0.000  0.000  0.244  0.244
    9  0.000  0.000  0.000  0.000
   10  0.000  0.000  0.000  0.000
   11  0.000  0.000  0.000  0.000
   12  0.000  0.000  0.000  0.000
   13  0.000  0.000  0.000  0.000
   14  0.000  0.000  0.000  0.000
   15  0.000  0.000  0.000  0.000
   16  0.000  0.000  0.000  0.000
   17  0.000  0.000  0.000  0.000
   18  0.000  0.000  0.000  0.000
   19  0.000  0.000  0.000  0.000
   20  0.000  0.000  0.000  0.000
tot    0.000  0.000  0.978  0.978

band    15 # energy  -16.53848401 # occ.  2.00000000

ion      s      p      d    tot
    1  0.000  0.000  0.000  0.000
    2  0.000  0.000  0.000  0.000
    3  0.000  0.000  0.000  0.000
    4  0.000  0.000  0.000  0.000
    5  0.000  0.000  0.244  0.244
    6  0.000  0.000  0.244  0.244
    7  0.000  0.000  0.244  0.244
    8  0.000  0.000  0.244  0.244
    9  0.000  0.000  0.000  0.000
   10  0.000  0.000  0.000  0.000
   11  0.000  0.000  0.000  0.000
   12  0.000  0.000  0.000  0.000
   13  0.000  0.000  0.000  0.000
   14  0.000  0.000  0.000  0.000
   15  0.000  0.000  0.000  0.000
   16  0.000  0.000  0.000  0.000
   17  0.000  0.000  0.000  0.000
   18  0.000  0.000  0.000  0.000
   19  0.000  0.000  0.000  0.000
   20  0.000  0.000  0.000  0.000
tot    0.000  0.000  0.978  0.978

band    16 # energy  -16.53801645 # occ.  2.00000000

ion      s      p      d    tot
    1  0.000  0.000  0.000  0.000
    2  0.000  0.000  0.000  0.000
    3  0.000  0.000  0.000  0.000
    4  0.000  0.000  0.000  0.000
    5  0.000  0.000  0.244  0.244
    6  0.000  0.000  0.245  0.245
    7  0.000  0.000  0.244  0.244
    8  0.000  0.000  0.244  0.244
    9  0.000  0.000  0.000  0.000
   10  0.000  0.000  0.000  0.000
   11  0.000  0.000  0.000  0.000
   12  0.000  0.000  0.000  0.000
   13  0.000  0.000  0.000  0.000
   14  0.000  0.000  0.000  0.000
   15  0.000  0.000  0.000  0.000
   16  0.000  0.000  0.000  0.000
   17  0.000  0.000  0.000  0.000
   18  0.000  0.000  0.000  0.000
   19  0.000  0.000  0.000  0.000
   20  0.000  0.000  0.000  0.000
tot    0.000  0.000  0.978  0.978

band    17 # energy  -16.51475701 # occ.  2.00000000

ion      s      p      d    tot
    1  0.000  0.000  0.000  0.000
    2  0.000  0.000  0.000  0.000
    3  0.000  0.000  0.000  0.000
    4  0.000  0.000  0.000  0.000
    5  0.000  0.000  0.244  0.244
    6  0.000  0.000  0.244  0.244
    7  0.000  0.000  0.244  0.244
    8  0.000  0.000  0.244  0.244
    9  0.000  0.000  0.000  0.000
   10  0.000  0.000  0.000  0.000
   11  0.000  0.000  0.000  0.000
   12  0.000  0.000  0.000  0.000
   13  0.000  0.000  0.000  0.000
   14  0.000  0.000  0.000  0.000
   15  0.000  0.000  0.000  0.000
   16  0.000  0.000  0.000  0.000
   17  0.000  0.000  0.000  0.000
   18  0.000  0.000  0.000  0.000
   19  0.000  0.000  0.000  0.000
   20  0.000  0.000  0.000  0.000
tot    0.000  0.000  0.978  0.978

band    18 # energy  -16.51436993 # occ.  2.00000000

ion      s      p      d    tot
    1  0.000  0.000  0.000  0.000
    2  0.000  0.000  0.000  0.000
    3  0.000  0.000  0.000  0.000
    4  0.000  0.000  0.000  0.000
    5  0.000  0.000  0.244  0.244
    6  0.000  0.000  0.244  0.244
    7  0.000  0.000  0.244  0.244
    8  0.000  0.000  0.244  0.244
    9  0.000  0.000  0.000  0.000
   10  0.000  0.000  0.000  0.000
   11  0.000  0.000  0.000  0.000
   12  0.000  0.000  0.000  0.000
   13  0.000  0.000  0.000  0.000
   14  0.000  0.000  0.000  0.000
   15  0.000  0.000  0.000  0.000
   16  0.000  0.000  0.000  0.000
   17  0.000  0.000  0.000  0.000
   18  0.000  0.000  0.000  0.000
   19  0.000  0.000  0.000  0.000
   20  0.000  0.000  0.000  0.000
tot    0.000  0.000  0.978  0.978

band    19 # energy  -16.51414678 # occ.  2.00000000

ion      s      p      d    tot
    1  0.000  0.000  0.000  0.000
    2  0.000  0.000  0.000  0.000
    3  0.000  0.000  0.000  0.000
    4  0.000  0.000  0.000  0.000
    5  0.000  0.000  0.244  0.244
    6  0.000  0.000  0.244  0.244
    7  0.000  0.000  0.244  0.244
    8  0.000  0.000  0.244  0.244
    9  0.000  0.000  0.000  0.000
   10  0.000  0.000  0.000  0.000
   11  0.000  0.000  0.000  0.000
   12  0.000  0.000  0.000  0.000
   13  0.000  0.000  0.000  0.000
   14  0.000  0.000  0.000  0.000
   15  0.000  0.000  0.000  0.000
   16  0.000  0.000  0.000  0.000
   17  0.000  0.000  0.000  0.000
   18  0.000  0.000  0.000  0.000
   19  0.000  0.000  0.000  0.000
   20  0.000  0.000  0.000  0.000
tot    0.000  0.000  0.978  0.978

band    20 # energy  -16.51357376 # occ.  2.00000000

ion      s      p      d    tot
    1  0.000  0.000  0.000  0.000
    2  0.000  0.000  0.000  0.000
    3  0.000  0.000  0.000  0.000
    4  0.000  0.000  0.000  0.000
    5  0.000  0.000  0.244  0.244
    6  0.000  0.000  0.244  0.244
    7  0.000  0.000  0.244  0.244
    8  0.000  0.000  0.244  0.244
    9  0.000  0.000  0.000  0.000
   10  0.000  0.000  0.000  0.000
   11  0.000  0.000  0.000  0.000
   12  0.000  0.000  0.000  0.000
   13  0.000  0.000  0.000  0.000
   14  0.000  0.000  0.000  0.000
   15  0.000  0.000  0.000  0.000
   16  0.000  0.000  0.000  0.000
   17  0.000  0.000  0.000  0.000
   18  0.000  0.000  0.000  0.000
   19  0.000  0.000  0.000  0.000
   20  0.000  0.000  0.000  0.000
tot    0.000  0.000  0.978  0.978

band    21 # energy  -16.50564643 # occ.  2.00000000

ion      s      p      d    tot
    1  0.000  0.000  0.000  0.000
    2  0.000  0.000  0.000  0.000
    3  0.000  0.000  0.000  0.000
    4  0.000  0.000  0.000  0.000
    5  0.000  0.000  0.244  0.244
    6  0.000  0.000  0.244  0.244
    7  0.000  0.000  0.244  0.244
    8  0.000  0.000  0.244  0.244
    9  0.000  0.000  0.000  0.000
   10  0.000  0.000  0.000  0.000
   11  0.000  0.000  0.000  0.000
   12  0.000  0.000  0.000  0.000
   13  0.000  0.000  0.000  0.000
   14  0.000  0.000  0.000  0.000
   15  0.000  0.000  0.000  0.000
   16  0.000  0.000  0.000  0.000
   17  0.000  0.000  0.000  0.000
   18  0.000  0.000  0.000  0.000
   19  0.000  0.000  0.000  0.000
   20  0.000  0.000  0.000  0.000
tot    0.001  0.000  0.977  0.978

band    22 # energy  -16.50547096 # occ.  2.00000000

ion      s      p      d    tot
    1  0.000  0.000  0.000  0.000
    2  0.000  0.000  0.000  0.000
    3  0.000  0.000  0.000  0.000
    4  0.000  0.000  0.000  0.000
    5  0.000  0.000  0.244  0.244
    6  0.000  0.000  0.244  0.244
    7  0.000  0.000  0.244  0.244
    8  0.000  0.000  0.244  0.245
    9  0.000  0.000  0.000  0.000
   10  0.000  0.000  0.000  0.000
   11  0.000  0.000  0.000  0.000
   12  0.000  0.000  0.000  0.000
   13  0.000  0.000  0.000  0.000
   14  0.000  0.000  0.000  0.000
   15  0.000  0.000  0.000  0.000
   16  0.000  0.000  0.000  0.000
   17  0.000  0.000  0.000  0.000
   18  0.000  0.000  0.000  0.000
   19  0.000  0.000  0.000  0.000
   20  0.000  0.000  0.000  0.000
tot    0.000  0.000  0.977  0.978

band    23 # energy  -16.50533981 # occ.  2.00000000

ion      s      p      d    tot
    1  0.000  0.000  0.000  0.000
    2  0.000  0.000  0.000  0.000
    3  0.000  0.000  0.000  0.000
    4  0.000  0.000  0.000  0.000
    5  0.000  0.000  0.244  0.244
    6  0.000  0.000  0.244  0.244
    7  0.000  0.000  0.244  0.244
    8  0.000  0.000  0.244  0.244
    9  0.000  0.000  0.000  0.000
   10  0.000  0.000  0.000  0.000
   11  0.000  0.000  0.000  0.000
   12  0.000  0.000  0.000  0.000
   13  0.000  0.000  0.000  0.000
   14  0.000  0.000  0.000  0.000
   15  0.000  0.000  0.000  0.000
   16  0.000  0.000  0.000  0.000
   17  0.000  0.000  0.000  0.000
   18  0.000  0.000  0.000  0.000
   19  0.000  0.000  0.000  0.000
   20  0.000  0.000  0.000  0.000
tot    0.001  0.000  0.977  0.978

band    24 # energy  -16.50475017 # occ.  2.00000000

ion      s      p      d    tot
    1  0.000  0.000  0.000  0.000
    2  0.000  0.000  0.000  0.000
    3  0.000  0.000  0.000  0.000
    4  0.000  0.000  0.000  0.000
    5  0.000  0.000  0.244  0.244
    6  0.000  0.000  0.244  0.244
    7  0.000  0.000  0.244  0.244
    8  0.000  0.000  0.244  0.244
    9  0.000  0.000  0.000  0.000
   10  0.000  0.000  0.000  0.000
   11  0.000  0.000  0.000  0.000
   12  0.000  0.000  0.000  0.000
   13  0.000  0.000  0.000  0.000
   14  0.000  0.000  0.000  0.000
   15  0.000  0.000  0.000  0.000
   16  0.000  0.000  0.000  0.000
   17  0.000  0.000  0.000  0.000
   18  0.000  0.000  0.000  0.000
   19  0.000  0.000  0.000  0.000
   20  0.000  0.000  0.000  0.000
tot    0.000  0.000  0.977  0.978

band    25 # energy  -14.35211306 # occ.  2.00000000

ion      s      p      d    tot
    1  0.000  0.000  0.000  0.000
    2  0.000  0.000  0.000  0.000
    3  0.000  0.000  0.000  0.000
    4  0.000  0.000  0.000  0.000
    5  0.007  0.000  0.000  0.007
    6  0.007  0.000  0.000  0.007
    7  0.007  0.000  0.000  0.007
    8  0.007  0.000  0.000  0.007
    9  0.054  0.000  0.000  0.054
   10  0.054  0.000  0.000  0.054
   11  0.054  0.000  0.000  0.054
   12  0.054  0.000  0.000  0.054
   13  0.066  0.000  0.000  0.066
   14  0.066  0.000  0.000  0.066
   15  0.066  0.000  0.000  0.066
   16  0.066  0.000  0.000  0.066
   17  0.066  0.000  0.000  0.066
   18  0.066  0.000  0.000  0.066
   19  0.066  0.000  0.000  0.066
   20  0.066  0.000  0.000  0.066
tot    0.771  0.000  0.002  0.773

band    26 # energy  -14.22146315 # occ.  2.00000000

ion      s      p      d    tot
    1  0.000  0.000  0.000  0.000
    2  0.000  0.000  0.000  0.000
    3  0.000  0.000  0.000  0.000
    4  0.000  0.000  0.000  0.000
    5  0.005  0.000  0.005  0.010
    6  0.005  0.000  0.005  0.010
    7  0.005  0.000  0.005  0.010
    8  0.005  0.000  0.005  0.010
    9  0.000  0.000  0.000  0.000
   10  0.000  0.000  0.000  0.000
   11  0.000  0.000  0.000  0.000
   12  0.000  0.000  0.000  0.000
   13  0.093  0.000  0.000  0.093
   14  0.093  0.000  0.000  0.093
   15  0.093  0.000  0.000  0.093
   16  0.093  0.000  0.000  0.093
   17  0.093  0.000  0.000  0.093
   18  0.093  0.000  0.000  0.093
   19  0.093  0.000  0.000  0.093
   20  0.093  0.000  0.000  0.093
tot    0.765  0.002  0.019  0.785

band    27 # energy  -14.09423976 # occ.  2.00000000

ion      s      p      d    tot
    1  0.000  0.000  0.000  0.000
    2  0.000  0.000  0.000  0.000
    3  0.000  0.000  0.000  0.000
    4  0.000  0.000  0.000  0.000
    5  0.000  0.001  0.000  0.001
    6  0.000  0.001  0.000  0.001
    7  0.000  0.001  0.000  0.001
    8  0.000  0.001  0.000  0.001
    9  0.001  0.000  0.000  0.001
   10  0.001  0.000  0.000  0.001
   11  0.001  0.000  0.000  0.001
   12  0.001  0.000  0.000  0.001
   13  0.099  0.000  0.000  0.099
   14  0.099  0.000  0.000  0.099
   15  0.099  0.000  0.000  0.099
   16  0.099  0.000  0.000  0.099
   17  0.099  0.000  0.000  0.099
   18  0.099  0.000  0.000  0.099
   19  0.099  0.000  0.000  0.099
   20  0.099  0.000  0.000  0.099
tot    0.790  0.005  0.000  0.795

band    28 # energy  -14.08747296 # occ.  2.00000000

ion      s      p      d    tot
    1  0.000  0.000  0.000  0.000
    2  0.000  0.000  0.000  0.000
    3  0.000  0.000  0.000  0.000
    4  0.000  0.000  0.000  0.000
    5  0.000  0.001  0.000  0.001
    6  0.000  0.001  0.000  0.001
    7  0.000  0.001  0.000  0.001
    8  0.000  0.001  0.000  0.001
    9  0.000  0.000  0.000  0.000
   10  0.000  0.000  0.000  0.000
   11  0.000  0.000  0.000  0.000
   12  0.000  0.000  0.000  0.000
   13  0.099  0.000  0.000  0.099
   14  0.099  0.000  0.000  0.099
   15  0.099  0.000  0.000  0.099
   16  0.099  0.000  0.000  0.099
   17  0.099  0.000  0.000  0.099
   18  0.099  0.000  0.000  0.099
   19  0.099  0.000  0.000  0.099
   20  0.099  0.000  0.000  0.099
tot    0.792  0.004  0.000  0.796

band    29 # energy  -14.03972455 # occ.  2.00000000

ion      s      p      d    tot
    1  0.000  0.000  0.000  0.000
    2  0.000  0.000  0.000  0.000
    3  0.000  0.000  0.000  0.000
    4  0.000  0.000  0.000  0.000
    5  0.000  0.001  0.000  0.001
    6  0.000  0.001  0.000  0.001
    7  0.000  0.001  0.000  0.001
    8  0.000  0.001  0.000  0.001
    9  0.152  0.000  0.000  0.152
   10  0.152  0.000  0.000  0.152
   11  0.152  0.000  0.000  0.152
   12  0.152  0.000  0.000  0.152
   13  0.023  0.000  0.000  0.023
   14  0.023  0.000  0.000  0.023
   15  0.023  0.000  0.000  0.023
   16  0.023  0.000  0.000  0.023
   17  0.023  0.000  0.000  0.023
   18  0.023  0.000  0.000  0.023
   19  0.023  0.000  0.000  0.023
   20  0.023  0.000  0.000  0.023
tot    0.795  0.003  0.000  0.798

band    30 # energy  -14.02679935 # occ.  2.00000000

ion      s      p      d    tot
    1  0.000  0.000  0.000  0.000
    2  0.000  0.000  0.000  0.000
    3  0.000  0.000  0.000  0.000
    4  0.000  0.000  0.000  0.000
    5  0.000  0.001  0.000  0.001
    6  0.000  0.001  0.000  0.001
    7  0.000  0.001  0.000  0.001
    8  0.000  0.001  0.000  0.001
    9  0.198  0.000  0.000  0.198
   10  0.198  0.000  0.000  0.198
   11  0.198  0.000  0.000  0.198
   12  0.198  0.000  0.000  0.198
   13  0.000  0.000  0.000  0.000
   14  0.000  0.000  0.000  0.000
   15  0.000  0.000  0.000  0.000
   16  0.000  0.000  0.000  0.000
   17  0.000  0.000  0.000  0.000
   18  0.000  0.000  0.000  0.000
   19  0.000  0.000  0.000  0.000
   20  0.000  0.000  0.000  0.000
tot    0.795  0.003  0.000  0.799

band    31 # energy  -13.99371767 # occ.  2.00000000

ion      s      p      d    tot
    1  0.000  0.000  0.000  0.000
    2  0.000  0.000  0.000  0.000
    3  0.000  0.000  0.000  0.000
    4  0.000  0.000  0.000  0.000
    5  0.000  0.001  0.000  0.001
    6  0.000  0.001  0.000  0.001
    7  0.000  0.001  0.000  0.001
    8  0.000  0.001  0.000  0.001
    9  0.000  0.000  0.000  0.000
   10  0.000  0.000  0.000  0.000
   11  0.000  0.000  0.000  0.000
   12  0.000  0.000  0.000  0.000
   13  0.100  0.000  0.000  0.100
   14  0.100  0.000  0.000  0.100
   15  0.100  0.000  0.000  0.100
   16  0.100  0.000  0.000  0.100
   17  0.100  0.000  0.000  0.100
   18  0.100  0.000  0.000  0.100
   19  0.100  0.000  0.000  0.100
   20  0.100  0.000  0.000  0.100
tot    0.800  0.004  0.000  0.804

band    32 # energy  -13.99348553 # occ.  2.00000000

ion      s      p      d    tot
    1  0.000  0.000  0.000  0.000
    2  0.000  0.000  0.000  0.000
    3  0.000  0.000  0.000  0.000
    4  0.000  0.000  0.000  0.000
    5  0.002  0.000  0.006  0.009
    6  0.002  0.000  0.006  0.009
    7  0.002  0.000  0.006  0.009
    8  0.002  0.000  0.006  0.009
    9  0.192  0.000  0.000  0.192
   10  0.192  0.000  0.000  0.192
   11  0.192  0.000  0.000  0.192
   12  0.192  0.000  0.000  0.192
   13  0.000  0.000  0.000  0.000
   14  0.000  0.000  0.000  0.000
   15  0.000  0.000  0.000  0.000
   16  0.000  0.000  0.000  0.000
   17  0.000  0.000  0.000  0.000
   18  0.000  0.000  0.000  0.000
   19  0.000  0.000  0.000  0.000
   20  0.000  0.000  0.000  0.000
tot    0.778  0.001  0.025  0.804

band    33 # energy  -13.98525028 # occ.  2.00000000

ion      s      p      d    tot
    1  0.000  0.000  0.000  0.000
    2  0.000  0.000  0.000  0.000
    3  0.000  0.000  0.000  0.000
    4  0.000  0.000  0.000  0.000
    5  0.000  0.001  0.000  0.001
    6  0.000  0.001  0.000  0.001
    7  0.000  0.001  0.000  0.001
    8  0.000  0.001  0.000  0.001
    9  0.046  0.000  0.000  0.046
   10  0.046  0.000  0.000  0.046
   11  0.046  0.000  0.000  0.046
   12  0.046  0.000  0.000  0.046
   13  0.077  0.000  0.000  0.077
   14  0.077  0.000  0.000  0.077
   15  0.077  0.000  0.000  0.077
   16  0.077  0.000  0.000  0.077
   17  0.077  0.000  0.000  0.077
   18  0.077  0.000  0.000  0.077
   19  0.077  0.000  0.000  0.077
   20  0.077  0.000  0.000  0.077
tot    0.800  0.004  0.000  0.804

band    34 # energy  -13.82858003 # occ.  2.00000000

ion      s      p      d    tot
    1  0.000  0.000  0.000  0.000
    2  0.000  0.000  0.000  0.000
    3  0.000  0.000  0.000  0.000
    4  0.000  0.000  0.000  0.000
    5  0.000  0.000  0.010  0.010
    6  0.000  0.000  0.010  0.010
    7  0.000  0.000  0.010  0.010
    8  0.000  0.000  0.010  0.010
    9  0.139  0.000  0.000  0.139
   10  0.139  0.000  0.000  0.139
   11  0.139  0.000  0.000  0.139
   12  0.139  0.000  0.000  0.139
   13  0.028  0.000  0.000  0.028
   14  0.028  0.000  0.000  0.028
   15  0.028  0.000  0.000  0.028
   16  0.028  0.000  0.000  0.028
   17  0.028  0.000  0.000  0.028
   18  0.028  0.000  0.000  0.028
   19  0.028  0.000  0.000  0.028
   20  0.028  0.000  0.000  0.028
tot    0.783  0.000  0.039  0.823

band    35 # energy  -13.80274237 # occ.  2.00000000

ion      s      p      d    tot
    1  0.000  0.000  0.000  0.000
    2  0.000  0.000  0.000  0.000
    3  0.000  0.000  0.000  0.000
    4  0.000  0.000  0.000  0.000
    5  0.000  0.000  0.012  0.012
    6  0.000  0.000  0.012  0.012
    7  0.000  0.000  0.012  0.012
    8  0.000  0.000  0.012  0.012
    9  0.001  0.000  0.000  0.001
   10  0.001  0.000  0.000  0.001
   11  0.001  0.000  0.000  0.001
   12  0.001  0.000  0.000  0.001
   13  0.097  0.000  0.000  0.097
   14  0.097  0.000  0.000  0.097
   15  0.097  0.000  0.000  0.097
   16  0.097  0.000  0.000  0.097
   17  0.097  0.000  0.000  0.097
   18  0.097  0.000  0.000  0.097
   19  0.097  0.000  0.000  0.097
   20  0.097  0.000  0.000  0.097
tot    0.780  0.000  0.046  0.826

band    36 # energy  -13.80221920 # occ.  2.00000000

ion      s      p      d    tot
    1  0.000  0.000  0.000  0.000
    2  0.000  0.000  0.000  0.000
    3  0.000  0.000  0.000  0.000
    4  0.000  0.000  0.000  0.000
    5  0.000  0.000  0.012  0.012
    6  0.000  0.000  0.012  0.012
    7  0.000  0.000  0.012  0.012
    8  0.000  0.000  0.012  0.012
    9  0.000  0.000  0.000  0.000
   10  0.000  0.000  0.000  0.000
   11  0.000  0.000  0.000  0.000
   12  0.000  0.000  0.000  0.000
   13  0.097  0.000  0.000  0.097
   14  0.097  0.000  0.000  0.097
   15  0.097  0.000  0.000  0.097
   16  0.097  0.000  0.000  0.097
   17  0.097  0.000  0.000  0.097
   18  0.097  0.000  0.000  0.097
   19  0.097  0.000  0.000  0.097
   20  0.097  0.000  0.000  0.097
tot    0.780  0.000  0.046  0.826

band    37 # energy   -8.20853168 # occ.  2.00000000

ion      s      p      d    tot
    1  0.000  0.000  0.000  0.000
    2  0.000  0.000  0.000  0.000
    3  0.000  0.000  0.000  0.000
    4  0.000  0.000  0.000  0.000
    5  0.146  0.000  0.000  0.146
    6  0.146  0.000  0.000  0.146
    7  0.146  0.000  0.000  0.146
    8  0.146  0.000  0.000  0.146
    9  0.000  0.006  0.000  0.007
   10  0.000  0.006  0.000  0.007
   11  0.000  0.006  0.000  0.007
   12  0.000  0.006  0.000  0.007
   13  0.000  0.008  0.000  0.008
   14  0.000  0.008  0.000  0.008
   15  0.000  0.008  0.000  0.008
   16  0.000  0.008  0.000  0.008
   17  0.000  0.008  0.000  0.008
   18  0.000  0.008  0.000  0.008
   19  0.000  0.008  0.000  0.008
   20  0.000  0.008  0.000  0.008
tot    0.584  0.088  0.001  0.672

band    38 # energy   -7.81643500 # occ.  2.00000000

ion      s      p      d    tot
    1  0.000  0.005  0.000  0.005
    2  0.000  0.005  0.000  0.005
    3  0.000  0.005  0.000  0.005