<?xml version="1.0" encoding="ISO-8859-1"?>
<modeling>
 <generator>
  <i name="program" type="string">vasp </i>
  <i name="version" type="string">5.4.4.18Apr17-6-g9f103f2a35  </i>
  <i name="subversion" type="string">(build Jun 29 2021 12:58:12) complex            parallel </i>
  <i name="platform" type="string">tx2_gcc-7.3_libsci-18.07_cray-fftw-3.3.8 </i>
  <i name="date" type="string">2021 09 21 </i>
  <i name="time" type="string">08:32:47 </i>
 </generator>
 <incar>
  <i type="string" name="SYSTEM"> CsPbBr3 cubic bulk</i>
  <i type="string" name="PREC">accurate</i>
  <i type="string" name="ALGO"> Normal   ! Electronic minimisation algo</i>
  <i type="logical" name="ADDGRID"> T  </i>
  <i type="int" name="NELM">   200</i>
  <i type="int" name="IBRION">     2</i>
  <i name="EDIFF">      0.00000100</i>
  <i name="EDIFFG">     -0.01000000</i>
  <i type="int" name="NSW">     0</i>
  <i type="int" name="ISIF">     3</i>
  <i type="int" name="ISYM">     2</i>
  <i name="ENCUT">    300.00000000</i>
  <i name="POTIM">      0.50000000</i>
  <i type="string" name="LREAL"> AUTO</i>
  <i type="int" name="ISMEAR">     0</i>
  <i name="SIGMA">      0.01000000</i>
  <i name="PSTRESS">      0.00000000</i>
  <i type="logical" name="LWAVE"> F  </i>
  <i type="logical" name="LCHARG"> F  </i>
  <i type="logical" name="LVHAR"> T  </i>
  <i type="int" name="LORBIT">    10</i>
  <i type="logical" name="LASPH"> T  </i>
  <v type="int" name="KPOINT_BSE">    -1     0     0     0</v>
  <i type="int" name="NELM">   200</i>
  <i type="string" name="METAGGA"> SCAN       ! PBE exchange-correlation</i>
  <i type="logical" name="LASPH"> T  </i>
 </incar>
 <structure name="primitive_cell" >
  <crystal>
   <varray name="basis" >
    <v>       8.75681830       0.00000000       0.00000000 </v>
    <v>       0.00000000      12.23436010       0.00000000 </v>
    <v>       0.00000000       0.00000000       7.62023819 </v>
   </varray>
   <i name="volume">    816.38711953 </i>
   <varray name="rec_basis" >
    <v>       0.11419673       0.00000000       0.00000000 </v>
    <v>       0.00000000       0.08173701       0.00000000 </v>
    <v>       0.00000000       0.00000000       0.13122949 </v>
   </varray>
  </crystal>
  <varray name="positions" >
   <v>       0.07630993       0.25000000       0.46716500 </v>
   <v>       0.49278241       0.25000000      -0.45267432 </v>
   <v>      -0.19427466       0.03159242       0.32096128 </v>
   <v>      -0.19427466       0.46840758       0.32096128 </v>
   <v>      -0.00721759       0.25000000      -0.04732568 </v>
   <v>       0.19427466      -0.46840758      -0.32096128 </v>
   <v>       0.19427466      -0.03159242      -0.32096128 </v>
   <v>       0.30572534       0.46840758       0.17903872 </v>
   <v>       0.30572534       0.03159242       0.17903872 </v>
   <v>       0.00000000       0.00000000       0.00000000 </v>
   <v>       0.00000000      -0.50000000       0.00000000 </v>
   <v>      -0.50000000       0.00000000      -0.50000000 </v>
   <v>      -0.50000000      -0.50000000      -0.50000000 </v>
   <v>      -0.42369007       0.25000000       0.03283500 </v>
   <v>      -0.30572534      -0.03159242      -0.17903872 </v>
   <v>      -0.30572534      -0.46840758      -0.17903872 </v>
   <v>      -0.07630993      -0.25000000      -0.46716500 </v>
   <v>       0.00721759      -0.25000000       0.04732568 </v>
   <v>      -0.49278241      -0.25000000       0.45267432 </v>
   <v>       0.42369007      -0.25000000      -0.03283500 </v>
  </varray>
 </structure>
 <varray name="primitive_index" >
  <v type="int" >        1 </v>
  <v type="int" >       12 </v>
  <v type="int" >       15 </v>
  <v type="int" >       20 </v>
  <v type="int" >       10 </v>
  <v type="int" >       14 </v>
  <v type="int" >       18 </v>
  <v type="int" >       13 </v>
  <v type="int" >       17 </v>
  <v type="int" >        5 </v>
  <v type="int" >        8 </v>
  <v type="int" >        6 </v>
  <v type="int" >        7 </v>
  <v type="int" >        3 </v>
  <v type="int" >       16 </v>
  <v type="int" >       19 </v>
  <v type="int" >        4 </v>
  <v type="int" >       11 </v>
  <v type="int" >        9 </v>
  <v type="int" >        2 </v>
 </varray>
 <kpoints>
  <generation param="Gamma">
   <v type="int" name="divisions">       3        2        3 </v>
   <v name="usershift">      0.00000000       0.00000000       0.00000000 </v>
   <v name="genvec1">      0.33333333       0.00000000       0.00000000 </v>
   <v name="genvec2">      0.00000000       0.50000000       0.00000000 </v>
   <v name="genvec3">      0.00000000       0.00000000       0.33333333 </v>
   <v name="shift">      0.00000000       0.00000000       0.00000000 </v>
  </generation>
  <varray name="kpointlist" >
   <v>       0.00000000       0.00000000       0.00000000 </v>
   <v>       0.33333333       0.00000000       0.00000000 </v>
   <v>       0.00000000       0.50000000       0.00000000 </v>
   <v>       0.33333333       0.50000000       0.00000000 </v>
   <v>       0.00000000       0.00000000       0.33333333 </v>
   <v>       0.33333333       0.00000000       0.33333333 </v>
   <v>       0.00000000       0.50000000       0.33333333 </v>
   <v>       0.33333333       0.50000000       0.33333333 </v>
  </varray>
  <varray name="weights" >
   <v>       0.05555556 </v>
   <v>       0.11111111 </v>
   <v>       0.05555556 </v>
   <v>       0.11111111 </v>
   <v>       0.11111111 </v>
   <v>       0.22222222 </v>
   <v>       0.11111111 </v>
   <v>       0.22222222 </v>
  </varray>
 </kpoints>
 <parameters>
  <separator name="general" >
   <i type="string" name="SYSTEM">CsPbBr3 cubic bulk</i>
   <i type="logical" name="LCOMPAT"> F  </i>
  </separator>
  <separator name="electronic" >
   <i type="string" name="PREC">accura</i>
   <i name="ENMAX">    300.00000000</i>
   <i name="ENAUG">    503.85200000</i>
   <i name="EDIFF">      0.00000100</i>
   <i type="int" name="IALGO">    38</i>
   <i type="int" name="IWAVPR">    10</i>
   <i type="int" name="NBANDS">   112</i>
   <i name="NELECT">    176.00000000</i>
   <i type="int" name="TURBO">     0</i>
   <i type="int" name="IRESTART">     0</i>
   <i type="int" name="NREBOOT">     0</i>
   <i type="int" name="NMIN">     0</i>
   <i name="EREF">      0.00000000</i>
   <separator name="electronic smearing" >
    <i type="int" name="ISMEAR">     0</i>
    <i name="SIGMA">      0.01000000</i>
    <i name="KSPACING">      0.50000000</i>
    <i type="logical" name="KGAMMA"> T  </i>
   </separator>
   <separator name="electronic projectors" >
    <i type="logical" name="LREAL"> T  </i>
    <v name="ROPT">     -0.00025000     -0.00025000     -0.00025000</v>
    <i type="int" name="LMAXPAW">  -100</i>
    <i type="int" name="LMAXMIX">     2</i>
    <i type="logical" name="NLSPLINE"> F  </i>
   </separator>
   <separator name="electronic startup" >
    <i type="int" name="ISTART">     0</i>
    <i type="int" name="ICHARG">     2</i>
    <i type="int" name="INIWAV">     1</i>
   </separator>
   <separator name="electronic spin" >
    <i type="int" name="ISPIN">     1</i>
    <i type="logical" name="LNONCOLLINEAR"> F  </i>
    <v name="MAGMOM">      1.00000000      1.00000000      1.00000000      1.00000000      1.00000000      1.00000000      1.00000000      1.00000000      1.00000000      1.00000000      1.00000000      1.00000000      1.00000000      1.00000000      1.00000000      1.00000000      1.00000000      1.00000000      1.00000000      1.00000000
</v>
    <i name="NUPDOWN">     -1.00000000</i>
    <i type="logical" name="LSORBIT"> F  </i>
    <v name="SAXIS">      0.00000000      0.00000000      1.00000000</v>
    <i type="logical" name="LSPIRAL"> F  </i>
    <v name="QSPIRAL">      0.00000000      0.00000000      0.00000000</v>
    <i type="logical" name="LZEROZ"> F  </i>
   </separator>
   <separator name="electronic exchange-correlation" >
    <i type="logical" name="LASPH"> T  </i>
    <i type="logical" name="LMETAGGA"> F  </i>
   </separator>
   <separator name="electronic convergence" >
    <i type="int" name="NELM">   200</i>
    <i type="int" name="NELMDL">    -5</i>
    <i type="int" name="NELMIN">     2</i>
    <i name="ENINI">    300.00000000</i>
    <separator name="electronic convergence detail" >
     <i type="logical" name="LDIAG"> T  </i>
     <i type="logical" name="LSUBROT"> F  </i>
     <i name="WEIMIN">      0.00000000</i>
     <i name="EBREAK">      0.00000000</i>
     <i name="DEPER">      0.30000000</i>
     <i type="int" name="NRMM">     4</i>
     <i name="TIME">      0.40000000</i>
    </separator>
   </separator>
   <separator name="electronic mixer" >
    <i name="AMIX">      0.40000000</i>
    <i name="BMIX">      1.00000000</i>
    <i name="AMIN">      0.10000000</i>
    <i name="AMIX_MAG">      1.60000000</i>
    <i name="BMIX_MAG">      1.00000000</i>
    <separator name="electronic mixer details" >
     <i type="int" name="IMIX">     4</i>
     <i type="logical" name="MIXFIRST"> F  </i>
     <i type="int" name="MAXMIX">   -45</i>
     <i name="WC">    100.00000000</i>
     <i type="int" name="INIMIX">     1</i>
     <i type="int" name="MIXPRE">     1</i>
     <i type="int" name="MREMOVE">     5</i>
    </separator>
   </separator>
   <separator name="electronic dipolcorrection" >
    <i type="logical" name="LDIPOL"> F  </i>
    <i type="logical" name="LMONO"> F  </i>
    <i type="int" name="IDIPOL">     0</i>
    <i name="EPSILON">      1.00000000</i>
    <v name="DIPOL">   -100.00000000   -100.00000000   -100.00000000</v>
    <i name="EFIELD">      0.00000000</i>
   </separator>
  </separator>
  <separator name="grids" >
   <i type="int" name="NGX">    50</i>
   <i type="int" name="NGY">    70</i>
   <i type="int" name="NGZ">    48</i>
   <i type="int" name="NGXF">   100</i>
   <i type="int" name="NGYF">   140</i>
   <i type="int" name="NGZF">    96</i>
   <i type="logical" name="ADDGRID"> T  </i>
  </separator>
  <separator name="ionic" >
   <i type="int" name="NSW">     0</i>
   <i type="int" name="IBRION">    -1</i>
   <i type="int" name="MDALGO">     0</i>
   <i type="int" name="ISIF">     3</i>
   <i name="PSTRESS">      0.00000000</i>
   <i name="EDIFFG">     -0.01000000</i>
   <i type="int" name="NFREE">     1</i>
   <i name="POTIM">      0.50000000</i>
   <i name="SMASS">     -3.00000000</i>
   <i name="SCALEE">      1.00000000</i>
  </separator>
  <separator name="ionic md" >
   <i name="TEBEG">      0.00010000</i>
   <i name="TEEND">      0.00010000</i>
   <i type="int" name="NBLOCK">     1</i>
   <i type="int" name="KBLOCK">     1</i>
   <i type="int" name="NPACO">   256</i>
   <i name="APACO">     16.00000000</i>
  </separator>
  <separator name="symmetry" >
   <i type="int" name="ISYM">     2</i>
   <i name="SYMPREC">      0.00001000</i>
  </separator>
  <separator name="dos" >
   <i type="int" name="LORBIT">    10</i>
   <v name="RWIGS">     -1.00000000     -1.00000000     -1.00000000</v>
   <i type="int" name="NEDOS">   301</i>
   <i name="EMIN">     10.00000000</i>
   <i name="EMAX">    -10.00000000</i>
   <i name="EFERMI">      0.00000000</i>
  </separator>
  <separator name="writing" >
   <i type="int" name="NWRITE">     2</i>
   <i type="logical" name="LWAVE"> F  </i>
   <i type="logical" name="LDOWNSAMPLE"> F  </i>
   <i type="logical" name="LCHARG"> F  </i>
   <i type="logical" name="LPARD"> F  </i>
   <i type="logical" name="LVTOT"> F  </i>
   <i type="logical" name="LVHAR"> T  </i>
   <i type="logical" name="LELF"> F  </i>
   <i type="logical" name="LOPTICS"> F  </i>
   <v name="STM">      0.00000000      0.00000000      0.00000000      0.00000000      0.00000000      0.00000000      0.00000000</v>
  </separator>
  <separator name="performance" >
   <i type="int" name="NPAR">     8</i>
   <i type="int" name="NSIM">     4</i>
   <i type="int" name="NBLK">    -1</i>
   <i type="logical" name="LPLANE"> T  </i>
   <i type="logical" name="LSCALAPACK"> T  </i>
   <i type="logical" name="LSCAAWARE"> F  </i>
   <i type="logical" name="LSCALU"> F  </i>
   <i type="logical" name="LASYNC"> F  </i>
   <i type="logical" name="LORBITALREAL"> F  </i>
  </separator>
  <separator name="miscellaneous" >
   <i type="int" name="IDIOT">     3</i>
   <i type="int" name="ISPECIAL">     0</i>
   <i type="logical" name="LMUSIC"> F  </i>
   <v name="POMASS">    132.90000000    207.20000000     79.90400000</v>
   <v name="DARWINR">      0.00000000      0.00000000      0.00000000</v>
   <v name="DARWINV">      1.00000000      1.00000000      1.00000000</v>
   <i type="logical" name="LCORR"> T  </i>
  </separator>
  <i type="logical" name="GGA_COMPAT"> T  </i>
  <i type="logical" name="LBERRY"> F  </i>
  <i type="int" name="ICORELEVEL">     0</i>
  <i type="logical" name="LDAU"> F  </i>
  <i type="int" name="I_CONSTRAINED_M">     0</i>
  <separator name="electronic exchange-correlation" >
   <i type="string" name="GGA">--</i>
   <i type="int" name="VOSKOWN">     0</i>
   <i type="logical" name="LHFCALC"> F  </i>
   <i type="string" name="PRECFOCK"></i>
   <i type="logical" name="LSYMGRAD"> F  </i>
   <i type="logical" name="LHFONE"> F  </i>
   <i type="logical" name="LRHFCALC"> F  </i>
   <i type="logical" name="LTHOMAS"> F  </i>
   <i type="logical" name="LMODELHF"> F  </i>
   <i name="ENCUT4O">     -1.00000000</i>
   <i type="int" name="EXXOEP">     0</i>
   <i type="int" name="FOURORBIT">     0</i>
   <i name="AEXX">      0.00000000</i>
   <i name="HFALPHA">      0.00000000</i>
   <i name="MCALPHA">      0.00000000</i>
   <i name="ALDAX">      1.00000000</i>
   <i name="AGGAX">      1.00000000</i>
   <i name="ALDAC">      1.00000000</i>
   <i name="AGGAC">      1.00000000</i>
   <i type="int" name="NKREDX">     1</i>
   <i type="int" name="NKREDY">     1</i>
   <i type="int" name="NKREDZ">     1</i>
   <i type="logical" name="SHIFTRED"> F  </i>
   <i type="logical" name="ODDONLY"> F  </i>
   <i type="logical" name="EVENONLY"> F  </i>
   <i type="int" name="LMAXFOCK">     0</i>
   <i type="int" name="NMAXFOCKAE">     0</i>
   <i type="logical" name="LFOCKAEDFT"> F  </i>
   <i name="HFSCREEN">      0.00000000</i>
   <i name="HFSCREENC">      0.00000000</i>
   <i type="int" name="NBANDSGWLOW">     0</i>
  </separator>
  <separator name="vdW DFT" >
   <i type="logical" name="LUSE_VDW"> F  </i>
   <i name="Zab_VDW">     -0.84910000</i>
   <i name="PARAM1">      0.12340000</i>
   <i name="PARAM2">      1.00000000</i>
   <i name="PARAM3">      0.00000000</i>
  </separator>
  <separator name="model GW" >
   <i type="int" name="MODEL_GW">     0</i>
   <i name="MODEL_EPS0">     24.49161359</i>
   <i name="MODEL_ALPHA">      1.00000000</i>
  </separator>
  <separator name="linear response parameters" >
   <i type="logical" name="LEPSILON"> F  </i>
   <i type="logical" name="LRPA"> F  </i>
   <i type="logical" name="LNABLA"> F  </i>
   <i type="logical" name="LVEL"> F  </i>
   <i type="int" name="KINTER">     0</i>
   <i name="CSHIFT">      0.10000000</i>
   <i name="OMEGAMAX">     -1.00000000</i>
   <i name="DEG_THRESHOLD">      0.00200000</i>
   <i name="RTIME">     -0.10000000</i>
   <i name="WPLASMAI">      0.00000000</i>
   <v name="DFIELD">      0.00000000      0.00000000      0.00000000</v>
   <v name="WPLASMA">      0.00000000      0.00000000      0.00000000      0.00000000      0.00000000      0.00000000      0.00000000      0.00000000      0.00000000</v>
  </separator>
  <separator name="orbital magnetization" >
   <i type="logical" name="NUCIND"> F  </i>
   <v name="MAGPOS">      0.00000000      0.00000000      0.00000000</v>
   <i type="logical" name="LNICSALL"> T  </i>
   <i type="logical" name="ORBITALMAG"> F  </i>
   <i type="logical" name="LMAGBLOCH"> F  </i>
   <i type="logical" name="LCHIMAG"> F  </i>
   <i type="logical" name="LGAUGE"> T  </i>
   <i type="int" name="MAGATOM">     0</i>
   <v name="MAGDIPOL">      0.00000000      0.00000000      0.00000000</v>
   <v name="AVECCONST">      0.00000000      0.00000000      0.00000000</v>
  </separator>
  <separator name="response functions" >
   <i type="logical" name="LADDER"> F  </i>
   <i type="logical" name="LRPAFORCE"> F  </i>
   <i type="logical" name="LFXC"> F  </i>
   <i type="logical" name="LHARTREE"> T  </i>
   <i type="int" name="IBSE">     0</i>
   <v type="int" name="KPOINT">    -1     0     0     0</v>
   <i type="logical" name="LTCTE"> F  </i>
   <i type="logical" name="LTETE"> F  </i>
   <i type="logical" name="LTRIPLET"> F  </i>
   <i type="logical" name="LFXCEPS"> F  </i>
   <i type="logical" name="LFXHEG"> F  </i>
   <i type="int" name="NATURALO">     2</i>
   <i type="logical" name="L2ORDER"> F  </i>
   <i type="logical" name="LMP2LT"> F  </i>
   <i type="logical" name="LUSEW"> F  </i>
   <i name="ENCUTGW">     -2.00000000</i>
   <i name="ENCUTGWSOFT">     -2.00000000</i>
   <i name="ENCUTLF">     -1.00000000</i>
   <i type="int" name="LMAXMP2">    -1</i>
   <i name="SCISSOR">      0.00000000</i>
   <i type="int" name="NOMEGA">     0</i>
   <i type="int" name="NOMEGAR">     0</i>
   <i type="int" name="NBANDSGW">    -1</i>
   <i type="int" name="NBANDSO">    -1</i>
   <i type="int" name="NBANDSV">    -1</i>
   <i type="int" name="NELM">   200</i>
   <i type="int" name="NELMHF">     1</i>
   <i type="int" name="DIM">     3</i>
   <i type="int" name="ANTIRES">     0</i>
   <i name="OMEGAMAX">    -30.00000000</i>
   <i name="OMEGAMIN">    -30.00000000</i>
   <i name="OMEGATL">   -200.00000000</i>
   <i type="int" name="OMEGAGRID">   140</i>
   <i name="CSHIFT">     -0.10000000</i>
   <i type="logical" name="SELFENERGY"> F  </i>
   <i type="logical" name="LSPECTRAL"> F  </i>
   <i type="logical" name="LSPECTRALGW"> F  </i>
   <i type="logical" name="LSINGLES"> F  </i>
   <i type="logical" name="LFERMIGW"> F  </i>
   <i type="logical" name="ODDONLYGW"> F  </i>
   <i type="logical" name="EVENONLYGW"> F  </i>
   <i type="int" name="NKREDLFX">     1</i>
   <i type="int" name="NKREDLFY">     1</i>
   <i type="int" name="NKREDLFZ">     1</i>
   <i type="int" name="MAXMEM">  2800</i>
   <i type="int" name="TELESCOPE">     0</i>
   <i type="int" name="TAUPAR">     1</i>
   <i type="int" name="OMEGAPAR">    -1</i>
   <i name="LAMBDA">      1.00000000</i>
  </separator>
  <separator name="External order field" >
   <i name="OFIELD_KAPPA">      0.00000000</i>
   <v name="OFIELD_K">      0.00000000      0.00000000      0.00000000</v>
   <i name="OFIELD_Q6_NEAR">      0.00000000</i>
   <i name="OFIELD_Q6_FAR">      0.00000000</i>
   <i name="OFIELD_A">      0.00000000</i>
  </separator>
 </parameters>
 <atominfo>
  <atoms>      20 </atoms>
  <types>       3 </types>
  <array name="atoms" >
   <dimension dim="1">ion</dimension>
   <field type="string">element</field>
   <field type="int">atomtype</field>
   <set>
    <rc><c>Cs</c><c>   1</c></rc>
    <rc><c>Cs</c><c>   1</c></rc>
    <rc><c>Cs</c><c>   1</c></rc>
    <rc><c>Cs</c><c>   1</c></rc>
    <rc><c>Pb</c><c>   2</c></rc>
    <rc><c>Pb</c><c>   2</c></rc>
    <rc><c>Pb</c><c>   2</c></rc>
    <rc><c>Pb</c><c>   2</c></rc>
    <rc><c>Br</c><c>   3</c></rc>
    <rc><c>Br</c><c>   3</c></rc>
    <rc><c>Br</c><c>   3</c></rc>
    <rc><c>Br</c><c>   3</c></rc>
    <rc><c>Br</c><c>   3</c></rc>
    <rc><c>Br</c><c>   3</c></rc>
    <rc><c>Br</c><c>   3</c></rc>
    <rc><c>Br</c><c>   3</c></rc>
    <rc><c>Br</c><c>   3</c></rc>
    <rc><c>Br</c><c>   3</c></rc>
    <rc><c>Br</c><c>   3</c></rc>
    <rc><c>Br</c><c>   3</c></rc>
   </set>
  </array>
  <array name="atomtypes" >
   <dimension dim="1">type</dimension>
   <field type="int">atomspertype</field>
   <field type="string">element</field>
   <field>mass</field>
   <field>valence</field>
   <field type="string">pseudopotential</field>
   <set>
    <rc><c>   4</c><c>Cs</c><c>    132.90000000</c><c>      9.00000000</c><c>  PAW_PBE Cs_sv 08Apr2002               </c></rc>
    <rc><c>   4</c><c>Pb</c><c>    207.20000000</c><c>     14.00000000</c><c>  PAW_PBE Pb_d 06Sep2000                </c></rc>
    <rc><c>  12</c><c>Br</c><c>     79.90400000</c><c>      7.00000000</c><c>  PAW_PBE Br 06Sep2000                  </c></rc>
   </set>
  </array>
 </atominfo>
 <structure name="initialpos" >
  <crystal>
   <varray name="basis" >
    <v>       8.75681830       0.00000000       0.00000000 </v>
    <v>       0.00000000      12.23436010       0.00000000 </v>
    <v>       0.00000000       0.00000000       7.62023819 </v>
   </varray>
   <i name="volume">    816.38711953 </i>
   <varray name="rec_basis" >
    <v>       0.11419673       0.00000000       0.00000000 </v>
    <v>       0.00000000       0.08173701       0.00000000 </v>
    <v>       0.00000000       0.00000000       0.13122949 </v>
   </varray>
  </crystal>
  <varray name="positions" >
   <v>       0.07630993       0.25000000       0.46716500 </v>
   <v>       0.42369007       0.75000000       0.96716500 </v>
   <v>       0.57630993       0.25000000       0.03283500 </v>
   <v>       0.92369007       0.75000000       0.53283500 </v>
   <v>       0.00000000       0.00000000       0.00000000 </v>
   <v>       0.50000000       0.00000000       0.50000000 </v>
   <v>       0.50000000       0.50000000       0.50000000 </v>
   <v>       0.00000000       0.50000000       0.00000000 </v>
   <v>       0.50721759       0.75000000       0.45267432 </v>
   <v>       0.99278241       0.25000000       0.95267432 </v>
   <v>       0.00721759       0.75000000       0.04732568 </v>
   <v>       0.49278241       0.25000000       0.54732568 </v>
   <v>       0.30572534       0.46840758       0.17903872 </v>
   <v>       0.19427466       0.53159242       0.67903872 </v>
   <v>       0.80572534       0.03159242       0.32096128 </v>
   <v>       0.69427466       0.96840758       0.82096128 </v>
   <v>       0.30572534       0.03159242       0.17903872 </v>
   <v>       0.19427466       0.96840758       0.67903872 </v>
   <v>       0.69427466       0.53159242       0.82096128 </v>
   <v>       0.80572534       0.46840758       0.32096128 </v>
  </varray>
 </structure>
 <calculation>
  <scstep>
   <time name="dav">    4.37    4.37</time>
   <time name="total">    5.59    5.61</time>
   <energy>
    <i name="alphaZ">    441.95814110 </i>
    <i name="ewald">  -9185.66428050 </i>
    <i name="hartreedc">  -3673.67824588 </i>
    <i name="XCdc">    461.49584107 </i>
    <i name="pawpsdc">  10816.98087266 </i>
    <i name="pawaedc"> -11353.96092700 </i>
    <i name="eentropy">     -0.00142534 </i>
    <i name="bandstr">   -136.55110931 </i>
    <i name="atom">  13290.28009929 </i>
    <i name="e_fr_energy">    660.85896607 </i>
    <i name="e_wo_entrp">    660.86039141 </i>
    <i name="e_0_energy">    660.85967874 </i>
   </energy>
  </scstep>
  <scstep>
   <time name="dav">    4.92    4.94</time>
   <time name="total">    4.92    4.94</time>
   <energy>
    <i name="e_fr_energy">   -575.44777515 </i>
    <i name="e_wo_entrp">   -575.44777515 </i>
    <i name="e_0_energy">   -575.44777515 </i>
   </energy>
  </scstep>
  <scstep>
   <time name="dav">    5.20    5.23</time>
   <time name="total">    5.20    5.23</time>
   <energy>
    <i name="e_fr_energy">   -748.75606498 </i>
    <i name="e_wo_entrp">   -748.75606498 </i>
    <i name="e_0_energy">   -748.75606498 </i>
   </energy>
  </scstep>
  <scstep>
   <time name="dav">    4.90    4.90</time>
   <time name="total">    4.90    4.90</time>
   <energy>
    <i name="e_fr_energy">   -754.53490598 </i>
    <i name="e_wo_entrp">   -754.53490598 </i>
    <i name="e_0_energy">   -754.53490598 </i>
   </energy>
  </scstep>
  <scstep>
   <time name="dav">    5.09    5.12</time>
   <time name="total">    6.04    6.08</time>
   <energy>
    <i name="e_fr_energy">   -754.78677952 </i>
    <i name="e_wo_entrp">   -754.78677952 </i>
    <i name="e_0_energy">   -754.78677952 </i>
   </energy>
  </scstep>
  <scstep>
   <time name="dav">    5.14    5.14</time>
   <time name="total">    7.32    7.33</time>
   <energy>
    <i name="e_fr_energy">   -714.84812977 </i>
    <i name="e_wo_entrp">   -714.84812977 </i>
    <i name="e_0_energy">   -714.84812977 </i>
   </energy>
  </scstep>
  <scstep>
   <time name="dav">    4.87    4.88</time>
   <time name="total">    7.06    7.07</time>
   <energy>
    <i name="e_fr_energy">   -714.59865004 </i>
    <i name="e_wo_entrp">   -714.59865004 </i>
    <i name="e_0_energy">   -714.59865004 </i>
   </energy>
  </scstep>
  <scstep>
   <time name="dav">    4.78    4.78</time>
   <time name="total">    6.92    6.96</time>
   <energy>
    <i name="e_fr_energy">   -714.69845557 </i>
    <i name="e_wo_entrp">   -714.69845557 </i>
    <i name="e_0_energy">   -714.69845557 </i>
   </energy>
  </scstep>
  <scstep>
   <time name="dav">    4.55    4.55</time>
   <time name="total">    6.73    6.74</time>
   <energy>
    <i name="e_fr_energy">   -714.74014565 </i>
    <i name="e_wo_entrp">   -714.74014565 </i>
    <i name="e_0_energy">   -714.74014565 </i>
   </energy>
  </scstep>
  <scstep>
   <time name="dav">    5.42    5.42</time>
   <time name="total">    7.57    7.61</time>
   <energy>
    <i name="e_fr_energy">   -714.74139364 </i>
    <i name="e_wo_entrp">   -714.74139364 </i>
    <i name="e_0_energy">   -714.74139364 </i>
   </energy>
  </scstep>
  <scstep>
   <time name="dav">    4.52    4.52</time>
   <time name="total">    6.68    6.70</time>
   <energy>
    <i name="e_fr_energy">   -714.74329901 </i>
    <i name="e_wo_entrp">   -714.74329901 </i>
    <i name="e_0_energy">   -714.74329901 </i>
   </energy>
  </scstep>
  <scstep>
   <time name="dav">    4.79    4.79</time>
   <time name="total">    6.94    6.98</time>
   <energy>
    <i name="e_fr_energy">   -714.74330556 </i>
    <i name="e_wo_entrp">   -714.74330556 </i>
    <i name="e_0_energy">   -714.74330556 </i>
   </energy>
  </scstep>
  <scstep>
   <time name="dav">    4.84    4.84</time>
   <time name="total">    6.98    7.02</time>
   <energy>
    <i name="e_fr_energy">   -714.74328566 </i>
    <i name="e_wo_entrp">   -714.74328566 </i>
    <i name="e_0_energy">   -714.74328566 </i>
   </energy>
  </scstep>
  <scstep>
   <time name="dav">    4.31    4.31</time>
   <time name="total">    6.45    6.49</time>
   <energy>
    <i name="e_fr_energy">   -714.74330738 </i>
    <i name="e_wo_entrp">   -714.74330738 </i>
    <i name="e_0_energy">   -714.74330738 </i>
   </energy>
  </scstep>
  <scstep>
   <time name="dav">    3.57    3.57</time>
   <time name="total">    5.73    5.74</time>
   <energy>
    <i name="e_fr_energy">   -714.74330586 </i>
    <i name="e_wo_entrp">   -714.74330586 </i>
    <i name="e_0_energy">   -714.74330586 </i>
   </energy>
  </scstep>
  <scstep>
   <time name="dav">    3.51    3.51</time>
   <time name="total">    5.68    5.70</time>
   <energy>
    <i name="e_fr_energy">   -714.74330437 </i>
    <i name="e_wo_entrp">   -714.74330437 </i>
    <i name="e_0_energy">   -714.74330437 </i>
   </energy>
  </scstep>
  <scstep>
   <time name="dav">    3.32    3.32</time>
   <time name="total">    5.47    5.50</time>
   <energy>
    <i name="e_fr_energy">   -714.74330310 </i>
    <i name="e_wo_entrp">   -714.74330310 </i>
    <i name="e_0_energy">   -714.74330310 </i>
   </energy>
  </scstep>
  <scstep>
   <time name="dav">    3.29    3.29</time>
   <time name="total">    4.56    4.57</time>
   <energy>
    <i name="alphaZ">    441.95814110 </i>
    <i name="ewald">  -9185.66428050 </i>
    <i name="hartreedc">  -3684.07122361 </i>
    <i name="XCdc">    480.70062455 </i>
    <i name="pawpsdc">  11464.44316942 </i>
    <i name="pawaedc"> -11999.71375693 </i>
    <i name="eentropy">     -0.00000000 </i>
    <i name="bandstr">  -1522.67607620 </i>
    <i name="atom">  13290.28009929 </i>
    <i name="e_fr_energy">   -714.74330290 </i>
    <i name="e_wo_entrp">   -714.74330290 </i>
    <i name="e_0_energy">   -714.74330290 </i>
   </energy>
  </scstep>
  <structure>
   <crystal>
    <varray name="basis" >
     <v>       8.75681830       0.00000000       0.00000000 </v>
     <v>       0.00000000      12.23436010       0.00000000 </v>
     <v>       0.00000000       0.00000000       7.62023819 </v>
    </varray>
    <i name="volume">    816.38711953 </i>
    <varray name="rec_basis" >
     <v>       0.11419673       0.00000000       0.00000000 </v>
     <v>       0.00000000       0.08173701       0.00000000 </v>
     <v>       0.00000000       0.00000000       0.13122949 </v>
    </varray>
   </crystal>
   <varray name="positions" >
    <v>       0.07630993       0.25000000       0.46716500 </v>
    <v>       0.42369007       0.75000000       0.96716500 </v>
    <v>       0.57630993       0.25000000       0.03283500 </v>
    <v>       0.92369007       0.75000000       0.53283500 </v>
    <v>       0.00000000       0.00000000       0.00000000 </v>
    <v>       0.50000000       0.00000000       0.50000000 </v>
    <v>       0.50000000       0.50000000       0.50000000 </v>
    <v>       0.00000000       0.50000000       0.00000000 </v>
    <v>       0.50721759       0.75000000       0.45267432 </v>
    <v>       0.99278241       0.25000000       0.95267432 </v>
    <v>       0.00721759       0.75000000       0.04732568 </v>
    <v>       0.49278241       0.25000000       0.54732568 </v>
    <v>       0.30572534       0.46840758       0.17903872 </v>
    <v>       0.19427466       0.53159242       0.67903872 </v>
    <v>       0.80572534       0.03159242       0.32096128 </v>
    <v>       0.69427466       0.96840758       0.82096128 </v>
    <v>       0.30572534       0.03159242       0.17903872 </v>
    <v>       0.19427466       0.96840758       0.67903872 </v>
    <v>       0.69427466       0.53159242       0.82096128 </v>
    <v>       0.80572534       0.46840758       0.32096128 </v>
   </varray>
  </structure>
  <varray name="forces" >
   <v>      -0.00528489      -0.00000000      -0.00352752 </v>
   <v>       0.00528489      -0.00000000      -0.00352752 </v>
   <v>      -0.00528489      -0.00000000       0.00352752 </v>
   <v>       0.00528489      -0.00000000       0.00352752 </v>
   <v>      -0.00000000      -0.00000000       0.00000000 </v>
   <v>      -0.00000000      -0.00000000       0.00000000 </v>
   <v>      -0.00000000      -0.00000000       0.00000000 </v>
   <v>      -0.00000000      -0.00000000       0.00000000 </v>
   <v>      -0.00463983      -0.00000000      -0.00585989 </v>
   <v>       0.00463983      -0.00000000      -0.00585989 </v>
   <v>      -0.00463983      -0.00000000       0.00585989 </v>
   <v>       0.00463983      -0.00000000       0.00585989 </v>
   <v>       0.00296410       0.00658322      -0.00412189 </v>
   <v>      -0.00296410      -0.00658322      -0.00412189 </v>
   <v>       0.00296410      -0.00658322       0.00412189 </v>
   <v>      -0.00296410       0.00658322       0.00412189 </v>
   <v>       0.00296410      -0.00658322      -0.00412189 </v>
   <v>      -0.00296410       0.00658322      -0.00412189 </v>
   <v>      -0.00296410      -0.00658322       0.00412189 </v>
   <v>       0.00296410       0.00658322       0.00412189 </v>
  </varray>
  <varray name="stress" >
   <v>      -8.28513275       0.00000000       0.00000000 </v>
   <v>       0.00000000     -13.31861174       0.00000000 </v>
   <v>      -0.00000000       0.00000000      -1.43680353 </v>
  </varray>
  <energy>
   <i name="e_fr_energy">   -714.74330290 </i>
   <i name="e_wo_entrp">   -714.74330290 </i>
   <i name="e_0_energy">     -0.00000000 </i>
  </energy>
  <time name="totalsc">  127.83  128.27</time>
  <eigenvalues>
   <array>
    <dimension dim="1">band</dimension>
    <dimension dim="2">kpoint</dimension>
    <dimension dim="3">spin</dimension>
    <field>eigene</field>
    <field>occ</field>
    <set>
     <set comment="spin 1">
      <set comment="kpoint 1">
       <r>  -20.8838    1.0000 </r>
       <r>  -20.8827    1.0000 </r>
       <r>  -20.8795    1.0000 </r>
       <r>  -20.8789    1.0000 </r>
       <r>  -16.6439    1.0000 </r>
       <r>  -16.6439    1.0000 </r>
       <r>  -16.6420    1.0000 </r>
       <r>  -16.6179    1.0000 </r>
       <r>  -16.6080    1.0000 </r>
       <r>  -16.5808    1.0000 </r>
       <r>  -16.5683    1.0000 </r>
       <r>  -16.5680    1.0000 </r>
       <r>  -16.5394    1.0000 </r>
       <r>  -16.5391    1.0000 </r>
       <r>  -16.5385    1.0000 </r>
       <r>  -16.5380    1.0000 </r>
       <r>  -16.5148    1.0000 </r>
       <r>  -16.5144    1.0000 </r>
       <r>  -16.5141    1.0000 </r>
       <r>  -16.5136    1.0000 </r>
       <r>  -16.5056    1.0000 </r>
       <r>  -16.5055    1.0000 </r>
       <r>  -16.5053    1.0000 </r>
       <r>  -16.5048    1.0000 </r>
       <r>  -14.3521    1.0000 </r>
       <r>  -14.2215    1.0000 </r>
       <r>  -14.0942    1.0000 </r>
       <r>  -14.0875    1.0000 </r>
       <r>  -14.0397    1.0000 </r>
       <r>  -14.0268    1.0000 </r>
       <r>  -13.9937    1.0000 </r>
       <r>  -13.9935    1.0000 </r>
       <r>  -13.9853    1.0000 </r>
       <r>  -13.8286    1.0000 </r>
       <r>  -13.8027    1.0000 </r>
       <r>  -13.8022    1.0000 </r>
       <r>   -8.2085    1.0000 </r>
       <r>   -7.8164    1.0000 </r>
       <r>   -7.3349    1.0000 </r>
       <r>   -7.3139    1.0000 </r>
       <r>   -7.3073    1.0000 </r>
       <r>   -7.2941    1.0000 </r>
       <r>   -7.2938    1.0000 </r>
       <r>   -7.2847    1.0000 </r>
       <r>   -7.2805    1.0000 </r>
       <r>   -7.2687    1.0000 </r>
       <r>   -7.2684    1.0000 </r>
       <r>   -7.2619    1.0000 </r>
       <r>   -7.2471    1.0000 </r>
       <r>   -7.2461    1.0000 </r>
       <r>   -7.2257    1.0000 </r>
       <r>   -6.7601    1.0000 </r>
       <r>   -3.3889    1.0000 </r>
       <r>   -3.3145    1.0000 </r>
       <r>   -3.1837    1.0000 </r>
       <r>   -3.1689    1.0000 </r>
       <r>   -3.1427    1.0000 </r>
       <r>   -2.9216    1.0000 </r>
       <r>   -2.2190    1.0000 </r>
       <r>   -1.9996    1.0000 </r>
       <r>   -1.9826    1.0000 </r>
       <r>   -1.8976    1.0000 </r>
       <r>   -1.8255    1.0000 </r>
       <r>   -1.6670    1.0000 </r>
       <r>   -1.6658    1.0000 </r>
       <r>   -1.6531    1.0000 </r>
       <r>   -1.6014    1.0000 </r>
       <r>   -1.5958    1.0000 </r>
       <r>   -1.5318    1.0000 </r>
       <r>   -1.5218    1.0000 </r>
       <r>   -1.5101    1.0000 </r>
       <r>   -1.5078    1.0000 </r>
       <r>   -1.4644    1.0000 </r>
       <r>   -1.4402    1.0000 </r>
       <r>   -1.3870    1.0000 </r>
       <r>   -1.3786    1.0000 </r>
       <r>   -1.3641    1.0000 </r>
       <r>   -1.2295    1.0000 </r>
       <r>   -1.2269    1.0000 </r>
       <r>   -1.1642    1.0000 </r>
       <r>   -1.0431    1.0000 </r>
       <r>   -1.0349    1.0000 </r>
       <r>   -1.0314    1.0000 </r>
       <r>   -0.9471    1.0000 </r>
       <r>   -0.8487    1.0000 </r>
       <r>   -0.7263    1.0000 </r>
       <r>   -0.3059    1.0000 </r>
       <r>    0.1392    1.0000 </r>
       <r>    2.4174    0.0000 </r>
       <r>    2.5090    0.0000 </r>
       <r>    2.9039    0.0000 </r>
       <r>    2.9650    0.0000 </r>
       <r>    3.1059    0.0000 </r>
       <r>    3.3470    0.0000 </r>
       <r>    4.8156    0.0000 </r>
       <r>    5.0568    0.0000 </r>
       <r>    5.4624    0.0000 </r>
       <r>    5.7597    0.0000 </r>
       <r>    5.7677    0.0000 </r>
       <r>    5.8445    0.0000 </r>
       <r>    5.9513    0.0000 </r>
       <r>    6.0169    0.0000 </r>
       <r>    6.0610    0.0000 </r>
       <r>    6.1728    0.0000 </r>
       <r>    6.2885    0.0000 </r>
       <r>    6.3077    0.0000 </r>
       <r>    6.5053    0.0000 </r>
       <r>    6.6546    0.0000 </r>
       <r>    6.9111    0.0000 </r>
       <r>    6.9674    0.0000 </r>
       <r>    6.9949    0.0000 </r>
       <r>    7.0101    0.0000 </r>
      </set>
      <set comment="kpoint 2">
       <r>  -20.8827    1.0000 </r>
       <r>  -20.8817    1.0000 </r>
       <r>  -20.8806    1.0000 </r>
       <r>  -20.8798    1.0000 </r>
       <r>  -16.6356    1.0000 </r>
       <r>  -16.6257    1.0000 </r>
       <r>  -16.6257    1.0000 </r>
       <r>  -16.6237    1.0000 </r>
       <r>  -16.6009    1.0000 </r>
       <r>  -16.5878    1.0000 </r>
       <r>  -16.5878    1.0000 </r>
       <r>  -16.5874    1.0000 </r>
       <r>  -16.5393    1.0000 </r>
       <r>  -16.5391    1.0000 </r>
       <r>  -16.5384    1.0000 </r>
       <r>  -16.5381    1.0000 </r>
       <r>  -16.5146    1.0000 </r>
       <r>  -16.5144    1.0000 </r>
       <r>  -16.5142    1.0000 </r>
       <r>  -16.5138    1.0000 </r>
       <r>  -16.5056    1.0000 </r>
       <r>  -16.5056    1.0000 </r>
       <r>  -16.5053    1.0000 </r>
       <r>  -16.5050    1.0000 </r>
       <r>  -14.3100    1.0000 </r>
       <r>  -14.1985    1.0000 </r>
       <r>  -14.1902    1.0000 </r>
       <r>  -14.1233    1.0000 </r>
       <r>  -14.0332    1.0000 </r>
       <r>  -14.0287    1.0000 </r>
       <r>  -13.9452    1.0000 </r>
       <r>  -13.9431    1.0000 </r>
       <r>  -13.9132    1.0000 </r>
       <r>  -13.8501    1.0000 </r>
       <r>  -13.8495    1.0000 </r>
       <r>  -13.8483    1.0000 </r>
       <r>   -8.0068    1.0000 </r>
       <r>   -7.6125    1.0000 </r>
       <r>   -7.5467    1.0000 </r>
       <r>   -7.3372    1.0000 </r>
       <r>   -7.3087    1.0000 </r>
       <r>   -7.3067    1.0000 </r>
       <r>   -7.2907    1.0000 </r>
       <r>   -7.2902    1.0000 </r>
       <r>   -7.2823    1.0000 </r>
       <r>   -7.2793    1.0000 </r>
       <r>   -7.2648    1.0000 </r>
       <r>   -7.2534    1.0000 </r>
       <r>   -7.2516    1.0000 </r>
       <r>   -7.2486    1.0000 </r>
       <r>   -7.2307    1.0000 </r>
       <r>   -7.0758    1.0000 </r>
       <r>   -3.1563    1.0000 </r>
       <r>   -3.0763    1.0000 </r>
       <r>   -2.9273    1.0000 </r>
       <r>   -2.8608    1.0000 </r>
       <r>   -2.8405    1.0000 </r>
       <r>   -2.8073    1.0000 </r>
       <r>   -2.2920    1.0000 </r>
       <r>   -2.1789    1.0000 </r>
       <r>   -2.1485    1.0000 </r>
       <r>   -2.0462    1.0000 </r>
       <r>   -2.0324    1.0000 </r>
       <r>   -2.0296    1.0000 </r>
       <r>   -1.7933    1.0000 </r>
       <r>   -1.7190    1.0000 </r>
       <r>   -1.7095    1.0000 </r>
       <r>   -1.6629    1.0000 </r>
       <r>   -1.5461    1.0000 </r>
       <r>   -1.5342    1.0000 </r>
       <r>   -1.4987    1.0000 </r>
       <r>   -1.4640    1.0000 </r>
       <r>   -1.4110    1.0000 </r>
       <r>   -1.3833    1.0000 </r>
       <r>   -1.3820    1.0000 </r>
       <r>   -1.3557    1.0000 </r>
       <r>   -1.3155    1.0000 </r>
       <r>   -1.2991    1.0000 </r>
       <r>   -1.2758    1.0000 </r>
       <r>   -1.1465    1.0000 </r>
       <r>   -1.1124    1.0000 </r>
       <r>   -1.0870    1.0000 </r>
       <r>   -1.0555    1.0000 </r>
       <r>   -1.0436    1.0000 </r>
       <r>   -0.7770    1.0000 </r>
       <r>   -0.6596    1.0000 </r>
       <r>   -0.6015    1.0000 </r>
       <r>   -0.2699    1.0000 </r>
       <r>    2.5849    0.0000 </r>
       <r>    2.9258    0.0000 </r>
       <r>    3.1953    0.0000 </r>
       <r>    3.5343    0.0000 </r>
       <r>    3.8062    0.0000 </r>
       <r>    4.1252    0.0000 </r>
       <r>    4.5603    0.0000 </r>
       <r>    4.9068    0.0000 </r>
       <r>    5.1374    0.0000 </r>
       <r>    5.1783    0.0000 </r>
       <r>    5.3217    0.0000 </r>
       <r>    5.6566    0.0000 </r>
       <r>    5.6853    0.0000 </r>
       <r>    6.1407    0.0000 </r>
       <r>    6.2789    0.0000 </r>
       <r>    6.3025    0.0000 </r>
       <r>    6.3085    0.0000 </r>
       <r>    6.3328    0.0000 </r>
       <r>    6.5410    0.0000 </r>
       <r>    6.5630    0.0000 </r>
       <r>    6.9097    0.0000 </r>
       <r>    6.9289    0.0000 </r>
       <r>    6.9401    0.0000 </r>
       <r>    7.1426    0.0000 </r>
      </set>
      <set comment="kpoint 3">
       <r>  -20.8833    1.0000 </r>
       <r>  -20.8832    1.0000 </r>
       <r>  -20.8792    1.0000 </r>
       <r>  -20.8791    1.0000 </r>
       <r>  -16.6439    1.0000 </r>
       <r>  -16.6439    1.0000 </r>
       <r>  -16.6250    1.0000 </r>
       <r>  -16.6250    1.0000 </r>
       <r>  -16.5993    1.0000 </r>
       <r>  -16.5993    1.0000 </r>
       <r>  -16.5682    1.0000 </r>
       <r>  -16.5682    1.0000 </r>
       <r>  -16.5389    1.0000 </r>
       <r>  -16.5389    1.0000 </r>
       <r>  -16.5384    1.0000 </r>
       <r>  -16.5384    1.0000 </r>
       <r>  -16.5145    1.0000 </r>
       <r>  -16.5145    1.0000 </r>
       <r>  -16.5140    1.0000 </r>
       <r>  -16.5140    1.0000 </r>
       <r>  -16.5055    1.0000 </r>
       <r>  -16.5055    1.0000 </r>
       <r>  -16.5052    1.0000 </r>
       <r>  -16.5052    1.0000 </r>
       <r>  -14.3050    1.0000 </r>
       <r>  -14.3050    1.0000 </r>
       <r>  -14.0909    1.0000 </r>
       <r>  -14.0909    1.0000 </r>
       <r>  -14.0099    1.0000 </r>
       <r>  -14.0099    1.0000 </r>
       <r>  -13.9980    1.0000 </r>
       <r>  -13.9980    1.0000 </r>
       <r>  -13.9072    1.0000 </r>
       <r>  -13.9072    1.0000 </r>
       <r>  -13.8025    1.0000 </r>
       <r>  -13.8025    1.0000 </r>
       <r>   -8.0249    1.0000 </r>
       <r>   -8.0249    1.0000 </r>
       <r>   -7.3247    1.0000 </r>
       <r>   -7.3246    1.0000 </r>
       <r>   -7.3040    1.0000 </r>
       <r>   -7.3040    1.0000 </r>
       <r>   -7.2831    1.0000 </r>
       <r>   -7.2831    1.0000 </r>
       <r>   -7.2671    1.0000 </r>
       <r>   -7.2671    1.0000 </r>
       <r>   -7.2615    1.0000 </r>
       <r>   -7.2615    1.0000 </r>
       <r>   -7.2556    1.0000 </r>
       <r>   -7.2556    1.0000 </r>
       <r>   -7.0269    1.0000 </r>
       <r>   -7.0269    1.0000 </r>
       <r>   -3.3496    1.0000 </r>
       <r>   -3.3496    1.0000 </r>
       <r>   -3.1322    1.0000 </r>
       <r>   -3.1322    1.0000 </r>
       <r>   -2.4978    1.0000 </r>
       <r>   -2.4978    1.0000 </r>
       <r>   -2.2975    1.0000 </r>
       <r>   -2.2975    1.0000 </r>
       <r>   -2.1108    1.0000 </r>
       <r>   -2.1108    1.0000 </r>
       <r>   -1.8333    1.0000 </r>
       <r>   -1.8333    1.0000 </r>
       <r>   -1.7703    1.0000 </r>
       <r>   -1.7703    1.0000 </r>
       <r>   -1.6207    1.0000 </r>
       <r>   -1.6207    1.0000 </r>
       <r>   -1.5311    1.0000 </r>
       <r>   -1.5311    1.0000 </r>
       <r>   -1.5035    1.0000 </r>
       <r>   -1.5035    1.0000 </r>
       <r>   -1.4032    1.0000 </r>
       <r>   -1.4032    1.0000 </r>
       <r>   -1.3694    1.0000 </r>
       <r>   -1.3694    1.0000 </r>
       <r>   -1.2758    1.0000 </r>
       <r>   -1.2758    1.0000 </r>
       <r>   -1.2407    1.0000 </r>
       <r>   -1.2407    1.0000 </r>
       <r>   -1.1686    1.0000 </r>
       <r>   -1.1686    1.0000 </r>
       <r>   -0.9719    1.0000 </r>
       <r>   -0.9719    1.0000 </r>
       <r>   -0.8341    1.0000 </r>
       <r>   -0.8341    1.0000 </r>
       <r>   -0.2105    1.0000 </r>
       <r>   -0.2105    1.0000 </r>
       <r>    2.7059    0.0000 </r>
       <r>    2.7059    0.0000 </r>
       <r>    3.1545    0.0000 </r>
       <r>    3.1545    0.0000 </r>
       <r>    3.8572    0.0000 </r>
       <r>    3.8572    0.0000 </r>
       <r>    4.4200    0.0000 </r>
       <r>    4.4200    0.0000 </r>
       <r>    5.3755    0.0000 </r>
       <r>    5.3755    0.0000 </r>
       <r>    5.5105    0.0000 </r>
       <r>    5.5105    0.0000 </r>
       <r>    6.0149    0.0000 </r>
       <r>    6.0149    0.0000 </r>
       <r>    6.1335    0.0000 </r>
       <r>    6.1335    0.0000 </r>
       <r>    6.3738    0.0000 </r>
       <r>    6.3738    0.0000 </r>
       <r>    6.6568    0.0000 </r>
       <r>    6.6568    0.0000 </r>
       <r>    6.8094    0.0000 </r>
       <r>    6.8111    0.0000 </r>
       <r>    6.8880    0.0000 </r>
       <r>    6.9169    0.0000 </r>
      </set>
      <set comment="kpoint 4">
       <r>  -20.8822    1.0000 </r>
       <r>  -20.8822    1.0000 </r>
       <r>  -20.8801    1.0000 </r>
       <r>  -20.8801    1.0000 </r>
       <r>  -16.6256    1.0000 </r>
       <r>  -16.6256    1.0000 </r>
       <r>  -16.6184    1.0000 </r>
       <r>  -16.6184    1.0000 </r>
       <r>  -16.6055    1.0000 </r>
       <r>  -16.6055    1.0000 </r>
       <r>  -16.5878    1.0000 </r>
       <r>  -16.5878    1.0000 </r>
       <r>  -16.5389    1.0000 </r>
       <r>  -16.5389    1.0000 </r>
       <r>  -16.5385    1.0000 </r>
       <r>  -16.5385    1.0000 </r>
       <r>  -16.5144    1.0000 </r>
       <r>  -16.5144    1.0000 </r>
       <r>  -16.5140    1.0000 </r>
       <r>  -16.5140    1.0000 </r>
       <r>  -16.5054    1.0000 </r>
       <r>  -16.5054    1.0000 </r>
       <r>  -16.5053    1.0000 </r>
       <r>  -16.5053    1.0000 </r>
       <r>  -14.2673    1.0000 </r>
       <r>  -14.2673    1.0000 </r>
       <r>  -14.1721    1.0000 </r>
       <r>  -14.1721    1.0000 </r>
       <r>  -13.9595    1.0000 </r>
       <r>  -13.9595    1.0000 </r>
       <r>  -13.9531    1.0000 </r>
       <r>  -13.9531    1.0000 </r>
       <r>  -13.9144    1.0000 </r>
       <r>  -13.9144    1.0000 </r>
       <r>  -13.8497    1.0000 </r>
       <r>  -13.8497    1.0000 </r>
       <r>   -7.8227    1.0000 </r>
       <r>   -7.8227    1.0000 </r>
       <r>   -7.3729    1.0000 </r>
       <r>   -7.3729    1.0000 </r>
       <r>   -7.3123    1.0000 </r>
       <r>   -7.3123    1.0000 </r>
       <r>   -7.3069    1.0000 </r>
       <r>   -7.3069    1.0000 </r>
       <r>   -7.2715    1.0000 </r>
       <r>   -7.2715    1.0000 </r>
       <r>   -7.2607    1.0000 </r>
       <r>   -7.2607    1.0000 </r>
       <r>   -7.2604    1.0000 </r>
       <r>   -7.2604    1.0000 </r>
       <r>   -7.2226    1.0000 </r>
       <r>   -7.2225    1.0000 </r>
       <r>   -2.8994    1.0000 </r>
       <r>   -2.8994    1.0000 </r>
       <r>   -2.8859    1.0000 </r>
       <r>   -2.8859    1.0000 </r>
       <r>   -2.4280    1.0000 </r>
       <r>   -2.4280    1.0000 </r>
       <r>   -2.4177    1.0000 </r>
       <r>   -2.4177    1.0000 </r>
       <r>   -2.2308    1.0000 </r>
       <r>   -2.2308    1.0000 </r>
       <r>   -2.1068    1.0000 </r>
       <r>   -2.1068    1.0000 </r>
       <r>   -1.7951    1.0000 </r>
       <r>   -1.7951    1.0000 </r>
       <r>   -1.7161    1.0000 </r>
       <r>   -1.7161    1.0000 </r>
       <r>   -1.6124    1.0000 </r>
       <r>   -1.6124    1.0000 </r>
       <r>   -1.5535    1.0000 </r>
       <r>   -1.5535    1.0000 </r>
       <r>   -1.4515    1.0000 </r>
       <r>   -1.4515    1.0000 </r>
       <r>   -1.3850    1.0000 </r>
       <r>   -1.3850    1.0000 </r>
       <r>   -1.2144    1.0000 </r>
       <r>   -1.2144    1.0000 </r>
       <r>   -1.2036    1.0000 </r>
       <r>   -1.2036    1.0000 </r>
       <r>   -1.1440    1.0000 </r>
       <r>   -1.1440    1.0000 </r>
       <r>   -1.0823    1.0000 </r>
       <r>   -1.0823    1.0000 </r>
       <r>   -0.7642    1.0000 </r>
       <r>   -0.7642    1.0000 </r>
       <r>   -0.5844    1.0000 </r>
       <r>   -0.5844    1.0000 </r>
       <r>    3.3543    0.0000 </r>
       <r>    3.3543    0.0000 </r>
       <r>    3.9231    0.0000 </r>
       <r>    3.9231    0.0000 </r>
       <r>    4.0004    0.0000 </r>
       <r>    4.0004    0.0000 </r>
       <r>    4.2625    0.0000 </r>
       <r>    4.2625    0.0000 </r>
       <r>    4.7338    0.0000 </r>
       <r>    4.7338    0.0000 </r>
       <r>    5.2435    0.0000 </r>
       <r>    5.2435    0.0000 </r>
       <r>    5.8764    0.0000 </r>
       <r>    5.8764    0.0000 </r>
       <r>    6.2244    0.0000 </r>
       <r>    6.2244    0.0000 </r>
       <r>    6.6207    0.0000 </r>
       <r>    6.6207    0.0000 </r>
       <r>    6.6391    0.0000 </r>
       <r>    6.6391    0.0000 </r>
       <r>    6.7304    0.0000 </r>
       <r>    6.7304    0.0000 </r>
       <r>    6.7765    0.0000 </r>
       <r>    6.7765    0.0000 </r>
      </set>
      <set comment="kpoint 5">
       <r>  -20.8829    1.0000 </r>
       <r>  -20.8821    1.0000 </r>
       <r>  -20.8799    1.0000 </r>
       <r>  -20.8794    1.0000 </r>
       <r>  -16.6355    1.0000 </r>
       <r>  -16.6261    1.0000 </r>
       <r>  -16.6260    1.0000 </r>
       <r>  -16.6235    1.0000 </r>
       <r>  -16.6008    1.0000 </r>
       <r>  -16.5882    1.0000 </r>
       <r>  -16.5882    1.0000 </r>
       <r>  -16.5872    1.0000 </r>
       <r>  -16.5392    1.0000 </r>
       <r>  -16.5390    1.0000 </r>
       <r>  -16.5385    1.0000 </r>
       <r>  -16.5381    1.0000 </r>
       <r>  -16.5147    1.0000 </r>
       <r>  -16.5144    1.0000 </r>
       <r>  -16.5142    1.0000 </r>
       <r>  -16.5138    1.0000 </r>
       <r>  -16.5056    1.0000 </r>
       <r>  -16.5056    1.0000 </r>
       <r>  -16.5054    1.0000 </r>
       <r>  -16.5051    1.0000 </r>
       <r>  -14.2960    1.0000 </r>
       <r>  -14.1692    1.0000 </r>
       <r>  -14.1543    1.0000 </r>
       <r>  -14.0554    1.0000 </r>
       <r>  -14.0310    1.0000 </r>
       <r>  -14.0304    1.0000 </r>
       <r>  -14.0219    1.0000 </r>
       <r>  -14.0156    1.0000 </r>
       <r>  -13.8977    1.0000 </r>
       <r>  -13.8732    1.0000 </r>
       <r>  -13.8689    1.0000 </r>
       <r>  -13.8424    1.0000 </r>
       <r>   -8.0028    1.0000 </r>
       <r>   -7.6052    1.0000 </r>
       <r>   -7.5333    1.0000 </r>
       <r>   -7.3157    1.0000 </r>
       <r>   -7.3004    1.0000 </r>
       <r>   -7.2907    1.0000 </r>
       <r>   -7.2904    1.0000 </r>
       <r>   -7.2735    1.0000 </r>
       <r>   -7.2711    1.0000 </r>
       <r>   -7.2635    1.0000 </r>
       <r>   -7.2595    1.0000 </r>
       <r>   -7.2581    1.0000 </r>
       <r>   -7.2537    1.0000 </r>
       <r>   -7.2378    1.0000 </r>
       <r>   -7.2363    1.0000 </r>
       <r>   -7.0641    1.0000 </r>
       <r>   -3.1630    1.0000 </r>
       <r>   -3.0899    1.0000 </r>
       <r>   -3.0785    1.0000 </r>
       <r>   -2.9790    1.0000 </r>
       <r>   -2.6972    1.0000 </r>
       <r>   -2.5942    1.0000 </r>
       <r>   -2.3394    1.0000 </r>
       <r>   -2.1534    1.0000 </r>
       <r>   -2.1213    1.0000 </r>
       <r>   -2.0231    1.0000 </r>
       <r>   -1.9543    1.0000 </r>
       <r>   -1.8772    1.0000 </r>
       <r>   -1.8240    1.0000 </r>
       <r>   -1.7378    1.0000 </r>
       <r>   -1.6725    1.0000 </r>
       <r>   -1.6681    1.0000 </r>
       <r>   -1.5505    1.0000 </r>
       <r>   -1.4931    1.0000 </r>
       <r>   -1.4816    1.0000 </r>
       <r>   -1.4401    1.0000 </r>
       <r>   -1.4270    1.0000 </r>
       <r>   -1.4158    1.0000 </r>
       <r>   -1.3580    1.0000 </r>
       <r>   -1.3147    1.0000 </r>
       <r>   -1.3136    1.0000 </r>
       <r>   -1.2881    1.0000 </r>
       <r>   -1.2603    1.0000 </r>
       <r>   -1.2332    1.0000 </r>
       <r>   -1.2292    1.0000 </r>
       <r>   -1.1742    1.0000 </r>
       <r>   -1.0896    1.0000 </r>
       <r>   -1.0866    1.0000 </r>
       <r>   -0.9537    1.0000 </r>
       <r>   -0.8486    1.0000 </r>
       <r>   -0.7224    1.0000 </r>
       <r>   -0.3993    1.0000 </r>
       <r>    2.5850    0.0000 </r>
       <r>    2.9233    0.0000 </r>
       <r>    3.3404    0.0000 </r>
       <r>    3.6650    0.0000 </r>
       <r>    3.6977    0.0000 </r>
       <r>    3.9791    0.0000 </r>
       <r>    4.6351    0.0000 </r>
       <r>    4.9206    0.0000 </r>
       <r>    5.0670    0.0000 </r>
       <r>    5.3437    0.0000 </r>
       <r>    5.3514    0.0000 </r>
       <r>    5.5675    0.0000 </r>
       <r>    5.5977    0.0000 </r>
       <r>    6.0107    0.0000 </r>
       <r>    6.0536    0.0000 </r>
       <r>    6.3275    0.0000 </r>
       <r>    6.4188    0.0000 </r>
       <r>    6.4877    0.0000 </r>
       <r>    6.4988    0.0000 </r>
       <r>    6.6846    0.0000 </r>
       <r>    6.8186    0.0000 </r>
       <r>    6.9608    0.0000 </r>
       <r>    6.9851    0.0000 </r>
       <r>    7.0605    0.0000 </r>
      </set>
      <set comment="kpoint 6">
       <r>  -20.8821    1.0000 </r>
       <r>  -20.8815    1.0000 </r>
       <r>  -20.8805    1.0000 </r>
       <r>  -20.8800    1.0000 </r>
       <r>  -16.6421    1.0000 </r>
       <r>  -16.6334    1.0000 </r>
       <r>  -16.6264    1.0000 </r>
       <r>  -16.6114    1.0000 </r>
       <r>  -16.6072    1.0000 </r>
       <r>  -16.5911    1.0000 </r>
       <r>  -16.5876    1.0000 </r>
       <r>  -16.5770    1.0000 </r>
       <r>  -16.5392    1.0000 </r>
       <r>  -16.5390    1.0000 </r>
       <r>  -16.5383    1.0000 </r>
       <r>  -16.5382    1.0000 </r>
       <r>  -16.5145    1.0000 </r>
       <r>  -16.5143    1.0000 </r>
       <r>  -16.5141    1.0000 </r>
       <r>  -16.5139    1.0000 </r>
       <r>  -16.5054    1.0000 </r>
       <r>  -16.5053    1.0000 </r>
       <r>  -16.5050    1.0000 </r>
       <r>  -16.5048    1.0000 </r>
       <r>  -14.2529    1.0000 </r>
       <r>  -14.1585    1.0000 </r>
       <r>  -14.1366    1.0000 </r>
       <r>  -14.0700    1.0000 </r>
       <r>  -14.0686    1.0000 </r>
       <r>  -14.0342    1.0000 </r>
       <r>  -14.0205    1.0000 </r>
       <r>  -13.9967    1.0000 </r>
       <r>  -13.9617    1.0000 </r>
       <r>  -13.9158    1.0000 </r>
       <r>  -13.8383    1.0000 </r>
       <r>  -13.8119    1.0000 </r>
       <r>   -7.8811    1.0000 </r>
       <r>   -7.6483    1.0000 </r>
       <r>   -7.4771    1.0000 </r>
       <r>   -7.3039    1.0000 </r>
       <r>   -7.2902    1.0000 </r>
       <r>   -7.2882    1.0000 </r>
       <r>   -7.2831    1.0000 </r>
       <r>   -7.2782    1.0000 </r>
       <r>   -7.2712    1.0000 </r>
       <r>   -7.2644    1.0000 </r>
       <r>   -7.2564    1.0000 </r>
       <r>   -7.2549    1.0000 </r>
       <r>   -7.2527    1.0000 </r>
       <r>   -7.2434    1.0000 </r>
       <r>   -7.2404    1.0000 </r>
       <r>   -7.1721    1.0000 </r>
       <r>   -3.1990    1.0000 </r>
       <r>   -3.1938    1.0000 </r>
       <r>   -3.1640    1.0000 </r>
       <r>   -2.9940    1.0000 </r>
       <r>   -2.8244    1.0000 </r>
       <r>   -2.6962    1.0000 </r>
       <r>   -2.2961    1.0000 </r>
       <r>   -2.1711    1.0000 </r>
       <r>   -2.0887    1.0000 </r>
       <r>   -2.0625    1.0000 </r>
       <r>   -2.0262    1.0000 </r>
       <r>   -1.8157    1.0000 </r>
       <r>   -1.7676    1.0000 </r>
       <r>   -1.7190    1.0000 </r>
       <r>   -1.5785    1.0000 </r>
       <r>   -1.5702    1.0000 </r>
       <r>   -1.5209    1.0000 </r>
       <r>   -1.5074    1.0000 </r>
       <r>   -1.4844    1.0000 </r>
       <r>   -1.4536    1.0000 </r>
       <r>   -1.4271    1.0000 </r>
       <r>   -1.3877    1.0000 </r>
       <r>   -1.3833    1.0000 </r>
       <r>   -1.3504    1.0000 </r>
       <r>   -1.3242    1.0000 </r>
       <r>   -1.3111    1.0000 </r>
       <r>   -1.2472    1.0000 </r>
       <r>   -1.2138    1.0000 </r>
       <r>   -1.1691    1.0000 </r>
       <r>   -1.1470    1.0000 </r>
       <r>   -1.1241    1.0000 </r>
       <r>   -1.0321    1.0000 </r>
       <r>   -0.9303    1.0000 </r>
       <r>   -0.7964    1.0000 </r>
       <r>   -0.6000    1.0000 </r>
       <r>   -0.3534    1.0000 </r>
       <r>    2.6571    0.0000 </r>
       <r>    2.8186    0.0000 </r>
       <r>    2.9460    0.0000 </r>
       <r>    3.2866    0.0000 </r>
       <r>    3.7137    0.0000 </r>
       <r>    4.0038    0.0000 </r>
       <r>    4.6426    0.0000 </r>
       <r>    5.0364    0.0000 </r>
       <r>    5.1845    0.0000 </r>
       <r>    5.5795    0.0000 </r>
       <r>    5.6340    0.0000 </r>
       <r>    5.7055    0.0000 </r>
       <r>    5.8735    0.0000 </r>
       <r>    6.1972    0.0000 </r>
       <r>    6.2854    0.0000 </r>
       <r>    6.4178    0.0000 </r>
       <r>    6.5338    0.0000 </r>
       <r>    6.5637    0.0000 </r>
       <r>    6.6071    0.0000 </r>
       <r>    6.7361    0.0000 </r>
       <r>    6.8513    0.0000 </r>
       <r>    6.9233    0.0000 </r>
       <r>    7.0531    0.0000 </r>
       <r>    7.0781    0.0000 </r>
      </set>
      <set comment="kpoint 7">
       <r>  -20.8825    1.0000 </r>
       <r>  -20.8824    1.0000 </r>
       <r>  -20.8797    1.0000 </r>
       <r>  -20.8797    1.0000 </r>
       <r>  -16.6260    1.0000 </r>
       <r>  -16.6260    1.0000 </r>
       <r>  -16.6182    1.0000 </r>
       <r>  -16.6182    1.0000 </r>
       <r>  -16.6054    1.0000 </r>
       <r>  -16.6054    1.0000 </r>
       <r>  -16.5882    1.0000 </r>
       <r>  -16.5882    1.0000 </r>
       <r>  -16.5389    1.0000 </r>
       <r>  -16.5389    1.0000 </r>
       <r>  -16.5386    1.0000 </r>
       <r>  -16.5386    1.0000 </r>
       <r>  -16.5144    1.0000 </r>
       <r>  -16.5144    1.0000 </r>
       <r>  -16.5141    1.0000 </r>
       <r>  -16.5141    1.0000 </r>
       <r>  -16.5055    1.0000 </r>
       <r>  -16.5055    1.0000 </r>
       <r>  -16.5054    1.0000 </r>
       <r>  -16.5054    1.0000 </r>
       <r>  -14.2525    1.0000 </r>
       <r>  -14.2525    1.0000 </r>
       <r>  -14.1245    1.0000 </r>
       <r>  -14.1245    1.0000 </r>
       <r>  -14.0201    1.0000 </r>
       <r>  -14.0201    1.0000 </r>
       <r>  -13.9469    1.0000 </r>
       <r>  -13.9469    1.0000 </r>
       <r>  -13.9106    1.0000 </r>
       <r>  -13.9106    1.0000 </r>
       <r>  -13.8730    1.0000 </r>
       <r>  -13.8730    1.0000 </r>
       <r>   -7.8169    1.0000 </r>
       <r>   -7.8169    1.0000 </r>
       <r>   -7.3519    1.0000 </r>
       <r>   -7.3519    1.0000 </r>
       <r>   -7.3123    1.0000 </r>
       <r>   -7.3123    1.0000 </r>
       <r>   -7.2826    1.0000 </r>
       <r>   -7.2826    1.0000 </r>
       <r>   -7.2632    1.0000 </r>
       <r>   -7.2632    1.0000 </r>
       <r>   -7.2560    1.0000 </r>
       <r>   -7.2560    1.0000 </r>
       <r>   -7.2533    1.0000 </r>
       <r>   -7.2533    1.0000 </r>
       <r>   -7.2300    1.0000 </r>
       <r>   -7.2300    1.0000 </r>
       <r>   -3.0372    1.0000 </r>
       <r>   -3.0372    1.0000 </r>
       <r>   -2.7355    1.0000 </r>
       <r>   -2.7355    1.0000 </r>
       <r>   -2.4233    1.0000 </r>
       <r>   -2.4233    1.0000 </r>
       <r>   -2.4134    1.0000 </r>
       <r>   -2.4134    1.0000 </r>
       <r>   -2.2396    1.0000 </r>
       <r>   -2.2396    1.0000 </r>
       <r>   -2.0145    1.0000 </r>
       <r>   -2.0145    1.0000 </r>
       <r>   -1.7534    1.0000 </r>
       <r>   -1.7534    1.0000 </r>
       <r>   -1.7248    1.0000 </r>
       <r>   -1.7248    1.0000 </r>
       <r>   -1.5680    1.0000 </r>
       <r>   -1.5680    1.0000 </r>
       <r>   -1.5517    1.0000 </r>
       <r>   -1.5517    1.0000 </r>
       <r>   -1.4144    1.0000 </r>
       <r>   -1.4144    1.0000 </r>
       <r>   -1.3891    1.0000 </r>
       <r>   -1.3891    1.0000 </r>
       <r>   -1.2628    1.0000 </r>
       <r>   -1.2628    1.0000 </r>
       <r>   -1.1932    1.0000 </r>
       <r>   -1.1932    1.0000 </r>
       <r>   -1.1860    1.0000 </r>
       <r>   -1.1860    1.0000 </r>
       <r>   -1.1256    1.0000 </r>
       <r>   -1.1256    1.0000 </r>
       <r>   -0.9342    1.0000 </r>
       <r>   -0.9342    1.0000 </r>
       <r>   -0.7850    1.0000 </r>
       <r>   -0.7850    1.0000 </r>
       <r>    3.4938    0.0000 </r>
       <r>    3.4938    0.0000 </r>
       <r>    3.8145    0.0000 </r>
       <r>    3.8145    0.0000 </r>
       <r>    3.9653    0.0000 </r>
       <r>    3.9653    0.0000 </r>
       <r>    4.2919    0.0000 </r>
       <r>    4.2919    0.0000 </r>
       <r>    4.8301    0.0000 </r>
       <r>    4.8301    0.0000 </r>
       <r>    5.1942    0.0000 </r>
       <r>    5.1942    0.0000 </r>
       <r>    5.9110    0.0000 </r>
       <r>    5.9110    0.0000 </r>
       <r>    6.1083    0.0000 </r>
       <r>    6.1083    0.0000 </r>
       <r>    6.4327    0.0000 </r>
       <r>    6.4327    0.0000 </r>
       <r>    6.4519    0.0000 </r>
       <r>    6.4519    0.0000 </r>
       <r>    6.8035    0.0000 </r>
       <r>    6.8035    0.0000 </r>
       <r>    7.1357    0.0000 </r>
       <r>    7.1393    0.0000 </r>
      </set>
      <set comment="kpoint 8">
       <r>  -20.8817    1.0000 </r>
       <r>  -20.8817    1.0000 </r>
       <r>  -20.8804    1.0000 </r>
       <r>  -20.8804    1.0000 </r>
       <r>  -16.6321    1.0000 </r>
       <r>  -16.6321    1.0000 </r>
       <r>  -16.6203    1.0000 </r>
       <r>  -16.6203    1.0000 </r>
       <r>  -16.5996    1.0000 </r>
       <r>  -16.5996    1.0000 </r>
       <r>  -16.5862    1.0000 </r>
       <r>  -16.5862    1.0000 </r>
       <r>  -16.5388    1.0000 </r>
       <r>  -16.5388    1.0000 </r>
       <r>  -16.5388    1.0000 </r>
       <r>  -16.5388    1.0000 </r>
       <r>  -16.5143    1.0000 </r>
       <r>  -16.5143    1.0000 </r>
       <r>  -16.5141    1.0000 </r>
       <r>  -16.5141    1.0000 </r>
       <r>  -16.5053    1.0000 </r>
       <r>  -16.5053    1.0000 </r>
       <r>  -16.5052    1.0000 </r>
       <r>  -16.5052    1.0000 </r>
       <r>  -14.2130    1.0000 </r>
       <r>  -14.2130    1.0000 </r>
       <r>  -14.1242    1.0000 </r>
       <r>  -14.1242    1.0000 </r>
       <r>  -14.0588    1.0000 </r>
       <r>  -14.0588    1.0000 </r>
       <r>  -13.9773    1.0000 </r>
       <r>  -13.9773    1.0000 </r>
       <r>  -13.8928    1.0000 </r>
       <r>  -13.8928    1.0000 </r>
       <r>  -13.8664    1.0000 </r>
       <r>  -13.8664    1.0000 </r>
       <r>   -7.6933    1.0000 </r>
       <r>   -7.6933    1.0000 </r>
       <r>   -7.4579    1.0000 </r>
       <r>   -7.4579    1.0000 </r>
       <r>   -7.2982    1.0000 </r>
       <r>   -7.2982    1.0000 </r>
       <r>   -7.2781    1.0000 </r>
       <r>   -7.2781    1.0000 </r>
       <r>   -7.2662    1.0000 </r>
       <r>   -7.2661    1.0000 </r>
       <r>   -7.2629    1.0000 </r>
       <r>   -7.2629    1.0000 </r>
       <r>   -7.2498    1.0000 </r>
       <r>   -7.2498    1.0000 </r>
       <r>   -7.2340    1.0000 </r>
       <r>   -7.2340    1.0000 </r>
       <r>   -3.1557    1.0000 </r>
       <r>   -3.1557    1.0000 </r>
       <r>   -2.8050    1.0000 </r>
       <r>   -2.8050    1.0000 </r>
       <r>   -2.4935    1.0000 </r>
       <r>   -2.4935    1.0000 </r>
       <r>   -2.3987    1.0000 </r>
       <r>   -2.3987    1.0000 </r>
       <r>   -2.2050    1.0000 </r>
       <r>   -2.2050    1.0000 </r>
       <r>   -2.0182    1.0000 </r>
       <r>   -2.0182    1.0000 </r>
       <r>   -1.8035    1.0000 </r>
       <r>   -1.8035    1.0000 </r>
       <r>   -1.7474    1.0000 </r>
       <r>   -1.7474    1.0000 </r>
       <r>   -1.5578    1.0000 </r>
       <r>   -1.5578    1.0000 </r>
       <r>   -1.4501    1.0000 </r>
       <r>   -1.4501    1.0000 </r>
       <r>   -1.4125    1.0000 </r>
       <r>   -1.4125    1.0000 </r>
       <r>   -1.3255    1.0000 </r>
       <r>   -1.3255    1.0000 </r>
       <r>   -1.2622    1.0000 </r>
       <r>   -1.2622    1.0000 </r>
       <r>   -1.1978    1.0000 </r>
       <r>   -1.1978    1.0000 </r>
       <r>   -1.1344    1.0000 </r>
       <r>   -1.1344    1.0000 </r>
       <r>   -1.1073    1.0000 </r>
       <r>   -1.1073    1.0000 </r>
       <r>   -0.9034    1.0000 </r>
       <r>   -0.9034    1.0000 </r>
       <r>   -0.7112    1.0000 </r>
       <r>   -0.7112    1.0000 </r>
       <r>    3.1076    0.0000 </r>
       <r>    3.1076    0.0000 </r>
       <r>    3.8465    0.0000 </r>
       <r>    3.8465    0.0000 </r>
       <r>    4.0352    0.0000 </r>
       <r>    4.0352    0.0000 </r>
       <r>    4.1544    0.0000 </r>
       <r>    4.1544    0.0000 </r>
       <r>    4.8915    0.0000 </r>
       <r>    4.8915    0.0000 </r>
       <r>    5.5549    0.0000 </r>
       <r>    5.5549    0.0000 </r>
       <r>    6.1866    0.0000 </r>
       <r>    6.1866    0.0000 </r>
       <r>    6.2910    0.0000 </r>
       <r>    6.2910    0.0000 </r>
       <r>    6.5161    0.0000 </r>
       <r>    6.5161    0.0000 </r>
       <r>    6.6780    0.0000 </r>
       <r>    6.6780    0.0000 </r>
       <r>    6.8034    0.0000 </r>
       <r>    6.8034    0.0000 </r>
       <r>    6.9791    0.0000 </r>
       <r>    6.9791    0.0000 </r>
      </set>
     </set>
    </set>
   </array>
  </eigenvalues>
  <separator name="orbital magnetization" >
   <v name="MAGDIPOLOUT">      0.00000000      0.00000000      0.00000000</v>
  </separator>
  <dos>
   <i name="efermi">      0.24579046 </i>
   <total>
    <array>
     <dimension dim="1">gridpoints</dimension>
     <dimension dim="2">spin</dimension>
     <field>energy</field>
     <field>total</field>
     <field>integrated</field>
     <set>
      <set comment="spin 1">
       <r>   -22.2851     0.0000     0.0000 </r>
       <r>   -22.1824     0.0000     0.0000 </r>
       <r>   -22.0796     0.0000     0.0000 </r>
       <r>   -21.9769     0.0000     0.0000 </r>
       <r>   -21.8741     0.0000     0.0000 </r>
       <r>   -21.7713     0.0000     0.0000 </r>
       <r>   -21.6686     0.0000     0.0000 </r>
       <r>   -21.5658     0.0000     0.0000 </r>
       <r>   -21.4630     0.0000     0.0000 </r>
       <r>   -21.3603     0.0000     0.0000 </r>
       <r>   -21.2575     0.0000     0.0000 </r>
       <r>   -21.1547     0.0000     0.0000 </r>
       <r>   -21.0520     0.0000     0.0000 </r>
       <r>   -20.9492     0.0000     0.0000 </r>
       <r>   -20.8465    77.8485     8.0000 </r>
       <r>   -20.7437     0.0000     8.0000 </r>
       <r>   -20.6409     0.0000     8.0000 </r>
       <r>   -20.5382     0.0000     8.0000 </r>
       <r>   -20.4354     0.0000     8.0000 </r>
       <r>   -20.3326     0.0000     8.0000 </r>
       <r>   -20.2299     0.0000     8.0000 </r>
       <r>   -20.1271     0.0000     8.0000 </r>
       <r>   -20.0243     0.0000     8.0000 </r>
       <r>   -19.9216     0.0000     8.0000 </r>
       <r>   -19.8188     0.0000     8.0000 </r>
       <r>   -19.7161     0.0000     8.0000 </r>
       <r>   -19.6133     0.0000     8.0000 </r>
       <r>   -19.5105     0.0000     8.0000 </r>
       <r>   -19.4078     0.0000     8.0000 </r>
       <r>   -19.3050     0.0000     8.0000 </r>
       <r>   -19.2022     0.0000     8.0000 </r>
       <r>   -19.0995     0.0000     8.0000 </r>
       <r>   -18.9967     0.0000     8.0000 </r>
       <r>   -18.8939     0.0000     8.0000 </r>
       <r>   -18.7912     0.0000     8.0000 </r>
       <r>   -18.6884     0.0000     8.0000 </r>
       <r>   -18.5857     0.0000     8.0000 </r>
       <r>   -18.4829     0.0000     8.0000 </r>
       <r>   -18.3801     0.0000     8.0000 </r>
       <r>   -18.2774     0.0000     8.0000 </r>
       <r>   -18.1746     0.0000     8.0000 </r>
       <r>   -18.0718     0.0000     8.0000 </r>
       <r>   -17.9691     0.0000     8.0000 </r>
       <r>   -17.8663     0.0000     8.0000 </r>
       <r>   -17.7635     0.0000     8.0000 </r>
       <r>   -17.6608     0.0000     8.0000 </r>
       <r>   -17.5580     0.0000     8.0000 </r>
       <r>   -17.4553     0.0000     8.0000 </r>
       <r>   -17.3525     0.0000     8.0000 </r>
       <r>   -17.2497     0.0000     8.0000 </r>
       <r>   -17.1470     0.0000     8.0000 </r>
       <r>   -17.0442     0.0000     8.0000 </r>
       <r>   -16.9414     0.0000     8.0000 </r>
       <r>   -16.8387     0.0000     8.0000 </r>
       <r>   -16.7359     0.0000     8.0000 </r>
       <r>   -16.6331    22.1786    10.2792 </r>
       <r>   -16.5304   147.2906    31.1362 </r>
       <r>   -16.4276    77.8333    48.0000 </r>
       <r>   -16.3249     0.0000    48.0000 </r>
       <r>   -16.2221     0.0000    48.0000 </r>
       <r>   -16.1193     0.0000    48.0000 </r>
       <r>   -16.0166     0.0000    48.0000 </r>
       <r>   -15.9138     0.0000    48.0000 </r>
       <r>   -15.8110     0.0000    48.0000 </r>
       <r>   -15.7083     0.0000    48.0000 </r>
       <r>   -15.6055     0.0000    48.0000 </r>
       <r>   -15.5027     0.0000    48.0000 </r>
       <r>   -15.4000     0.0000    48.0000 </r>
       <r>   -15.2972     0.0000    48.0000 </r>
       <r>   -15.1945     0.0000    48.0000 </r>
       <r>   -15.0917     0.0000    48.0000 </r>
       <r>   -14.9889     0.0000    48.0000 </r>
       <r>   -14.8862     0.0000    48.0000 </r>
       <r>   -14.7834     0.0000    48.0000 </r>
       <r>   -14.6806     0.0000    48.0000 </r>
       <r>   -14.5779     0.0000    48.0000 </r>
       <r>   -14.4751     0.0000    48.0000 </r>
       <r>   -14.3723     0.0023    48.0002 </r>
       <r>   -14.2696     8.1734    48.9510 </r>
       <r>   -14.1668    19.3585    52.1005 </r>
       <r>   -14.0641    32.6504    56.2442 </r>
       <r>   -13.9613    53.2092    62.8014 </r>
       <r>   -13.8585    45.1115    69.1914 </r>
       <r>   -13.7558     9.7311    72.0000 </r>
       <r>   -13.6530     0.0000    72.0000 </r>
       <r>   -13.5502     0.0000    72.0000 </r>
       <r>   -13.4475     0.0000    72.0000 </r>
       <r>   -13.3447     0.0000    72.0000 </r>
       <r>   -13.2419     0.0000    72.0000 </r>
       <r>   -13.1392     0.0000    72.0000 </r>
       <r>   -13.0364     0.0000    72.0000 </r>
       <r>   -12.9337     0.0000    72.0000 </r>
       <r>   -12.8309     0.0000    72.0000 </r>
       <r>   -12.7281     0.0000    72.0000 </r>
       <r>   -12.6254     0.0000    72.0000 </r>
       <r>   -12.5226     0.0000    72.0000 </r>
       <r>   -12.4198     0.0000    72.0000 </r>
       <r>   -12.3171     0.0000    72.0000 </r>
       <r>   -12.2143     0.0000    72.0000 </r>
       <r>   -12.1115     0.0000    72.0000 </r>
       <r>   -12.0088     0.0000    72.0000 </r>
       <r>   -11.9060     0.0000    72.0000 </r>
       <r>   -11.8033     0.0000    72.0000 </r>
       <r>   -11.7005     0.0000    72.0000 </r>
       <r>   -11.5977     0.0000    72.0000 </r>
       <r>   -11.4950     0.0000    72.0000 </r>
       <r>   -11.3922     0.0000    72.0000 </r>
       <r>   -11.2894     0.0000    72.0000 </r>
       <r>   -11.1867     0.0000    72.0000 </r>
       <r>   -11.0839     0.0000    72.0000 </r>
       <r>   -10.9811     0.0000    72.0000 </r>
       <r>   -10.8784     0.0000    72.0000 </r>
       <r>   -10.7756     0.0000    72.0000 </r>
       <r>   -10.6729     0.0000    72.0000 </r>
       <r>   -10.5701     0.0000    72.0000 </r>
       <r>   -10.4673     0.0000    72.0000 </r>
       <r>   -10.3646     0.0000    72.0000 </r>
       <r>   -10.2618     0.0000    72.0000 </r>
       <r>   -10.1590     0.0000    72.0000 </r>
       <r>   -10.0563     0.0000    72.0000 </r>
       <r>    -9.9535     0.0000    72.0000 </r>
       <r>    -9.8507     0.0000    72.0000 </r>
       <r>    -9.7480     0.0000    72.0000 </r>
       <r>    -9.6452     0.0000    72.0000 </r>
       <r>    -9.5425     0.0000    72.0000 </r>
       <r>    -9.4397     0.0000    72.0000 </r>
       <r>    -9.3369     0.0000    72.0000 </r>
       <r>    -9.2342     0.0000    72.0000 </r>
       <r>    -9.1314     0.0000    72.0000 </r>
       <r>    -9.0286     0.0000    72.0000 </r>
       <r>    -8.9259     0.0000    72.0000 </r>
       <r>    -8.8231     0.0000    72.0000 </r>
       <r>    -8.7203     0.0000    72.0000 </r>
       <r>    -8.6176     0.0000    72.0000 </r>
       <r>    -8.5148     0.0000    72.0000 </r>
       <r>    -8.4121     0.0000    72.0000 </r>
       <r>    -8.3093     0.0000    72.0000 </r>
       <r>    -8.2065     0.6615    72.0680 </r>
       <r>    -8.1038     0.0000    72.1111 </r>
       <r>    -8.0010     5.1804    72.6435 </r>
       <r>    -7.8982     0.0334    72.7812 </r>
       <r>    -7.7955     9.7239    74.2215 </r>
       <r>    -7.6927     4.6338    74.6984 </r>
       <r>    -7.5899     8.6150    75.9964 </r>
       <r>    -7.4872     4.6599    76.4789 </r>
       <r>    -7.3844     8.8731    77.8007 </r>
       <r>    -7.2817    80.5224    86.4970 </r>
       <r>    -7.1789    79.6616   102.8533 </r>
       <r>    -7.0761     1.1329   103.3386 </r>
       <r>    -6.9734     2.1625   103.8889 </r>
       <r>    -6.8706     0.0000   103.8889 </r>
       <r>    -6.7678     0.1466   103.9040 </r>
       <r>    -6.6651     0.0000   104.0000 </r>
       <r>    -6.5623     0.0000   104.0000 </r>
       <r>    -6.4595     0.0000   104.0000 </r>
       <r>    -6.3568     0.0000   104.0000 </r>
       <r>    -6.2540     0.0000   104.0000 </r>
       <r>    -6.1512     0.0000   104.0000 </r>
       <r>    -6.0485     0.0000   104.0000 </r>
       <r>    -5.9457     0.0000   104.0000 </r>
       <r>    -5.8430     0.0000   104.0000 </r>
       <r>    -5.7402     0.0000   104.0000 </r>
       <r>    -5.6374     0.0000   104.0000 </r>
       <r>    -5.5347     0.0000   104.0000 </r>
       <r>    -5.4319     0.0000   104.0000 </r>
       <r>    -5.3291     0.0000   104.0000 </r>
       <r>    -5.2264     0.0000   104.0000 </r>
       <r>    -5.1236     0.0000   104.0000 </r>
       <r>    -5.0208     0.0000   104.0000 </r>
       <r>    -4.9181     0.0000   104.0000 </r>
       <r>    -4.8153     0.0000   104.0000 </r>
       <r>    -4.7126     0.0000   104.0000 </r>
       <r>    -4.6098     0.0000   104.0000 </r>
       <r>    -4.5070     0.0000   104.0000 </r>
       <r>    -4.4043     0.0000   104.0000 </r>
       <r>    -4.3015     0.0000   104.0000 </r>
       <r>    -4.1987     0.0000   104.0000 </r>
       <r>    -4.0960     0.0000   104.0000 </r>
       <r>    -3.9932     0.0000   104.0000 </r>
       <r>    -3.8904     0.0000   104.0000 </r>
       <r>    -3.7877     0.0000   104.0000 </r>
       <r>    -3.6849     0.0000   104.0000 </r>
       <r>    -3.5822     0.0000   104.0000 </r>
       <r>    -3.4794     0.0000   104.0000 </r>
       <r>    -3.3766     1.0366   104.1065 </r>
       <r>    -3.2739     3.2435   104.4444 </r>
       <r>    -3.1711    11.2116   105.5966 </r>
       <r>    -3.0683     9.2831   108.2873 </r>
       <r>    -2.9656    10.7489   109.4379 </r>
       <r>    -2.8628    12.7318   110.7528 </r>
       <r>    -2.7600    15.1384   112.6668 </r>
       <r>    -2.6573    10.8111   113.7778 </r>
       <r>    -2.5545     2.1625   114.0000 </r>
       <r>    -2.4518    10.8141   115.1113 </r>
       <r>    -2.3490    26.1381   117.7973 </r>
       <r>    -2.2462     9.4663   118.9728 </r>
       <r>    -2.1435    19.8543   121.8181 </r>
       <r>    -2.0407    17.3161   123.8906 </r>
       <r>    -1.9379     8.6268   126.7755 </r>
       <r>    -1.8352     4.3258   127.2223 </r>
       <r>    -1.7324    36.9672   131.9100 </r>
       <r>    -1.6296    12.1463   134.6928 </r>
       <r>    -1.5269    42.1136   139.6611 </r>
       <r>    -1.4241    42.1512   145.2206 </r>
       <r>    -1.3214    46.1881   152.0798 </r>
       <r>    -1.2186    36.5716   157.4249 </r>
       <r>    -1.1158    47.2371   164.2988 </r>
       <r>    -1.0131    22.6839   167.6644 </r>
       <r>    -0.9103    15.4776   169.2572 </r>
       <r>    -0.8075     5.6575   170.5814 </r>
       <r>    -0.7048    16.8092   173.1718 </r>
       <r>    -0.6020     4.8878   173.8356 </r>
       <r>    -0.4992     0.0000   174.6667 </r>
       <r>    -0.3965     1.4129   174.8119 </r>
       <r>    -0.2937     5.3605   175.4398 </r>
       <r>    -0.1910     4.3179   175.8883 </r>
       <r>    -0.0882     0.0000   175.8889 </r>
       <r>     0.0146     0.0000   175.8889 </r>
       <r>     0.1173     0.0011   175.8890 </r>
       <r>     0.2201     0.0000   176.0000 </r>
       <r>     0.3229     0.0000   176.0000 </r>
       <r>     0.4256     0.0000   176.0000 </r>
       <r>     0.5284     0.0000   176.0000 </r>
       <r>     0.6312     0.0000   176.0000 </r>
       <r>     0.7339     0.0000   176.0000 </r>
       <r>     0.8367     0.0000   176.0000 </r>
       <r>     0.9394     0.0000   176.0000 </r>
       <r>     1.0422     0.0000   176.0000 </r>
       <r>     1.1450     0.0000   176.0000 </r>
       <r>     1.2477     0.0000   176.0000 </r>
       <r>     1.3505     0.0000   176.0000 </r>
       <r>     1.4533     0.0000   176.0000 </r>
       <r>     1.5560     0.0000   176.0000 </r>
       <r>     1.6588     0.0000   176.0000 </r>
       <r>     1.7616     0.0000   176.0000 </r>
       <r>     1.8643     0.0000   176.0000 </r>
       <r>     1.9671     0.0000   176.0000 </r>
       <r>     2.0698     0.0000   176.0000 </r>
       <r>     2.1726     0.0000   176.0000 </r>
       <r>     2.2754     0.0000   176.0000 </r>
       <r>     2.3781     0.0000   176.0000 </r>
       <r>     2.4809     1.0813   176.1111 </r>
       <r>     2.5837     2.9374   176.4130 </r>
       <r>     2.6864     4.3312   177.1118 </r>
       <r>     2.7892     0.0001   177.3333 </r>
       <r>     2.8920     4.3736   177.7828 </r>
       <r>     2.9947     9.7310   178.8889 </r>
       <r>     3.0975     0.7801   178.9691 </r>
       <r>     3.2002     3.8005   180.2794 </r>
       <r>     3.3030     4.2806   180.7732 </r>
       <r>     3.4058     7.5686   181.5556 </r>
       <r>     3.5085     4.2459   181.9919 </r>
       <r>     3.6113     2.1622   182.2222 </r>
       <r>     3.7141     6.5620   182.8966 </r>
       <r>     3.8168     4.7512   183.5994 </r>
       <r>     3.9196    12.1544   185.0268 </r>
       <r>     4.0224    15.4159   186.9175 </r>
       <r>     4.1251     1.0724   187.8880 </r>
       <r>     4.2279     8.6497   188.8889 </r>
       <r>     4.3306     8.6498   189.7778 </r>
       <r>     4.4334     2.0992   189.9935 </r>
       <r>     4.5362     0.0007   190.0001 </r>
       <r>     4.6389     4.9953   190.5134 </r>
       <r>     4.7417     3.7490   191.2741 </r>
       <r>     4.8445     5.3153   191.8796 </r>
       <r>     4.9472    12.9746   193.2222 </r>
       <r>     5.0500     4.4061   193.6750 </r>
       <r>     5.1528     2.1303   194.2189 </r>
       <r>     5.2555    14.9450   195.7581 </r>
       <r>     5.3583     6.1059   196.4052 </r>
       <r>     5.4610     0.4561   196.7135 </r>
       <r>     5.5638    10.6257   197.8697 </r>
       <r>     5.6666     8.4889   199.4279 </r>
       <r>     5.7693     5.9542   200.2785 </r>
       <r>     5.8721     4.0809   200.7527 </r>
       <r>     5.9749     5.4057   201.8888 </r>
       <r>     6.0776     8.6392   202.7767 </r>
       <r>     6.1804    11.2711   203.9360 </r>
       <r>     6.2832     8.9368   206.0295 </r>
       <r>     6.3859     9.6374   208.4349 </r>
       <r>     6.4887    16.5164   210.1417 </r>
       <r>     6.5914    21.6825   212.7838 </r>
       <r>     6.6942    22.4229   215.5265 </r>
       <r>     6.7970    15.3789   217.1359 </r>
       <r>     6.8997     5.5947   219.2416 </r>
       <r>     7.0025    23.7660   222.1091 </r>
       <r>     7.1053    10.8120   223.3333 </r>
       <r>     7.2080     6.4874   224.0000 </r>
       <r>     7.3108     0.0000   224.0000 </r>
       <r>     7.4136     0.0000   224.0000 </r>
       <r>     7.5163     0.0000   224.0000 </r>
       <r>     7.6191     0.0000   224.0000 </r>
       <r>     7.7218     0.0000   224.0000 </r>
       <r>     7.8246     0.0000   224.0000 </r>
       <r>     7.9274     0.0000   224.0000 </r>
       <r>     8.0301     0.0000   224.0000 </r>
       <r>     8.1329     0.0000   224.0000 </r>
       <r>     8.2357     0.0000   224.0000 </r>
       <r>     8.3384     0.0000   224.0000 </r>
       <r>     8.4412     0.0000   224.0000 </r>
       <r>     8.5440     0.0000   224.0000 </r>
      </set>
     </set>
    </array>
   </total>
   <partial>
    <array>
     <dimension dim="1">gridpoints</dimension>
     <dimension dim="2">spin</dimension>
     <dimension dim="3">ion</dimension>
     <field>energy</field>
     <field>  s  </field>
     <field>  p  </field>
     <field>  d  </field>
     <set>
      <set comment="ion 1">
       <set comment="spin 1">
        <r>   -22.2851     0.0000     0.0000     0.0000 </r>
[...]
        <r>  0.0000  0.0002  0.0002 </r>
        <r>  0.0013  0.0774  0.0009 </r>
        <r>  0.0013  0.0898  0.0008 </r>
        <r>  0.0014  0.0969  0.0008 </r>
        <r>  0.0014  0.0832  0.0010 </r>
        <r>  0.0000  0.0066  0.0001 </r>
        <r>  0.0000  0.0003  0.0015 </r>
        <r>  0.0001  0.0057  0.0002 </r>
        <r>  0.0000  0.0000  0.0018 </r>
        <r>  0.0079  0.0170  0.0038 </r>
        <r>  0.0007  0.0096  0.0003 </r>
        <r>  0.0005  0.0083  0.0002 </r>
        <r>  0.0066  0.0196  0.0033 </r>
        <r>  0.0074  0.0157  0.0035 </r>
        <r>  0.0006  0.0089  0.0003 </r>
        <r>  0.0072  0.0209  0.0036 </r>
        <r>  0.0006  0.0089  0.0002 </r>
       </set>
       <set comment="band 93">
        <r>  0.0000  0.0000  0.0002 </r>
        <r>  0.0002  0.0003  0.0004 </r>
        <r>  0.0000  0.0000  0.0003 </r>
        <r>  0.0000  0.0008  0.0013 </r>
        <r>  0.0026  0.0791  0.0010 </r>
        <r>  0.0025  0.0838  0.0010 </r>
        <r>  0.0025  0.0826  0.0011 </r>
        <r>  0.0026  0.0786  0.0010 </r>
        <r>  0.0105  0.0004  0.0041 </r>
        <r>  0.0000  0.0644  0.0001 </r>
        <r>  0.0103  0.0003  0.0040 </r>
        <r>  0.0000  0.0665  0.0002 </r>
        <r>  0.0000  0.0055  0.0008 </r>
        <r>  0.0000  0.0015  0.0020 </r>
        <r>  0.0000  0.0006  0.0016 </r>
        <r>  0.0000  0.0024  0.0008 </r>
        <r>  0.0000  0.0055  0.0009 </r>
        <r>  0.0000  0.0015  0.0020 </r>
        <r>  0.0000  0.0024  0.0008 </r>
        <r>  0.0000  0.0006  0.0016 </r>
       </set>
       <set comment="band 94">
        <r>  0.0000  0.0008  0.0013 </r>
        <r>  0.0000  0.0000  0.0003 </r>
        <r>  0.0002  0.0003  0.0004 </r>
        <r>  0.0000  0.0000  0.0002 </r>
        <r>  0.0026  0.0786  0.0010 </r>
        <r>  0.0025  0.0826  0.0011 </r>
        <r>  0.0025  0.0838  0.0010 </r>
        <r>  0.0026  0.0791  0.0010 </r>
        <r>  0.0000  0.0665  0.0002 </r>
        <r>  0.0103  0.0003  0.0040 </r>
        <r>  0.0000  0.0644  0.0001 </r>
        <r>  0.0105  0.0004  0.0041 </r>
        <r>  0.0000  0.0024  0.0008 </r>
        <r>  0.0000  0.0006  0.0016 </r>
        <r>  0.0000  0.0015  0.0020 </r>
        <r>  0.0000  0.0055  0.0008 </r>
        <r>  0.0000  0.0024  0.0008 </r>
        <r>  0.0000  0.0006  0.0016 </r>
        <r>  0.0000  0.0055  0.0009 </r>
        <r>  0.0000  0.0015  0.0020 </r>
       </set>
       <set comment="band 95">
        <r>  0.0000  0.0001  0.0002 </r>
        <r>  0.0001  0.0007  0.0010 </r>
        <r>  0.0000  0.0002  0.0002 </r>
        <r>  0.0002  0.0002  0.0002 </r>
        <r>  0.0024  0.0867  0.0010 </r>
        <r>  0.0023  0.0788  0.0011 </r>
        <r>  0.0022  0.0799  0.0010 </r>
        <r>  0.0024  0.0869  0.0010 </r>
        <r>  0.0093  0.0002  0.0042 </r>
        <r>  0.0000  0.0594  0.0002 </r>
        <r>  0.0094  0.0002  0.0043 </r>
        <r>  0.0000  0.0577  0.0001 </r>
        <r>  0.0003  0.0032  0.0016 </r>
        <r>  0.0000  0.0039  0.0004 </r>
        <r>  0.0000  0.0058  0.0008 </r>
        <r>  0.0002  0.0061  0.0018 </r>
        <r>  0.0003  0.0032  0.0016 </r>
        <r>  0.0000  0.0039  0.0004 </r>
        <r>  0.0002  0.0061  0.0018 </r>
        <r>  0.0000  0.0059  0.0008 </r>
       </set>
       <set comment="band 96">
        <r>  0.0002  0.0002  0.0002 </r>
        <r>  0.0000  0.0002  0.0002 </r>
        <r>  0.0001  0.0007  0.0010 </r>
        <r>  0.0000  0.0001  0.0002 </r>
        <r>  0.0024  0.0869  0.0010 </r>
        <r>  0.0022  0.0799  0.0010 </r>
        <r>  0.0023  0.0788  0.0011 </r>
        <r>  0.0024  0.0867  0.0010 </r>
        <r>  0.0000  0.0577  0.0001 </r>
        <r>  0.0094  0.0002  0.0043 </r>
        <r>  0.0000  0.0594  0.0002 </r>
        <r>  0.0093  0.0002  0.0042 </r>
        <r>  0.0002  0.0061  0.0018 </r>
        <r>  0.0000  0.0058  0.0008 </r>
        <r>  0.0000  0.0039  0.0004 </r>
        <r>  0.0003  0.0032  0.0016 </r>
        <r>  0.0002  0.0061  0.0018 </r>
        <r>  0.0000  0.0059  0.0008 </r>
        <r>  0.0003  0.0032  0.0016 </r>
        <r>  0.0000  0.0039  0.0004 </r>
       </set>
       <set comment="band 97">
        <r>  0.0001  0.0002  0.0005 </r>
        <r>  0.0000  0.0001  0.0025 </r>
        <r>  0.0001  0.0004  0.0008 </r>
        <r>  0.0000  0.0001  0.0010 </r>
        <r>  0.0019  0.0406  0.0005 </r>
        <r>  0.0006  0.0392  0.0007 </r>
        <r>  0.0035  0.0990  0.0010 </r>
        <r>  0.0017  0.1363  0.0011 </r>
        <r>  0.0001  0.0041  0.0022 </r>
        <r>  0.0010  0.0034  0.0010 </r>
        <r>  0.0002  0.0044  0.0022 </r>
        <r>  0.0007  0.0043  0.0009 </r>
        <r>  0.0047  0.0574  0.0027 </r>
        <r>  0.0004  0.0026  0.0030 </r>
        <r>  0.0002  0.0007  0.0010 </r>
        <r>  0.0012  0.0215  0.0010 </r>
        <r>  0.0020  0.0180  0.0009 </r>
        <r>  0.0002  0.0010  0.0010 </r>
        <r>  0.0039  0.0609  0.0028 </r>
        <r>  0.0004  0.0022  0.0031 </r>
       </set>
       <set comment="band 98">
        <r>  0.0000  0.0001  0.0010 </r>
        <r>  0.0001  0.0004  0.0008 </r>
        <r>  0.0000  0.0001  0.0025 </r>
        <r>  0.0001  0.0002  0.0005 </r>
        <r>  0.0017  0.1363  0.0011 </r>
        <r>  0.0035  0.0990  0.0010 </r>
        <r>  0.0006  0.0392  0.0007 </r>
        <r>  0.0019  0.0406  0.0005 </r>
        <r>  0.0007  0.0043  0.0009 </r>
        <r>  0.0002  0.0044  0.0022 </r>
        <r>  0.0010  0.0034  0.0010 </r>
        <r>  0.0001  0.0041  0.0022 </r>
        <r>  0.0012  0.0215  0.0010 </r>
        <r>  0.0002  0.0007  0.0010 </r>
        <r>  0.0004  0.0026  0.0030 </r>
        <r>  0.0047  0.0574  0.0027 </r>
        <r>  0.0039  0.0609  0.0028 </r>
        <r>  0.0004  0.0022  0.0031 </r>
        <r>  0.0020  0.0180  0.0009 </r>
        <r>  0.0002  0.0010  0.0010 </r>
       </set>
       <set comment="band 99">
        <r>  0.0000  0.0001  0.0010 </r>
        <r>  0.0000  0.0000  0.0023 </r>
        <r>  0.0000  0.0001  0.0011 </r>
        <r>  0.0000  0.0000  0.0019 </r>
        <r>  0.0000  0.0877  0.0005 </r>
        <r>  0.0001  0.1080  0.0004 </r>
        <r>  0.0001  0.0657  0.0004 </r>
        <r>  0.0000  0.0534  0.0005 </r>
        <r>  0.0000  0.0014  0.0033 </r>
        <r>  0.0001  0.0034  0.0003 </r>
        <r>  0.0000  0.0013  0.0034 </r>
        <r>  0.0003  0.0015  0.0006 </r>
        <r>  0.0002  0.0010  0.0020 </r>
        <r>  0.0001  0.0392  0.0010 </r>
        <r>  0.0000  0.0587  0.0021 </r>
        <r>  0.0001  0.0020  0.0031 </r>
        <r>  0.0002  0.0017  0.0032 </r>
        <r>  0.0001  0.0630  0.0016 </r>
        <r>  0.0000  0.0013  0.0019 </r>
        <r>  0.0000  0.0348  0.0015 </r>
       </set>
       <set comment="band 100">
        <r>  0.0000  0.0000  0.0019 </r>
        <r>  0.0000  0.0001  0.0011 </r>
        <r>  0.0000  0.0000  0.0023 </r>
        <r>  0.0000  0.0001  0.0010 </r>
        <r>  0.0000  0.0534  0.0005 </r>
        <r>  0.0001  0.0657  0.0004 </r>
        <r>  0.0001  0.1080  0.0004 </r>
        <r>  0.0000  0.0877  0.0005 </r>
        <r>  0.0003  0.0015  0.0006 </r>
        <r>  0.0000  0.0013  0.0034 </r>
        <r>  0.0001  0.0034  0.0003 </r>
        <r>  0.0000  0.0014  0.0033 </r>
        <r>  0.0001  0.0020  0.0031 </r>
        <r>  0.0000  0.0587  0.0021 </r>
        <r>  0.0001  0.0392  0.0010 </r>
        <r>  0.0002  0.0010  0.0020 </r>
        <r>  0.0000  0.0013  0.0019 </r>
        <r>  0.0000  0.0348  0.0015 </r>
        <r>  0.0002  0.0017  0.0032 </r>
        <r>  0.0001  0.0630  0.0016 </r>
       </set>
       <set comment="band 101">
        <r>  0.0110  0.0057  0.0051 </r>
        <r>  0.0000  0.0008  0.0100 </r>
        <r>  0.0117  0.0065  0.0116 </r>
        <r>  0.0000  0.0007  0.0132 </r>
        <r>  0.0003  0.0035  0.0002 </r>
        <r>  0.0005  0.0063  0.0005 </r>
        <r>  0.0005  0.0063  0.0005 </r>
        <r>  0.0003  0.0036  0.0002 </r>
        <r>  0.0000  0.0053  0.0002 </r>
        <r>  0.0055  0.0093  0.0032 </r>
        <r>  0.0000  0.0055  0.0002 </r>
        <r>  0.0040  0.0066  0.0036 </r>
        <r>  0.0023  0.0050  0.0019 </r>
        <r>  0.0027  0.0015  0.0013 </r>
        <r>  0.0038  0.0024  0.0023 </r>
        <r>  0.0003  0.0029  0.0004 </r>
        <r>  0.0023  0.0050  0.0019 </r>
        <r>  0.0027  0.0015  0.0013 </r>
        <r>  0.0003  0.0030  0.0005 </r>
        <r>  0.0038  0.0024  0.0023 </r>
       </set>
       <set comment="band 102">
        <r>  0.0000  0.0007  0.0132 </r>
        <r>  0.0117  0.0065  0.0116 </r>
        <r>  0.0000  0.0008  0.0100 </r>
        <r>  0.0110  0.0057  0.0051 </r>
        <r>  0.0003  0.0036  0.0002 </r>
        <r>  0.0005  0.0063  0.0005 </r>
        <r>  0.0005  0.0063  0.0005 </r>
        <r>  0.0003  0.0035  0.0002 </r>
        <r>  0.0040  0.0066  0.0036 </r>
        <r>  0.0000  0.0055  0.0002 </r>
        <r>  0.0055  0.0093  0.0032 </r>
        <r>  0.0000  0.0053  0.0002 </r>
        <r>  0.0003  0.0029  0.0004 </r>
        <r>  0.0038  0.0024  0.0023 </r>
        <r>  0.0027  0.0015  0.0013 </r>
        <r>  0.0023  0.0050  0.0019 </r>
        <r>  0.0003  0.0030  0.0005 </r>
        <r>  0.0038  0.0024  0.0023 </r>
        <r>  0.0023  0.0050  0.0019 </r>
        <r>  0.0027  0.0015  0.0013 </r>
       </set>
       <set comment="band 103">
        <r>  0.0000  0.0003  0.0049 </r>
        <r>  0.0002  0.0004  0.0538 </r>
        <r>  0.0000  0.0007  0.0012 </r>
        <r>  0.0038  0.0027  0.0503 </r>
        <r>  0.0000  0.0070  0.0004 </r>
        <r>  0.0000  0.0013  0.0003 </r>
        <r>  0.0000  0.0013  0.0003 </r>
        <r>  0.0000  0.0069  0.0004 </r>
        <r>  0.0003  0.0141  0.0066 </r>
        <r>  0.0000  0.0018  0.0002 </r>
        <r>  0.0009  0.0095  0.0065 </r>
        <r>  0.0000  0.0001  0.0002 </r>
        <r>  0.0008  0.0034  0.0009 </r>
        <r>  0.0013  0.0063  0.0018 </r>
        <r>  0.0001  0.0006  0.0008 </r>
        <r>  0.0003  0.0017  0.0016 </r>
        <r>  0.0008  0.0034  0.0009 </r>
        <r>  0.0013  0.0063  0.0018 </r>
        <r>  0.0002  0.0017  0.0016 </r>
        <r>  0.0002  0.0006  0.0008 </r>
       </set>
       <set comment="band 104">
        <r>  0.0038  0.0027  0.0503 </r>
        <r>  0.0000  0.0007  0.0012 </r>
        <r>  0.0002  0.0004  0.0538 </r>
        <r>  0.0000  0.0003  0.0049 </r>
        <r>  0.0000  0.0069  0.0004 </r>
        <r>  0.0000  0.0013  0.0003 </r>
        <r>  0.0000  0.0013  0.0003 </r>
        <r>  0.0000  0.0070  0.0004 </r>
        <r>  0.0000  0.0001  0.0002 </r>
        <r>  0.0009  0.0095  0.0065 </r>
        <r>  0.0000  0.0018  0.0002 </r>
        <r>  0.0003  0.0141  0.0066 </r>
        <r>  0.0003  0.0017  0.0016 </r>
        <r>  0.0001  0.0006  0.0008 </r>
        <r>  0.0013  0.0063  0.0018 </r>
        <r>  0.0008  0.0034  0.0009 </r>
        <r>  0.0002  0.0017  0.0016 </r>
        <r>  0.0002  0.0006  0.0008 </r>
        <r>  0.0008  0.0034  0.0009 </r>
        <r>  0.0013  0.0063  0.0018 </r>
       </set>
       <set comment="band 105">
        <r>  0.0000  0.0006  0.0277 </r>
        <r>  0.0031  0.0043  0.0308 </r>
        <r>  0.0000  0.0004  0.0254 </r>
        <r>  0.0014  0.0024  0.0264 </r>
        <r>  0.0001  0.0045  0.0010 </r>
        <r>  0.0005  0.0035  0.0008 </r>
        <r>  0.0004  0.0039  0.0009 </r>
        <r>  0.0001  0.0052  0.0010 </r>
        <r>  0.0002  0.0051  0.0024 </r>
        <r>  0.0000  0.0017  0.0017 </r>
        <r>  0.0004  0.0076  0.0022 </r>
        <r>  0.0000  0.0003  0.0007 </r>
        <r>  0.0021  0.0002  0.0024 </r>
        <r>  0.0024  0.0022  0.0026 </r>
        <r>  0.0005  0.0010  0.0020 </r>
        <r>  0.0011  0.0041  0.0038 </r>
        <r>  0.0020  0.0002  0.0023 </r>
        <r>  0.0023  0.0022  0.0024 </r>
        <r>  0.0013  0.0041  0.0039 </r>
        <r>  0.0006  0.0010  0.0022 </r>
       </set>
       <set comment="band 106">
        <r>  0.0014  0.0024  0.0264 </r>
        <r>  0.0000  0.0004  0.0254 </r>
        <r>  0.0031  0.0043  0.0308 </r>
        <r>  0.0000  0.0006  0.0277 </r>
        <r>  0.0001  0.0052  0.0010 </r>
        <r>  0.0004  0.0039  0.0009 </r>
        <r>  0.0005  0.0035  0.0008 </r>
        <r>  0.0001  0.0045  0.0010 </r>
        <r>  0.0000  0.0003  0.0007 </r>
        <r>  0.0004  0.0076  0.0022 </r>
        <r>  0.0000  0.0017  0.0017 </r>
        <r>  0.0002  0.0051  0.0024 </r>
        <r>  0.0011  0.0041  0.0038 </r>
        <r>  0.0005  0.0010  0.0020 </r>
        <r>  0.0024  0.0022  0.0026 </r>
        <r>  0.0021  0.0002  0.0024 </r>
        <r>  0.0013  0.0041  0.0039 </r>
        <r>  0.0006  0.0010  0.0022 </r>
        <r>  0.0020  0.0002  0.0023 </r>
        <r>  0.0023  0.0022  0.0024 </r>
       </set>
       <set comment="band 107">
        <r>  0.0000  0.0000  0.0241 </r>
        <r>  0.0035  0.0056  0.0273 </r>
        <r>  0.0000  0.0005  0.0231 </r>
        <r>  0.0022  0.0044  0.0316 </r>
        <r>  0.0000  0.0016  0.0009 </r>
        <r>  0.0000  0.0088  0.0005 </r>
        <r>  0.0000  0.0086  0.0005 </r>
        <r>  0.0000  0.0016  0.0008 </r>
        <r>  0.0056  0.0038  0.0040 </r>
        <r>  0.0000  0.0016  0.0010 </r>
        <r>  0.0001  0.0044  0.0031 </r>
        <r>  0.0000  0.0046  0.0014 </r>
        <r>  0.0015  0.0011  0.0028 </r>
        <r>  0.0001  0.0021  0.0019 </r>
        <r>  0.0007  0.0019  0.0014 </r>
        <r>  0.0015  0.0061  0.0036 </r>
        <r>  0.0016  0.0011  0.0029 </r>
        <r>  0.0001  0.0021  0.0019 </r>
        <r>  0.0014  0.0060  0.0035 </r>
        <r>  0.0007  0.0018  0.0013 </r>
       </set>
       <set comment="band 108">
        <r>  0.0022  0.0044  0.0316 </r>
        <r>  0.0000  0.0005  0.0231 </r>
        <r>  0.0035  0.0056  0.0273 </r>
        <r>  0.0000  0.0000  0.0241 </r>
        <r>  0.0000  0.0016  0.0008 </r>
        <r>  0.0000  0.0086  0.0005 </r>
        <r>  0.0000  0.0088  0.0005 </r>
        <r>  0.0000  0.0016  0.0009 </r>
        <r>  0.0000  0.0046  0.0014 </r>
        <r>  0.0001  0.0044  0.0031 </r>
        <r>  0.0000  0.0016  0.0010 </r>
        <r>  0.0056  0.0038  0.0040 </r>
        <r>  0.0015  0.0061  0.0036 </r>
        <r>  0.0007  0.0019  0.0014 </r>
        <r>  0.0001  0.0021  0.0019 </r>
        <r>  0.0015  0.0011  0.0028 </r>
        <r>  0.0014  0.0060  0.0035 </r>
        <r>  0.0007  0.0018  0.0013 </r>
        <r>  0.0016  0.0011  0.0029 </r>
        <r>  0.0001  0.0021  0.0019 </r>
       </set>
       <set comment="band 109">
        <r>  0.0000  0.0014  0.0132 </r>
        <r>  0.0007  0.0025  0.0169 </r>
        <r>  0.0000  0.0003  0.0412 </r>
        <r>  0.0001  0.0026  0.0672 </r>
        <r>  0.0001  0.0063  0.0005 </r>
        <r>  0.0000  0.0042  0.0012 </r>
        <r>  0.0000  0.0043  0.0013 </r>
        <r>  0.0001  0.0067  0.0005 </r>
        <r>  0.0003  0.0067  0.0005 </r>
        <r>  0.0000  0.0011  0.0005 </r>
        <r>  0.0029  0.0074  0.0033 </r>
        <r>  0.0000  0.0009  0.0014 </r>
        <r>  0.0001  0.0038  0.0009 </r>
        <r>  0.0002  0.0033  0.0054 </r>
        <r>  0.0012  0.0021  0.0041 </r>
        <r>  0.0001  0.0014  0.0029 </r>
        <r>  0.0001  0.0037  0.0009 </r>
        <r>  0.0002  0.0032  0.0053 </r>
        <r>  0.0001  0.0014  0.0030 </r>
        <r>  0.0012  0.0021  0.0042 </r>
       </set>
       <set comment="band 110">
        <r>  0.0001  0.0026  0.0672 </r>
        <r>  0.0000  0.0003  0.0412 </r>
        <r>  0.0007  0.0025  0.0169 </r>
        <r>  0.0000  0.0014  0.0132 </r>
        <r>  0.0001  0.0067  0.0005 </r>
        <r>  0.0000  0.0043  0.0013 </r>
        <r>  0.0000  0.0042  0.0012 </r>
        <r>  0.0001  0.0063  0.0005 </r>
        <r>  0.0000  0.0009  0.0014 </r>
        <r>  0.0029  0.0074  0.0033 </r>
        <r>  0.0000  0.0011  0.0005 </r>
        <r>  0.0003  0.0067  0.0005 </r>
        <r>  0.0001  0.0014  0.0029 </r>
        <r>  0.0012  0.0021  0.0041 </r>
        <r>  0.0002  0.0033  0.0054 </r>
        <r>  0.0001  0.0038  0.0009 </r>
        <r>  0.0001  0.0014  0.0030 </r>
        <r>  0.0012  0.0021  0.0042 </r>
        <r>  0.0001  0.0037  0.0009 </r>
        <r>  0.0002  0.0032  0.0053 </r>
       </set>
       <set comment="band 111">
        <r>  0.0069  0.0044  0.0137 </r>
        <r>  0.0001  0.0008  0.0252 </r>
        <r>  0.0028  0.0017  0.0358 </r>
        <r>  0.0001  0.0007  0.0449 </r>
        <r>  0.0001  0.0069  0.0017 </r>
        <r>  0.0000  0.0070  0.0016 </r>
        <r>  0.0000  0.0046  0.0017 </r>
        <r>  0.0000  0.0095  0.0011 </r>
        <r>  0.0000  0.0006  0.0015 </r>
        <r>  0.0007  0.0048  0.0026 </r>
        <r>  0.0000  0.0002  0.0022 </r>
        <r>  0.0017  0.0090  0.0032 </r>
        <r>  0.0011  0.0024  0.0022 </r>
        <r>  0.0006  0.0018  0.0030 </r>
        <r>  0.0002  0.0042  0.0038 </r>
        <r>  0.0005  0.0013  0.0045 </r>
        <r>  0.0015  0.0025  0.0033 </r>
        <r>  0.0004  0.0014  0.0029 </r>
        <r>  0.0001  0.0012  0.0035 </r>
        <r>  0.0003  0.0045  0.0038 </r>
       </set>
       <set comment="band 112">
        <r>  0.0001  0.0007  0.0449 </r>
        <r>  0.0028  0.0017  0.0358 </r>
        <r>  0.0001  0.0008  0.0252 </r>
        <r>  0.0069  0.0044  0.0137 </r>
        <r>  0.0000  0.0095  0.0011 </r>
        <r>  0.0000  0.0046  0.0017 </r>
        <r>  0.0000  0.0070  0.0016 </r>
        <r>  0.0001  0.0069  0.0017 </r>
        <r>  0.0017  0.0090  0.0032 </r>
        <r>  0.0000  0.0002  0.0022 </r>
        <r>  0.0007  0.0048  0.0026 </r>
        <r>  0.0000  0.0006  0.0015 </r>
        <r>  0.0005  0.0013  0.0045 </r>
        <r>  0.0002  0.0042  0.0038 </r>
        <r>  0.0006  0.0018  0.0030 </r>
        <r>  0.0011  0.0024  0.0022 </r>
        <r>  0.0001  0.0012  0.0035 </r>
        <r>  0.0003  0.0045  0.0038 </r>
        <r>  0.0015  0.0025  0.0033 </r>
        <r>  0.0004  0.0014  0.0029 </r>
       </set>
      </set>
     </set>
    </set>
   </array>
  </projected>
 </calculation>
 <structure name="finalpos" >
  <crystal>
   <varray name="basis" >
    <v>       8.75681830       0.00000000       0.00000000 </v>
    <v>       0.00000000      12.23436010       0.00000000 </v>
    <v>       0.00000000       0.00000000       7.62023819 </v>
   </varray>
   <i name="volume">    816.38711953 </i>
   <varray name="rec_basis" >
    <v>       0.11419673       0.00000000       0.00000000 </v>
    <v>       0.00000000       0.08173701       0.00000000 </v>
    <v>       0.00000000       0.00000000       0.13122949 </v>
   </varray>
  </crystal>
  <varray name="positions" >
   <v>       0.07630993       0.25000000       0.46716500 </v>
   <v>       0.42369007       0.75000000       0.96716500 </v>
   <v>       0.57630993       0.25000000       0.03283500 </v>
   <v>       0.92369007       0.75000000       0.53283500 </v>
   <v>       0.00000000       0.00000000       0.00000000 </v>
   <v>       0.50000000       0.00000000       0.50000000 </v>
   <v>       0.50000000       0.50000000       0.50000000 </v>
   <v>       0.00000000       0.50000000       0.00000000 </v>
   <v>       0.50721759       0.75000000       0.45267432 </v>
   <v>       0.99278241       0.25000000       0.95267432 </v>
   <v>       0.00721759       0.75000000       0.04732568 </v>
   <v>       0.49278241       0.25000000       0.54732568 </v>
   <v>       0.30572534       0.46840758       0.17903872 </v>
   <v>       0.19427466       0.53159242       0.67903872 </v>
   <v>       0.80572534       0.03159242       0.32096128 </v>
   <v>       0.69427466       0.96840758       0.82096128 </v>
   <v>       0.30572534       0.03159242       0.17903872 </v>
   <v>       0.19427466       0.96840758       0.67903872 </v>
   <v>       0.69427466       0.53159242       0.82096128 </v>
   <v>       0.80572534       0.46840758       0.32096128 </v>
  </varray>
 </structure>
</modeling>
