CsPbBr3 cubic bulk                      
           1
     8.756818    0.000000    0.000000
     0.000000   12.234360    0.000000
     0.000000    0.000000    7.620238
   Cs   Pb   Br
   4   4  12
Direct configuration=     1
   0.07630993  0.25000000  0.46716500
   0.42369007  0.75000000  0.96716500
   0.57630993  0.25000000  0.03283500
   0.92369007  0.75000000  0.53283500
   0.00000000  0.00000000  0.00000000
   0.50000000  0.00000000  0.50000000
   0.50000000  0.50000000  0.50000000
   0.00000000  0.50000000  0.00000000
   0.50721759  0.75000000  0.45267432
   0.99278241  0.25000000  0.95267432
   0.00721759  0.75000000  0.04732568
   0.49278241  0.25000000  0.54732568
   0.30572534  0.46840758  0.17903872
   0.19427466  0.53159242  0.67903872
   0.80572534  0.03159242  0.32096128
   0.69427466  0.96840758  0.82096128
   0.30572534  0.03159242  0.17903872
   0.19427466  0.96840758  0.67903872
   0.69427466  0.53159242  0.82096128
   0.80572534  0.46840758  0.32096128
