  39  39   1   0
  0.4103261E+02  0.1166835E-08  0.1176381E-08  0.1166835E-08  0.5000000E-15
   1.0000000000000000E-004
  CAR 
 CsPbBr3 cubic bulk                      
      7.94023396    -22.73577562  301      0.93587844      1.00000000
    -22.736  0.0000E+00  0.0000E+00
    -22.634  0.0000E+00  0.0000E+00
    -22.531  0.0000E+00  0.0000E+00
    -22.429  0.0000E+00  0.0000E+00
    -22.327  0.0000E+00  0.0000E+00
    -22.225  0.0000E+00  0.0000E+00
    -22.122  0.0000E+00  0.0000E+00
    -22.020  0.0000E+00  0.0000E+00
    -21.918  0.0000E+00  0.0000E+00
    -21.815  0.0000E+00  0.0000E+00
    -21.713  0.0000E+00  0.0000E+00
    -21.611  0.0000E+00  0.0000E+00
    -21.509  0.0000E+00  0.0000E+00
    -21.406  0.0000E+00  0.0000E+00
    -21.304  0.1956E+02  0.2000E+01
    -21.202  0.0000E+00  0.2000E+01
    -21.100  0.0000E+00  0.2000E+01
    -20.997  0.3910E+02  0.5998E+01
    -20.895  0.7824E+02  0.1400E+02
    -20.793  0.0000E+00  0.1400E+02
    -20.691  0.0000E+00  0.1400E+02
    -20.588  0.0000E+00  0.1400E+02
    -20.486  0.0000E+00  0.1400E+02
    -20.384  0.0000E+00  0.1400E+02
    -20.282  0.0000E+00  0.1400E+02
    -20.179  0.0000E+00  0.1400E+02
    -20.077  0.0000E+00  0.1400E+02
    -19.975  0.0000E+00  0.1400E+02
    -19.873  0.0000E+00  0.1400E+02
    -19.770  0.0000E+00  0.1400E+02
    -19.668  0.0000E+00  0.1400E+02
    -19.566  0.0000E+00  0.1400E+02
    -19.464  0.0000E+00  0.1400E+02
    -19.361  0.0000E+00  0.1400E+02
    -19.259  0.0000E+00  0.1400E+02
    -19.157  0.0000E+00  0.1400E+02
    -19.055  0.0000E+00  0.1400E+02
    -18.952  0.0000E+00  0.1400E+02
    -18.850  0.0000E+00  0.1400E+02
    -18.748  0.0000E+00  0.1400E+02
    -18.646  0.0000E+00  0.1400E+02
    -18.543  0.0000E+00  0.1400E+02
    -18.441  0.0000E+00  0.1400E+02
    -18.339  0.0000E+00  0.1400E+02
    -18.237  0.0000E+00  0.1400E+02
    -18.134  0.0000E+00  0.1400E+02
    -18.032  0.0000E+00  0.1400E+02
    -17.930  0.0000E+00  0.1400E+02
    -17.828  0.0000E+00  0.1400E+02
    -17.725  0.0000E+00  0.1400E+02
    -17.623  0.0000E+00  0.1400E+02
    -17.521  0.0000E+00  0.1400E+02
    -17.419  0.0000E+00  0.1400E+02
    -17.316  0.0000E+00  0.1400E+02
    -17.214  0.0000E+00  0.1400E+02
    -17.112  0.0000E+00  0.1400E+02
    -17.010  0.6610E-13  0.1400E+02
    -16.907  0.4095E+02  0.1819E+02
    -16.805  0.1101E+03  0.3075E+02
    -16.703  0.1956E+03  0.5400E+02
    -16.601  0.0000E+00  0.5400E+02
    -16.498  0.9862E+02  0.6408E+02
    -16.396  0.1357E+03  0.8088E+02
    -16.294  0.0000E+00  0.9400E+02
    -16.192  0.0000E+00  0.9400E+02
    -16.089  0.0000E+00  0.9400E+02
    -15.987  0.0000E+00  0.9400E+02
    -15.885  0.0000E+00  0.9400E+02
    -15.783  0.0000E+00  0.9400E+02
    -15.680  0.1185E+02  0.9521E+02
    -15.578  0.0000E+00  0.9600E+02
    -15.476  0.0000E+00  0.9600E+02
    -15.374  0.0000E+00  0.9600E+02
    -15.271  0.0000E+00  0.9600E+02
    -15.169  0.0000E+00  0.9600E+02
    -15.067  0.0000E+00  0.9600E+02
    -14.965  0.0000E+00  0.9600E+02
    -14.862  0.0000E+00  0.9600E+02
    -14.760  0.4765E+01  0.9649E+02
    -14.658  0.9570E+01  0.9848E+02
    -14.556  0.2501E+02  0.1016E+03
    -14.453  0.7836E+01  0.1028E+03
    -14.351  0.1948E+02  0.1050E+03
    -14.249  0.3910E+02  0.1105E+03
    -14.146  0.8028E+02  0.1195E+03
    -14.044  0.4705E+02  0.1256E+03
    -13.942  0.4327E+02  0.1317E+03
    -13.840  0.3554E+02  0.1374E+03
    -13.737  0.1096E-07  0.1380E+03
    -13.635  0.3530E+02  0.1416E+03
    -13.533  0.0000E+00  0.1420E+03
    -13.431  0.0000E+00  0.1420E+03
    -13.328  0.0000E+00  0.1420E+03
    -13.226  0.0000E+00  0.1420E+03
    -13.124  0.0000E+00  0.1420E+03
    -13.022  0.0000E+00  0.1420E+03
    -12.919  0.0000E+00  0.1420E+03
    -12.817  0.0000E+00  0.1420E+03
    -12.715  0.0000E+00  0.1420E+03
    -12.613  0.0000E+00  0.1420E+03
    -12.510  0.0000E+00  0.1420E+03
    -12.408  0.0000E+00  0.1420E+03
    -12.306  0.0000E+00  0.1420E+03
    -12.204  0.0000E+00  0.1420E+03
    -12.101  0.0000E+00  0.1420E+03
    -11.999  0.0000E+00  0.1420E+03
    -11.897  0.0000E+00  0.1420E+03
    -11.795  0.0000E+00  0.1420E+03
    -11.692  0.0000E+00  0.1420E+03
    -11.590  0.0000E+00  0.1420E+03
    -11.488  0.0000E+00  0.1420E+03
    -11.386  0.0000E+00  0.1420E+03
    -11.283  0.0000E+00  0.1420E+03
    -11.181  0.0000E+00  0.1420E+03
    -11.079  0.0000E+00  0.1420E+03
    -10.977  0.0000E+00  0.1420E+03
    -10.874  0.0000E+00  0.1420E+03
    -10.772  0.0000E+00  0.1420E+03
    -10.670  0.0000E+00  0.1420E+03
    -10.568  0.0000E+00  0.1420E+03
    -10.465  0.0000E+00  0.1420E+03
    -10.363  0.0000E+00  0.1420E+03
    -10.261  0.0000E+00  0.1420E+03
    -10.159  0.0000E+00  0.1420E+03
    -10.056  0.0000E+00  0.1420E+03
     -9.954  0.0000E+00  0.1420E+03
     -9.852  0.0000E+00  0.1420E+03
     -9.750  0.0000E+00  0.1420E+03
     -9.647  0.0000E+00  0.1420E+03
     -9.545  0.0000E+00  0.1420E+03
     -9.443  0.0000E+00  0.1420E+03
     -9.341  0.0000E+00  0.1420E+03
     -9.238  0.0000E+00  0.1420E+03
     -9.136  0.0000E+00  0.1420E+03
     -9.034  0.0000E+00  0.1420E+03
     -8.932  0.0000E+00  0.1420E+03
     -8.829  0.0000E+00  0.1420E+03
     -8.727  0.0000E+00  0.1420E+03
     -8.625  0.0000E+00  0.1420E+03
     -8.523  0.1131E+01  0.1421E+03
     -8.420  0.1258E+02  0.1435E+03
     -8.318  0.5038E+01  0.1448E+03
     -8.216  0.3465E+01  0.1459E+03
     -8.114  0.4702E+01  0.1472E+03
     -8.011  0.6674E+01  0.1482E+03
     -7.909  0.7335E+01  0.1493E+03
     -7.807  0.9779E+01  0.1503E+03
     -7.705  0.2200E+02  0.1525E+03
     -7.602  0.1721E+02  0.1543E+03
     -7.500  0.3646E+02  0.1582E+03
     -7.398  0.1195E+03  0.1707E+03
     -7.296  0.2168E+03  0.1949E+03
     -7.193  0.1956E+02  0.1985E+03
     -7.091  0.2262E-01  0.1985E+03
     -6.989  0.7336E+01  0.1995E+03
     -6.887  0.2444E+01  0.1998E+03
     -6.784  0.1385E-03  0.1998E+03
     -6.682  0.2445E+01  0.2000E+03
     -6.580  0.0000E+00  0.2000E+03
     -6.477  0.0000E+00  0.2000E+03
     -6.375  0.0000E+00  0.2000E+03
     -6.273  0.0000E+00  0.2000E+03
     -6.171  0.0000E+00  0.2000E+03
     -6.068  0.0000E+00  0.2000E+03
     -5.966  0.0000E+00  0.2000E+03
     -5.864  0.0000E+00  0.2000E+03
     -5.762  0.0000E+00  0.2000E+03
     -5.659  0.0000E+00  0.2000E+03
     -5.557  0.0000E+00  0.2000E+03
     -5.455  0.0000E+00  0.2000E+03
     -5.353  0.0000E+00  0.2000E+03
     -5.250  0.0000E+00  0.2000E+03
     -5.148  0.0000E+00  0.2000E+03
     -5.046  0.0000E+00  0.2000E+03
     -4.944  0.0000E+00  0.2000E+03
     -4.841  0.0000E+00  0.2000E+03
     -4.739  0.0000E+00  0.2000E+03
     -4.637  0.0000E+00  0.2000E+03
     -4.535  0.0000E+00  0.2000E+03
     -4.432  0.0000E+00  0.2000E+03
     -4.330  0.0000E+00  0.2000E+03
     -4.228  0.0000E+00  0.2000E+03
     -4.126  0.0000E+00  0.2000E+03
     -4.023  0.0000E+00  0.2000E+03
     -3.921  0.2168E-04  0.2000E+03
     -3.819  0.9780E+01  0.2010E+03
     -3.717  0.0000E+00  0.2010E+03
     -3.614  0.1800E+01  0.2012E+03
     -3.512  0.1939E+02  0.2040E+03
     -3.410  0.1844E+02  0.2059E+03
     -3.308  0.1920E+02  0.2087E+03
     -3.205  0.6484E+01  0.2094E+03
     -3.103  0.2283E+02  0.2121E+03
     -3.001  0.2310E+02  0.2146E+03
     -2.899  0.1909E+02  0.2172E+03
     -2.796  0.1130E+02  0.2189E+03
     -2.694  0.2986E+02  0.2226E+03
     -2.592  0.2071E+02  0.2254E+03
     -2.490  0.4536E+02  0.2314E+03
     -2.387  0.2564E+02  0.2354E+03
     -2.285  0.3630E+02  0.2395E+03
     -2.183  0.4463E+02  0.2453E+03
     -2.081  0.2763E+02  0.2488E+03
     -1.978  0.2282E+02  0.2518E+03
     -1.876  0.3942E+02  0.2580E+03
     -1.774  0.4273E+02  0.2634E+03
     -1.672  0.4696E+02  0.2701E+03
     -1.569  0.7224E+02  0.2794E+03
     -1.467  0.8394E+02  0.2901E+03
     -1.365  0.8713E+02  0.3012E+03
     -1.263  0.5546E+02  0.3087E+03
     -1.160  0.6071E+02  0.3165E+03
     -1.058  0.4799E+02  0.3232E+03
     -0.956  0.4976E+02  0.3291E+03
     -0.854  0.2044E+02  0.3326E+03
     -0.751  0.1243E+02  0.3350E+03
     -0.649  0.1202E+02  0.3365E+03
     -0.547  0.1223E+02  0.3380E+03
     -0.445  0.1354E+02  0.3396E+03
     -0.342  0.4888E+01  0.3402E+03
     -0.240  0.4861E+01  0.3407E+03
     -0.138  0.2659E+01  0.3410E+03
     -0.036  0.6544E+00  0.3416E+03
      0.067  0.0000E+00  0.3418E+03
      0.169  0.0000E+00  0.3418E+03
      0.271  0.2422E+01  0.3420E+03
      0.373  0.0000E+00  0.3420E+03
      0.476  0.0000E+00  0.3420E+03
      0.578  0.0000E+00  0.3420E+03
      0.680  0.0000E+00  0.3420E+03
      0.782  0.0000E+00  0.3420E+03
      0.885  0.1495E+02  0.3435E+03
      0.987  0.0000E+00  0.3440E+03
      1.089  0.0000E+00  0.3440E+03
      1.192  0.0000E+00  0.3440E+03
      1.294  0.0000E+00  0.3440E+03
      1.396  0.0000E+00  0.3440E+03
      1.498  0.0000E+00  0.3440E+03
      1.601  0.0000E+00  0.3440E+03
      1.703  0.0000E+00  0.3440E+03
      1.805  0.0000E+00  0.3440E+03
      1.907  0.0000E+00  0.3440E+03
      2.010  0.0000E+00  0.3440E+03
      2.112  0.0000E+00  0.3440E+03
      2.214  0.0000E+00  0.3440E+03
      2.316  0.0000E+00  0.3440E+03
      2.419  0.1675E+01  0.3442E+03
      2.521  0.2445E+01  0.3445E+03
      2.623  0.1432E+02  0.3460E+03
      2.725  0.1360E+02  0.3476E+03
      2.828  0.2767E+01  0.3488E+03
      2.930  0.1653E+02  0.3509E+03
      3.032  0.3650E+01  0.3514E+03
      3.134  0.1192E+02  0.3527E+03
      3.237  0.1189E+02  0.3545E+03
      3.339  0.6272E+01  0.3554E+03
      3.441  0.4885E+01  0.3560E+03
      3.543  0.0000E+00  0.3560E+03
      3.646  0.0000E+00  0.3560E+03
      3.748  0.9516E+01  0.3570E+03
      3.850  0.9736E+01  0.3585E+03
      3.952  0.1863E+02  0.3604E+03
      4.055  0.1528E+02  0.3628E+03
      4.157  0.1289E+02  0.3643E+03
      4.259  0.2171E+02  0.3670E+03
      4.361  0.8457E+01  0.3686E+03
      4.464  0.2923E+02  0.3722E+03
      4.566  0.1559E+02  0.3743E+03
      4.668  0.2220E+02  0.3773E+03
      4.770  0.1968E+02  0.3798E+03
      4.873  0.3813E+01  0.3804E+03
      4.975  0.2445E+01  0.3807E+03
      5.077  0.7288E+01  0.3815E+03
      5.179  0.4880E+01  0.3820E+03
      5.282  0.9434E+01  0.3832E+03
      5.384  0.8479E+01  0.3841E+03
      5.486  0.1380E+02  0.3857E+03
      5.588  0.2225E+02  0.3883E+03
      5.691  0.7349E+01  0.3893E+03
      5.793  0.1250E+02  0.3908E+03
      5.895  0.2109E+02  0.3934E+03
      5.997  0.2089E+02  0.3959E+03
      6.100  0.2243E+02  0.3990E+03
      6.202  0.2076E+02  0.4024E+03
      6.304  0.2930E+02  0.4065E+03
      6.406  0.4102E+02  0.4119E+03
      6.509  0.1327E+02  0.4146E+03
      6.611  0.7335E+01  0.4160E+03
      6.713  0.0000E+00  0.4160E+03
      6.815  0.0000E+00  0.4160E+03
      6.918  0.0000E+00  0.4160E+03
      7.020  0.0000E+00  0.4160E+03
      7.122  0.0000E+00  0.4160E+03
      7.224  0.0000E+00  0.4160E+03
      7.327  0.0000E+00  0.4160E+03
      7.429  0.0000E+00  0.4160E+03
      7.531  0.0000E+00  0.4160E+03
      7.633  0.0000E+00  0.4160E+03
      7.736  0.0000E+00  0.4160E+03
      7.838  0.0000E+00  0.4160E+03
      7.940  0.0000E+00  0.4160E+03
      7.94023396    -22.73577562  301      0.93587844      1.00000000
    -22.736  0.0000E+00  0.0000E+00  0.0000E+00
    -22.634  0.0000E+00  0.0000E+00  0.0000E+00
    -22.531  0.0000E+00  0.0000E+00  0.0000E+00
    -22.429  0.0000E+00  0.0000E+00  0.0000E+00
    -22.327  0.0000E+00  0.0000E+00  0.0000E+00
    -22.225  0.0000E+00  0.0000E+00  0.0000E+00
    -22.122  0.0000E+00  0.0000E+00  0.0000E+00
    -22.020  0.0000E+00  0.0000E+00  0.0000E+00
    -21.918  0.0000E+00  0.0000E+00  0.0000E+00
    -21.815  0.0000E+00  0.0000E+00  0.0000E+00
    -21.713  0.0000E+00  0.0000E+00  0.0000E+00
    -21.611  0.0000E+00  0.0000E+00  0.0000E+00
    -21.509  0.0000E+00  0.0000E+00  0.0000E+00
    -21.406  0.0000E+00  0.0000E+00  0.0000E+00
    -21.304  0.1800E-04  0.3326E-07  0.5145E-08
    -21.202  0.0000E+00  0.0000E+00  0.0000E+00
    -21.100  0.0000E+00  0.0000E+00  0.0000E+00
    -20.997  0.1735E+02  0.8868E-04  0.2250E-05
    -20.895  0.2876E-02  0.2374E-06  0.2231E-07
    -20.793  0.0000E+00  0.0000E+00  0.0000E+00
    -20.691  0.0000E+00  0.0000E+00  0.0000E+00
    -20.588  0.0000E+00  0.0000E+00  0.0000E+00
    -20.486  0.0000E+00  0.0000E+00  0.0000E+00
    -20.384  0.0000E+00  0.0000E+00  0.0000E+00
    -20.282  0.0000E+00  0.0000E+00  0.0000E+00
    -20.179  0.0000E+00  0.0000E+00  0.0000E+00
    -20.077  0.0000E+00  0.0000E+00  0.0000E+00
    -19.975  0.0000E+00  0.0000E+00  0.0000E+00
    -19.873  0.0000E+00  0.0000E+00  0.0000E+00
    -19.770  0.0000E+00  0.0000E+00  0.0000E+00
    -19.668  0.0000E+00  0.0000E+00  0.0000E+00
    -19.566  0.0000E+00  0.0000E+00  0.0000E+00
    -19.464  0.0000E+00  0.0000E+00  0.0000E+00
    -19.361  0.0000E+00  0.0000E+00  0.0000E+00
    -19.259  0.0000E+00  0.0000E+00  0.0000E+00
    -19.157  0.0000E+00  0.0000E+00  0.0000E+00
    -19.055  0.0000E+00  0.0000E+00  0.0000E+00
    -18.952  0.0000E+00  0.0000E+00  0.0000E+00
    -18.850  0.0000E+00  0.0000E+00  0.0000E+00
    -18.748  0.0000E+00  0.0000E+00  0.0000E+00
    -18.646  0.0000E+00  0.0000E+00  0.0000E+00
    -18.543  0.0000E+00  0.0000E+00  0.0000E+00
    -18.441  0.0000E+00  0.0000E+00  0.0000E+00
    -18.339  0.0000E+00  0.0000E+00  0.0000E+00
    -18.237  0.0000E+00  0.0000E+00  0.0000E+00
    -18.134  0.0000E+00  0.0000E+00  0.0000E+00
    -18.032  0.0000E+00  0.0000E+00  0.0000E+00
    -17.930  0.0000E+00  0.0000E+00  0.0000E+00
    -17.828  0.0000E+00  0.0000E+00  0.0000E+00
    -17.725  0.0000E+00  0.0000E+00  0.0000E+00
    -17.623  0.0000E+00  0.0000E+00  0.0000E+00
    -17.521  0.0000E+00  0.0000E+00  0.0000E+00
    -17.419  0.0000E+00  0.0000E+00  0.0000E+00
    -17.316  0.0000E+00  0.0000E+00  0.0000E+00
    -17.214  0.0000E+00  0.0000E+00  0.0000E+00
    -17.112  0.0000E+00  0.0000E+00  0.0000E+00
    -17.010  0.1900E-19  0.7310E-20  0.2434E-20
    -16.907  0.2634E-04  0.1534E-04  0.3304E-05
    -16.805  0.4187E-04  0.4030E-04  0.7373E-05
    -16.703  0.3475E-04  0.1742E-04  0.2251E-05
    -16.601  0.0000E+00  0.0000E+00  0.0000E+00
    -16.498  0.4892E-04  0.4871E-04  0.9800E-05
    -16.396  0.2900E-04  0.2448E-04  0.2606E-05
    -16.294  0.0000E+00  0.0000E+00  0.0000E+00
    -16.192  0.0000E+00  0.0000E+00  0.0000E+00
    -16.089  0.0000E+00  0.0000E+00  0.0000E+00
    -15.987  0.0000E+00  0.0000E+00  0.0000E+00
    -15.885  0.0000E+00  0.0000E+00  0.0000E+00
    -15.783  0.0000E+00  0.0000E+00  0.0000E+00
    -15.680  0.1838E-06  0.1379E-05  0.3772E-06
    -15.578  0.0000E+00  0.0000E+00  0.0000E+00
    -15.476  0.0000E+00  0.0000E+00  0.0000E+00
    -15.374  0.0000E+00  0.0000E+00  0.0000E+00
    -15.271  0.0000E+00  0.0000E+00  0.0000E+00
    -15.169  0.0000E+00  0.0000E+00  0.0000E+00
    -15.067  0.0000E+00  0.0000E+00  0.0000E+00
    -14.965  0.0000E+00  0.0000E+00  0.0000E+00
    -14.862  0.0000E+00  0.0000E+00  0.0000E+00
    -14.760  0.2728E-03  0.1634E-03  0.6125E-05
    -14.658  0.1349E-02  0.1081E-02  0.4026E-04
    -14.556  0.1987E-02  0.4007E-02  0.3201E-03
    -14.453  0.8352E-04  0.5298E-03  0.1624E-04
    -14.351  0.1207E-03  0.1385E-02  0.7229E-04
    -14.249  0.2538E-02  0.2427E-02  0.1106E-03
    -14.146  0.2085E-02  0.5545E-02  0.3985E-03
    -14.044  0.7308E-03  0.2957E-02  0.2468E-03
    -13.942  0.1128E-03  0.1997E-02  0.2184E-03
    -13.840  0.1228E-02  0.3125E-02  0.4384E-03
    -13.737  0.1891E-15  0.4076E-13  0.6415E-14
    -13.635  0.1309E-03  0.4957E-03  0.4312E-04
    -13.533  0.0000E+00  0.0000E+00  0.0000E+00
    -13.431  0.0000E+00  0.0000E+00  0.0000E+00
    -13.328  0.0000E+00  0.0000E+00  0.0000E+00
    -13.226  0.0000E+00  0.0000E+00  0.0000E+00
    -13.124  0.0000E+00  0.0000E+00  0.0000E+00
    -13.022  0.0000E+00  0.0000E+00  0.0000E+00
    -12.919  0.0000E+00  0.0000E+00  0.0000E+00
    -12.817  0.0000E+00  0.0000E+00  0.0000E+00
    -12.715  0.0000E+00  0.0000E+00  0.0000E+00
    -12.613  0.0000E+00  0.0000E+00  0.0000E+00
    -12.510  0.0000E+00  0.0000E+00  0.0000E+00
    -12.408  0.0000E+00  0.0000E+00  0.0000E+00
    -12.306  0.0000E+00  0.0000E+00  0.0000E+00
    -12.204  0.0000E+00  0.0000E+00  0.0000E+00
    -12.101  0.0000E+00  0.0000E+00  0.0000E+00
    -11.999  0.0000E+00  0.0000E+00  0.0000E+00
    -11.897  0.0000E+00  0.0000E+00  0.0000E+00
    -11.795  0.0000E+00  0.0000E+00  0.0000E+00
    -11.692  0.0000E+00  0.0000E+00  0.0000E+00
    -11.590  0.0000E+00  0.0000E+00  0.0000E+00
    -11.488  0.0000E+00  0.0000E+00  0.0000E+00
    -11.386  0.0000E+00  0.0000E+00  0.0000E+00
    -11.283  0.0000E+00  0.0000E+00  0.0000E+00
    -11.181  0.0000E+00  0.0000E+00  0.0000E+00
    -11.079  0.0000E+00  0.0000E+00  0.0000E+00
    -10.977  0.0000E+00  0.0000E+00  0.0000E+00
    -10.874  0.0000E+00  0.0000E+00  0.0000E+00
    -10.772  0.0000E+00  0.0000E+00  0.0000E+00
    -10.670  0.0000E+00  0.0000E+00  0.0000E+00
    -10.568  0.0000E+00  0.0000E+00  0.0000E+00
    -10.465  0.0000E+00  0.0000E+00  0.0000E+00
    -10.363  0.0000E+00  0.0000E+00  0.0000E+00
    -10.261  0.0000E+00  0.0000E+00  0.0000E+00
    -10.159  0.0000E+00  0.0000E+00  0.0000E+00
    -10.056  0.0000E+00  0.0000E+00  0.0000E+00
     -9.954  0.0000E+00  0.0000E+00  0.0000E+00
     -9.852  0.0000E+00  0.0000E+00  0.0000E+00
     -9.750  0.0000E+00  0.0000E+00  0.0000E+00
     -9.647  0.0000E+00  0.0000E+00  0.0000E+00
     -9.545  0.0000E+00  0.0000E+00  0.0000E+00
     -9.443  0.0000E+00  0.0000E+00  0.0000E+00
     -9.341  0.0000E+00  0.0000E+00  0.0000E+00
     -9.238  0.0000E+00  0.0000E+00  0.0000E+00
     -9.136  0.0000E+00  0.0000E+00  0.0000E+00
     -9.034  0.0000E+00  0.0000E+00  0.0000E+00
     -8.932  0.0000E+00  0.0000E+00  0.0000E+00
     -8.829  0.0000E+00  0.0000E+00  0.0000E+00
     -8.727  0.0000E+00  0.0000E+00  0.0000E+00
     -8.625  0.0000E+00  0.0000E+00  0.0000E+00
     -8.523  0.1279E-07  0.6738E-04  0.1375E-05
     -8.420  0.1144E-05  0.8463E-03  0.1334E-04
     -8.318  0.1278E-05  0.2181E-02  0.2960E-05
     -8.216  0.1516E-04  0.3277E-02  0.1281E-04
     -8.114  0.1364E-04  0.8324E-02  0.1679E-04
     -8.011  0.3143E-04  0.8038E-02  0.1777E-04
     -7.909  0.2316E-05  0.6144E-02  0.1880E-04
     -7.807  0.1322E-05  0.2632E-01  0.2310E-04
     -7.705  0.1214E-04  0.8863E-01  0.5703E-04
     -7.602  0.4771E-04  0.1664E+00  0.3133E-04
     -7.500  0.2483E-04  0.5129E+00  0.6086E-04
     -7.398  0.2207E-03  0.3709E+02  0.1888E-03
     -7.296  0.6269E-04  0.2482E+01  0.6595E-04
     -7.193  0.4899E-04  0.1748E+00  0.3912E-04
     -7.091  0.1228E-06  0.4787E-04  0.4866E-07
     -6.989  0.3832E-04  0.2353E-01  0.1444E-04
     -6.887  0.1309E-04  0.2763E-02  0.7771E-05
     -6.784  0.1232E-08  0.1781E-06  0.9615E-10
     -6.682  0.2175E-04  0.3144E-02  0.1697E-05
     -6.580  0.0000E+00  0.0000E+00  0.0000E+00
     -6.477  0.0000E+00  0.0000E+00  0.0000E+00
     -6.375  0.0000E+00  0.0000E+00  0.0000E+00
     -6.273  0.0000E+00  0.0000E+00  0.0000E+00
     -6.171  0.0000E+00  0.0000E+00  0.0000E+00
     -6.068  0.0000E+00  0.0000E+00  0.0000E+00
     -5.966  0.0000E+00  0.0000E+00  0.0000E+00
     -5.864  0.0000E+00  0.0000E+00  0.0000E+00
     -5.762  0.0000E+00  0.0000E+00  0.0000E+00
     -5.659  0.0000E+00  0.0000E+00  0.0000E+00
     -5.557  0.0000E+00  0.0000E+00  0.0000E+00
     -5.455  0.0000E+00  0.0000E+00  0.0000E+00
     -5.353  0.0000E+00  0.0000E+00  0.0000E+00
     -5.250  0.0000E+00  0.0000E+00  0.0000E+00
     -5.148  0.0000E+00  0.0000E+00  0.0000E+00
     -5.046  0.0000E+00  0.0000E+00  0.0000E+00
     -4.944  0.0000E+00  0.0000E+00  0.0000E+00
     -4.841  0.0000E+00  0.0000E+00  0.0000E+00
     -4.739  0.0000E+00  0.0000E+00  0.0000E+00
     -4.637  0.0000E+00  0.0000E+00  0.0000E+00
     -4.535  0.0000E+00  0.0000E+00  0.0000E+00
     -4.432  0.0000E+00  0.0000E+00  0.0000E+00
     -4.330  0.0000E+00  0.0000E+00  0.0000E+00
     -4.228  0.0000E+00  0.0000E+00  0.0000E+00
     -4.126  0.0000E+00  0.0000E+00  0.0000E+00
     -4.023  0.0000E+00  0.0000E+00  0.0000E+00
     -3.921  0.9951E-12  0.5061E-08  0.4905E-09
     -3.819  0.3518E-06  0.2498E-02  0.2417E-03
     -3.717  0.0000E+00  0.0000E+00  0.0000E+00
     -3.614  0.5466E-04  0.2336E-02  0.1015E-03
     -3.512  0.8730E-04  0.7071E-02  0.8922E-03
     -3.410  0.2124E-03  0.1753E-01  0.7957E-03
     -3.308  0.1171E-04  0.4087E-02  0.9935E-03
     -3.205  0.9035E-04  0.5196E-02  0.3534E-03
     -3.103  0.8806E-04  0.7960E-02  0.1614E-02
     -3.001  0.1868E-03  0.1022E-01  0.6401E-03
     -2.899  0.3146E-03  0.9550E-02  0.9636E-03
     -2.796  0.3033E-03  0.1318E-01  0.4272E-03
     -2.694  0.1970E-02  0.2640E-01  0.2257E-02
     -2.592  0.5396E-03  0.1595E-01  0.2157E-02
     -2.490  0.6083E-02  0.4445E-01  0.4960E-02
     -2.387  0.3960E-02  0.1537E-01  0.2606E-02
     -2.285  0.1413E-01  0.2635E-01  0.4166E-02
     -2.183  0.1516E-01  0.5463E-01  0.4450E-02
     -2.081  0.1787E-02  0.7622E-01  0.6163E-02
     -1.978  0.1279E-02  0.3846E-01  0.4777E-02
     -1.876  0.3999E-02  0.5733E-01  0.9333E-02
     -1.774  0.4686E-02  0.8695E-01  0.6985E-02
     -1.672  0.2204E-02  0.5093E-01  0.8457E-02
     -1.569  0.2903E-02  0.7448E-01  0.1653E-01
     -1.467  0.3381E-02  0.9824E-01  0.1707E-01
     -1.365  0.3465E-02  0.5964E-01  0.1477E-01
     -1.263  0.2600E-02  0.4026E-01  0.7163E-02
     -1.160  0.1564E-02  0.6004E-01  0.1713E-01
     -1.058  0.9528E-03  0.2928E-01  0.6795E-02
     -0.956  0.6531E-03  0.1519E-01  0.3665E-02
     -0.854  0.3307E-03  0.6462E-02  0.1261E-02
     -0.751  0.2766E-03  0.3122E-02  0.1160E-02
     -0.649  0.2065E-03  0.3254E-02  0.1164E-02
     -0.547  0.3061E-04  0.1409E-02  0.9056E-03
     -0.445  0.9663E-04  0.1733E-02  0.8143E-03
     -0.342  0.4942E-05  0.3706E-03  0.4522E-03
     -0.240  0.4829E-06  0.3192E-03  0.1340E-03
     -0.138  0.6951E-05  0.3623E-03  0.4840E-04
     -0.036  0.4788E-07  0.5047E-04  0.4339E-04
      0.067  0.0000E+00  0.0000E+00  0.0000E+00
      0.169  0.0000E+00  0.0000E+00  0.0000E+00
      0.271  0.2446E-06  0.5859E-04  0.1444E-03
      0.373  0.0000E+00  0.0000E+00  0.0000E+00
      0.476  0.0000E+00  0.0000E+00  0.0000E+00
      0.578  0.0000E+00  0.0000E+00  0.0000E+00
      0.680  0.0000E+00  0.0000E+00  0.0000E+00
      0.782  0.0000E+00  0.0000E+00  0.0000E+00
      0.885  0.1207E-04  0.1882E-03  0.9098E-04
      0.987  0.0000E+00  0.0000E+00  0.0000E+00
      1.089  0.0000E+00  0.0000E+00  0.0000E+00
      1.192  0.0000E+00  0.0000E+00  0.0000E+00
      1.294  0.0000E+00  0.0000E+00  0.0000E+00
      1.396  0.0000E+00  0.0000E+00  0.0000E+00
      1.498  0.0000E+00  0.0000E+00  0.0000E+00
      1.601  0.0000E+00  0.0000E+00  0.0000E+00
      1.703  0.0000E+00  0.0000E+00  0.0000E+00
      1.805  0.0000E+00  0.0000E+00  0.0000E+00
      1.907  0.0000E+00  0.0000E+00  0.0000E+00
      2.010  0.0000E+00  0.0000E+00  0.0000E+00
      2.112  0.0000E+00  0.0000E+00  0.0000E+00
      2.214  0.0000E+00  0.0000E+00  0.0000E+00
      2.316  0.0000E+00  0.0000E+00  0.0000E+00
      2.419  0.1819E-04  0.4438E-04  0.3882E-03
      2.521  0.7472E-04  0.5816E-04  0.3319E-03
      2.623  0.3688E-03  0.1038E-02  0.3421E-02
      2.725  0.5855E-03  0.3130E-02  0.3655E-02
      2.828  0.8626E-04  0.1005E-02  0.3118E-03
      2.930  0.5428E-03  0.1976E-02  0.2998E-02
      3.032  0.2591E-03  0.3593E-03  0.5943E-03
      3.134  0.3668E-03  0.1847E-02  0.2001E-02
      3.237  0.6856E-03  0.1297E-02  0.2827E-02
      3.339  0.8290E-04  0.1015E-02  0.7349E-03
      3.441  0.3300E-03  0.8387E-03  0.9855E-03
      3.543  0.0000E+00  0.0000E+00  0.0000E+00
      3.646  0.0000E+00  0.0000E+00  0.0000E+00
      3.748  0.2202E-03  0.1634E-02  0.3041E-02
      3.850  0.3077E-04  0.7992E-03  0.2865E-02
      3.952  0.5112E-03  0.1996E-02  0.9921E-02
      4.055  0.2671E-03  0.2320E-02  0.9660E-02
      4.157  0.1510E-02  0.3649E-02  0.2032E-02
      4.259  0.3346E-03  0.3270E-02  0.9221E-02
      4.361  0.4064E-03  0.2270E-02  0.4888E-02
      4.464  0.2478E-02  0.5259E-02  0.1067E-01
      4.566  0.1308E-02  0.1848E-02  0.6498E-02
      4.668  0.4287E-02  0.3567E-02  0.9590E-02
      4.770  0.1401E-01  0.4753E-02  0.8724E-02
      4.873  0.4320E-03  0.4993E-03  0.1576E-02
      4.975  0.2422E-05  0.3983E-03  0.1004E-02
      5.077  0.2811E-04  0.2929E-03  0.3166E-02
      5.179  0.6089E-02  0.3226E-03  0.3702E-02
      5.282  0.5105E-02  0.4288E-02  0.3903E-02
      5.384  0.7722E-03  0.1673E-02  0.5276E-02
      5.486  0.3309E-01  0.7085E-02  0.7469E-02
      5.588  0.5854E-02  0.4667E-02  0.3076E-01
      5.691  0.1102E-03  0.9900E-03  0.1313E-01
      5.793  0.7930E-03  0.8414E-03  0.2249E-01
      5.895  0.4782E-01  0.5957E-02  0.4279E-01
      5.997  0.3617E-01  0.1444E-01  0.1011E+00
      6.100  0.2159E-01  0.7672E-02  0.2721E+00
      6.202  0.3203E-01  0.6548E-02  0.2325E+00
      6.304  0.3793E-01  0.1028E-01  0.3714E+00
      6.406  0.2583E-01  0.3448E-01  0.6963E+00
      6.509  0.4501E-02  0.1687E-01  0.2617E+00
      6.611  0.1186E-01  0.1168E-01  0.9119E-01
      6.713  0.0000E+00  0.0000E+00  0.0000E+00
      6.815  0.0000E+00  0.0000E+00  0.0000E+00
      6.918  0.0000E+00  0.0000E+00  0.0000E+00
      7.020  0.0000E+00  0.0000E+00  0.0000E+00
      7.122  0.0000E+00  0.0000E+00  0.0000E+00
      7.224  0.0000E+00  0.0000E+00  0.0000E+00
      7.327  0.0000E+00  0.0000E+00  0.0000E+00
      7.429  0.0000E+00  0.0000E+00  0.0000E+00
      7.531  0.0000E+00  0.0000E+00  0.0000E+00
      7.633  0.0000E+00  0.0000E+00  0.0000E+00
      7.736  0.0000E+00  0.0000E+00  0.0000E+00
      7.838  0.0000E+00  0.0000E+00  0.0000E+00
      7.940  0.0000E+00  0.0000E+00  0.0000E+00
      7.94023396    -22.73577562  301      0.93587844      1.00000000
    -22.736  0.0000E+00  0.0000E+00  0.0000E+00
    -22.634  0.0000E+00  0.0000E+00  0.0000E+00
    -22.531  0.0000E+00  0.0000E+00  0.0000E+00
    -22.429  0.0000E+00  0.0000E+00  0.0000E+00
    -22.327  0.0000E+00  0.0000E+00  0.0000E+00
    -22.225  0.0000E+00  0.0000E+00  0.0000E+00
    -22.122  0.0000E+00  0.0000E+00  0.0000E+00
    -22.020  0.0000E+00  0.0000E+00  0.0000E+00
    -21.918  0.0000E+00  0.0000E+00  0.0000E+00
    -21.815  0.0000E+00  0.0000E+00  0.0000E+00
    -21.713  0.0000E+00  0.0000E+00  0.0000E+00
    -21.611  0.0000E+00  0.0000E+00  0.0000E+00
    -21.509  0.0000E+00  0.0000E+00  0.0000E+00
    -21.406  0.0000E+00  0.0000E+00  0.0000E+00
    -21.304  0.4977E-03  0.1232E-05  0.2686E-06
    -21.202  0.0000E+00  0.0000E+00  0.0000E+00
    -21.100  0.0000E+00  0.0000E+00  0.0000E+00
    -20.997  0.4310E-05  0.3983E-08  0.1873E-09
    -20.895  0.1736E+02  0.3827E-04  0.1532E-05
    -20.793  0.0000E+00  0.0000E+00  0.0000E+00
    -20.691  0.0000E+00  0.0000E+00  0.0000E+00
    -20.588  0.0000E+00  0.0000E+00  0.0000E+00
    -20.486  0.0000E+00  0.0000E+00  0.0000E+00
    -20.384  0.0000E+00  0.0000E+00  0.0000E+00
    -20.282  0.0000E+00  0.0000E+00  0.0000E+00
    -20.179  0.0000E+00  0.0000E+00  0.0000E+00
    -20.077  0.0000E+00  0.0000E+00  0.0000E+00
    -19.975  0.0000E+00  0.0000E+00  0.0000E+00
    -19.873  0.0000E+00  0.0000E+00  0.0000E+00
    -19.770  0.0000E+00  0.0000E+00  0.0000E+00
    -19.668  0.0000E+00  0.0000E+00  0.0000E+00
    -19.566  0.0000E+00  0.0000E+00  0.0000E+00
    -19.464  0.0000E+00  0.0000E+00  0.0000E+00
    -19.361  0.0000E+00  0.0000E+00  0.0000E+00
    -19.259  0.0000E+00  0.0000E+00  0.0000E+00
    -19.157  0.0000E+00  0.0000E+00  0.0000E+00
    -19.055  0.0000E+00  0.0000E+00  0.0000E+00
    -18.952  0.0000E+00  0.0000E+00  0.0000E+00
    -18.850  0.0000E+00  0.0000E+00  0.0000E+00
    -18.748  0.0000E+00  0.0000E+00  0.0000E+00
    -18.646  0.0000E+00  0.0000E+00  0.0000E+00
    -18.543  0.0000E+00  0.0000E+00  0.0000E+00
    -18.441  0.0000E+00  0.0000E+00  0.0000E+00
    -18.339  0.0000E+00  0.0000E+00  0.0000E+00
    -18.237  0.0000E+00  0.0000E+00  0.0000E+00
    -18.134  0.0000E+00  0.0000E+00  0.0000E+00
    -18.032  0.0000E+00  0.0000E+00  0.0000E+00
    -17.930  0.0000E+00  0.0000E+00  0.0000E+00
    -17.828  0.0000E+00  0.0000E+00  0.0000E+00
    -17.725  0.0000E+00  0.0000E+00  0.0000E+00
    -17.623  0.0000E+00  0.0000E+00  0.0000E+00
    -17.521  0.0000E+00  0.0000E+00  0.0000E+00
    -17.419  0.0000E+00  0.0000E+00  0.0000E+00
    -17.316  0.0000E+00  0.0000E+00  0.0000E+00
    -17.214  0.0000E+00  0.0000E+00  0.0000E+00
    -17.112  0.0000E+00  0.0000E+00  0.0000E+00
    -17.010  0.3550E-20  0.4748E-19  0.1261E-19
    -16.907  0.2899E-04  0.2058E-04  0.5383E-05
    -16.805  0.4405E-04  0.3968E-04  0.6062E-05
    -16.703  0.3641E-04  0.1659E-04  0.2057E-05
    -16.601  0.0000E+00  0.0000E+00  0.0000E+00
    -16.498  0.4960E-04  0.4468E-04  0.9159E-05
    -16.396  0.3149E-04  0.2459E-04  0.2630E-05
    -16.294  0.0000E+00  0.0000E+00  0.0000E+00
    -16.192  0.0000E+00  0.0000E+00  0.0000E+00
    -16.089  0.0000E+00  0.0000E+00  0.0000E+00
    -15.987  0.0000E+00  0.0000E+00  0.0000E+00
    -15.885  0.0000E+00  0.0000E+00  0.0000E+00
    -15.783  0.0000E+00  0.0000E+00  0.0000E+00
    -15.680  0.4606E-03  0.3090E-03  0.2523E-04
    -15.578  0.0000E+00  0.0000E+00  0.0000E+00
    -15.476  0.0000E+00  0.0000E+00  0.0000E+00
    -15.374  0.0000E+00  0.0000E+00  0.0000E+00
    -15.271  0.0000E+00  0.0000E+00  0.0000E+00
    -15.169  0.0000E+00  0.0000E+00  0.0000E+00
    -15.067  0.0000E+00  0.0000E+00  0.0000E+00
    -14.965  0.0000E+00  0.0000E+00  0.0000E+00
    -14.862  0.0000E+00  0.0000E+00  0.0000E+00
    -14.760  0.5042E-03  0.2608E-03  0.9095E-05
    -14.658  0.1385E-03  0.3100E-03  0.1687E-04
    -14.556  0.1389E-03  0.2831E-03  0.1890E-04
    -14.453  0.5479E-03  0.6514E-03  0.3031E-04
    -14.351  0.6805E-03  0.1163E-02  0.7492E-04
    -14.249  0.2697E-02  0.2533E-02  0.1325E-03
    -14.146  0.1817E-02  0.6087E-02  0.4494E-03
    -14.044  0.1092E-02  0.3407E-02  0.3523E-03
    -13.942  0.1261E-02  0.2986E-02  0.2696E-03
    -13.840  0.3088E-03  0.1100E-02  0.9508E-04
    -13.737  0.3055E-12  0.5739E-12  0.7609E-13
    -13.635  0.5324E-03  0.1811E-02  0.2336E-03