  40  40   1   0
  0.4000680E+02  0.1166835E-08  0.1176381E-08  0.1166835E-08  0.5000000E-15
   1.0000000000000000E-004
  CAR 
 CsPbBr3 cubic bulk                      
      8.37263374    -22.54721708  301      0.34635580      1.00000000
    -22.547  0.0000E+00  0.0000E+00
    -22.444  0.0000E+00  0.0000E+00
    -22.341  0.0000E+00  0.0000E+00
    -22.238  0.0000E+00  0.0000E+00
    -22.135  0.0000E+00  0.0000E+00
    -22.032  0.0000E+00  0.0000E+00
    -21.929  0.0000E+00  0.0000E+00
    -21.826  0.0000E+00  0.0000E+00
    -21.723  0.0000E+00  0.0000E+00
    -21.620  0.0000E+00  0.0000E+00
    -21.517  0.0000E+00  0.0000E+00
    -21.413  0.0000E+00  0.0000E+00
    -21.310  0.0000E+00  0.0000E+00
    -21.207  0.0000E+00  0.0000E+00
    -21.104  0.1941E+02  0.2000E+01
    -21.001  0.1940E+02  0.4000E+01
    -20.898  0.1297E-08  0.4000E+01
    -20.795  0.5822E+02  0.1000E+02
    -20.692  0.0000E+00  0.1000E+02
    -20.589  0.3648E+02  0.1376E+02
    -20.486  0.0000E+00  0.1400E+02
    -20.383  0.3050E-04  0.1400E+02
    -20.280  0.1940E+02  0.1600E+02
    -20.177  0.0000E+00  0.1600E+02
    -20.074  0.0000E+00  0.1600E+02
    -19.971  0.0000E+00  0.1600E+02
    -19.867  0.0000E+00  0.1600E+02
    -19.764  0.0000E+00  0.1600E+02
    -19.661  0.0000E+00  0.1600E+02
    -19.558  0.0000E+00  0.1600E+02
    -19.455  0.0000E+00  0.1600E+02
    -19.352  0.0000E+00  0.1600E+02
    -19.249  0.0000E+00  0.1600E+02
    -19.146  0.0000E+00  0.1600E+02
    -19.043  0.0000E+00  0.1600E+02
    -18.940  0.0000E+00  0.1600E+02
    -18.837  0.0000E+00  0.1600E+02
    -18.734  0.0000E+00  0.1600E+02
    -18.631  0.0000E+00  0.1600E+02
    -18.528  0.0000E+00  0.1600E+02
    -18.425  0.0000E+00  0.1600E+02
    -18.322  0.0000E+00  0.1600E+02
    -18.218  0.0000E+00  0.1600E+02
    -18.115  0.0000E+00  0.1600E+02
    -18.012  0.0000E+00  0.1600E+02
    -17.909  0.0000E+00  0.1600E+02
    -17.806  0.0000E+00  0.1600E+02
    -17.703  0.0000E+00  0.1600E+02
    -17.600  0.0000E+00  0.1600E+02
    -17.497  0.0000E+00  0.1600E+02
    -17.394  0.0000E+00  0.1600E+02
    -17.291  0.0000E+00  0.1600E+02
    -17.188  0.3544E+02  0.1965E+02
    -17.085  0.3881E+02  0.2600E+02
    -16.982  0.0000E+00  0.2600E+02
    -16.879  0.0000E+00  0.2600E+02
    -16.776  0.0000E+00  0.2600E+02
    -16.672  0.3033E-02  0.2600E+02
    -16.569  0.9686E+02  0.3598E+02
    -16.466  0.1236E+03  0.5073E+02
    -16.363  0.8021E+02  0.6177E+02
    -16.260  0.1132E+03  0.7967E+02
    -16.157  0.8490E+02  0.9000E+02
    -16.054  0.3881E+02  0.9600E+02
    -15.951  0.0000E+00  0.9600E+02
    -15.848  0.0000E+00  0.9600E+02
    -15.745  0.0000E+00  0.9600E+02
    -15.642  0.0000E+00  0.9600E+02
    -15.539  0.0000E+00  0.9600E+02
    -15.436  0.0000E+00  0.9600E+02
    -15.333  0.0000E+00  0.9600E+02
    -15.230  0.0000E+00  0.9600E+02
    -15.126  0.0000E+00  0.9600E+02
    -15.023  0.0000E+00  0.9600E+02
    -14.920  0.0000E+00  0.9600E+02
    -14.817  0.0000E+00  0.9600E+02
    -14.714  0.0000E+00  0.9600E+02
    -14.611  0.0000E+00  0.9600E+02
    -14.508  0.1907E+02  0.9797E+02
    -14.405  0.3880E+02  0.1020E+03
    -14.302  0.3558E+02  0.1059E+03
    -14.199  0.4979E+02  0.1111E+03
    -14.096  0.3153E+02  0.1160E+03
    -13.993  0.5694E+02  0.1219E+03
    -13.890  0.7716E-02  0.1220E+03
    -13.787  0.3153E+02  0.1260E+03
    -13.684  0.1940E+02  0.1280E+03
    -13.580  0.1941E+02  0.1300E+03
    -13.477  0.1123E+00  0.1300E+03
    -13.374  0.2714E+02  0.1340E+03
    -13.271  0.2935E+02  0.1380E+03
    -13.168  0.2426E+02  0.1420E+03
    -13.065  0.1941E+02  0.1440E+03
    -12.962  0.0000E+00  0.1440E+03
    -12.859  0.0000E+00  0.1440E+03
    -12.756  0.0000E+00  0.1440E+03
    -12.653  0.0000E+00  0.1440E+03
    -12.550  0.0000E+00  0.1440E+03
    -12.447  0.0000E+00  0.1440E+03
    -12.344  0.0000E+00  0.1440E+03
    -12.241  0.0000E+00  0.1440E+03
    -12.138  0.0000E+00  0.1440E+03
    -12.034  0.0000E+00  0.1440E+03
    -11.931  0.0000E+00  0.1440E+03
    -11.828  0.0000E+00  0.1440E+03
    -11.725  0.0000E+00  0.1440E+03
    -11.622  0.0000E+00  0.1440E+03
    -11.519  0.0000E+00  0.1440E+03
    -11.416  0.0000E+00  0.1440E+03
    -11.313  0.0000E+00  0.1440E+03
    -11.210  0.0000E+00  0.1440E+03
    -11.107  0.0000E+00  0.1440E+03
    -11.004  0.0000E+00  0.1440E+03
    -10.901  0.0000E+00  0.1440E+03
    -10.798  0.0000E+00  0.1440E+03
    -10.695  0.0000E+00  0.1440E+03
    -10.592  0.0000E+00  0.1440E+03
    -10.488  0.0000E+00  0.1440E+03
    -10.385  0.0000E+00  0.1440E+03
    -10.282  0.0000E+00  0.1440E+03
    -10.179  0.0000E+00  0.1440E+03
    -10.076  0.0000E+00  0.1440E+03
     -9.973  0.0000E+00  0.1440E+03
     -9.870  0.0000E+00  0.1440E+03
     -9.767  0.0000E+00  0.1440E+03
     -9.664  0.0000E+00  0.1440E+03
     -9.561  0.0000E+00  0.1440E+03
     -9.458  0.0000E+00  0.1440E+03
     -9.355  0.0000E+00  0.1440E+03
     -9.252  0.0000E+00  0.1440E+03
     -9.149  0.0000E+00  0.1440E+03
     -9.046  0.0000E+00  0.1440E+03
     -8.942  0.0000E+00  0.1440E+03
     -8.839  0.0000E+00  0.1440E+03
     -8.736  0.0000E+00  0.1440E+03
     -8.633  0.0000E+00  0.1440E+03
     -8.530  0.0000E+00  0.1440E+03
     -8.427  0.0000E+00  0.1440E+03
     -8.324  0.2426E+01  0.1443E+03
     -8.221  0.7277E+01  0.1450E+03
     -8.118  0.5283E+01  0.1458E+03
     -8.015  0.1710E+01  0.1464E+03
     -7.912  0.9104E+01  0.1474E+03
     -7.809  0.6347E+01  0.1482E+03
     -7.706  0.1117E+02  0.1497E+03
     -7.603  0.1550E+02  0.1516E+03
     -7.500  0.4690E+02  0.1571E+03
     -7.396  0.6756E+02  0.1660E+03
     -7.293  0.2572E+02  0.1702E+03
     -7.190  0.1314E+03  0.1860E+03
     -7.087  0.1558E+02  0.1879E+03
     -6.984  0.7515E+02  0.1980E+03
     -6.881  0.1905E+02  0.2012E+03
     -6.778  0.2714E+02  0.2043E+03
     -6.675  0.3577E-03  0.2078E+03
     -6.572  0.2425E+01  0.2080E+03
     -6.469  0.0000E+00  0.2080E+03
     -6.366  0.0000E+00  0.2080E+03
     -6.263  0.0000E+00  0.2080E+03
     -6.160  0.0000E+00  0.2080E+03
     -6.057  0.0000E+00  0.2080E+03
     -5.954  0.0000E+00  0.2080E+03
     -5.850  0.0000E+00  0.2080E+03
     -5.747  0.0000E+00  0.2080E+03
     -5.644  0.0000E+00  0.2080E+03
     -5.541  0.0000E+00  0.2080E+03
     -5.438  0.0000E+00  0.2080E+03
     -5.335  0.0000E+00  0.2080E+03
     -5.232  0.0000E+00  0.2080E+03
     -5.129  0.0000E+00  0.2080E+03
     -5.026  0.0000E+00  0.2080E+03
     -4.923  0.0000E+00  0.2080E+03
     -4.820  0.0000E+00  0.2080E+03
     -4.717  0.0000E+00  0.2080E+03
     -4.614  0.0000E+00  0.2080E+03
     -4.511  0.0000E+00  0.2080E+03
     -4.408  0.0000E+00  0.2080E+03
     -4.305  0.0000E+00  0.2080E+03
     -4.201  0.0000E+00  0.2080E+03
     -4.098  0.0000E+00  0.2080E+03
     -3.995  0.0000E+00  0.2080E+03
     -3.892  0.0000E+00  0.2080E+03
     -3.789  0.0000E+00  0.2080E+03
     -3.686  0.0000E+00  0.2080E+03
     -3.583  0.9659E+01  0.2090E+03
     -3.480  0.1430E+02  0.2105E+03
     -3.377  0.4851E+01  0.2110E+03
     -3.274  0.1975E+02  0.2130E+03
     -3.171  0.5136E+01  0.2140E+03
     -3.068  0.1069E+02  0.2154E+03
     -2.965  0.1633E+02  0.2172E+03
     -2.862  0.1531E+02  0.2193E+03
     -2.759  0.1929E+02  0.2217E+03
     -2.655  0.1540E+02  0.2243E+03
     -2.552  0.2476E+02  0.2273E+03
     -2.449  0.3135E+02  0.2310E+03
     -2.346  0.1832E+02  0.2336E+03
     -2.243  0.3778E+02  0.2381E+03
     -2.140  0.3737E+02  0.2426E+03
     -2.037  0.3544E+02  0.2474E+03
     -1.934  0.3233E+02  0.2521E+03
     -1.831  0.3862E+02  0.2572E+03
     -1.728  0.4533E+02  0.2634E+03
     -1.625  0.4375E+02  0.2700E+03
     -1.522  0.4989E+02  0.2761E+03
     -1.419  0.4456E+02  0.2823E+03
     -1.316  0.4689E+02  0.2888E+03
     -1.213  0.4751E+02  0.2951E+03
     -1.109  0.5207E+02  0.3021E+03
     -1.006  0.4443E+02  0.3088E+03
     -0.903  0.5812E+02  0.3165E+03
     -0.800  0.4191E+02  0.3231E+03
     -0.697  0.3779E+02  0.3286E+03
     -0.594  0.2765E+02  0.3321E+03
     -0.491  0.4508E+02  0.3381E+03
     -0.388  0.3132E+02  0.3417E+03
     -0.285  0.3155E+02  0.3455E+03
     -0.182  0.2895E+02  0.3487E+03
     -0.079  0.7277E+01  0.3500E+03
      0.024  0.9701E+01  0.3510E+03
      0.127  0.4712E+01  0.3517E+03
      0.230  0.2379E+01  0.3520E+03
      0.333  0.0000E+00  0.3520E+03
      0.437  0.0000E+00  0.3520E+03
      0.540  0.0000E+00  0.3520E+03
      0.643  0.0000E+00  0.3520E+03
      0.746  0.0000E+00  0.3520E+03
      0.849  0.0000E+00  0.3520E+03
      0.952  0.0000E+00  0.3520E+03
      1.055  0.0000E+00  0.3520E+03
      1.158  0.0000E+00  0.3520E+03
      1.261  0.0000E+00  0.3520E+03
      1.364  0.0000E+00  0.3520E+03
      1.467  0.0000E+00  0.3520E+03
      1.570  0.0000E+00  0.3520E+03
      1.673  0.0000E+00  0.3520E+03
      1.776  0.0000E+00  0.3520E+03
      1.879  0.0000E+00  0.3520E+03
      1.983  0.0000E+00  0.3520E+03
      2.086  0.0000E+00  0.3520E+03
      2.189  0.0000E+00  0.3520E+03
      2.292  0.0000E+00  0.3520E+03
      2.395  0.2387E+01  0.3522E+03
      2.498  0.5358E+01  0.3528E+03
      2.601  0.7112E+01  0.3540E+03
      2.704  0.8319E+01  0.3549E+03
      2.807  0.1120E+01  0.3551E+03
      2.910  0.5941E+01  0.3561E+03
      3.013  0.1579E+02  0.3584E+03
      3.116  0.7834E+01  0.3601E+03
      3.219  0.7447E+01  0.3615E+03
      3.322  0.1425E+02  0.3635E+03
      3.425  0.1558E+02  0.3651E+03
      3.529  0.7309E+01  0.3668E+03
      3.632  0.1047E+02  0.3681E+03
      3.735  0.9702E+01  0.3695E+03
      3.838  0.5978E+00  0.3696E+03
      3.941  0.5789E+01  0.3706E+03
      4.044  0.1863E+02  0.3732E+03
      4.147  0.1677E+02  0.3750E+03
      4.250  0.1297E+02  0.3766E+03
      4.353  0.9677E+01  0.3782E+03
      4.456  0.8271E+01  0.3791E+03
      4.559  0.9194E+01  0.3807E+03
      4.662  0.1492E+02  0.3823E+03
      4.765  0.5122E+01  0.3830E+03
      4.868  0.7579E+01  0.3840E+03
      4.971  0.1710E+02  0.3863E+03
      5.075  0.5916E+01  0.3874E+03
      5.178  0.1828E+02  0.3896E+03
      5.281  0.1455E+02  0.3912E+03
      5.384  0.1702E+01  0.3922E+03
      5.487  0.1061E+02  0.3938E+03
      5.590  0.1175E+02  0.3952E+03
      5.693  0.4664E+01  0.3965E+03
      5.796  0.2225E+02  0.3988E+03
      5.899  0.1499E+02  0.4008E+03
      6.002  0.1325E+02  0.4031E+03
      6.105  0.1968E+02  0.4060E+03
      6.208  0.2038E+02  0.4089E+03
      6.311  0.1294E+02  0.4111E+03
      6.414  0.2872E+02  0.4145E+03
      6.517  0.2207E+02  0.4173E+03
      6.621  0.2329E+02  0.4209E+03
      6.724  0.2911E+02  0.4245E+03
      6.827  0.3070E+02  0.4287E+03
      6.930  0.2423E+02  0.4315E+03
      7.033  0.2426E+01  0.4320E+03
      7.136  0.0000E+00  0.4320E+03
      7.239  0.0000E+00  0.4320E+03
      7.342  0.0000E+00  0.4320E+03
      7.445  0.0000E+00  0.4320E+03
      7.548  0.0000E+00  0.4320E+03
      7.651  0.0000E+00  0.4320E+03
      7.754  0.0000E+00  0.4320E+03
      7.857  0.0000E+00  0.4320E+03
      7.960  0.0000E+00  0.4320E+03
      8.063  0.0000E+00  0.4320E+03
      8.167  0.0000E+00  0.4320E+03
      8.270  0.0000E+00  0.4320E+03
      8.373  0.0000E+00  0.4320E+03
      8.37263374    -22.54721708  301      0.34635580      1.00000000
    -22.547  0.0000E+00  0.0000E+00  0.0000E+00
    -22.444  0.0000E+00  0.0000E+00  0.0000E+00
    -22.341  0.0000E+00  0.0000E+00  0.0000E+00
    -22.238  0.0000E+00  0.0000E+00  0.0000E+00
    -22.135  0.0000E+00  0.0000E+00  0.0000E+00
    -22.032  0.0000E+00  0.0000E+00  0.0000E+00
    -21.929  0.0000E+00  0.0000E+00  0.0000E+00
    -21.826  0.0000E+00  0.0000E+00  0.0000E+00
    -21.723  0.0000E+00  0.0000E+00  0.0000E+00
    -21.620  0.0000E+00  0.0000E+00  0.0000E+00
    -21.517  0.0000E+00  0.0000E+00  0.0000E+00
    -21.413  0.0000E+00  0.0000E+00  0.0000E+00
    -21.310  0.0000E+00  0.0000E+00  0.0000E+00
    -21.207  0.0000E+00  0.0000E+00  0.0000E+00
    -21.104  0.6987E-07  0.2366E-08  0.1567E-09
    -21.001  0.5016E-08  0.8460E-09  0.7876E-10
    -20.898  0.1697E-14  0.4330E-17  0.6294E-18
    -20.795  0.3163E-04  0.1006E-06  0.1561E-07
    -20.692  0.0000E+00  0.0000E+00  0.0000E+00
    -20.589  0.5562E-03  0.4616E-06  0.7287E-07
    -20.486  0.0000E+00  0.0000E+00  0.0000E+00
    -20.383  0.2705E-04  0.1471E-09  0.1397E-10
    -20.280  0.1721E+02  0.9360E-04  0.8889E-05
    -20.177  0.0000E+00  0.0000E+00  0.0000E+00
    -20.074  0.0000E+00  0.0000E+00  0.0000E+00
    -19.971  0.0000E+00  0.0000E+00  0.0000E+00
    -19.867  0.0000E+00  0.0000E+00  0.0000E+00
    -19.764  0.0000E+00  0.0000E+00  0.0000E+00
    -19.661  0.0000E+00  0.0000E+00  0.0000E+00
    -19.558  0.0000E+00  0.0000E+00  0.0000E+00
    -19.455  0.0000E+00  0.0000E+00  0.0000E+00
    -19.352  0.0000E+00  0.0000E+00  0.0000E+00
    -19.249  0.0000E+00  0.0000E+00  0.0000E+00
    -19.146  0.0000E+00  0.0000E+00  0.0000E+00
    -19.043  0.0000E+00  0.0000E+00  0.0000E+00
    -18.940  0.0000E+00  0.0000E+00  0.0000E+00
    -18.837  0.0000E+00  0.0000E+00  0.0000E+00
    -18.734  0.0000E+00  0.0000E+00  0.0000E+00
    -18.631  0.0000E+00  0.0000E+00  0.0000E+00
    -18.528  0.0000E+00  0.0000E+00  0.0000E+00
    -18.425  0.0000E+00  0.0000E+00  0.0000E+00
    -18.322  0.0000E+00  0.0000E+00  0.0000E+00
    -18.218  0.0000E+00  0.0000E+00  0.0000E+00
    -18.115  0.0000E+00  0.0000E+00  0.0000E+00
    -18.012  0.0000E+00  0.0000E+00  0.0000E+00
    -17.909  0.0000E+00  0.0000E+00  0.0000E+00
    -17.806  0.0000E+00  0.0000E+00  0.0000E+00
    -17.703  0.0000E+00  0.0000E+00  0.0000E+00
    -17.600  0.0000E+00  0.0000E+00  0.0000E+00
    -17.497  0.0000E+00  0.0000E+00  0.0000E+00
    -17.394  0.0000E+00  0.0000E+00  0.0000E+00
    -17.291  0.0000E+00  0.0000E+00  0.0000E+00
    -17.188  0.1018E-04  0.7632E-05  0.2027E-05
    -17.085  0.3223E-04  0.7508E-05  0.1079E-05
    -16.982  0.0000E+00  0.0000E+00  0.0000E+00
    -16.879  0.0000E+00  0.0000E+00  0.0000E+00
    -16.776  0.0000E+00  0.0000E+00  0.0000E+00
    -16.672  0.6625E-10  0.3370E-09  0.1023E-09
    -16.569  0.4248E-04  0.2147E-04  0.4055E-05
    -16.466  0.2162E-03  0.9552E-04  0.1448E-04
    -16.363  0.2991E-03  0.1340E-03  0.1973E-04
    -16.260  0.6641E-04  0.3295E-04  0.5452E-05
    -16.157  0.2477E-04  0.1738E-04  0.2060E-05
    -16.054  0.2720E-05  0.1481E-05  0.1936E-06
    -15.951  0.0000E+00  0.0000E+00  0.0000E+00
    -15.848  0.0000E+00  0.0000E+00  0.0000E+00
    -15.745  0.0000E+00  0.0000E+00  0.0000E+00
    -15.642  0.0000E+00  0.0000E+00  0.0000E+00
    -15.539  0.0000E+00  0.0000E+00  0.0000E+00
    -15.436  0.0000E+00  0.0000E+00  0.0000E+00
    -15.333  0.0000E+00  0.0000E+00  0.0000E+00
    -15.230  0.0000E+00  0.0000E+00  0.0000E+00
    -15.126  0.0000E+00  0.0000E+00  0.0000E+00
    -15.023  0.0000E+00  0.0000E+00  0.0000E+00
    -14.920  0.0000E+00  0.0000E+00  0.0000E+00
    -14.817  0.0000E+00  0.0000E+00  0.0000E+00
    -14.714  0.0000E+00  0.0000E+00  0.0000E+00
    -14.611  0.0000E+00  0.0000E+00  0.0000E+00
    -14.508  0.1086E-02  0.7549E-03  0.3741E-04
    -14.405  0.1511E-02  0.1540E-02  0.1207E-03
    -14.302  0.3063E-02  0.3366E-02  0.1795E-03
    -14.199  0.7829E-02  0.1067E-01  0.7686E-03
    -14.096  0.3612E-02  0.6444E-02  0.6372E-03
    -13.993  0.7833E-03  0.2272E-02  0.3875E-03
    -13.890  0.8751E-07  0.1388E-06  0.8607E-08
    -13.787  0.4483E-03  0.7190E-03  0.6208E-04
    -13.684  0.1895E-02  0.5358E-02  0.5871E-03
    -13.580  0.7869E-04  0.6274E-03  0.9379E-04
    -13.477  0.2970E-05  0.6966E-05  0.5423E-06
    -13.374  0.1279E-03  0.5705E-03  0.5366E-04
    -13.271  0.6052E-03  0.2287E-02  0.1992E-03
    -13.168  0.6477E-02  0.1456E-01  0.1147E-02
    -13.065  0.1443E-04  0.4601E-03  0.9369E-04
    -12.962  0.0000E+00  0.0000E+00  0.0000E+00
    -12.859  0.0000E+00  0.0000E+00  0.0000E+00
    -12.756  0.0000E+00  0.0000E+00  0.0000E+00
    -12.653  0.0000E+00  0.0000E+00  0.0000E+00
    -12.550  0.0000E+00  0.0000E+00  0.0000E+00
    -12.447  0.0000E+00  0.0000E+00  0.0000E+00
    -12.344  0.0000E+00  0.0000E+00  0.0000E+00
    -12.241  0.0000E+00  0.0000E+00  0.0000E+00
    -12.138  0.0000E+00  0.0000E+00  0.0000E+00
    -12.034  0.0000E+00  0.0000E+00  0.0000E+00
    -11.931  0.0000E+00  0.0000E+00  0.0000E+00
    -11.828  0.0000E+00  0.0000E+00  0.0000E+00
    -11.725  0.0000E+00  0.0000E+00  0.0000E+00
    -11.622  0.0000E+00  0.0000E+00  0.0000E+00
    -11.519  0.0000E+00  0.0000E+00  0.0000E+00
    -11.416  0.0000E+00  0.0000E+00  0.0000E+00
    -11.313  0.0000E+00  0.0000E+00  0.0000E+00
    -11.210  0.0000E+00  0.0000E+00  0.0000E+00
    -11.107  0.0000E+00  0.0000E+00  0.0000E+00
    -11.004  0.0000E+00  0.0000E+00  0.0000E+00
    -10.901  0.0000E+00  0.0000E+00  0.0000E+00
    -10.798  0.0000E+00  0.0000E+00  0.0000E+00
    -10.695  0.0000E+00  0.0000E+00  0.0000E+00
    -10.592  0.0000E+00  0.0000E+00  0.0000E+00
    -10.488  0.0000E+00  0.0000E+00  0.0000E+00
    -10.385  0.0000E+00  0.0000E+00  0.0000E+00
    -10.282  0.0000E+00  0.0000E+00  0.0000E+00
    -10.179  0.0000E+00  0.0000E+00  0.0000E+00
    -10.076  0.0000E+00  0.0000E+00  0.0000E+00
     -9.973  0.0000E+00  0.0000E+00  0.0000E+00
     -9.870  0.0000E+00  0.0000E+00  0.0000E+00
     -9.767  0.0000E+00  0.0000E+00  0.0000E+00
     -9.664  0.0000E+00  0.0000E+00  0.0000E+00
     -9.561  0.0000E+00  0.0000E+00  0.0000E+00
     -9.458  0.0000E+00  0.0000E+00  0.0000E+00
     -9.355  0.0000E+00  0.0000E+00  0.0000E+00
     -9.252  0.0000E+00  0.0000E+00  0.0000E+00
     -9.149  0.0000E+00  0.0000E+00  0.0000E+00
     -9.046  0.0000E+00  0.0000E+00  0.0000E+00
     -8.942  0.0000E+00  0.0000E+00  0.0000E+00
     -8.839  0.0000E+00  0.0000E+00  0.0000E+00
     -8.736  0.0000E+00  0.0000E+00  0.0000E+00
     -8.633  0.0000E+00  0.0000E+00  0.0000E+00
     -8.530  0.0000E+00  0.0000E+00  0.0000E+00
     -8.427  0.0000E+00  0.0000E+00  0.0000E+00
     -8.324  0.1230E-05  0.1118E-02  0.1103E-04
     -8.221  0.5352E-05  0.3141E-02  0.2733E-04
     -8.118  0.3485E-05  0.8172E-03  0.2399E-04
     -8.015  0.3048E-06  0.2045E-02  0.7094E-05
     -7.912  0.1172E-04  0.1097E-01  0.4010E-04
     -7.809  0.4428E-05  0.5961E-02  0.2846E-04
     -7.706  0.6771E-04  0.1638E-01  0.5723E-04
     -7.603  0.9559E-04  0.2264E-01  0.9553E-04
     -7.500  0.5976E-04  0.4990E-01  0.8178E-04
     -7.396  0.1182E-03  0.8318E-01  0.8496E-04
     -7.293  0.1113E-03  0.1210E+00  0.8133E-04
     -7.190  0.1549E-03  0.1951E+00  0.1478E-03
     -7.087  0.8370E-04  0.1827E+00  0.7894E-04
     -6.984  0.1032E-03  0.6216E+00  0.1115E-03
     -6.881  0.6543E-04  0.7531E+00  0.4187E-04
     -6.778  0.3575E-03  0.1654E+02  0.9034E-04
     -6.675  0.9718E-08  0.2942E-04  0.1762E-08
     -6.572  0.6590E-04  0.1995E+00  0.1195E-04
     -6.469  0.0000E+00  0.0000E+00  0.0000E+00
     -6.366  0.0000E+00  0.0000E+00  0.0000E+00
     -6.263  0.0000E+00  0.0000E+00  0.0000E+00
     -6.160  0.0000E+00  0.0000E+00  0.0000E+00
     -6.057  0.0000E+00  0.0000E+00  0.0000E+00
     -5.954  0.0000E+00  0.0000E+00  0.0000E+00
     -5.850  0.0000E+00  0.0000E+00  0.0000E+00
     -5.747  0.0000E+00  0.0000E+00  0.0000E+00
     -5.644  0.0000E+00  0.0000E+00  0.0000E+00
     -5.541  0.0000E+00  0.0000E+00  0.0000E+00
     -5.438  0.0000E+00  0.0000E+00  0.0000E+00
     -5.335  0.0000E+00  0.0000E+00  0.0000E+00
     -5.232  0.0000E+00  0.0000E+00  0.0000E+00
     -5.129  0.0000E+00  0.0000E+00  0.0000E+00
     -5.026  0.0000E+00  0.0000E+00  0.0000E+00
     -4.923  0.0000E+00  0.0000E+00  0.0000E+00
     -4.820  0.0000E+00  0.0000E+00  0.0000E+00
     -4.717  0.0000E+00  0.0000E+00  0.0000E+00
     -4.614  0.0000E+00  0.0000E+00  0.0000E+00
     -4.511  0.0000E+00  0.0000E+00  0.0000E+00
     -4.408  0.0000E+00  0.0000E+00  0.0000E+00
     -4.305  0.0000E+00  0.0000E+00  0.0000E+00
     -4.201  0.0000E+00  0.0000E+00  0.0000E+00
     -4.098  0.0000E+00  0.0000E+00  0.0000E+00
     -3.995  0.0000E+00  0.0000E+00  0.0000E+00
     -3.892  0.0000E+00  0.0000E+00  0.0000E+00
     -3.789  0.0000E+00  0.0000E+00  0.0000E+00
     -3.686  0.0000E+00  0.0000E+00  0.0000E+00
     -3.583  0.6342E-04  0.4700E-02  0.2972E-03
     -3.480  0.1340E-03  0.9604E-02  0.7938E-03
     -3.377  0.8838E-04  0.1077E-02  0.1720E-03
     -3.274  0.3071E-03  0.2151E-01  0.1366E-02
     -3.171  0.7106E-04  0.3766E-02  0.4407E-03
     -3.068  0.5208E-03  0.1039E-01  0.1304E-02
     -2.965  0.3008E-03  0.9736E-02  0.8517E-03
     -2.862  0.4704E-03  0.4869E-02  0.8728E-03
     -2.759  0.6639E-03  0.1441E-01  0.1224E-02
     -2.655  0.5547E-03  0.1490E-01  0.8276E-03
     -2.552  0.1849E-02  0.1773E-01  0.2405E-02
     -2.449  0.1779E-02  0.2127E-01  0.4016E-02
     -2.346  0.7961E-03  0.2678E-01  0.2301E-02
     -2.243  0.9793E-02  0.5114E-01  0.7407E-02
     -2.140  0.8490E-02  0.5692E-01  0.7175E-02
     -2.037  0.1086E-01  0.5050E-01  0.7462E-02
     -1.934  0.1078E-01  0.6006E-01  0.4283E-02
     -1.831  0.8969E-02  0.6335E-01  0.6540E-02
     -1.728  0.3667E-02  0.1169E+00  0.8162E-02
     -1.625  0.1667E-02  0.8300E-01  0.1153E-01
     -1.522  0.4634E-02  0.7696E-01  0.1130E-01
     -1.419  0.2504E-02  0.7701E-01  0.1034E-01
     -1.316  0.3102E-02  0.6698E-01  0.1013E-01
     -1.213  0.2779E-02  0.7177E-01  0.1243E-01
     -1.109  0.4241E-02  0.7257E-01  0.1036E-01
     -1.006  0.1892E-02  0.7482E-01  0.1092E-01
     -0.903  0.4682E-02  0.7672E-01  0.1326E-01
     -0.800  0.4392E-02  0.5335E-01  0.1073E-01
     -0.697  0.2864E-02  0.5268E-01  0.1030E-01
     -0.594  0.7776E-03  0.4783E-01  0.6076E-02
     -0.491  0.1576E-02  0.4417E-01  0.9575E-02
     -0.388  0.4573E-03  0.1722E-01  0.4198E-02
     -0.285  0.5647E-03  0.9885E-02  0.2455E-02
     -0.182  0.7658E-03  0.1202E-01  0.4455E-02
     -0.079  0.1307E-03  0.2422E-02  0.7833E-03
      0.024  0.2014E-03  0.5436E-02  0.1190E-02
      0.127  0.1216E-03  0.2681E-02  0.2277E-03
      0.230  0.1515E-04  0.1451E-03  0.1780E-03
      0.333  0.0000E+00  0.0000E+00  0.0000E+00
      0.437  0.0000E+00  0.0000E+00  0.0000E+00
      0.540  0.0000E+00  0.0000E+00  0.0000E+00
      0.643  0.0000E+00  0.0000E+00  0.0000E+00
      0.746  0.0000E+00  0.0000E+00  0.0000E+00
      0.849  0.0000E+00  0.0000E+00  0.0000E+00
      0.952  0.0000E+00  0.0000E+00  0.0000E+00
      1.055  0.0000E+00  0.0000E+00  0.0000E+00
      1.158  0.0000E+00  0.0000E+00  0.0000E+00
      1.261  0.0000E+00  0.0000E+00  0.0000E+00
      1.364  0.0000E+00  0.0000E+00  0.0000E+00
      1.467  0.0000E+00  0.0000E+00  0.0000E+00
      1.570  0.0000E+00  0.0000E+00  0.0000E+00
      1.673  0.0000E+00  0.0000E+00  0.0000E+00
      1.776  0.0000E+00  0.0000E+00  0.0000E+00
      1.879  0.0000E+00  0.0000E+00  0.0000E+00
      1.983  0.0000E+00  0.0000E+00  0.0000E+00
      2.086  0.0000E+00  0.0000E+00  0.0000E+00
      2.189  0.0000E+00  0.0000E+00  0.0000E+00
      2.292  0.0000E+00  0.0000E+00  0.0000E+00
      2.395  0.5110E-05  0.2138E-03  0.4927E-04
      2.498  0.1126E-03  0.3638E-03  0.8225E-03
      2.601  0.1415E-03  0.1214E-02  0.1729E-02
      2.704  0.1503E-04  0.8455E-03  0.2022E-02
      2.807  0.1306E-03  0.2269E-03  0.2558E-03
      2.910  0.5167E-03  0.1620E-02  0.1355E-02
      3.013  0.1136E-02  0.5703E-02  0.6036E-02
      3.116  0.2710E-04  0.1275E-02  0.2482E-02
      3.219  0.4857E-03  0.2548E-02  0.4078E-02
      3.322  0.1420E-02  0.6797E-02  0.8068E-02
      3.425  0.1195E-02  0.6467E-02  0.8111E-02
      3.529  0.2119E-03  0.1263E-02  0.2172E-02
      3.632  0.6467E-03  0.2375E-02  0.3439E-02
      3.735  0.4957E-03  0.1490E-02  0.3232E-02
      3.838  0.3336E-04  0.4852E-03  0.4178E-03
      3.941  0.2903E-03  0.1434E-02  0.3296E-02
      4.044  0.1558E-02  0.7229E-02  0.1090E-01
      4.147  0.1050E-02  0.4456E-02  0.8877E-02
      4.250  0.9702E-03  0.1809E-02  0.5647E-02
      4.353  0.2851E-03  0.2796E-02  0.2638E-02
      4.456  0.6053E-03  0.1465E-02  0.3572E-02
      4.559  0.3744E-03  0.3011E-02  0.3289E-02
      4.662  0.3641E-03  0.2810E-02  0.7607E-02
      4.765  0.5199E-03  0.4661E-03  0.1292E-02
      4.868  0.1460E-02  0.1716E-02  0.6273E-02
      4.971  0.2578E-02  0.3379E-02  0.6231E-02
      5.075  0.2430E-02  0.2565E-02  0.4248E-02
      5.178  0.2019E-02  0.6076E-02  0.2034E-01
      5.281  0.4094E-02  0.5565E-02  0.1481E-01
      5.384  0.2309E-03  0.1030E-02  0.1972E-02
      5.487  0.3137E-02  0.5845E-02  0.6822E-02
      5.590  0.5930E-02  0.4855E-02  0.1159E-01
      5.693  0.4710E-05  0.1531E-02  0.4861E-02
      5.796  0.8785E-02  0.5921E-02  0.2538E-01
      5.899  0.7556E-02  0.4378E-02  0.1824E-01
      6.002  0.5569E-02  0.3553E-02  0.1763E-01
      6.105  0.6192E-02  0.5462E-02  0.3800E-01
      6.208  0.5092E-02  0.8134E-02  0.3417E-01
      6.311  0.3889E-02  0.7661E-02  0.7852E-01
      6.414  0.1850E-01  0.1287E-01  0.1569E+00
      6.517  0.9158E-02  0.7901E-02  0.1528E+00
      6.621  0.1226E-01  0.1342E-01  0.1151E+00
      6.724  0.1905E-01  0.1820E-01  0.1863E+00
      6.827  0.2288E-01  0.2378E-01  0.2809E+00
      6.930  0.1439E-01  0.2434E-01  0.2829E+00
      7.033  0.7208E-02  0.4185E-02  0.2467E-01
      7.136  0.0000E+00  0.0000E+00  0.0000E+00
      7.239  0.0000E+00  0.0000E+00  0.0000E+00
      7.342  0.0000E+00  0.0000E+00  0.0000E+00
      7.445  0.0000E+00  0.0000E+00  0.0000E+00
      7.548  0.0000E+00  0.0000E+00  0.0000E+00
      7.651  0.0000E+00  0.0000E+00  0.0000E+00
      7.754  0.0000E+00  0.0000E+00  0.0000E+00
      7.857  0.0000E+00  0.0000E+00  0.0000E+00
      7.960  0.0000E+00  0.0000E+00  0.0000E+00
      8.063  0.0000E+00  0.0000E+00  0.0000E+00
      8.167  0.0000E+00  0.0000E+00  0.0000E+00
      8.270  0.0000E+00  0.0000E+00  0.0000E+00
      8.373  0.0000E+00  0.0000E+00  0.0000E+00
      8.37263374    -22.54721708  301      0.34635580      1.00000000
    -22.547  0.0000E+00  0.0000E+00  0.0000E+00
    -22.444  0.0000E+00  0.0000E+00  0.0000E+00
    -22.341  0.0000E+00  0.0000E+00  0.0000E+00
    -22.238  0.0000E+00  0.0000E+00  0.0000E+00
    -22.135  0.0000E+00  0.0000E+00  0.0000E+00
    -22.032  0.0000E+00  0.0000E+00  0.0000E+00
    -21.929  0.0000E+00  0.0000E+00  0.0000E+00
    -21.826  0.0000E+00  0.0000E+00  0.0000E+00
    -21.723  0.0000E+00  0.0000E+00  0.0000E+00
    -21.620  0.0000E+00  0.0000E+00  0.0000E+00
    -21.517  0.0000E+00  0.0000E+00  0.0000E+00
    -21.413  0.0000E+00  0.0000E+00  0.0000E+00
    -21.310  0.0000E+00  0.0000E+00  0.0000E+00
    -21.207  0.0000E+00  0.0000E+00  0.0000E+00
    -21.104  0.1722E+02  0.2786E-03  0.2171E-04
    -21.001  0.1033E-02  0.6571E-07  0.7672E-08
    -20.898  0.2995E-16  0.2366E-18  0.1066E-19
    -20.795  0.2245E-04  0.3867E-07  0.7375E-08
    -20.692  0.0000E+00  0.0000E+00  0.0000E+00
    -20.589  0.1011E-03  0.4218E-06  0.6451E-07
    -20.486  0.0000E+00  0.0000E+00  0.0000E+00
    -20.383  0.1734E-12  0.4122E-14  0.4384E-15
    -20.280  0.1103E-06  0.2631E-08  0.2794E-09
    -20.177  0.0000E+00  0.0000E+00  0.0000E+00
    -20.074  0.0000E+00  0.0000E+00  0.0000E+00
    -19.971  0.0000E+00  0.0000E+00  0.0000E+00
    -19.867  0.0000E+00  0.0000E+00  0.0000E+00
    -19.764  0.0000E+00  0.0000E+00  0.0000E+00
    -19.661  0.0000E+00  0.0000E+00  0.0000E+00
    -19.558  0.0000E+00  0.0000E+00  0.0000E+00
    -19.455  0.0000E+00  0.0000E+00  0.0000E+00
    -19.352  0.0000E+00  0.0000E+00  0.0000E+00
    -19.249  0.0000E+00  0.0000E+00  0.0000E+00
    -19.146  0.0000E+00  0.0000E+00  0.0000E+00
    -19.043  0.0000E+00  0.0000E+00  0.0000E+00
    -18.940  0.0000E+00  0.0000E+00  0.0000E+00
    -18.837  0.0000E+00  0.0000E+00  0.0000E+00
    -18.734  0.0000E+00  0.0000E+00  0.0000E+00
    -18.631  0.0000E+00  0.0000E+00  0.0000E+00
    -18.528  0.0000E+00  0.0000E+00  0.0000E+00
    -18.425  0.0000E+00  0.0000E+00  0.0000E+00
    -18.322  0.0000E+00  0.0000E+00  0.0000E+00
    -18.218  0.0000E+00  0.0000E+00  0.0000E+00
    -18.115  0.0000E+00  0.0000E+00  0.0000E+00
    -18.012  0.0000E+00  0.0000E+00  0.0000E+00
    -17.909  0.0000E+00  0.0000E+00  0.0000E+00
    -17.806  0.0000E+00  0.0000E+00  0.0000E+00
    -17.703  0.0000E+00  0.0000E+00  0.0000E+00
    -17.600  0.0000E+00  0.0000E+00  0.0000E+00
    -17.497  0.0000E+00  0.0000E+00  0.0000E+00
    -17.394  0.0000E+00  0.0000E+00  0.0000E+00
    -17.291  0.0000E+00  0.0000E+00  0.0000E+00
    -17.188  0.8655E-04  0.5255E-04  0.1047E-04
    -17.085  0.1439E-03  0.6954E-04  0.1195E-04
    -16.982  0.0000E+00  0.0000E+00  0.0000E+00
    -16.879  0.0000E+00  0.0000E+00  0.0000E+00
    -16.776  0.0000E+00  0.0000E+00  0.0000E+00
    -16.672  0.7354E-10  0.1997E-08  0.5646E-09
    -16.569  0.4695E-04  0.5253E-04  0.1030E-04
    -16.466  0.1961E-03  0.1249E-03  0.1531E-04
    -16.363  0.1270E-03  0.8358E-04  0.1026E-04
    -16.260  0.8869E-05  0.6515E-05  0.7387E-06
    -16.157  0.3319E-05  0.3371E-05  0.4065E-06
    -16.054  0.2207E-06  0.1159E-06  0.7482E-08
    -15.951  0.0000E+00  0.0000E+00  0.0000E+00
    -15.848  0.0000E+00  0.0000E+00  0.0000E+00
    -15.745  0.0000E+00  0.0000E+00  0.0000E+00
    -15.642  0.0000E+00  0.0000E+00  0.0000E+00
    -15.539  0.0000E+00  0.0000E+00  0.0000E+00
    -15.436  0.0000E+00  0.0000E+00  0.0000E+00
    -15.333  0.0000E+00  0.0000E+00  0.0000E+00
    -15.230  0.0000E+00  0.0000E+00  0.0000E+00
    -15.126  0.0000E+00  0.0000E+00  0.0000E+00
    -15.023  0.0000E+00  0.0000E+00  0.0000E+00
    -14.920  0.0000E+00  0.0000E+00  0.0000E+00
    -14.817  0.0000E+00  0.0000E+00  0.0000E+00
    -14.714  0.0000E+00  0.0000E+00  0.0000E+00
    -14.611  0.0000E+00  0.0000E+00  0.0000E+00
    -14.508  0.1821E-02  0.2076E-02  0.8906E-04
    -14.405  0.4944E-02  0.7524E-02  0.4699E-03
    -14.302  0.1683E-02  0.5325E-02  0.3570E-03
    -14.199  0.1742E-02  0.3208E-02  0.2115E-03
    -14.096  0.2256E-03  0.1514E-02  0.1295E-03
    -13.993  0.6150E-03  0.2498E-02  0.4045E-03
    -13.890  0.5824E-07  0.1521E-06  0.9512E-08
    -13.787  0.1037E-03  0.4724E-03  0.6603E-04
    -13.684  0.2866E-03  0.7690E-03  0.3740E-04
    -13.580  0.2454E-05  0.2779E-04  0.3718E-05
    -13.477  0.3423E-06  0.1608E-05  0.1921E-06
    -13.374  0.3961E-04  0.1650E-03  0.1343E-04