       N       E                     dE             d eps       ncg     rms          rms(c)
DAV:   1     0.135716604558E+04    0.13572E+04   -0.11326E+05  3592   0.963E+02
DAV:   2    -0.112805066805E+04   -0.24852E+04   -0.23783E+04  4272   0.296E+02
DAV:   3    -0.149376344782E+04   -0.36571E+03   -0.36323E+03  4568   0.135E+02
DAV:   4    -0.150631759395E+04   -0.12554E+02   -0.12517E+02  4016   0.330E+01
DAV:   5    -0.150693985220E+04   -0.62226E+00   -0.62198E+00  4528   0.566E+00    0.108E+01
DAV:   6    -0.142603018753E+04    0.80910E+02   -0.23713E+01  4488   0.345E+01    0.753E+00
DAV:   7    -0.142549566064E+04    0.53453E+00   -0.11269E+01  4088   0.651E+00    0.393E+00
DAV:   8    -0.142567762306E+04   -0.18196E+00   -0.67991E-01  3912   0.248E+00    0.241E+00
DAV:   9    -0.142573884904E+04   -0.61226E-01   -0.23528E-01  3824   0.148E+00    0.497E-01
DAV:  10    -0.142574321901E+04   -0.43700E-02   -0.32773E-02  4952   0.516E-01    0.361E-01
DAV:  11    -0.142574458761E+04   -0.13686E-02   -0.25824E-03  4224   0.144E-01    0.196E-01
DAV:  12    -0.142574709233E+04   -0.25047E-02   -0.49213E-03  3904   0.192E-01    0.907E-02
DAV:  13    -0.142574691004E+04    0.18228E-03   -0.10574E-03  4744   0.836E-02    0.736E-02
DAV:  14    -0.142574672477E+04    0.18527E-03   -0.25053E-04  3960   0.333E-02    0.367E-02
DAV:  15    -0.142574667048E+04    0.54290E-04   -0.41214E-05  4672   0.172E-02    0.201E-02
DAV:  16    -0.142574663893E+04    0.31550E-04   -0.27900E-05  4296   0.126E-02    0.564E-03
DAV:  17    -0.142574664053E+04   -0.15996E-05   -0.92591E-06  3984   0.762E-03    0.346E-03
DAV:  18    -0.142574663003E+04    0.10502E-04   -0.11642E-06  2248   0.312E-03    0.289E-03
DAV:  19    -0.142574663339E+04   -0.33627E-05   -0.36603E-07  2176   0.240E-03    0.141E-03
DAV:  20    -0.142574663503E+04   -0.16401E-05   -0.22488E-07  2096   0.140E-03    0.948E-04
DAV:  21    -0.142574663553E+04   -0.50325E-06   -0.89317E-08  2024   0.114E-03
   1 F= -.14257466E+04 E0= -.14257466E+04  d E =-.581445E-77
