CsPbBr3 cubic bulk                      
           1
     8.420018    0.000000    8.077981
     0.000000   11.763808    0.000000
    -8.420018    0.000000    8.077981
   Cs   Pb   Br
   8   8  24
Direct configuration=     1
   0.27212500  0.25000000  0.20823600
   0.80973515  0.24367514  0.63773953
   0.81007554  0.61689138  0.18713252
   0.22808388  0.68088620  0.67000275
   0.25561352  0.12581322  0.66779011
   0.74908017  0.13424321  0.17666430
   0.76435606  0.75033055  0.65016915
   0.23030316  0.75288912  0.13599496
   0.97724858  0.98312117  0.86251431
   0.46881779  0.89132736  0.36119087
   0.50461482  0.99821642  0.91326413
   0.97340851  0.93899995  0.34896074
   0.52550988  0.49742608  0.94734512
   0.00626943  0.44717278  0.43014147
   0.03136272  0.47448361  0.93252451
   0.49505852  0.43104669  0.45951890
   0.57522856  0.74997278  0.01689204
   0.04765478  0.69981263  0.40091888
   0.11085589  0.21657367  0.95769201
   0.53237484  0.16440812  0.43948743
   0.96310460  0.73473887  0.92345108
   0.45781530  0.65278272  0.33080721
   0.48640582  0.24744884  0.85891688
   0.96611637  0.19070227  0.37225167
   0.27094944  0.52517982  0.93802831
   0.72842038  0.48327246  0.45072774
   0.55196289  0.40850204  0.18251456
   0.99639730  0.49803067  0.69547694
   0.46516175  0.86649574  0.62083536
   0.97926964  0.98523695  0.10785320
   0.72819366  0.03671297  0.85193167
   0.20871308  0.00180022  0.36789551
   0.23821370  0.93890076  0.89256913
   0.73690251  0.88973719  0.36011722
   0.46016568  0.04209800  0.14234518
   0.97972503  0.97274146  0.60595367
   0.78340336  0.39522000  0.96009296
   0.26151075  0.36036385  0.49928080
   0.50401952  0.50855365  0.70372729
   0.07951404  0.48568093  0.18201396
