<?xml version="1.0" encoding="ISO-8859-1"?>
<modeling>
 <generator>
  <i name="program" type="string">vasp </i>
  <i name="version" type="string">5.4.4.18Apr17-6-g9f103f2a35  </i>
  <i name="subversion" type="string">(build Jun 22 2020 09:27:21) complex            parallel </i>
  <i name="platform" type="string">tx2_gcc-7.3_libsci-18.07_cray-fftw-3.3.8 </i>
  <i name="date" type="string">2021 10 12 </i>
  <i name="time" type="string">05:43:25 </i>
 </generator>
 <incar>
  <i type="string" name="SYSTEM"> CsPbBr3 cubic bulk</i>
  <i type="string" name="PREC">accurate</i>
  <i type="string" name="ALGO"> NORMAL   ! Electronic minimisation algo</i>
  <i type="logical" name="ADDGRID"> T  </i>
  <i type="int" name="ISPIN">     1</i>
  <i type="int" name="NELM">   200</i>
  <i type="int" name="IBRION">     2</i>
  <i name="EDIFF">      0.00000100</i>
  <i name="EDIFFG">     -0.01000000</i>
  <i type="int" name="NSW">     0</i>
  <i type="int" name="ISIF">     2</i>
  <i type="int" name="ISYM">     0</i>
  <i name="ENCUT">    300.00000000</i>
  <i name="POTIM">      0.50000000</i>
  <i name="NUPDOWN">      0.00000000</i>
  <i name="NELECT">    344.00000000</i>
  <i type="string" name="LREAL"> AUTO</i>
  <i type="int" name="ISMEAR">     0</i>
  <i name="SIGMA">      0.01000000</i>
  <i type="logical" name="LWAVE"> F  </i>
  <i type="logical" name="LCHARG"> F  </i>
  <i type="logical" name="LVHAR"> T  </i>
  <i type="int" name="LORBIT">    10</i>
  <i type="logical" name="LASPH"> T  </i>
  <v type="int" name="KPOINT_BSE">    -1     0     0     0</v>
  <i type="int" name="NELM">   200</i>
  <i type="string" name="METAGGA"> SCAN       ! PBE exchange-correlation</i>
  <i type="logical" name="LASPH"> T  </i>
 </incar>
 <structure name="primitive_cell" >
  <crystal>
   <varray name="basis" >
    <v>       8.45648900       0.00000000       8.04030100 </v>
    <v>       0.00000000      11.72984700       0.00000000 </v>
    <v>      -8.45648900       0.00000000       8.04030100 </v>
   </varray>
   <i name="volume">   1595.08833419 </i>
   <varray name="rec_basis" >
    <v>       0.05912619      -0.00000000       0.06218673 </v>
    <v>       0.00000000       0.08525260      -0.00000000 </v>
    <v>      -0.05912619       0.00000000       0.06218673 </v>
   </varray>
  </crystal>
  <varray name="positions" >
   <v>       0.27642700       0.24841800       0.19004800 </v>
   <v>       0.42825000       0.25364100       0.47472500 </v>
   <v>       0.05607900       0.03620000       0.25724400 </v>
   <v>       0.06187000       0.46460100       0.26847200 </v>
   <v>      -0.45491900       0.24991700       0.02344800 </v>
   <v>       0.25629900       0.02847000      -0.05024500 </v>
   <v>       0.44325900      -0.03138500       0.24116200 </v>
   <v>       0.26366100       0.46964900      -0.05606600 </v>
   <v>      -0.00431900       0.25128400      -0.02041200 </v>
   <v>       0.46880800      -0.46913000       0.22936900 </v>
   <v>      -0.49516000      -0.00077800      -0.00591000 </v>
   <v>      -0.48857500       0.49928900      -0.00768200 </v>
   <v>       0.01055700      -0.00231000       0.00760300 </v>
   <v>       0.01076100      -0.49612100       0.01127900 </v>
   <v>       0.47484000       0.49888800       0.48592900 </v>
   <v>       0.48732000       0.00352500       0.49302200 </v>
   <v>       0.24496100       0.23648800      -0.27215000 </v>
   <v>      -0.01327300       0.25188900      -0.46262400 </v>
   <v>       0.24082600      -0.03895400      -0.44867000 </v>
   <v>      -0.19475700       0.24400100       0.22878000 </v>
   <v>       0.23709100      -0.46869800      -0.42901500 </v>
   <v>      -0.01009100      -0.00261400       0.49994300 </v>
   <v>      -0.00328000      -0.49833100      -0.48804700 </v>
   <v>       0.22701100      -0.24840100       0.30461900 </v>
   <v>      -0.26406200       0.02967800       0.44902600 </v>
   <v>       0.04528100      -0.24913100       0.04477500 </v>
   <v>      -0.46225100       0.02814400      -0.25412100 </v>
   <v>      -0.23903600      -0.01726900       0.03752100 </v>
   <v>      -0.23470800      -0.47657000       0.05991500 </v>
   <v>      -0.03687600      -0.02958700      -0.24869600 </v>
   <v>      -0.03978100      -0.45914700      -0.23894000 </v>
   <v>       0.49582800      -0.25276500      -0.05050900 </v>
   <v>      -0.33841600       0.47389300      -0.37605800 </v>
   <v>      -0.48249600      -0.24994700      -0.49128900 </v>
   <v>       0.21396500      -0.24364500      -0.21538400 </v>
   <v>      -0.29754400      -0.23166900       0.25190900 </v>
   <v>      -0.22872700       0.22520800      -0.24261000 </v>
   <v>      -0.05094900      -0.25277100       0.46365500 </v>
   <v>      -0.26487000      -0.23645900      -0.24648200 </v>
  </varray>
 </structure>
 <varray name="primitive_index" >
  <v type="int" >        1 </v>
  <v type="int" >       20 </v>
  <v type="int" >       29 </v>
  <v type="int" >       38 </v>
  <v type="int" >       23 </v>
  <v type="int" >       32 </v>
  <v type="int" >       34 </v>
  <v type="int" >       25 </v>
  <v type="int" >       19 </v>
  <v type="int" >       26 </v>
  <v type="int" >       11 </v>
  <v type="int" >       13 </v>
  <v type="int" >        9 </v>
  <v type="int" >       15 </v>
  <v type="int" >       16 </v>
  <v type="int" >       10 </v>
  <v type="int" >        5 </v>
  <v type="int" >       24 </v>
  <v type="int" >       31 </v>
  <v type="int" >        6 </v>
  <v type="int" >       37 </v>
  <v type="int" >       12 </v>
  <v type="int" >       14 </v>
  <v type="int" >        8 </v>
  <v type="int" >       33 </v>
  <v type="int" >       21 </v>
  <v type="int" >       28 </v>
  <v type="int" >       30 </v>
  <v type="int" >       36 </v>
  <v type="int" >       35 </v>
  <v type="int" >       27 </v>
  <v type="int" >       17 </v>
  <v type="int" >       39 </v>
  <v type="int" >       22 </v>
  <v type="int" >        4 </v>
  <v type="int" >        3 </v>
  <v type="int" >        2 </v>
  <v type="int" >       18 </v>
  <v type="int" >        7 </v>
 </varray>
 <kpoints>
  <generation param="Gamma">
   <v type="int" name="divisions">       2        2        2 </v>
   <v name="usershift">      0.00000000       0.00000000       0.00000000 </v>
   <v name="genvec1">      0.50000000       0.00000000       0.00000000 </v>
   <v name="genvec2">      0.00000000       0.50000000       0.00000000 </v>
   <v name="genvec3">      0.00000000       0.00000000       0.50000000 </v>
   <v name="shift">      0.00000000       0.00000000       0.00000000 </v>
  </generation>
  <varray name="kpointlist" >
   <v>       0.00000000       0.00000000       0.00000000 </v>
   <v>       0.50000000       0.00000000       0.00000000 </v>
   <v>       0.00000000       0.50000000       0.00000000 </v>
   <v>       0.50000000       0.50000000       0.00000000 </v>
   <v>       0.00000000       0.00000000       0.50000000 </v>
   <v>       0.50000000       0.00000000       0.50000000 </v>
   <v>       0.00000000       0.50000000       0.50000000 </v>
   <v>       0.50000000       0.50000000       0.50000000 </v>
  </varray>
  <varray name="weights" >
   <v>       0.12500000 </v>
   <v>       0.12500000 </v>
   <v>       0.12500000 </v>
   <v>       0.12500000 </v>
   <v>       0.12500000 </v>
   <v>       0.12500000 </v>
   <v>       0.12500000 </v>
   <v>       0.12500000 </v>
  </varray>
 </kpoints>
 <parameters>
  <separator name="general" >
   <i type="string" name="SYSTEM">CsPbBr3 cubic bulk</i>
   <i type="logical" name="LCOMPAT"> F  </i>
  </separator>
  <separator name="electronic" >
   <i type="string" name="PREC">accura</i>
   <i name="ENMAX">    300.00000000</i>
   <i name="ENAUG">    503.85200000</i>
   <i name="EDIFF">      0.00000100</i>
   <i type="int" name="IALGO">    38</i>
   <i type="int" name="IWAVPR">    10</i>
   <i type="int" name="NBANDS">   208</i>
   <i name="NELECT">    344.00000000</i>
   <i type="int" name="TURBO">     0</i>
   <i type="int" name="IRESTART">     0</i>
   <i type="int" name="NREBOOT">     0</i>
   <i type="int" name="NMIN">     0</i>
   <i name="EREF">      0.00000000</i>
   <separator name="electronic smearing" >
    <i type="int" name="ISMEAR">     0</i>
    <i name="SIGMA">      0.01000000</i>
    <i name="KSPACING">      0.50000000</i>
    <i type="logical" name="KGAMMA"> T  </i>
   </separator>
   <separator name="electronic projectors" >
    <i type="logical" name="LREAL"> T  </i>
    <v name="ROPT">     -0.00025000     -0.00025000     -0.00025000</v>
    <i type="int" name="LMAXPAW">  -100</i>
    <i type="int" name="LMAXMIX">     2</i>
    <i type="logical" name="NLSPLINE"> F  </i>
   </separator>
   <separator name="electronic startup" >
    <i type="int" name="ISTART">     0</i>
    <i type="int" name="ICHARG">     2</i>
    <i type="int" name="INIWAV">     1</i>
   </separator>
   <separator name="electronic spin" >
    <i type="int" name="ISPIN">     1</i>
    <i type="logical" name="LNONCOLLINEAR"> F  </i>
    <v name="MAGMOM">      0.00000000      0.00000000      0.00000000      0.00000000      0.00000000      0.00000000      0.00000000      0.00000000      0.00000000      0.00000000      0.00000000      0.00000000      0.00000000      0.00000000      0.00000000      0.00000000      0.00000000      0.00000000      0.00000000      0.00000000
      0.00000000      0.00000000      0.00000000      0.00000000      0.00000000      0.00000000      0.00000000      0.00000000      0.00000000      0.00000000      0.00000000      0.00000000      0.00000000      0.00000000      0.00000000      0.00000000      0.00000000      0.00000000      0.00000000</v>
    <i name="NUPDOWN">      0.00000000</i>
    <i type="logical" name="LSORBIT"> F  </i>
    <v name="SAXIS">      0.00000000      0.00000000      1.00000000</v>
    <i type="logical" name="LSPIRAL"> F  </i>
    <v name="QSPIRAL">      0.00000000      0.00000000      0.00000000</v>
    <i type="logical" name="LZEROZ"> F  </i>
   </separator>
   <separator name="electronic exchange-correlation" >
    <i type="logical" name="LASPH"> T  </i>
    <i type="logical" name="LMETAGGA"> F  </i>
   </separator>
   <separator name="electronic convergence" >
    <i type="int" name="NELM">   200</i>
    <i type="int" name="NELMDL">    -5</i>
    <i type="int" name="NELMIN">     2</i>
    <i name="ENINI">    300.00000000</i>
    <separator name="electronic convergence detail" >
     <i type="logical" name="LDIAG"> T  </i>
     <i type="logical" name="LSUBROT"> F  </i>
     <i name="WEIMIN">      0.00000000</i>
     <i name="EBREAK">      0.00000000</i>
     <i name="DEPER">      0.30000000</i>
     <i type="int" name="NRMM">     4</i>
     <i name="TIME">      0.40000000</i>
    </separator>
   </separator>
   <separator name="electronic mixer" >
    <i name="AMIX">      0.40000000</i>
    <i name="BMIX">      1.00000000</i>
    <i name="AMIN">      0.10000000</i>
    <i name="AMIX_MAG">      1.60000000</i>
    <i name="BMIX_MAG">      1.00000000</i>
    <separator name="electronic mixer details" >
     <i type="int" name="IMIX">     4</i>
     <i type="logical" name="MIXFIRST"> F  </i>
     <i type="int" name="MAXMIX">   -45</i>
     <i name="WC">    100.00000000</i>
     <i type="int" name="INIMIX">     1</i>
     <i type="int" name="MIXPRE">     1</i>
     <i type="int" name="MREMOVE">     5</i>
    </separator>
   </separator>
   <separator name="electronic dipolcorrection" >
    <i type="logical" name="LDIPOL"> F  </i>
    <i type="logical" name="LMONO"> F  </i>
    <i type="int" name="IDIPOL">     0</i>
    <i name="EPSILON">      1.00000000</i>
    <v name="DIPOL">   -100.00000000   -100.00000000   -100.00000000</v>
    <i name="EFIELD">      0.00000000</i>
   </separator>
  </separator>
  <separator name="grids" >
   <i type="int" name="NGX">    70</i>
   <i type="int" name="NGY">    70</i>
   <i type="int" name="NGZ">    70</i>
   <i type="int" name="NGXF">   140</i>
   <i type="int" name="NGYF">   140</i>
   <i type="int" name="NGZF">   140</i>
   <i type="logical" name="ADDGRID"> T  </i>
  </separator>
  <separator name="ionic" >
   <i type="int" name="NSW">     0</i>
   <i type="int" name="IBRION">    -1</i>
   <i type="int" name="MDALGO">     0</i>
   <i type="int" name="ISIF">     2</i>
   <i name="PSTRESS">      0.00000000</i>
   <i name="EDIFFG">     -0.01000000</i>
   <i type="int" name="NFREE">     1</i>
   <i name="POTIM">      0.50000000</i>
   <i name="SMASS">     -3.00000000</i>
   <i name="SCALEE">      1.00000000</i>
  </separator>
  <separator name="ionic md" >
   <i name="TEBEG">      0.00010000</i>
   <i name="TEEND">      0.00010000</i>
   <i type="int" name="NBLOCK">     1</i>
   <i type="int" name="KBLOCK">     1</i>
   <i type="int" name="NPACO">   256</i>
   <i name="APACO">     16.00000000</i>
  </separator>
  <separator name="symmetry" >
   <i type="int" name="ISYM">     0</i>
   <i name="SYMPREC">      0.00001000</i>
  </separator>
  <separator name="dos" >
   <i type="int" name="LORBIT">    10</i>
   <v name="RWIGS">     -1.00000000     -1.00000000     -1.00000000</v>
   <i type="int" name="NEDOS">   301</i>
   <i name="EMIN">     10.00000000</i>
   <i name="EMAX">    -10.00000000</i>
   <i name="EFERMI">      0.00000000</i>
  </separator>
  <separator name="writing" >
   <i type="int" name="NWRITE">     2</i>
   <i type="logical" name="LWAVE"> F  </i>
   <i type="logical" name="LDOWNSAMPLE"> F  </i>
   <i type="logical" name="LCHARG"> F  </i>
   <i type="logical" name="LPARD"> F  </i>
   <i type="logical" name="LVTOT"> F  </i>
   <i type="logical" name="LVHAR"> T  </i>
   <i type="logical" name="LELF"> F  </i>
   <i type="logical" name="LOPTICS"> F  </i>
   <v name="STM">      0.00000000      0.00000000      0.00000000      0.00000000      0.00000000      0.00000000      0.00000000</v>
  </separator>
  <separator name="performance" >
   <i type="int" name="NPAR">     8</i>
   <i type="int" name="NSIM">     4</i>
   <i type="int" name="NBLK">    -1</i>
   <i type="logical" name="LPLANE"> T  </i>
   <i type="logical" name="LSCALAPACK"> T  </i>
   <i type="logical" name="LSCAAWARE"> F  </i>
   <i type="logical" name="LSCALU"> F  </i>
   <i type="logical" name="LASYNC"> F  </i>
   <i type="logical" name="LORBITALREAL"> F  </i>
  </separator>
  <separator name="miscellaneous" >
   <i type="int" name="IDIOT">     3</i>
   <i type="int" name="ISPECIAL">     0</i>
   <i type="logical" name="LMUSIC"> F  </i>
   <v name="POMASS">    132.90000000    207.20000000     79.90400000</v>
   <v name="DARWINR">      0.00000000      0.00000000      0.00000000</v>
   <v name="DARWINV">      1.00000000      1.00000000      1.00000000</v>
   <i type="logical" name="LCORR"> T  </i>
  </separator>
  <i type="logical" name="GGA_COMPAT"> T  </i>
  <i type="logical" name="LBERRY"> F  </i>
  <i type="int" name="ICORELEVEL">     0</i>
  <i type="logical" name="LDAU"> F  </i>
  <i type="int" name="I_CONSTRAINED_M">     0</i>
  <separator name="electronic exchange-correlation" >
   <i type="string" name="GGA">--</i>
   <i type="int" name="VOSKOWN">     0</i>
   <i type="logical" name="LHFCALC"> F  </i>
   <i type="string" name="PRECFOCK"></i>
   <i type="logical" name="LSYMGRAD"> F  </i>
   <i type="logical" name="LHFONE"> F  </i>
   <i type="logical" name="LRHFCALC"> F  </i>
   <i type="logical" name="LTHOMAS"> F  </i>
   <i type="logical" name="LMODELHF"> F  </i>
   <i name="ENCUT4O">     -1.00000000</i>
   <i type="int" name="EXXOEP">     0</i>
   <i type="int" name="FOURORBIT">     0</i>
   <i name="AEXX">      0.00000000</i>
   <i name="HFALPHA">      0.00000000</i>
   <i name="MCALPHA">      0.00000000</i>
   <i name="ALDAX">      1.00000000</i>
   <i name="AGGAX">      1.00000000</i>
   <i name="ALDAC">      1.00000000</i>
   <i name="AGGAC">      1.00000000</i>
   <i type="int" name="NKREDX">     1</i>
   <i type="int" name="NKREDY">     1</i>
   <i type="int" name="NKREDZ">     1</i>
   <i type="logical" name="SHIFTRED"> F  </i>
   <i type="logical" name="ODDONLY"> F  </i>
   <i type="logical" name="EVENONLY"> F  </i>
   <i type="int" name="LMAXFOCK">     0</i>
   <i type="int" name="NMAXFOCKAE">     0</i>
   <i type="logical" name="LFOCKAEDFT"> F  </i>
   <i name="HFSCREEN">      0.00000000</i>
   <i name="HFSCREENC">      0.00000000</i>
   <i type="int" name="NBANDSGWLOW">     0</i>
  </separator>
  <separator name="vdW DFT" >
   <i type="logical" name="LUSE_VDW"> F  </i>
   <i name="Zab_VDW">     -0.84910000</i>
   <i name="PARAM1">      0.12340000</i>
   <i name="PARAM2">      1.00000000</i>
   <i name="PARAM3">      0.00000000</i>
  </separator>
  <separator name="model GW" >
   <i type="int" name="MODEL_GW">     0</i>
   <i name="MODEL_EPS0">     24.53982053</i>
   <i name="MODEL_ALPHA">      1.00000000</i>
  </separator>
  <separator name="linear response parameters" >
   <i type="logical" name="LEPSILON"> F  </i>
   <i type="logical" name="LRPA"> F  </i>
   <i type="logical" name="LNABLA"> F  </i>
   <i type="logical" name="LVEL"> F  </i>
   <i type="int" name="KINTER">     0</i>
   <i name="CSHIFT">      0.10000000</i>
   <i name="OMEGAMAX">     -1.00000000</i>
   <i name="DEG_THRESHOLD">      0.00200000</i>
   <i name="RTIME">     -0.10000000</i>
   <i name="WPLASMAI">      0.00000000</i>
   <v name="DFIELD">      0.00000000      0.00000000      0.00000000</v>
   <v name="WPLASMA">      0.00000000      0.00000000      0.00000000      0.00000000      0.00000000      0.00000000      0.00000000      0.00000000      0.00000000</v>
  </separator>
  <separator name="orbital magnetization" >
   <i type="logical" name="NUCIND"> F  </i>
   <v name="MAGPOS">      0.00000000      0.00000000      0.00000000</v>
   <i type="logical" name="LNICSALL"> T  </i>
   <i type="logical" name="ORBITALMAG"> F  </i>
   <i type="logical" name="LMAGBLOCH"> F  </i>
   <i type="logical" name="LCHIMAG"> F  </i>
   <i type="logical" name="LGAUGE"> T  </i>
   <i type="int" name="MAGATOM">     0</i>
   <v name="MAGDIPOL">      0.00000000      0.00000000      0.00000000</v>
   <v name="AVECCONST">      0.00000000      0.00000000      0.00000000</v>
  </separator>
  <separator name="response functions" >
   <i type="logical" name="LADDER"> F  </i>
   <i type="logical" name="LRPAFORCE"> F  </i>
   <i type="logical" name="LFXC"> F  </i>
   <i type="logical" name="LHARTREE"> T  </i>
   <i type="int" name="IBSE">     0</i>
   <v type="int" name="KPOINT">    -1     0     0     0</v>
   <i type="logical" name="LTCTE"> F  </i>
   <i type="logical" name="LTETE"> F  </i>
   <i type="logical" name="LTRIPLET"> F  </i>
   <i type="logical" name="LFXCEPS"> F  </i>
   <i type="logical" name="LFXHEG"> F  </i>
   <i type="int" name="NATURALO">     2</i>
   <i type="logical" name="L2ORDER"> F  </i>
   <i type="logical" name="LMP2LT"> F  </i>
   <i type="logical" name="LUSEW"> F  </i>
   <i name="ENCUTGW">     -2.00000000</i>
   <i name="ENCUTGWSOFT">     -2.00000000</i>
   <i name="ENCUTLF">     -1.00000000</i>
   <i type="int" name="LMAXMP2">    -1</i>
   <i name="SCISSOR">      0.00000000</i>
   <i type="int" name="NOMEGA">     0</i>
   <i type="int" name="NOMEGAR">     0</i>
   <i type="int" name="NBANDSGW">    -1</i>
   <i type="int" name="NBANDSO">    -1</i>
   <i type="int" name="NBANDSV">    -1</i>
   <i type="int" name="NELM">   200</i>
   <i type="int" name="NELMHF">     1</i>
   <i type="int" name="DIM">     3</i>
   <i type="int" name="ANTIRES">     0</i>
   <i name="OMEGAMAX">    -30.00000000</i>
   <i name="OMEGAMIN">    -30.00000000</i>
   <i name="OMEGATL">   -200.00000000</i>
   <i type="int" name="OMEGAGRID">   140</i>
   <i name="CSHIFT">     -0.10000000</i>
   <i type="logical" name="SELFENERGY"> F  </i>
   <i type="logical" name="LSPECTRAL"> F  </i>
   <i type="logical" name="LSPECTRALGW"> F  </i>
   <i type="logical" name="LSINGLES"> F  </i>
   <i type="logical" name="LFERMIGW"> F  </i>
   <i type="logical" name="ODDONLYGW"> F  </i>
   <i type="logical" name="EVENONLYGW"> F  </i>
   <i type="int" name="NKREDLFX">     1</i>
   <i type="int" name="NKREDLFY">     1</i>
   <i type="int" name="NKREDLFZ">     1</i>
   <i type="int" name="MAXMEM">  2800</i>
   <i type="int" name="TELESCOPE">     0</i>
   <i type="int" name="TAUPAR">     1</i>
   <i type="int" name="OMEGAPAR">    -1</i>
   <i name="LAMBDA">      1.00000000</i>
  </separator>
  <separator name="External order field" >
   <i name="OFIELD_KAPPA">      0.00000000</i>
   <v name="OFIELD_K">      0.00000000      0.00000000      0.00000000</v>
   <i name="OFIELD_Q6_NEAR">      0.00000000</i>
   <i name="OFIELD_Q6_FAR">      0.00000000</i>
   <i name="OFIELD_A">      0.00000000</i>
  </separator>
 </parameters>
 <atominfo>
  <atoms>      39 </atoms>
  <types>       3 </types>
  <array name="atoms" >
   <dimension dim="1">ion</dimension>
   <field type="string">element</field>
   <field type="int">atomtype</field>
   <set>
    <rc><c>Cs</c><c>   1</c></rc>
    <rc><c>Cs</c><c>   1</c></rc>
    <rc><c>Cs</c><c>   1</c></rc>
    <rc><c>Cs</c><c>   1</c></rc>
    <rc><c>Cs</c><c>   1</c></rc>
    <rc><c>Cs</c><c>   1</c></rc>
    <rc><c>Cs</c><c>   1</c></rc>
    <rc><c>Cs</c><c>   1</c></rc>
    <rc><c>Pb</c><c>   2</c></rc>
    <rc><c>Pb</c><c>   2</c></rc>
    <rc><c>Pb</c><c>   2</c></rc>
    <rc><c>Pb</c><c>   2</c></rc>
    <rc><c>Pb</c><c>   2</c></rc>
    <rc><c>Pb</c><c>   2</c></rc>
    <rc><c>Pb</c><c>   2</c></rc>
    <rc><c>Pb</c><c>   2</c></rc>
    <rc><c>Br</c><c>   3</c></rc>
    <rc><c>Br</c><c>   3</c></rc>
    <rc><c>Br</c><c>   3</c></rc>
    <rc><c>Br</c><c>   3</c></rc>
    <rc><c>Br</c><c>   3</c></rc>
    <rc><c>Br</c><c>   3</c></rc>
    <rc><c>Br</c><c>   3</c></rc>
    <rc><c>Br</c><c>   3</c></rc>
    <rc><c>Br</c><c>   3</c></rc>
    <rc><c>Br</c><c>   3</c></rc>
    <rc><c>Br</c><c>   3</c></rc>
    <rc><c>Br</c><c>   3</c></rc>
    <rc><c>Br</c><c>   3</c></rc>
    <rc><c>Br</c><c>   3</c></rc>
    <rc><c>Br</c><c>   3</c></rc>
    <rc><c>Br</c><c>   3</c></rc>
    <rc><c>Br</c><c>   3</c></rc>
    <rc><c>Br</c><c>   3</c></rc>
    <rc><c>Br</c><c>   3</c></rc>
    <rc><c>Br</c><c>   3</c></rc>
    <rc><c>Br</c><c>   3</c></rc>
    <rc><c>Br</c><c>   3</c></rc>
    <rc><c>Br</c><c>   3</c></rc>
   </set>
  </array>
  <array name="atomtypes" >
   <dimension dim="1">type</dimension>
   <field type="int">atomspertype</field>
   <field type="string">element</field>
   <field>mass</field>
   <field>valence</field>
   <field type="string">pseudopotential</field>
   <set>
    <rc><c>   8</c><c>Cs</c><c>    132.90000000</c><c>      9.00000000</c><c>  PAW_PBE Cs_sv 08Apr2002               </c></rc>
    <rc><c>   8</c><c>Pb</c><c>    207.20000000</c><c>     14.00000000</c><c>  PAW_PBE Pb_d 06Sep2000                </c></rc>
    <rc><c>  23</c><c>Br</c><c>     79.90400000</c><c>      7.00000000</c><c>  PAW_PBE Br 06Sep2000                  </c></rc>
   </set>
  </array>
 </atominfo>
 <structure name="initialpos" >
  <crystal>
   <varray name="basis" >
    <v>       8.45648900       0.00000000       8.04030100 </v>
    <v>       0.00000000      11.72984700       0.00000000 </v>
    <v>      -8.45648900       0.00000000       8.04030100 </v>
   </varray>
   <i name="volume">   1595.08833419 </i>
   <varray name="rec_basis" >
    <v>       0.05912619      -0.00000000       0.06218673 </v>
    <v>       0.00000000       0.08525260      -0.00000000 </v>
    <v>      -0.05912619       0.00000000       0.06218673 </v>
   </varray>
  </crystal>
  <varray name="positions" >
   <v>       0.27642700       0.24841800       0.19004800 </v>
   <v>       0.77127300       0.22520800       0.75739000 </v>
   <v>       0.70245600       0.76833100       0.25190900 </v>
   <v>       0.21396500       0.75635500       0.78461600 </v>
   <v>       0.24496100       0.23648800       0.72785000 </v>
   <v>       0.80524300       0.24400100       0.22878000 </v>
   <v>       0.73513000       0.76354100       0.75351800 </v>
   <v>       0.22701100       0.75159900       0.30461900 </v>
   <v>       0.01055700       0.99769000       0.00760300 </v>
   <v>       0.48732000       0.00352500       0.49302200 </v>
   <v>       0.50484000       0.99922200       0.99409000 </v>
   <v>       0.98990900       0.99738600       0.49994300 </v>
   <v>       0.51142500       0.49928900       0.99231800 </v>
   <v>       0.99672000       0.50166900       0.51195300 </v>
   <v>       0.01076100       0.50387900       0.01127900 </v>
   <v>       0.47484000       0.49888800       0.48592900 </v>
   <v>       0.49582800       0.74723500       0.94949100 </v>
   <v>       0.94905100       0.74722900       0.46365500 </v>
   <v>       0.99568100       0.25128400       0.97958800 </v>
   <v>       0.42825000       0.25364100       0.47472500 </v>
   <v>       0.04528100       0.75086900       0.04477500 </v>
   <v>       0.51750400       0.75005300       0.50871100 </v>
   <v>       0.54508100       0.24991700       0.02344800 </v>
   <v>       0.98672700       0.25188900       0.53737600 </v>
   <v>       0.26366100       0.46964900       0.94393400 </v>
   <v>       0.46880800       0.53087000       0.22936900 </v>
   <v>       0.96021900       0.54085300       0.76106000 </v>
   <v>       0.53774900       0.02814400       0.74587900 </v>
   <v>       0.05607900       0.03620000       0.25724400 </v>
   <v>       0.76096400       0.98273100       0.03752100 </v>
   <v>       0.24082600       0.96104600       0.55133000 </v>
   <v>       0.25629900       0.02847000       0.94975500 </v>
   <v>       0.73593800       0.02967800       0.44902600 </v>
   <v>       0.44325900       0.96861500       0.24116200 </v>
   <v>       0.96312400       0.97041300       0.75130400 </v>
   <v>       0.76529200       0.52343000       0.05991500 </v>
   <v>       0.23709100       0.53130200       0.57098500 </v>
   <v>       0.06187000       0.46460100       0.26847200 </v>
   <v>       0.66158400       0.47389300       0.62394200 </v>
  </varray>
 </structure>
 <calculation>
  <scstep>
   <time name="dav">   16.44   16.45</time>
   <time name="total">   17.90   17.91</time>
   <energy>
    <i name="alphaZ">    872.70583573 </i>
    <i name="ewald"> -17899.83497041 </i>
    <i name="hartreedc">  -7455.81801254 </i>
    <i name="XCdc">    908.22376446 </i>
    <i name="pawpsdc">  21345.28103884 </i>
    <i name="pawaedc"> -22405.85761495 </i>
    <i name="eentropy">     -0.00066392 </i>
    <i name="bandstr">   -234.68425251 </i>
    <i name="atom">  26212.11861568 </i>
    <i name="e_fr_energy">   1342.13374038 </i>
    <i name="e_wo_entrp">   1342.13440430 </i>
    <i name="e_0_energy">   1342.13407234 </i>
   </energy>
  </scstep>
  <scstep>
   <time name="dav">   18.31   18.33</time>
   <time name="total">   18.31   18.33</time>
   <energy>
    <i name="e_fr_energy">  -1111.83146213 </i>
    <i name="e_wo_entrp">  -1111.83146213 </i>
    <i name="e_0_energy">  -1111.83146213 </i>
   </energy>
  </scstep>
  <scstep>
   <time name="dav">   19.22   19.26</time>
   <time name="total">   19.22   19.26</time>
   <energy>
    <i name="e_fr_energy">  -1474.36611284 </i>
    <i name="e_wo_entrp">  -1474.36611284 </i>
    <i name="e_0_energy">  -1474.36611284 </i>
   </energy>
  </scstep>
  <scstep>
   <time name="dav">   17.86   17.88</time>
   <time name="total">   17.86   17.88</time>
   <energy>
    <i name="e_fr_energy">  -1486.81342799 </i>
    <i name="e_wo_entrp">  -1486.81342799 </i>
    <i name="e_0_energy">  -1486.81342799 </i>
   </energy>
  </scstep>
  <scstep>
   <time name="dav">   19.20   19.26</time>
   <time name="total">   21.91   21.97</time>
   <energy>
    <i name="e_fr_energy">  -1487.37719764 </i>
    <i name="e_wo_entrp">  -1487.37719764 </i>
    <i name="e_0_energy">  -1487.37719764 </i>
   </energy>
  </scstep>
  <scstep>
   <time name="dav">   19.05   19.05</time>
   <time name="total">   23.23   23.27</time>
   <energy>
    <i name="e_fr_energy">  -1409.67827974 </i>
    <i name="e_wo_entrp">  -1409.67827974 </i>
    <i name="e_0_energy">  -1409.67827974 </i>
   </energy>
  </scstep>
  <scstep>
   <time name="dav">   18.35   18.35</time>
   <time name="total">   22.55   22.56</time>
   <energy>
    <i name="e_fr_energy">  -1409.17950118 </i>
    <i name="e_wo_entrp">  -1409.17950118 </i>
    <i name="e_0_energy">  -1409.17950118 </i>
   </energy>
  </scstep>
  <scstep>
   <time name="dav">   18.36   18.36</time>
   <time name="total">   22.54   22.58</time>
   <energy>
    <i name="e_fr_energy">  -1409.35393729 </i>
    <i name="e_wo_entrp">  -1409.35393729 </i>
    <i name="e_0_energy">  -1409.35393729 </i>
   </energy>
  </scstep>
  <scstep>
   <time name="dav">   17.18   17.18</time>
   <time name="total">   21.34   21.39</time>
   <energy>
    <i name="e_fr_energy">  -1409.42209794 </i>
    <i name="e_wo_entrp">  -1409.42209794 </i>
    <i name="e_0_energy">  -1409.42209794 </i>
   </energy>
  </scstep>
  <scstep>
   <time name="dav">   19.50   19.50</time>
   <time name="total">   23.70   23.70</time>
   <energy>
    <i name="e_fr_energy">  -1409.42585638 </i>
    <i name="e_wo_entrp">  -1409.42585638 </i>
    <i name="e_0_energy">  -1409.42585638 </i>
   </energy>
  </scstep>
  <scstep>
   <time name="dav">   17.34   17.34</time>
   <time name="total">   21.52   21.55</time>
   <energy>
    <i name="e_fr_energy">  -1409.42758531 </i>
    <i name="e_wo_entrp">  -1409.42758531 </i>
    <i name="e_0_energy">  -1409.42758531 </i>
   </energy>
  </scstep>
  <scstep>
   <time name="dav">   16.77   16.77</time>
   <time name="total">   20.93   20.98</time>
   <energy>
    <i name="e_fr_energy">  -1409.43037661 </i>
    <i name="e_wo_entrp">  -1409.43037661 </i>
    <i name="e_0_energy">  -1409.43037661 </i>
   </energy>
  </scstep>
  <scstep>
   <time name="dav">   19.45   19.45</time>
   <time name="total">   23.65   23.67</time>
   <energy>
    <i name="e_fr_energy">  -1409.43005167 </i>
    <i name="e_wo_entrp">  -1409.43005167 </i>
    <i name="e_0_energy">  -1409.43005167 </i>
   </energy>
  </scstep>
  <scstep>
   <time name="dav">   17.50   17.50</time>
   <time name="total">   21.65   21.71</time>
   <energy>
    <i name="e_fr_energy">  -1409.42994462 </i>
    <i name="e_wo_entrp">  -1409.42994462 </i>
    <i name="e_0_energy">  -1409.42994462 </i>
   </energy>
  </scstep>
  <scstep>
   <time name="dav">   18.00   18.00</time>
   <time name="total">   22.16   22.21</time>
   <energy>
    <i name="e_fr_energy">  -1409.42993702 </i>
    <i name="e_wo_entrp">  -1409.42993702 </i>
    <i name="e_0_energy">  -1409.42993702 </i>
   </energy>
  </scstep>
  <scstep>
   <time name="dav">   17.23   17.23</time>
   <time name="total">   21.44   21.45</time>
   <energy>
    <i name="e_fr_energy">  -1409.42995709 </i>
    <i name="e_wo_entrp">  -1409.42995709 </i>
    <i name="e_0_energy">  -1409.42995709 </i>
   </energy>
  </scstep>
  <scstep>
   <time name="dav">   18.26   18.26</time>
   <time name="total">   22.46   22.47</time>
   <energy>
    <i name="e_fr_energy">  -1409.42998286 </i>
    <i name="e_wo_entrp">  -1409.42998286 </i>
    <i name="e_0_energy">  -1409.42998286 </i>
   </energy>
  </scstep>
  <scstep>
   <time name="dav">   13.25   13.25</time>
   <time name="total">   17.45   17.46</time>
   <energy>
    <i name="e_fr_energy">  -1409.42997032 </i>
    <i name="e_wo_entrp">  -1409.42997032 </i>
    <i name="e_0_energy">  -1409.42997032 </i>
   </energy>
  </scstep>
  <scstep>
   <time name="dav">   12.92   12.92</time>
   <time name="total">   17.13   17.14</time>
   <energy>
    <i name="e_fr_energy">  -1409.42996682 </i>
    <i name="e_wo_entrp">  -1409.42996682 </i>
    <i name="e_0_energy">  -1409.42996682 </i>
   </energy>
  </scstep>
  <scstep>
   <time name="dav">   12.50   12.50</time>
   <time name="total">   16.71   16.71</time>
   <energy>
    <i name="e_fr_energy">  -1409.42996514 </i>
    <i name="e_wo_entrp">  -1409.42996514 </i>
    <i name="e_0_energy">  -1409.42996514 </i>
   </energy>
  </scstep>
  <scstep>
   <time name="dav">   12.39   12.39</time>
   <time name="total">   13.88   13.90</time>
   <energy>
    <i name="alphaZ">    872.70583573 </i>
    <i name="ewald"> -17899.83497041 </i>
    <i name="hartreedc">  -7490.29107728 </i>
    <i name="XCdc">    943.78497280 </i>
    <i name="pawpsdc">  22780.41330910 </i>
    <i name="pawaedc"> -23839.03858860 </i>
    <i name="eentropy">     -0.00000000 </i>
    <i name="bandstr">  -2989.28806219 </i>
    <i name="atom">  26212.11861568 </i>
    <i name="e_fr_energy">  -1409.42996516 </i>
    <i name="e_wo_entrp">  -1409.42996516 </i>
    <i name="e_0_energy">  -1409.42996516 </i>
   </energy>
  </scstep>
  <structure>
   <crystal>
    <varray name="basis" >
     <v>       8.45648900       0.00000000       8.04030100 </v>
     <v>       0.00000000      11.72984700       0.00000000 </v>
     <v>      -8.45648900       0.00000000       8.04030100 </v>
    </varray>
    <i name="volume">   1595.08833419 </i>
    <varray name="rec_basis" >
     <v>       0.05912619      -0.00000000       0.06218673 </v>
     <v>       0.00000000       0.08525260      -0.00000000 </v>
     <v>      -0.05912619       0.00000000       0.06218673 </v>
    </varray>
   </crystal>
   <varray name="positions" >
    <v>       0.27642700       0.24841800       0.19004800 </v>
    <v>       0.77127300       0.22520800       0.75739000 </v>
    <v>       0.70245600       0.76833100       0.25190900 </v>
    <v>       0.21396500       0.75635500       0.78461600 </v>
    <v>       0.24496100       0.23648800       0.72785000 </v>
    <v>       0.80524300       0.24400100       0.22878000 </v>
    <v>       0.73513000       0.76354100       0.75351800 </v>
    <v>       0.22701100       0.75159900       0.30461900 </v>
    <v>       0.01055700       0.99769000       0.00760300 </v>
    <v>       0.48732000       0.00352500       0.49302200 </v>
    <v>       0.50484000       0.99922200       0.99409000 </v>
    <v>       0.98990900       0.99738600       0.49994300 </v>
    <v>       0.51142500       0.49928900       0.99231800 </v>
    <v>       0.99672000       0.50166900       0.51195300 </v>
    <v>       0.01076100       0.50387900       0.01127900 </v>
    <v>       0.47484000       0.49888800       0.48592900 </v>
    <v>       0.49582800       0.74723500       0.94949100 </v>
    <v>       0.94905100       0.74722900       0.46365500 </v>
    <v>       0.99568100       0.25128400       0.97958800 </v>
    <v>       0.42825000       0.25364100       0.47472500 </v>
    <v>       0.04528100       0.75086900       0.04477500 </v>
    <v>       0.51750400       0.75005300       0.50871100 </v>
    <v>       0.54508100       0.24991700       0.02344800 </v>
    <v>       0.98672700       0.25188900       0.53737600 </v>
    <v>       0.26366100       0.46964900       0.94393400 </v>
    <v>       0.46880800       0.53087000       0.22936900 </v>
    <v>       0.96021900       0.54085300       0.76106000 </v>
    <v>       0.53774900       0.02814400       0.74587900 </v>
    <v>       0.05607900       0.03620000       0.25724400 </v>
    <v>       0.76096400       0.98273100       0.03752100 </v>
    <v>       0.24082600       0.96104600       0.55133000 </v>
    <v>       0.25629900       0.02847000       0.94975500 </v>
    <v>       0.73593800       0.02967800       0.44902600 </v>
    <v>       0.44325900       0.96861500       0.24116200 </v>
    <v>       0.96312400       0.97041300       0.75130400 </v>
    <v>       0.76529200       0.52343000       0.05991500 </v>
    <v>       0.23709100       0.53130200       0.57098500 </v>
    <v>       0.06187000       0.46460100       0.26847200 </v>
    <v>       0.66158400       0.47389300       0.62394200 </v>
   </varray>
  </structure>
  <varray name="forces" >
   <v>      -0.00270938       0.00223800       0.00672338 </v>
   <v>      -0.01594466      -0.05679554       0.04050448 </v>
   <v>      -0.00603826       0.01124363      -0.01805719 </v>
   <v>      -0.00099103       0.00707229       0.00750826 </v>
   <v>       0.00711924      -0.00771513      -0.02095858 </v>
   <v>       0.00496677      -0.00751791       0.01100798 </v>
   <v>       0.00621009      -0.00379679      -0.01195504 </v>
   <v>       0.00125922      -0.01505695       0.04462645 </v>
   <v>      -0.01765241      -0.00092134       0.01497987 </v>
   <v>      -0.00943253      -0.00951515      -0.05884684 </v>
   <v>       0.00651099       0.01196881       0.00149510 </v>
   <v>       0.02524916      -0.00731277       0.02250240 </v>
   <v>      -0.07789240       0.01927772       0.08616874 </v>
   <v>       0.01036571       0.01655225       0.08560109 </v>
   <v>       0.00693283       0.00221568       0.03360710 </v>
   <v>      -0.09040107       0.06239788      -0.70751762 </v>
   <v>       0.00279902      -0.00560856       0.00176729 </v>
   <v>      -0.00569149      -0.00397073      -0.01079987 </v>
   <v>       0.00396160       0.00707399       0.01546945 </v>
   <v>      -0.00787680      -0.06268183      -0.01767146 </v>
   <v>       0.00032059      -0.00511337      -0.00049370 </v>
   <v>      -0.00097744       0.07649099      -0.02044415 </v>
   <v>       0.01075367       0.01325539       0.00367851 </v>
   <v>      -0.00499510       0.00361527      -0.00657375 </v>
   <v>      -0.00730578       0.00561990      -0.00016375 </v>
   <v>       0.21109152      -0.00599982      -0.12926861 </v>
   <v>       0.00610278      -0.00178081       0.02568493 </v>
   <v>      -0.00773940      -0.00114009      -0.00867331 </v>
   <v>       0.01057653       0.00410434      -0.00831622 </v>
   <v>      -0.00150765      -0.00482136      -0.00012582 </v>
   <v>      -0.02718945       0.00159951      -0.02104132 </v>
   <v>      -0.00197390      -0.00752245      -0.00636973 </v>
   <v>       0.00411274       0.00064780       0.01358657 </v>
   <v>       0.01838486      -0.00035467      -0.01786760 </v>
   <v>       0.00012207      -0.00103150       0.01535030 </v>
   <v>       0.01062997      -0.00183295       0.00919294 </v>
   <v>      -0.18609129      -0.00747537      -0.11579721 </v>
   <v>       0.00178824       0.00346437      -0.01029488 </v>
   <v>       0.12315246      -0.03087275       0.75178179 </v>
  </varray>
  <varray name="stress" >
   <v>      -7.75473877       0.45713393       0.53679534 </v>
   <v>       0.45713181      -3.00516450      -0.73511604 </v>
   <v>       0.53676071      -0.73495638      -3.10054103 </v>
  </varray>
  <energy>
   <i name="e_fr_energy">  -1409.42996516 </i>
   <i name="e_wo_entrp">  -1409.42996516 </i>
   <i name="e_0_energy">     -0.00000000 </i>
  </energy>
  <time name="totalsc">  482.56  483.19</time>
  <eigenvalues>
   <array>
    <dimension dim="1">band</dimension>
    <dimension dim="2">kpoint</dimension>
    <dimension dim="3">spin</dimension>
    <field>eigene</field>
    <field>occ</field>
    <set>
     <set comment="spin 1">
      <set comment="kpoint 1">
       <r>  -20.9090    1.0000 </r>
       <r>  -20.8061    1.0000 </r>
       <r>  -20.7914    1.0000 </r>
       <r>  -20.7725    1.0000 </r>
       <r>  -20.7442    1.0000 </r>
       <r>  -20.7252    1.0000 </r>
       <r>  -20.6703    1.0000 </r>
       <r>  -20.6610    1.0000 </r>
       <r>  -16.7040    1.0000 </r>
       <r>  -16.6735    1.0000 </r>
       <r>  -16.6680    1.0000 </r>
       <r>  -16.6356    1.0000 </r>
       <r>  -16.6006    1.0000 </r>
       <r>  -16.5962    1.0000 </r>
       <r>  -16.5865    1.0000 </r>
       <r>  -16.5731    1.0000 </r>
       <r>  -16.5503    1.0000 </r>
       <r>  -16.5494    1.0000 </r>
       <r>  -16.5430    1.0000 </r>
       <r>  -16.5140    1.0000 </r>
       <r>  -16.5092    1.0000 </r>
       <r>  -16.4810    1.0000 </r>
       <r>  -16.4622    1.0000 </r>
       <r>  -16.4453    1.0000 </r>
       <r>  -16.4255    1.0000 </r>
       <r>  -16.4233    1.0000 </r>
       <r>  -16.4184    1.0000 </r>
       <r>  -16.4077    1.0000 </r>
       <r>  -16.3855    1.0000 </r>
       <r>  -16.3716    1.0000 </r>
       <r>  -16.3658    1.0000 </r>
       <r>  -16.3390    1.0000 </r>
       <r>  -16.3306    1.0000 </r>
       <r>  -16.3292    1.0000 </r>
       <r>  -16.3288    1.0000 </r>
       <r>  -16.3177    1.0000 </r>
       <r>  -16.3167    1.0000 </r>
       <r>  -16.3101    1.0000 </r>
       <r>  -16.3004    1.0000 </r>
       <r>  -16.2893    1.0000 </r>
       <r>  -16.2817    1.0000 </r>
       <r>  -16.2778    1.0000 </r>
       <r>  -16.2773    1.0000 </r>
       <r>  -16.2735    1.0000 </r>
       <r>  -16.2693    1.0000 </r>
       <r>  -16.2459    1.0000 </r>
       <r>  -16.2361    1.0000 </r>
       <r>  -16.2347    1.0000 </r>
       <r>  -14.5125    1.0000 </r>
       <r>  -14.4106    1.0000 </r>
       <r>  -14.3078    1.0000 </r>
       <r>  -14.2305    1.0000 </r>
       <r>  -14.1508    1.0000 </r>
       <r>  -14.1340    1.0000 </r>
       <r>  -14.1154    1.0000 </r>
       <r>  -14.1030    1.0000 </r>
       <r>  -14.0930    1.0000 </r>
       <r>  -14.0806    1.0000 </r>
       <r>  -14.0391    1.0000 </r>
       <r>  -14.0365    1.0000 </r>
       <r>  -14.0236    1.0000 </r>
       <r>  -14.0066    1.0000 </r>
       <r>  -13.9702    1.0000 </r>
       <r>  -13.9674    1.0000 </r>
       <r>  -13.9586    1.0000 </r>
       <r>  -13.9428    1.0000 </r>
       <r>  -13.8733    1.0000 </r>
       <r>  -13.7788    1.0000 </r>
       <r>  -13.7664    1.0000 </r>
       <r>  -13.7345    1.0000 </r>
       <r>  -13.7085    1.0000 </r>
       <r>   -8.2083    1.0000 </r>
       <r>   -7.8013    1.0000 </r>
       <r>   -7.7736    1.0000 </r>
       <r>   -7.6738    1.0000 </r>
       <r>   -7.3611    1.0000 </r>
       <r>   -7.3243    1.0000 </r>
       <r>   -7.2941    1.0000 </r>
       <r>   -7.2805    1.0000 </r>
       <r>   -7.2440    1.0000 </r>
       <r>   -7.2296    1.0000 </r>
       <r>   -7.2188    1.0000 </r>
       <r>   -7.2116    1.0000 </r>
       <r>   -7.1957    1.0000 </r>
       <r>   -7.1940    1.0000 </r>
       <r>   -7.1868    1.0000 </r>
       <r>   -7.1790    1.0000 </r>
       <r>   -7.1692    1.0000 </r>
       <r>   -7.1638    1.0000 </r>
       <r>   -7.1575    1.0000 </r>
       <r>   -7.1529    1.0000 </r>
       <r>   -7.1402    1.0000 </r>
       <r>   -7.1328    1.0000 </r>
       <r>   -7.1265    1.0000 </r>
       <r>   -7.1159    1.0000 </r>
       <r>   -7.0881    1.0000 </r>
       <r>   -7.0861    1.0000 </r>
       <r>   -7.0800    1.0000 </r>
       <r>   -7.0738    1.0000 </r>
       <r>   -7.0617    1.0000 </r>
       <r>   -7.0441    1.0000 </r>
       <r>   -7.0372    1.0000 </r>
       <r>   -6.5891    1.0000 </r>
       <r>   -3.3715    1.0000 </r>
       <r>   -3.3273    1.0000 </r>
       <r>   -3.3030    1.0000 </r>
       <r>   -3.2965    1.0000 </r>
       <r>   -3.2485    1.0000 </r>
       <r>   -3.2048    1.0000 </r>
       <r>   -3.1719    1.0000 </r>
       <r>   -3.1314    1.0000 </r>
       <r>   -3.0976    1.0000 </r>
       <r>   -3.0864    1.0000 </r>
       <r>   -2.9868    1.0000 </r>
       <r>   -2.9282    1.0000 </r>
       <r>   -2.2798    1.0000 </r>
       <r>   -2.1844    1.0000 </r>
       <r>   -2.1620    1.0000 </r>
       <r>   -2.0638    1.0000 </r>
       <r>   -2.0183    1.0000 </r>
       <r>   -1.9904    1.0000 </r>
       <r>   -1.9584    1.0000 </r>
       <r>   -1.8812    1.0000 </r>
       <r>   -1.8684    1.0000 </r>
       <r>   -1.8345    1.0000 </r>
       <r>   -1.8120    1.0000 </r>
       <r>   -1.7333    1.0000 </r>
       <r>   -1.7080    1.0000 </r>
       <r>   -1.6646    1.0000 </r>
       <r>   -1.6590    1.0000 </r>
       <r>   -1.6473    1.0000 </r>
       <r>   -1.6014    1.0000 </r>
       <r>   -1.5703    1.0000 </r>
       <r>   -1.5481    1.0000 </r>
       <r>   -1.5220    1.0000 </r>
       <r>   -1.5188    1.0000 </r>
       <r>   -1.5085    1.0000 </r>
       <r>   -1.5007    1.0000 </r>
       <r>   -1.4700    1.0000 </r>
       <r>   -1.4634    1.0000 </r>
       <r>   -1.4440    1.0000 </r>
       <r>   -1.4415    1.0000 </r>
       <r>   -1.4117    1.0000 </r>
       <r>   -1.4028    1.0000 </r>
       <r>   -1.3949    1.0000 </r>
       <r>   -1.3893    1.0000 </r>
       <r>   -1.3628    1.0000 </r>
       <r>   -1.3545    1.0000 </r>
       <r>   -1.3483    1.0000 </r>
       <r>   -1.3156    1.0000 </r>
       <r>   -1.3070    1.0000 </r>
       <r>   -1.2983    1.0000 </r>
       <r>   -1.2835    1.0000 </r>
       <r>   -1.2635    1.0000 </r>
       <r>   -1.2414    1.0000 </r>
       <r>   -1.2337    1.0000 </r>
       <r>   -1.1940    1.0000 </r>
       <r>   -1.1441    1.0000 </r>
       <r>   -1.1213    1.0000 </r>
       <r>   -1.0715    1.0000 </r>
       <r>   -1.0406    1.0000 </r>
       <r>   -1.0160    1.0000 </r>
       <r>   -0.9939    1.0000 </r>
       <r>   -0.9624    1.0000 </r>
       <r>   -0.8684    1.0000 </r>
       <r>   -0.8350    1.0000 </r>
       <r>   -0.7519    1.0000 </r>
       <r>   -0.6231    1.0000 </r>
       <r>   -0.3792    1.0000 </r>
       <r>   -0.2291    1.0000 </r>
       <r>   -0.0951    1.0000 </r>
       <r>    0.3772    1.0000 </r>
       <r>    2.6827    0.0000 </r>
       <r>    2.7565    0.0000 </r>
       <r>    2.8155    0.0000 </r>
       <r>    2.9395    0.0000 </r>
       <r>    3.0710    0.0000 </r>
       <r>    3.1389    0.0000 </r>
       <r>    3.1454    0.0000 </r>
       <r>    3.2211    0.0000 </r>
       <r>    3.3399    0.0000 </r>
       <r>    3.4721    0.0000 </r>
       <r>    3.4954    0.0000 </r>
       <r>    3.6142    0.0000 </r>
       <r>    4.2352    0.0000 </r>
       <r>    4.7969    0.0000 </r>
       <r>    4.9070    0.0000 </r>
       <r>    5.5477    0.0000 </r>
       <r>    5.5899    0.0000 </r>
       <r>    5.6319    0.0000 </r>
       <r>    5.7981    0.0000 </r>
       <r>    5.8759    0.0000 </r>
       <r>    5.9243    0.0000 </r>
       <r>    5.9348    0.0000 </r>
       <r>    6.0263    0.0000 </r>
       <r>    6.0686    0.0000 </r>
       <r>    6.1134    0.0000 </r>
       <r>    6.1731    0.0000 </r>
       <r>    6.2020    0.0000 </r>
       <r>    6.2263    0.0000 </r>
       <r>    6.2837    0.0000 </r>
       <r>    6.3080    0.0000 </r>
       <r>    6.3568    0.0000 </r>
       <r>    6.4201    0.0000 </r>
       <r>    6.4586    0.0000 </r>
       <r>    6.5500    0.0000 </r>
       <r>    6.5612    0.0000 </r>
       <r>    6.7177    0.0000 </r>
      </set>
      <set comment="kpoint 2">
       <r>  -20.9090    1.0000 </r>
       <r>  -20.8060    1.0000 </r>
       <r>  -20.7914    1.0000 </r>
       <r>  -20.7725    1.0000 </r>
       <r>  -20.7442    1.0000 </r>
       <r>  -20.7252    1.0000 </r>
       <r>  -20.6703    1.0000 </r>
       <r>  -20.6610    1.0000 </r>
       <r>  -16.7040    1.0000 </r>
       <r>  -16.6733    1.0000 </r>
       <r>  -16.6680    1.0000 </r>
       <r>  -16.6330    1.0000 </r>
       <r>  -16.6006    1.0000 </r>
       <r>  -16.5961    1.0000 </r>
       <r>  -16.5866    1.0000 </r>
       <r>  -16.5732    1.0000 </r>
       <r>  -16.5503    1.0000 </r>
       <r>  -16.5494    1.0000 </r>
       <r>  -16.5430    1.0000 </r>
       <r>  -16.5139    1.0000 </r>
       <r>  -16.5091    1.0000 </r>
       <r>  -16.4810    1.0000 </r>
       <r>  -16.4622    1.0000 </r>
       <r>  -16.4389    1.0000 </r>
       <r>  -16.4256    1.0000 </r>
       <r>  -16.4121    1.0000 </r>
       <r>  -16.4108    1.0000 </r>
       <r>  -16.4057    1.0000 </r>
       <r>  -16.3873    1.0000 </r>
       <r>  -16.3855    1.0000 </r>
       <r>  -16.3694    1.0000 </r>
       <r>  -16.3455    1.0000 </r>
       <r>  -16.3359    1.0000 </r>
       <r>  -16.3307    1.0000 </r>
       <r>  -16.3289    1.0000 </r>
       <r>  -16.3177    1.0000 </r>
       <r>  -16.3167    1.0000 </r>
       <r>  -16.3101    1.0000 </r>
       <r>  -16.3005    1.0000 </r>
       <r>  -16.2893    1.0000 </r>
       <r>  -16.2817    1.0000 </r>
       <r>  -16.2778    1.0000 </r>
       <r>  -16.2773    1.0000 </r>
       <r>  -16.2736    1.0000 </r>
       <r>  -16.2693    1.0000 </r>
       <r>  -16.2459    1.0000 </r>
       <r>  -16.2361    1.0000 </r>
       <r>  -16.2347    1.0000 </r>
       <r>  -14.4987    1.0000 </r>
       <r>  -14.4224    1.0000 </r>
       <r>  -14.2974    1.0000 </r>
       <r>  -14.2424    1.0000 </r>
       <r>  -14.2139    1.0000 </r>
       <r>  -14.1436    1.0000 </r>
       <r>  -14.1159    1.0000 </r>
       <r>  -14.1020    1.0000 </r>
       <r>  -14.0911    1.0000 </r>
       <r>  -14.0749    1.0000 </r>
       <r>  -14.0453    1.0000 </r>
       <r>  -14.0379    1.0000 </r>
       <r>  -14.0078    1.0000 </r>
       <r>  -13.9925    1.0000 </r>
       <r>  -13.9711    1.0000 </r>
       <r>  -13.9636    1.0000 </r>
       <r>  -13.9035    1.0000 </r>
       <r>  -13.8712    1.0000 </r>
       <r>  -13.8603    1.0000 </r>
       <r>  -13.8033    1.0000 </r>
       <r>  -13.7852    1.0000 </r>
       <r>  -13.7606    1.0000 </r>
       <r>  -13.7366    1.0000 </r>
       <r>   -8.0498    1.0000 </r>
       <r>   -7.9784    1.0000 </r>
       <r>   -7.6474    1.0000 </r>
       <r>   -7.5291    1.0000 </r>
       <r>   -7.4578    1.0000 </r>
       <r>   -7.4415    1.0000 </r>
       <r>   -7.3341    1.0000 </r>
       <r>   -7.2916    1.0000 </r>
       <r>   -7.2707    1.0000 </r>
       <r>   -7.2300    1.0000 </r>
       <r>   -7.2284    1.0000 </r>
       <r>   -7.2099    1.0000 </r>
       <r>   -7.1955    1.0000 </r>
       <r>   -7.1899    1.0000 </r>
       <r>   -7.1832    1.0000 </r>
       <r>   -7.1810    1.0000 </r>
       <r>   -7.1721    1.0000 </r>
       <r>   -7.1618    1.0000 </r>
       <r>   -7.1546    1.0000 </r>
       <r>   -7.1466    1.0000 </r>
       <r>   -7.1401    1.0000 </r>
       <r>   -7.1314    1.0000 </r>
       <r>   -7.1211    1.0000 </r>
       <r>   -7.1103    1.0000 </r>
       <r>   -7.1002    1.0000 </r>
       <r>   -7.0820    1.0000 </r>
       <r>   -7.0775    1.0000 </r>
       <r>   -7.0739    1.0000 </r>
       <r>   -7.0591    1.0000 </r>
       <r>   -7.0415    1.0000 </r>
       <r>   -6.9298    1.0000 </r>
       <r>   -6.8585    1.0000 </r>
       <r>   -3.3376    1.0000 </r>
       <r>   -3.3264    1.0000 </r>
       <r>   -3.2717    1.0000 </r>
       <r>   -3.2342    1.0000 </r>
       <r>   -3.2279    1.0000 </r>
       <r>   -3.1657    1.0000 </r>
       <r>   -3.1281    1.0000 </r>
       <r>   -3.0021    1.0000 </r>
       <r>   -2.9056    1.0000 </r>
       <r>   -2.5901    1.0000 </r>
       <r>   -2.5179    1.0000 </r>
       <r>   -2.4503    1.0000 </r>
       <r>   -2.4379    1.0000 </r>
       <r>   -2.4154    1.0000 </r>
       <r>   -2.3279    1.0000 </r>
       <r>   -2.1867    1.0000 </r>
       <r>   -2.1438    1.0000 </r>
       <r>   -2.0704    1.0000 </r>
       <r>   -2.0306    1.0000 </r>
       <r>   -2.0079    1.0000 </r>
       <r>   -1.9996    1.0000 </r>
       <r>   -1.9484    1.0000 </r>
       <r>   -1.8695    1.0000 </r>
       <r>   -1.8489    1.0000 </r>
       <r>   -1.8104    1.0000 </r>
       <r>   -1.7494    1.0000 </r>
       <r>   -1.7373    1.0000 </r>
       <r>   -1.6536    1.0000 </r>
       <r>   -1.6480    1.0000 </r>
       <r>   -1.5967    1.0000 </r>
       <r>   -1.5821    1.0000 </r>
       <r>   -1.5523    1.0000 </r>
       <r>   -1.5346    1.0000 </r>
       <r>   -1.5062    1.0000 </r>
       <r>   -1.5036    1.0000 </r>
       <r>   -1.4632    1.0000 </r>
       <r>   -1.4567    1.0000 </r>
       <r>   -1.4320    1.0000 </r>
       <r>   -1.4290    1.0000 </r>
       <r>   -1.4142    1.0000 </r>
       <r>   -1.3943    1.0000 </r>
       <r>   -1.3891    1.0000 </r>
       <r>   -1.3839    1.0000 </r>
       <r>   -1.3658    1.0000 </r>
       <r>   -1.3434    1.0000 </r>
       <r>   -1.3322    1.0000 </r>
       <r>   -1.3206    1.0000 </r>
       <r>   -1.3069    1.0000 </r>
       <r>   -1.2685    1.0000 </r>
       <r>   -1.2589    1.0000 </r>
       <r>   -1.2309    1.0000 </r>
       <r>   -1.2127    1.0000 </r>
       <r>   -1.2083    1.0000 </r>
       <r>   -1.1687    1.0000 </r>
       <r>   -1.1523    1.0000 </r>
       <r>   -1.1435    1.0000 </r>
       <r>   -1.1177    1.0000 </r>
       <r>   -1.1088    1.0000 </r>
       <r>   -1.0570    1.0000 </r>
       <r>   -1.0320    1.0000 </r>
       <r>   -0.9905    1.0000 </r>
       <r>   -0.9028    1.0000 </r>
       <r>   -0.8880    1.0000 </r>
       <r>   -0.6881    1.0000 </r>
       <r>   -0.6351    1.0000 </r>
       <r>   -0.5321    1.0000 </r>
       <r>   -0.4354    1.0000 </r>
       <r>   -0.0270    1.0000 </r>
       <r>    0.0406    1.0000 </r>
       <r>    2.5646    0.0000 </r>
       <r>    2.9105    0.0000 </r>
       <r>    2.9242    0.0000 </r>
       <r>    2.9741    0.0000 </r>
       <r>    3.1848    0.0000 </r>
       <r>    3.2805    0.0000 </r>
       <r>    3.3009    0.0000 </r>
       <r>    3.3431    0.0000 </r>
       <r>    3.5293    0.0000 </r>
       <r>    3.9823    0.0000 </r>
       <r>    4.3257    0.0000 </r>
       <r>    4.3587    0.0000 </r>
       <r>    4.5501    0.0000 </r>
       <r>    4.6178    0.0000 </r>
       <r>    4.7487    0.0000 </r>
       <r>    4.8688    0.0000 </r>
       <r>    4.9043    0.0000 </r>
       <r>    5.5287    0.0000 </r>
       <r>    5.5610    0.0000 </r>
       <r>    5.6340    0.0000 </r>
       <r>    5.6998    0.0000 </r>
       <r>    5.8317    0.0000 </r>
       <r>    5.9851    0.0000 </r>
       <r>    6.0154    0.0000 </r>
       <r>    6.0834    0.0000 </r>
       <r>    6.1323    0.0000 </r>
       <r>    6.1859    0.0000 </r>
       <r>    6.1915    0.0000 </r>
       <r>    6.2415    0.0000 </r>
       <r>    6.2778    0.0000 </r>
       <r>    6.3060    0.0000 </r>
       <r>    6.4111    0.0000 </r>
       <r>    6.4313    0.0000 </r>
       <r>    6.4807    0.0000 </r>
       <r>    6.5662    0.0000 </r>
       <r>    6.6203    0.0000 </r>
      </set>
      <set comment="kpoint 3">
       <r>  -20.9089    1.0000 </r>
       <r>  -20.8061    1.0000 </r>
       <r>  -20.7914    1.0000 </r>
       <r>  -20.7725    1.0000 </r>
       <r>  -20.7441    1.0000 </r>
       <r>  -20.7252    1.0000 </r>
       <r>  -20.6703    1.0000 </r>
       <r>  -20.6610    1.0000 </r>
       <r>  -16.7030    1.0000 </r>
       <r>  -16.6723    1.0000 </r>
       <r>  -16.6660    1.0000 </r>
       <r>  -16.6333    1.0000 </r>
       <r>  -16.6008    1.0000 </r>
       <r>  -16.5959    1.0000 </r>
       <r>  -16.5865    1.0000 </r>
       <r>  -16.5700    1.0000 </r>
       <r>  -16.5502    1.0000 </r>
       <r>  -16.5493    1.0000 </r>
       <r>  -16.5430    1.0000 </r>
       <r>  -16.5139    1.0000 </r>
       <r>  -16.5092    1.0000 </r>
       <r>  -16.4810    1.0000 </r>
       <r>  -16.4463    1.0000 </r>
       <r>  -16.4411    1.0000 </r>
       <r>  -16.4322    1.0000 </r>
       <r>  -16.4236    1.0000 </r>
       <r>  -16.4228    1.0000 </r>
       <r>  -16.4109    1.0000 </r>
       <r>  -16.3855    1.0000 </r>
       <r>  -16.3854    1.0000 </r>
       <r>  -16.3671    1.0000 </r>
       <r>  -16.3430    1.0000 </r>
       <r>  -16.3306    1.0000 </r>
       <r>  -16.3293    1.0000 </r>
       <r>  -16.3288    1.0000 </r>
       <r>  -16.3176    1.0000 </r>
       <r>  -16.3166    1.0000 </r>
       <r>  -16.3101    1.0000 </r>
       <r>  -16.3004    1.0000 </r>
       <r>  -16.2892    1.0000 </r>
       <r>  -16.2817    1.0000 </r>
       <r>  -16.2777    1.0000 </r>
       <r>  -16.2773    1.0000 </r>
       <r>  -16.2735    1.0000 </r>
       <r>  -16.2693    1.0000 </r>
       <r>  -16.2459    1.0000 </r>
       <r>  -16.2361    1.0000 </r>
       <r>  -16.2347    1.0000 </r>
       <r>  -14.5069    1.0000 </r>
       <r>  -14.4085    1.0000 </r>
       <r>  -14.3246    1.0000 </r>
       <r>  -14.2339    1.0000 </r>
       <r>  -14.1849    1.0000 </r>
       <r>  -14.1806    1.0000 </r>
       <r>  -14.1382    1.0000 </r>
       <r>  -14.0863    1.0000 </r>
       <r>  -14.0799    1.0000 </r>
       <r>  -14.0496    1.0000 </r>
       <r>  -14.0455    1.0000 </r>
       <r>  -14.0309    1.0000 </r>
       <r>  -14.0205    1.0000 </r>
       <r>  -13.9743    1.0000 </r>
       <r>  -13.9707    1.0000 </r>
       <r>  -13.9451    1.0000 </r>
       <r>  -13.8938    1.0000 </r>
       <r>  -13.8779    1.0000 </r>
       <r>  -13.8501    1.0000 </r>
       <r>  -13.8458    1.0000 </r>
       <r>  -13.7931    1.0000 </r>
       <r>  -13.7869    1.0000 </r>
       <r>  -13.7115    1.0000 </r>
       <r>   -7.9873    1.0000 </r>
       <r>   -7.9511    1.0000 </r>
       <r>   -7.6268    1.0000 </r>
       <r>   -7.5915    1.0000 </r>
       <r>   -7.4586    1.0000 </r>
       <r>   -7.4314    1.0000 </r>
       <r>   -7.3370    1.0000 </r>
       <r>   -7.2948    1.0000 </r>
       <r>   -7.2760    1.0000 </r>
       <r>   -7.2316    1.0000 </r>
       <r>   -7.2242    1.0000 </r>
       <r>   -7.2113    1.0000 </r>
       <r>   -7.1991    1.0000 </r>
       <r>   -7.1908    1.0000 </r>
       <r>   -7.1825    1.0000 </r>
       <r>   -7.1748    1.0000 </r>
       <r>   -7.1686    1.0000 </r>
       <r>   -7.1607    1.0000 </r>
       <r>   -7.1591    1.0000 </r>
       <r>   -7.1523    1.0000 </r>
       <r>   -7.1411    1.0000 </r>
       <r>   -7.1349    1.0000 </r>
       <r>   -7.1233    1.0000 </r>
       <r>   -7.1128    1.0000 </r>
       <r>   -7.0992    1.0000 </r>
       <r>   -7.0847    1.0000 </r>
       <r>   -7.0809    1.0000 </r>
       <r>   -7.0727    1.0000 </r>
       <r>   -7.0660    1.0000 </r>
       <r>   -7.0517    1.0000 </r>
       <r>   -7.0388    1.0000 </r>
       <r>   -6.8525    1.0000 </r>
       <r>   -3.3073    1.0000 </r>
       <r>   -3.2265    1.0000 </r>
       <r>   -3.2206    1.0000 </r>
       <r>   -3.1575    1.0000 </r>
       <r>   -3.1266    1.0000 </r>
       <r>   -3.0981    1.0000 </r>
       <r>   -3.0588    1.0000 </r>
       <r>   -3.0196    1.0000 </r>
       <r>   -2.5818    1.0000 </r>
       <r>   -2.5643    1.0000 </r>
       <r>   -2.5330    1.0000 </r>
       <r>   -2.4811    1.0000 </r>
       <r>   -2.4522    1.0000 </r>
       <r>   -2.4287    1.0000 </r>
       <r>   -2.4127    1.0000 </r>
       <r>   -2.3546    1.0000 </r>
       <r>   -2.1336    1.0000 </r>
       <r>   -2.1128    1.0000 </r>
       <r>   -2.0581    1.0000 </r>
       <r>   -2.0314    1.0000 </r>
       <r>   -1.9981    1.0000 </r>
       <r>   -1.9595    1.0000 </r>
       <r>   -1.8917    1.0000 </r>
       <r>   -1.8400    1.0000 </r>
       <r>   -1.8372    1.0000 </r>
       <r>   -1.8027    1.0000 </r>
       <r>   -1.7690    1.0000 </r>
       <r>   -1.6931    1.0000 </r>
       <r>   -1.6686    1.0000 </r>
       <r>   -1.6471    1.0000 </r>
       <r>   -1.5909    1.0000 </r>
       <r>   -1.5492    1.0000 </r>
       <r>   -1.5251    1.0000 </r>
       <r>   -1.5045    1.0000 </r>
       <r>   -1.4824    1.0000 </r>
       <r>   -1.4629    1.0000 </r>
       <r>   -1.4397    1.0000 </r>
       <r>   -1.4374    1.0000 </r>
       <r>   -1.4214    1.0000 </r>
       <r>   -1.4176    1.0000 </r>
       <r>   -1.4006    1.0000 </r>
       <r>   -1.3815    1.0000 </r>
       <r>   -1.3608    1.0000 </r>
       <r>   -1.3482    1.0000 </r>
       <r>   -1.3420    1.0000 </r>
       <r>   -1.3237    1.0000 </r>
       <r>   -1.2946    1.0000 </r>
       <r>   -1.2830    1.0000 </r>
       <r>   -1.2697    1.0000 </r>
       <r>   -1.2615    1.0000 </r>
       <r>   -1.2575    1.0000 </r>
       <r>   -1.2428    1.0000 </r>
       <r>   -1.2269    1.0000 </r>
       <r>   -1.1585    1.0000 </r>
       <r>   -1.1377    1.0000 </r>
       <r>   -1.1306    1.0000 </r>
       <r>   -1.1235    1.0000 </r>
       <r>   -1.0975    1.0000 </r>
       <r>   -1.0733    1.0000 </r>
       <r>   -1.0526    1.0000 </r>
       <r>   -1.0176    1.0000 </r>
       <r>   -0.9209    1.0000 </r>
       <r>   -0.8400    1.0000 </r>
       <r>   -0.8269    1.0000 </r>
       <r>   -0.6763    1.0000 </r>
       <r>   -0.5870    1.0000 </r>
       <r>   -0.5456    1.0000 </r>
       <r>   -0.3279    1.0000 </r>
       <r>    0.0407    1.0000 </r>
       <r>    2.7613    0.0000 </r>
       <r>    2.9370    0.0000 </r>
       <r>    2.9872    0.0000 </r>
       <r>    3.1076    0.0000 </r>
       <r>    3.1128    0.0000 </r>
       <r>    3.3658    0.0000 </r>
       <r>    3.3759    0.0000 </r>
       <r>    3.3959    0.0000 </r>
       <r>    4.1779    0.0000 </r>
       <r>    4.2924    0.0000 </r>
       <r>    4.3846    0.0000 </r>
       <r>    4.5525    0.0000 </r>
       <r>    4.6093    0.0000 </r>
       <r>    4.6615    0.0000 </r>
       <r>    4.6821    0.0000 </r>
       <r>    4.7985    0.0000 </r>
       <r>    4.9029    0.0000 </r>
       <r>    4.9496    0.0000 </r>
       <r>    5.3178    0.0000 </r>
       <r>    5.5054    0.0000 </r>
       <r>    5.7079    0.0000 </r>
       <r>    5.7503    0.0000 </r>
       <r>    5.7563    0.0000 </r>
       <r>    5.8408    0.0000 </r>
       <r>    6.0365    0.0000 </r>
       <r>    6.0627    0.0000 </r>
       <r>    6.1765    0.0000 </r>
       <r>    6.1995    0.0000 </r>
       <r>    6.2417    0.0000 </r>
       <r>    6.2754    0.0000 </r>
       <r>    6.3802    0.0000 </r>
       <r>    6.4367    0.0000 </r>
       <r>    6.4776    0.0000 </r>
       <r>    6.5612    0.0000 </r>
       <r>    6.6127    0.0000 </r>
       <r>    6.6522    0.0000 </r>
      </set>
      <set comment="kpoint 4">
       <r>  -20.9089    1.0000 </r>
       <r>  -20.8060    1.0000 </r>
       <r>  -20.7914    1.0000 </r>
       <r>  -20.7725    1.0000 </r>
       <r>  -20.7441    1.0000 </r>
       <r>  -20.7253    1.0000 </r>
       <r>  -20.6703    1.0000 </r>
       <r>  -20.6610    1.0000 </r>
       <r>  -16.7029    1.0000 </r>
       <r>  -16.6720    1.0000 </r>
       <r>  -16.6660    1.0000 </r>
       <r>  -16.6307    1.0000 </r>
       <r>  -16.6008    1.0000 </r>
       <r>  -16.5958    1.0000 </r>
       <r>  -16.5866    1.0000 </r>
       <r>  -16.5701    1.0000 </r>
       <r>  -16.5502    1.0000 </r>
       <r>  -16.5494    1.0000 </r>
       <r>  -16.5430    1.0000 </r>
       <r>  -16.5139    1.0000 </r>
       <r>  -16.5092    1.0000 </r>
       <r>  -16.4810    1.0000 </r>
       <r>  -16.4434    1.0000 </r>
       <r>  -16.4411    1.0000 </r>
       <r>  -16.4252    1.0000 </r>
       <r>  -16.4147    1.0000 </r>
       <r>  -16.4125    1.0000 </r>
       <r>  -16.4087    1.0000 </r>
       <r>  -16.4015    1.0000 </r>
       <r>  -16.3854    1.0000 </r>
       <r>  -16.3743    1.0000 </r>
       <r>  -16.3487    1.0000 </r>
       <r>  -16.3370    1.0000 </r>
       <r>  -16.3306    1.0000 </r>
       <r>  -16.3289    1.0000 </r>
       <r>  -16.3177    1.0000 </r>
       <r>  -16.3167    1.0000 </r>
       <r>  -16.3101    1.0000 </r>
       <r>  -16.3005    1.0000 </r>
       <r>  -16.2892    1.0000 </r>
       <r>  -16.2817    1.0000 </r>
       <r>  -16.2777    1.0000 </r>
       <r>  -16.2774    1.0000 </r>
       <r>  -16.2736    1.0000 </r>
       <r>  -16.2693    1.0000 </r>
       <r>  -16.2459    1.0000 </r>
       <r>  -16.2361    1.0000 </r>
       <r>  -16.2347    1.0000 </r>
       <r>  -14.4964    1.0000 </r>
       <r>  -14.4176    1.0000 </r>
       <r>  -14.2903    1.0000 </r>
       <r>  -14.2580    1.0000 </r>
       <r>  -14.2529    1.0000 </r>
       <r>  -14.1826    1.0000 </r>
       <r>  -14.1531    1.0000 </r>
       <r>  -14.0957    1.0000 </r>
       <r>  -14.0780    1.0000 </r>
       <r>  -14.0727    1.0000 </r>
       <r>  -14.0404    1.0000 </r>
       <r>  -13.9767    1.0000 </r>
       <r>  -13.9733    1.0000 </r>
       <r>  -13.9478    1.0000 </r>
       <r>  -13.9263    1.0000 </r>
       <r>  -13.9146    1.0000 </r>
       <r>  -13.9047    1.0000 </r>
       <r>  -13.8940    1.0000 </r>
       <r>  -13.8731    1.0000 </r>
       <r>  -13.8308    1.0000 </r>
       <r>  -13.8029    1.0000 </r>
       <r>  -13.7962    1.0000 </r>
       <r>  -13.7578    1.0000 </r>
       <r>   -7.8883    1.0000 </r>
       <r>   -7.7536    1.0000 </r>
       <r>   -7.7353    1.0000 </r>
       <r>   -7.7015    1.0000 </r>
       <r>   -7.4647    1.0000 </r>
       <r>   -7.3469    1.0000 </r>
       <r>   -7.3054    1.0000 </r>
       <r>   -7.2863    1.0000 </r>
       <r>   -7.2748    1.0000 </r>
       <r>   -7.2443    1.0000 </r>
       <r>   -7.2395    1.0000 </r>
       <r>   -7.2191    1.0000 </r>
       <r>   -7.2096    1.0000 </r>
       <r>   -7.1940    1.0000 </r>
       <r>   -7.1878    1.0000 </r>
       <r>   -7.1814    1.0000 </r>
       <r>   -7.1772    1.0000 </r>
       <r>   -7.1701    1.0000 </r>
       <r>   -7.1617    1.0000 </r>
       <r>   -7.1561    1.0000 </r>
       <r>   -7.1460    1.0000 </r>
       <r>   -7.1413    1.0000 </r>
       <r>   -7.1380    1.0000 </r>
       <r>   -7.1236    1.0000 </r>
       <r>   -7.1082    1.0000 </r>
       <r>   -7.0927    1.0000 </r>
       <r>   -7.0901    1.0000 </r>
       <r>   -7.0745    1.0000 </r>
       <r>   -7.0699    1.0000 </r>
       <r>   -7.0629    1.0000 </r>
       <r>   -7.0566    1.0000 </r>
       <r>   -7.0386    1.0000 </r>
       <r>   -3.2051    1.0000 </r>
       <r>   -3.1917    1.0000 </r>
       <r>   -3.1534    1.0000 </r>
       <r>   -3.0735    1.0000 </r>
       <r>   -2.9758    1.0000 </r>
       <r>   -2.7190    1.0000 </r>
       <r>   -2.6868    1.0000 </r>
       <r>   -2.6708    1.0000 </r>
       <r>   -2.6472    1.0000 </r>
       <r>   -2.5710    1.0000 </r>
       <r>   -2.5576    1.0000 </r>
       <r>   -2.4923    1.0000 </r>
       <r>   -2.3999    1.0000 </r>
       <r>   -2.3866    1.0000 </r>
       <r>   -2.3619    1.0000 </r>
       <r>   -2.3377    1.0000 </r>
       <r>   -2.2986    1.0000 </r>
       <r>   -2.2883    1.0000 </r>
       <r>   -2.2247    1.0000 </r>
       <r>   -2.0874    1.0000 </r>
       <r>   -2.0309    1.0000 </r>
       <r>   -2.0105    1.0000 </r>
       <r>   -1.9705    1.0000 </r>
       <r>   -1.8774    1.0000 </r>
       <r>   -1.8236    1.0000 </r>
       <r>   -1.7848    1.0000 </r>
       <r>   -1.7712    1.0000 </r>
       <r>   -1.7421    1.0000 </r>
       <r>   -1.7118    1.0000 </r>
       <r>   -1.7015    1.0000 </r>
       <r>   -1.6621    1.0000 </r>
       <r>   -1.6588    1.0000 </r>
       <r>   -1.6189    1.0000 </r>
       <r>   -1.5776    1.0000 </r>
       <r>   -1.5491    1.0000 </r>
       <r>   -1.5370    1.0000 </r>
       <r>   -1.5201    1.0000 </r>
       <r>   -1.4755    1.0000 </r>
       <r>   -1.4504    1.0000 </r>
       <r>   -1.4268    1.0000 </r>
       <r>   -1.3993    1.0000 </r>
       <r>   -1.3803    1.0000 </r>
       <r>   -1.3703    1.0000 </r>
       <r>   -1.3640    1.0000 </r>
       <r>   -1.3270    1.0000 </r>
       <r>   -1.3052    1.0000 </r>
       <r>   -1.2832    1.0000 </r>
       <r>   -1.2795    1.0000 </r>
       <r>   -1.2517    1.0000 </r>
       <r>   -1.2381    1.0000 </r>
       <r>   -1.2259    1.0000 </r>
       <r>   -1.1951    1.0000 </r>
       <r>   -1.1813    1.0000 </r>
       <r>   -1.1564    1.0000 </r>
       <r>   -1.1486    1.0000 </r>
       <r>   -1.1355    1.0000 </r>
       <r>   -1.1249    1.0000 </r>
       <r>   -1.1011    1.0000 </r>
       <r>   -1.0739    1.0000 </r>
       <r>   -1.0647    1.0000 </r>
       <r>   -1.0265    1.0000 </r>
       <r>   -0.9538    1.0000 </r>
       <r>   -0.8809    1.0000 </r>
       <r>   -0.8740    1.0000 </r>
       <r>   -0.8230    1.0000 </r>
       <r>   -0.6666    1.0000 </r>
       <r>   -0.4846    1.0000 </r>
       <r>   -0.4407    1.0000 </r>
       <r>   -0.3610    1.0000 </r>
       <r>    2.5896    0.0000 </r>
       <r>    3.0854    0.0000 </r>
       <r>    3.1568    0.0000 </r>
       <r>    3.2089    0.0000 </r>
       <r>    3.4317    0.0000 </r>
       <r>    3.9817    0.0000 </r>
       <r>    4.2567    0.0000 </r>
       <r>    4.3166    0.0000 </r>
       <r>    4.3576    0.0000 </r>
       <r>    4.3748    0.0000 </r>
       <r>    4.4656    0.0000 </r>
       <r>    4.4913    0.0000 </r>
       <r>    4.5364    0.0000 </r>
       <r>    4.5570    0.0000 </r>
       <r>    4.7002    0.0000 </r>
       <r>    4.7634    0.0000 </r>
       <r>    4.7872    0.0000 </r>
       <r>    4.8167    0.0000 </r>
       <r>    4.8884    0.0000 </r>
       <r>    4.8995    0.0000 </r>
       <r>    4.9449    0.0000 </r>
       <r>    5.7006    0.0000 </r>
       <r>    5.7648    0.0000 </r>
       <r>    5.8464    0.0000 </r>
       <r>    5.9034    0.0000 </r>
       <r>    5.9926    0.0000 </r>
       <r>    6.0523    0.0000 </r>
       <r>    6.1064    0.0000 </r>
       <r>    6.2228    0.0000 </r>
       <r>    6.3076    0.0000 </r>
       <r>    6.3257    0.0000 </r>
       <r>    6.3392    0.0000 </r>
       <r>    6.3680    0.0000 </r>
       <r>    6.4218    0.0000 </r>
       <r>    6.5033    0.0000 </r>
       <r>    6.5676    0.0000 </r>
      </set>
      <set comment="kpoint 5">
       <r>  -20.9090    1.0000 </r>
       <r>  -20.8060    1.0000 </r>
       <r>  -20.7914    1.0000 </r>
       <r>  -20.7725    1.0000 </r>
       <r>  -20.7442    1.0000 </r>
       <r>  -20.7252    1.0000 </r>
       <r>  -20.6703    1.0000 </r>
       <r>  -20.6610    1.0000 </r>
       <r>  -16.7038    1.0000 </r>
       <r>  -16.6734    1.0000 </r>
       <r>  -16.6659    1.0000 </r>
       <r>  -16.6357    1.0000 </r>
       <r>  -16.6007    1.0000 </r>
       <r>  -16.5963    1.0000 </r>
       <r>  -16.5866    1.0000 </r>
       <r>  -16.5732    1.0000 </r>
       <r>  -16.5502    1.0000 </r>
       <r>  -16.5494    1.0000 </r>
       <r>  -16.5430    1.0000 </r>
       <r>  -16.5139    1.0000 </r>
       <r>  -16.5092    1.0000 </r>
       <r>  -16.4810    1.0000 </r>
       <r>  -16.4620    1.0000 </r>
       <r>  -16.4312    1.0000 </r>
       <r>  -16.4253    1.0000 </r>
       <r>  -16.4245    1.0000 </r>
       <r>  -16.4196    1.0000 </r>
       <r>  -16.3977    1.0000 </r>
       <r>  -16.3855    1.0000 </r>
       <r>  -16.3829    1.0000 </r>
       <r>  -16.3636    1.0000 </r>
       <r>  -16.3502    1.0000 </r>
       <r>  -16.3358    1.0000 </r>
       <r>  -16.3307    1.0000 </r>
       <r>  -16.3289    1.0000 </r>
       <r>  -16.3177    1.0000 </r>
       <r>  -16.3166    1.0000 </r>
       <r>  -16.3101    1.0000 </r>
       <r>  -16.3002    1.0000 </r>
       <r>  -16.2893    1.0000 </r>
       <r>  -16.2817    1.0000 </r>
       <r>  -16.2778    1.0000 </r>
       <r>  -16.2774    1.0000 </r>
       <r>  -16.2734    1.0000 </r>
       <r>  -16.2693    1.0000 </r>
       <r>  -16.2459    1.0000 </r>
       <r>  -16.2361    1.0000 </r>
       <r>  -16.2347    1.0000 </r>
       <r>  -14.4995    1.0000 </r>
       <r>  -14.4289    1.0000 </r>
       <r>  -14.2937    1.0000 </r>
       <r>  -14.2263    1.0000 </r>
       <r>  -14.2051    1.0000 </r>
       <r>  -14.1419    1.0000 </r>
       <r>  -14.1175    1.0000 </r>
       <r>  -14.1031    1.0000 </r>
       <r>  -14.0927    1.0000 </r>
       <r>  -14.0816    1.0000 </r>
       <r>  -14.0590    1.0000 </r>
       <r>  -14.0501    1.0000 </r>
       <r>  -14.0175    1.0000 </r>
       <r>  -14.0071    1.0000 </r>
       <r>  -13.9706    1.0000 </r>
       <r>  -13.9377    1.0000 </r>
       <r>  -13.8984    1.0000 </r>
       <r>  -13.8620    1.0000 </r>
       <r>  -13.8451    1.0000 </r>
       <r>  -13.8130    1.0000 </r>
       <r>  -13.7829    1.0000 </r>
       <r>  -13.7741    1.0000 </r>
       <r>  -13.7336    1.0000 </r>
       <r>   -8.0566    1.0000 </r>
       <r>   -7.9765    1.0000 </r>
       <r>   -7.6668    1.0000 </r>
       <r>   -7.5186    1.0000 </r>
       <r>   -7.4565    1.0000 </r>
       <r>   -7.4269    1.0000 </r>
       <r>   -7.3361    1.0000 </r>
       <r>   -7.2919    1.0000 </r>
       <r>   -7.2767    1.0000 </r>
       <r>   -7.2306    1.0000 </r>
       <r>   -7.2234    1.0000 </r>
       <r>   -7.2095    1.0000 </r>
       <r>   -7.2007    1.0000 </r>
       <r>   -7.1926    1.0000 </r>
       <r>   -7.1804    1.0000 </r>
       <r>   -7.1789    1.0000 </r>
       <r>   -7.1709    1.0000 </r>
       <r>   -7.1671    1.0000 </r>
       <r>   -7.1567    1.0000 </r>
       <r>   -7.1461    1.0000 </r>
       <r>   -7.1410    1.0000 </r>
       <r>   -7.1284    1.0000 </r>
       <r>   -7.1182    1.0000 </r>
       <r>   -7.1016    1.0000 </r>
       <r>   -7.0895    1.0000 </r>
       <r>   -7.0865    1.0000 </r>
       <r>   -7.0840    1.0000 </r>
       <r>   -7.0688    1.0000 </r>
       <r>   -7.0642    1.0000 </r>
       <r>   -7.0408    1.0000 </r>
       <r>   -6.9377    1.0000 </r>
       <r>   -6.8438    1.0000 </r>
       <r>   -3.3587    1.0000 </r>
       <r>   -3.3167    1.0000 </r>
       <r>   -3.2965    1.0000 </r>
       <r>   -3.2592    1.0000 </r>
       <r>   -3.2196    1.0000 </r>
       <r>   -3.1486    1.0000 </r>
       <r>   -3.1203    1.0000 </r>
       <r>   -3.0498    1.0000 </r>
       <r>   -2.9780    1.0000 </r>
       <r>   -2.5376    1.0000 </r>
       <r>   -2.5058    1.0000 </r>
       <r>   -2.4502    1.0000 </r>
       <r>   -2.4044    1.0000 </r>
       <r>   -2.3688    1.0000 </r>
       <r>   -2.3295    1.0000 </r>
       <r>   -2.1848    1.0000 </r>
       <r>   -2.1268    1.0000 </r>
       <r>   -2.0992    1.0000 </r>
       <r>   -2.0507    1.0000 </r>
       <r>   -2.0203    1.0000 </r>
       <r>   -1.9825    1.0000 </r>
       <r>   -1.9146    1.0000 </r>
       <r>   -1.8651    1.0000 </r>
       <r>   -1.8191    1.0000 </r>
       <r>   -1.7833    1.0000 </r>
       <r>   -1.7470    1.0000 </r>
       <r>   -1.7321    1.0000 </r>
       <r>   -1.6807    1.0000 </r>
       <r>   -1.6737    1.0000 </r>
       <r>   -1.6086    1.0000 </r>
       <r>   -1.5717    1.0000 </r>
       <r>   -1.5599    1.0000 </r>
       <r>   -1.5459    1.0000 </r>
       <r>   -1.5036    1.0000 </r>
       <r>   -1.4971    1.0000 </r>
       <r>   -1.4811    1.0000 </r>
       <r>   -1.4679    1.0000 </r>
       <r>   -1.4620    1.0000 </r>
       <r>   -1.4383    1.0000 </r>
       <r>   -1.4034    1.0000 </r>
       <r>   -1.3892    1.0000 </r>
       <r>   -1.3794    1.0000 </r>
       <r>   -1.3611    1.0000 </r>
       <r>   -1.3542    1.0000 </r>
       <r>   -1.3472    1.0000 </r>
       <r>   -1.3256    1.0000 </r>
       <r>   -1.3140    1.0000 </r>
       <r>   -1.2966    1.0000 </r>
       <r>   -1.2750    1.0000 </r>
       <r>   -1.2523    1.0000 </r>
       <r>   -1.2471    1.0000 </r>
       <r>   -1.2179    1.0000 </r>
       <r>   -1.2089    1.0000 </r>
       <r>   -1.1549    1.0000 </r>
       <r>   -1.1458    1.0000 </r>
       <r>   -1.1188    1.0000 </r>
       <r>   -1.1065    1.0000 </r>
       <r>   -1.0989    1.0000 </r>
       <r>   -1.0581    1.0000 </r>
       <r>   -1.0405    1.0000 </r>
       <r>   -0.9960    1.0000 </r>
       <r>   -0.9126    1.0000 </r>
       <r>   -0.8798    1.0000 </r>
       <r>   -0.7634    1.0000 </r>
       <r>   -0.6026    1.0000 </r>
       <r>   -0.5127    1.0000 </r>
       <r>   -0.4512    1.0000 </r>
       <r>   -0.0722    1.0000 </r>
       <r>    0.0419    1.0000 </r>
       <r>    2.7150    0.0000 </r>
       <r>    2.8957    0.0000 </r>
       <r>    2.9498    0.0000 </r>
       <r>    2.9544    0.0000 </r>
       <r>    3.1713    0.0000 </r>
       <r>    3.2789    0.0000 </r>
       <r>    3.3147    0.0000 </r>
       <r>    3.3721    0.0000 </r>
       <r>    3.5245    0.0000 </r>
       <r>    4.1000    0.0000 </r>
       <r>    4.2323    0.0000 </r>
       <r>    4.3960    0.0000 </r>
       <r>    4.4911    0.0000 </r>
       <r>    4.6292    0.0000 </r>
       <r>    4.6715    0.0000 </r>
       <r>    4.7836    0.0000 </r>
       <r>    4.8645    0.0000 </r>
       <r>    5.3845    0.0000 </r>
       <r>    5.5821    0.0000 </r>
       <r>    5.6571    0.0000 </r>
       <r>    5.6911    0.0000 </r>
       <r>    5.8492    0.0000 </r>
       <r>    5.8735    0.0000 </r>
       <r>    6.0027    0.0000 </r>
       <r>    6.0941    0.0000 </r>
       <r>    6.1121    0.0000 </r>
       <r>    6.1578    0.0000 </r>
       <r>    6.2501    0.0000 </r>
       <r>    6.2725    0.0000 </r>
       <r>    6.3054    0.0000 </r>
       <r>    6.3634    0.0000 </r>
       <r>    6.4247    0.0000 </r>
       <r>    6.4312    0.0000 </r>
       <r>    6.4806    0.0000 </r>
       <r>    6.5743    0.0000 </r>
       <r>    6.6379    0.0000 </r>
      </set>
      <set comment="kpoint 6">
       <r>  -20.9089    1.0000 </r>
       <r>  -20.8060    1.0000 </r>
       <r>  -20.7914    1.0000 </r>
       <r>  -20.7725    1.0000 </r>
       <r>  -20.7442    1.0000 </r>
       <r>  -20.7252    1.0000 </r>
       <r>  -20.6703    1.0000 </r>
       <r>  -20.6610    1.0000 </r>
       <r>  -16.7037    1.0000 </r>
       <r>  -16.6731    1.0000 </r>
       <r>  -16.6658    1.0000 </r>
       <r>  -16.6330    1.0000 </r>
       <r>  -16.6006    1.0000 </r>
       <r>  -16.5961    1.0000 </r>
       <r>  -16.5866    1.0000 </r>
       <r>  -16.5732    1.0000 </r>
       <r>  -16.5503    1.0000 </r>
       <r>  -16.5494    1.0000 </r>
       <r>  -16.5430    1.0000 </r>
       <r>  -16.5139    1.0000 </r>
       <r>  -16.5092    1.0000 </r>
       <r>  -16.4810    1.0000 </r>
       <r>  -16.4615    1.0000 </r>
       <r>  -16.4276    1.0000 </r>
       <r>  -16.4248    1.0000 </r>
       <r>  -16.4090    1.0000 </r>
       <r>  -16.4058    1.0000 </r>
       <r>  -16.3961    1.0000 </r>
       <r>  -16.3949    1.0000 </r>
       <r>  -16.3855    1.0000 </r>
       <r>  -16.3810    1.0000 </r>
       <r>  -16.3519    1.0000 </r>
       <r>  -16.3454    1.0000 </r>
       <r>  -16.3307    1.0000 </r>
       <r>  -16.3289    1.0000 </r>
       <r>  -16.3177    1.0000 </r>
       <r>  -16.3166    1.0000 </r>
       <r>  -16.3102    1.0000 </r>
       <r>  -16.3003    1.0000 </r>
       <r>  -16.2892    1.0000 </r>
       <r>  -16.2817    1.0000 </r>
       <r>  -16.2777    1.0000 </r>
       <r>  -16.2774    1.0000 </r>
       <r>  -16.2735    1.0000 </r>
       <r>  -16.2693    1.0000 </r>
       <r>  -16.2459    1.0000 </r>
       <r>  -16.2361    1.0000 </r>
       <r>  -16.2348    1.0000 </r>
       <r>  -14.4929    1.0000 </r>
       <r>  -14.4230    1.0000 </r>
       <r>  -14.2835    1.0000 </r>
       <r>  -14.2667    1.0000 </r>
       <r>  -14.2101    1.0000 </r>
       <r>  -14.1889    1.0000 </r>
       <r>  -14.1174    1.0000 </r>
       <r>  -14.1082    1.0000 </r>
       <r>  -14.1021    1.0000 </r>
       <r>  -14.0894    1.0000 </r>
       <r>  -14.0757    1.0000 </r>
       <r>  -14.0082    1.0000 </r>
       <r>  -14.0017    1.0000 </r>
       <r>  -13.9738    1.0000 </r>
       <r>  -13.9139    1.0000 </r>
       <r>  -13.8832    1.0000 </r>
       <r>  -13.8757    1.0000 </r>
       <r>  -13.8635    1.0000 </r>
       <r>  -13.8351    1.0000 </r>
       <r>  -13.8259    1.0000 </r>
       <r>  -13.8255    1.0000 </r>
       <r>  -13.8056    1.0000 </r>
       <r>  -13.7676    1.0000 </r>
       <r>   -7.9583    1.0000 </r>
       <r>   -7.8246    1.0000 </r>
       <r>   -7.7607    1.0000 </r>
       <r>   -7.7051    1.0000 </r>
       <r>   -7.3522    1.0000 </r>
       <r>   -7.3235    1.0000 </r>
       <r>   -7.2981    1.0000 </r>
       <r>   -7.2899    1.0000 </r>
       <r>   -7.2569    1.0000 </r>
       <r>   -7.2391    1.0000 </r>
       <r>   -7.2232    1.0000 </r>
       <r>   -7.2161    1.0000 </r>
       <r>   -7.2078    1.0000 </r>
       <r>   -7.1977    1.0000 </r>
       <r>   -7.1892    1.0000 </r>
       <r>   -7.1812    1.0000 </r>
       <r>   -7.1764    1.0000 </r>
       <r>   -7.1661    1.0000 </r>
       <r>   -7.1606    1.0000 </r>
       <r>   -7.1581    1.0000 </r>
[...]
        <r>  0.0001  0.0002  0.0003 </r>
        <r>  0.0000  0.0017  0.0002 </r>
        <r>  0.0002  0.0002  0.0008 </r>
        <r>  0.0003  0.0009  0.0004 </r>
        <r>  0.0001  0.0001  0.0006 </r>
        <r>  0.0008  0.0021  0.0007 </r>
        <r>  0.0001  0.0001  0.0010 </r>
        <r>  0.0000  0.0001  0.0002 </r>
        <r>  0.0010  0.0006  0.0035 </r>
       </set>
       <set comment="band 199">
        <r>  0.0005  0.0003  0.0071 </r>
        <r>  0.0028  0.0002  0.0166 </r>
        <r>  0.0068  0.0005  0.0065 </r>
        <r>  0.0009  0.0003  0.0026 </r>
        <r>  0.0011  0.0004  0.0093 </r>
        <r>  0.0030  0.0014  0.0132 </r>
        <r>  0.0001  0.0008  0.0008 </r>
        <r>  0.0015  0.0007  0.0080 </r>
        <r>  0.0000  0.0050  0.0001 </r>
        <r>  0.0000  0.0018  0.0001 </r>
        <r>  0.0001  0.0038  0.0001 </r>
        <r>  0.0000  0.0013  0.0002 </r>
        <r>  0.0002  0.0061  0.0010 </r>
        <r>  0.0002  0.0047  0.0006 </r>
        <r>  0.0000  0.0017  0.0003 </r>
        <r>  0.0001  0.0011  0.0007 </r>
        <r>  0.0001  0.0004  0.0006 </r>
        <r>  0.0000  0.0043  0.0005 </r>
        <r>  0.0000  0.0020  0.0014 </r>
        <r>  0.0000  0.0047  0.0004 </r>
        <r>  0.0002  0.0015  0.0009 </r>
        <r>  0.0008  0.0005  0.0008 </r>
        <r>  0.0000  0.0017  0.0025 </r>
        <r>  0.0014  0.0007  0.0016 </r>
        <r>  0.0001  0.0016  0.0010 </r>
        <r>  0.0010  0.0014  0.0017 </r>
        <r>  0.0002  0.0013  0.0008 </r>
        <r>  0.0000  0.0033  0.0005 </r>
        <r>  0.0011  0.0008  0.0008 </r>
        <r>  0.0001  0.0045  0.0010 </r>
        <r>  0.0001  0.0039  0.0002 </r>
        <r>  0.0000  0.0011  0.0005 </r>
        <r>  0.0023  0.0022  0.0019 </r>
        <r>  0.0014  0.0004  0.0014 </r>
        <r>  0.0000  0.0010  0.0002 </r>
        <r>  0.0020  0.0006  0.0022 </r>
        <r>  0.0012  0.0006  0.0012 </r>
        <r>  0.0004  0.0022  0.0015 </r>
        <r>  0.0001  0.0022  0.0012 </r>
       </set>
       <set comment="band 200">
        <r>  0.0001  0.0001  0.0008 </r>
        <r>  0.0006  0.0007  0.0112 </r>
        <r>  0.0010  0.0015  0.0064 </r>
        <r>  0.0011  0.0009  0.0030 </r>
        <r>  0.0049  0.0004  0.0105 </r>
        <r>  0.0011  0.0002  0.0157 </r>
        <r>  0.0109  0.0003  0.0080 </r>
        <r>  0.0014  0.0002  0.0119 </r>
        <r>  0.0000  0.0026  0.0002 </r>
        <r>  0.0000  0.0028  0.0001 </r>
        <r>  0.0000  0.0023  0.0001 </r>
        <r>  0.0001  0.0067  0.0003 </r>
        <r>  0.0000  0.0052  0.0001 </r>
        <r>  0.0008  0.0060  0.0002 </r>
        <r>  0.0000  0.0009  0.0001 </r>
        <r>  0.0000  0.0075  0.0001 </r>
        <r>  0.0003  0.0017  0.0020 </r>
        <r>  0.0029  0.0008  0.0027 </r>
        <r>  0.0000  0.0024  0.0014 </r>
        <r>  0.0001  0.0002  0.0002 </r>
        <r>  0.0002  0.0031  0.0003 </r>
        <r>  0.0001  0.0034  0.0010 </r>
        <r>  0.0006  0.0015  0.0010 </r>
        <r>  0.0009  0.0040  0.0023 </r>
        <r>  0.0000  0.0013  0.0003 </r>
        <r>  0.0000  0.0012  0.0006 </r>
        <r>  0.0021  0.0007  0.0015 </r>
        <r>  0.0005  0.0010  0.0024 </r>
        <r>  0.0000  0.0014  0.0001 </r>
        <r>  0.0012  0.0009  0.0016 </r>
        <r>  0.0001  0.0007  0.0006 </r>
        <r>  0.0001  0.0008  0.0006 </r>
        <r>  0.0017  0.0017  0.0008 </r>
        <r>  0.0001  0.0042  0.0002 </r>
        <r>  0.0003  0.0036  0.0014 </r>
        <r>  0.0000  0.0038  0.0011 </r>
        <r>  0.0024  0.0054  0.0010 </r>
        <r>  0.0000  0.0014  0.0001 </r>
        <r>  0.0004  0.0012  0.0007 </r>
       </set>
       <set comment="band 201">
        <r>  0.0007  0.0005  0.0020 </r>
        <r>  0.0016  0.0005  0.0032 </r>
        <r>  0.0022  0.0019  0.0067 </r>
        <r>  0.0005  0.0011  0.0023 </r>
        <r>  0.0005  0.0002  0.0062 </r>
        <r>  0.0016  0.0006  0.0071 </r>
        <r>  0.0023  0.0009  0.0161 </r>
        <r>  0.0116  0.0011  0.0064 </r>
        <r>  0.0000  0.0116  0.0001 </r>
        <r>  0.0000  0.0004  0.0001 </r>
        <r>  0.0000  0.0018  0.0001 </r>
        <r>  0.0000  0.0027  0.0001 </r>
        <r>  0.0000  0.0144  0.0002 </r>
        <r>  0.0000  0.0087  0.0001 </r>
        <r>  0.0000  0.0063  0.0004 </r>
        <r>  0.0001  0.0043  0.0001 </r>
        <r>  0.0001  0.0037  0.0012 </r>
        <r>  0.0005  0.0016  0.0006 </r>
        <r>  0.0007  0.0086  0.0006 </r>
        <r>  0.0000  0.0002  0.0005 </r>
        <r>  0.0031  0.0021  0.0046 </r>
        <r>  0.0002  0.0004  0.0013 </r>
        <r>  0.0001  0.0010  0.0001 </r>
        <r>  0.0000  0.0027  0.0004 </r>
        <r>  0.0011  0.0038  0.0016 </r>
        <r>  0.0006  0.0034  0.0017 </r>
        <r>  0.0006  0.0078  0.0004 </r>
        <r>  0.0001  0.0008  0.0004 </r>
        <r>  0.0000  0.0010  0.0003 </r>
        <r>  0.0003  0.0029  0.0014 </r>
        <r>  0.0002  0.0006  0.0014 </r>
        <r>  0.0002  0.0013  0.0006 </r>
        <r>  0.0000  0.0008  0.0012 </r>
        <r>  0.0004  0.0013  0.0013 </r>
        <r>  0.0001  0.0010  0.0002 </r>
        <r>  0.0032  0.0042  0.0041 </r>
        <r>  0.0009  0.0011  0.0007 </r>
        <r>  0.0010  0.0017  0.0013 </r>
        <r>  0.0008  0.0003  0.0006 </r>
       </set>
       <set comment="band 202">
        <r>  0.0000  0.0003  0.0073 </r>
        <r>  0.0025  0.0005  0.0034 </r>
        <r>  0.0037  0.0007  0.0089 </r>
        <r>  0.0100  0.0017  0.0075 </r>
        <r>  0.0004  0.0014  0.0061 </r>
        <r>  0.0005  0.0005  0.0032 </r>
        <r>  0.0039  0.0016  0.0039 </r>
        <r>  0.0000  0.0017  0.0075 </r>
        <r>  0.0000  0.0025  0.0001 </r>
        <r>  0.0001  0.0058  0.0002 </r>
        <r>  0.0000  0.0027  0.0004 </r>
        <r>  0.0000  0.0042  0.0002 </r>
        <r>  0.0001  0.0161  0.0005 </r>
        <r>  0.0005  0.0014  0.0002 </r>
        <r>  0.0000  0.0046  0.0001 </r>
        <r>  0.0000  0.0067  0.0005 </r>
        <r>  0.0035  0.0022  0.0043 </r>
        <r>  0.0008  0.0006  0.0023 </r>
        <r>  0.0002  0.0010  0.0008 </r>
        <r>  0.0001  0.0014  0.0008 </r>
        <r>  0.0001  0.0036  0.0002 </r>
        <r>  0.0008  0.0052  0.0012 </r>
        <r>  0.0009  0.0070  0.0019 </r>
        <r>  0.0001  0.0024  0.0004 </r>
        <r>  0.0007  0.0008  0.0009 </r>
        <r>  0.0018  0.0031  0.0011 </r>
        <r>  0.0007  0.0009  0.0009 </r>
        <r>  0.0021  0.0017  0.0005 </r>
        <r>  0.0000  0.0004  0.0006 </r>
        <r>  0.0009  0.0010  0.0005 </r>
        <r>  0.0002  0.0025  0.0011 </r>
        <r>  0.0000  0.0031  0.0009 </r>
        <r>  0.0000  0.0025  0.0002 </r>
        <r>  0.0000  0.0016  0.0010 </r>
        <r>  0.0001  0.0027  0.0012 </r>
        <r>  0.0001  0.0033  0.0008 </r>
        <r>  0.0035  0.0026  0.0023 </r>
        <r>  0.0001  0.0009  0.0004 </r>
        <r>  0.0001  0.0010  0.0011 </r>
       </set>
       <set comment="band 203">
        <r>  0.0027  0.0006  0.0095 </r>
        <r>  0.0010  0.0016  0.0143 </r>
        <r>  0.0026  0.0005  0.0076 </r>
        <r>  0.0036  0.0009  0.0082 </r>
        <r>  0.0049  0.0002  0.0031 </r>
        <r>  0.0021  0.0008  0.0127 </r>
        <r>  0.0027  0.0006  0.0027 </r>
        <r>  0.0001  0.0006  0.0049 </r>
        <r>  0.0000  0.0006  0.0002 </r>
        <r>  0.0000  0.0000  0.0001 </r>
        <r>  0.0000  0.0064  0.0001 </r>
        <r>  0.0001  0.0099  0.0002 </r>
        <r>  0.0000  0.0008  0.0002 </r>
        <r>  0.0000  0.0004  0.0001 </r>
        <r>  0.0000  0.0052  0.0001 </r>
        <r>  0.0000  0.0171  0.0002 </r>
        <r>  0.0004  0.0044  0.0010 </r>
        <r>  0.0005  0.0032  0.0013 </r>
        <r>  0.0006  0.0025  0.0027 </r>
        <r>  0.0014  0.0053  0.0025 </r>
        <r>  0.0003  0.0013  0.0016 </r>
        <r>  0.0017  0.0050  0.0030 </r>
        <r>  0.0014  0.0020  0.0030 </r>
        <r>  0.0004  0.0027  0.0011 </r>
        <r>  0.0000  0.0007  0.0011 </r>
        <r>  0.0000  0.0013  0.0004 </r>
        <r>  0.0002  0.0009  0.0007 </r>
        <r>  0.0018  0.0021  0.0012 </r>
        <r>  0.0002  0.0022  0.0004 </r>
        <r>  0.0012  0.0014  0.0017 </r>
        <r>  0.0020  0.0026  0.0009 </r>
        <r>  0.0001  0.0013  0.0004 </r>
        <r>  0.0001  0.0018  0.0010 </r>
        <r>  0.0002  0.0008  0.0003 </r>
        <r>  0.0001  0.0002  0.0006 </r>
        <r>  0.0002  0.0027  0.0002 </r>
        <r>  0.0001  0.0024  0.0003 </r>
        <r>  0.0004  0.0016  0.0012 </r>
        <r>  0.0000  0.0017  0.0002 </r>
       </set>
       <set comment="band 204">
        <r>  0.0004  0.0008  0.0111 </r>
        <r>  0.0025  0.0005  0.0260 </r>
        <r>  0.0007  0.0005  0.0079 </r>
        <r>  0.0001  0.0007  0.0073 </r>
        <r>  0.0052  0.0018  0.0091 </r>
        <r>  0.0019  0.0009  0.0150 </r>
        <r>  0.0013  0.0004  0.0175 </r>
        <r>  0.0000  0.0001  0.0047 </r>
        <r>  0.0001  0.0036  0.0004 </r>
        <r>  0.0000  0.0031  0.0010 </r>
        <r>  0.0000  0.0018  0.0000 </r>
        <r>  0.0000  0.0030  0.0000 </r>
        <r>  0.0000  0.0012  0.0003 </r>
        <r>  0.0000  0.0101  0.0002 </r>
        <r>  0.0000  0.0064  0.0001 </r>
        <r>  0.0001  0.0031  0.0002 </r>
        <r>  0.0001  0.0013  0.0008 </r>
        <r>  0.0002  0.0017  0.0004 </r>
        <r>  0.0031  0.0033  0.0031 </r>
        <r>  0.0000  0.0005  0.0018 </r>
        <r>  0.0003  0.0022  0.0008 </r>
        <r>  0.0001  0.0010  0.0005 </r>
        <r>  0.0001  0.0006  0.0013 </r>
        <r>  0.0019  0.0039  0.0023 </r>
        <r>  0.0012  0.0015  0.0019 </r>
        <r>  0.0003  0.0001  0.0007 </r>
        <r>  0.0000  0.0037  0.0006 </r>
        <r>  0.0000  0.0026  0.0016 </r>
        <r>  0.0000  0.0008  0.0007 </r>
        <r>  0.0007  0.0010  0.0023 </r>
        <r>  0.0000  0.0015  0.0013 </r>
        <r>  0.0004  0.0023  0.0011 </r>
        <r>  0.0010  0.0010  0.0020 </r>
        <r>  0.0000  0.0006  0.0006 </r>
        <r>  0.0010  0.0016  0.0033 </r>
        <r>  0.0008  0.0002  0.0012 </r>
        <r>  0.0000  0.0016  0.0003 </r>
        <r>  0.0002  0.0000  0.0009 </r>
        <r>  0.0001  0.0003  0.0016 </r>
       </set>
       <set comment="band 205">
        <r>  0.0098  0.0006  0.0150 </r>
        <r>  0.0040  0.0001  0.0099 </r>
        <r>  0.0004  0.0003  0.0092 </r>
        <r>  0.0001  0.0007  0.0108 </r>
        <r>  0.0007  0.0016  0.0042 </r>
        <r>  0.0017  0.0006  0.0043 </r>
        <r>  0.0000  0.0009  0.0066 </r>
        <r>  0.0007  0.0010  0.0086 </r>
        <r>  0.0000  0.0020  0.0002 </r>
        <r>  0.0000  0.0054  0.0001 </r>
        <r>  0.0000  0.0112  0.0002 </r>
        <r>  0.0000  0.0050  0.0001 </r>
        <r>  0.0000  0.0044  0.0001 </r>
        <r>  0.0000  0.0069  0.0002 </r>
        <r>  0.0000  0.0035  0.0004 </r>
        <r>  0.0002  0.0015  0.0004 </r>
        <r>  0.0002  0.0008  0.0010 </r>
        <r>  0.0000  0.0008  0.0003 </r>
        <r>  0.0019  0.0011  0.0011 </r>
        <r>  0.0006  0.0037  0.0025 </r>
        <r>  0.0003  0.0033  0.0015 </r>
        <r>  0.0001  0.0035  0.0004 </r>
        <r>  0.0001  0.0053  0.0005 </r>
        <r>  0.0000  0.0027  0.0007 </r>
        <r>  0.0006  0.0032  0.0014 </r>
        <r>  0.0001  0.0017  0.0013 </r>
        <r>  0.0003  0.0020  0.0009 </r>
        <r>  0.0002  0.0018  0.0009 </r>
        <r>  0.0013  0.0019  0.0015 </r>
        <r>  0.0020  0.0028  0.0020 </r>
        <r>  0.0006  0.0002  0.0001 </r>
        <r>  0.0024  0.0038  0.0035 </r>
        <r>  0.0001  0.0018  0.0006 </r>
        <r>  0.0002  0.0019  0.0008 </r>
        <r>  0.0000  0.0045  0.0008 </r>
        <r>  0.0001  0.0027  0.0005 </r>
        <r>  0.0003  0.0000  0.0010 </r>
        <r>  0.0021  0.0016  0.0028 </r>
        <r>  0.0013  0.0010  0.0005 </r>
       </set>
       <set comment="band 206">
        <r>  0.0000  0.0003  0.0134 </r>
        <r>  0.0000  0.0002  0.0069 </r>
        <r>  0.0012  0.0008  0.0176 </r>
        <r>  0.0021  0.0001  0.0197 </r>
        <r>  0.0009  0.0003  0.0232 </r>
        <r>  0.0002  0.0000  0.0086 </r>
        <r>  0.0027  0.0009  0.0047 </r>
        <r>  0.0002  0.0005  0.0184 </r>
        <r>  0.0000  0.0075  0.0002 </r>
        <r>  0.0000  0.0066  0.0002 </r>
        <r>  0.0000  0.0011  0.0006 </r>
        <r>  0.0000  0.0012  0.0004 </r>
        <r>  0.0002  0.0016  0.0001 </r>
        <r>  0.0000  0.0013  0.0001 </r>
        <r>  0.0000  0.0065  0.0003 </r>
        <r>  0.0001  0.0045  0.0002 </r>
        <r>  0.0003  0.0003  0.0009 </r>
        <r>  0.0002  0.0029  0.0014 </r>
        <r>  0.0001  0.0004  0.0006 </r>
        <r>  0.0000  0.0009  0.0005 </r>
        <r>  0.0000  0.0014  0.0015 </r>
        <r>  0.0003  0.0013  0.0008 </r>
        <r>  0.0000  0.0003  0.0002 </r>
        <r>  0.0000  0.0019  0.0006 </r>
        <r>  0.0002  0.0007  0.0015 </r>
        <r>  0.0000  0.0021  0.0023 </r>
        <r>  0.0002  0.0021  0.0013 </r>
        <r>  0.0001  0.0002  0.0005 </r>
        <r>  0.0006  0.0038  0.0013 </r>
        <r>  0.0000  0.0002  0.0008 </r>
        <r>  0.0003  0.0023  0.0035 </r>
        <r>  0.0003  0.0008  0.0036 </r>
        <r>  0.0000  0.0027  0.0003 </r>
        <r>  0.0004  0.0015  0.0015 </r>
        <r>  0.0035  0.0006  0.0031 </r>
        <r>  0.0001  0.0002  0.0010 </r>
        <r>  0.0000  0.0010  0.0018 </r>
        <r>  0.0019  0.0022  0.0016 </r>
        <r>  0.0001  0.0003  0.0002 </r>
       </set>
       <set comment="band 207">
        <r>  0.0027  0.0002  0.0099 </r>
        <r>  0.0004  0.0002  0.0161 </r>
        <r>  0.0000  0.0002  0.0125 </r>
        <r>  0.0007  0.0009  0.0147 </r>
        <r>  0.0005  0.0000  0.0119 </r>
        <r>  0.0009  0.0000  0.0122 </r>
        <r>  0.0000  0.0005  0.0235 </r>
        <r>  0.0010  0.0000  0.0138 </r>
        <r>  0.0000  0.0051  0.0004 </r>
        <r>  0.0000  0.0067  0.0003 </r>
        <r>  0.0000  0.0017  0.0006 </r>
        <r>  0.0000  0.0099  0.0004 </r>
        <r>  0.0001  0.0036  0.0001 </r>
        <r>  0.0001  0.0078  0.0005 </r>
        <r>  0.0001  0.0063  0.0002 </r>
        <r>  0.0000  0.0044  0.0002 </r>
        <r>  0.0000  0.0007  0.0007 </r>
        <r>  0.0001  0.0010  0.0005 </r>
        <r>  0.0000  0.0020  0.0006 </r>
        <r>  0.0002  0.0004  0.0010 </r>
        <r>  0.0007  0.0002  0.0010 </r>
        <r>  0.0001  0.0014  0.0006 </r>
        <r>  0.0000  0.0012  0.0007 </r>
        <r>  0.0000  0.0002  0.0003 </r>
        <r>  0.0002  0.0004  0.0020 </r>
        <r>  0.0017  0.0007  0.0011 </r>
        <r>  0.0007  0.0026  0.0031 </r>
        <r>  0.0009  0.0012  0.0033 </r>
        <r>  0.0004  0.0013  0.0025 </r>
        <r>  0.0003  0.0035  0.0004 </r>
        <r>  0.0000  0.0016  0.0014 </r>
        <r>  0.0008  0.0002  0.0024 </r>
        <r>  0.0002  0.0007  0.0014 </r>
        <r>  0.0008  0.0012  0.0020 </r>
        <r>  0.0000  0.0056  0.0027 </r>
        <r>  0.0004  0.0016  0.0006 </r>
        <r>  0.0005  0.0029  0.0028 </r>
        <r>  0.0000  0.0001  0.0011 </r>
        <r>  0.0000  0.0001  0.0002 </r>
       </set>
       <set comment="band 208">
        <r>  0.0010  0.0003  0.0090 </r>
        <r>  0.0031  0.0006  0.0113 </r>
        <r>  0.0003  0.0005  0.0101 </r>
        <r>  0.0011  0.0008  0.0324 </r>
        <r>  0.0000  0.0008  0.0047 </r>
        <r>  0.0001  0.0007  0.0203 </r>
        <r>  0.0019  0.0002  0.0090 </r>
        <r>  0.0002  0.0007  0.0092 </r>
        <r>  0.0000  0.0077  0.0006 </r>
        <r>  0.0000  0.0029  0.0004 </r>
        <r>  0.0000  0.0025  0.0004 </r>
        <r>  0.0001  0.0021  0.0009 </r>
        <r>  0.0000  0.0014  0.0003 </r>
        <r>  0.0000  0.0056  0.0001 </r>
        <r>  0.0000  0.0026  0.0007 </r>
        <r>  0.0002  0.0019  0.0002 </r>
        <r>  0.0001  0.0043  0.0018 </r>
        <r>  0.0006  0.0023  0.0016 </r>
        <r>  0.0001  0.0013  0.0010 </r>
        <r>  0.0000  0.0007  0.0006 </r>
        <r>  0.0005  0.0002  0.0020 </r>
        <r>  0.0007  0.0017  0.0008 </r>
        <r>  0.0001  0.0014  0.0011 </r>
        <r>  0.0016  0.0013  0.0032 </r>
        <r>  0.0009  0.0004  0.0011 </r>
        <r>  0.0003  0.0011  0.0010 </r>
        <r>  0.0002  0.0017  0.0008 </r>
        <r>  0.0013  0.0015  0.0017 </r>
        <r>  0.0008  0.0048  0.0024 </r>
        <r>  0.0011  0.0001  0.0027 </r>
        <r>  0.0000  0.0021  0.0022 </r>
        <r>  0.0000  0.0028  0.0003 </r>
        <r>  0.0005  0.0014  0.0011 </r>
        <r>  0.0002  0.0006  0.0006 </r>
        <r>  0.0011  0.0005  0.0020 </r>
        <r>  0.0000  0.0008  0.0010 </r>
        <r>  0.0007  0.0006  0.0009 </r>
        <r>  0.0000  0.0006  0.0013 </r>
        <r>  0.0000  0.0010  0.0011 </r>
       </set>
      </set>
     </set>
    </set>
   </array>
  </projected>
 </calculation>
 <structure name="finalpos" >
  <crystal>
   <varray name="basis" >
    <v>       8.45648900       0.00000000       8.04030100 </v>
    <v>       0.00000000      11.72984700       0.00000000 </v>
    <v>      -8.45648900       0.00000000       8.04030100 </v>
   </varray>
   <i name="volume">   1595.08833419 </i>
   <varray name="rec_basis" >
    <v>       0.05912619      -0.00000000       0.06218673 </v>
    <v>       0.00000000       0.08525260      -0.00000000 </v>
    <v>      -0.05912619       0.00000000       0.06218673 </v>
   </varray>
  </crystal>
  <varray name="positions" >
   <v>       0.27642700       0.24841800       0.19004800 </v>
   <v>       0.77127300       0.22520800       0.75739000 </v>
   <v>       0.70245600       0.76833100       0.25190900 </v>
   <v>       0.21396500       0.75635500       0.78461600 </v>
   <v>       0.24496100       0.23648800       0.72785000 </v>
   <v>       0.80524300       0.24400100       0.22878000 </v>
   <v>       0.73513000       0.76354100       0.75351800 </v>
   <v>       0.22701100       0.75159900       0.30461900 </v>
   <v>       0.01055700       0.99769000       0.00760300 </v>
   <v>       0.48732000       0.00352500       0.49302200 </v>
   <v>       0.50484000       0.99922200       0.99409000 </v>
   <v>       0.98990900       0.99738600       0.49994300 </v>
   <v>       0.51142500       0.49928900       0.99231800 </v>
   <v>       0.99672000       0.50166900       0.51195300 </v>
   <v>       0.01076100       0.50387900       0.01127900 </v>
   <v>       0.47484000       0.49888800       0.48592900 </v>
   <v>       0.49582800       0.74723500       0.94949100 </v>
   <v>       0.94905100       0.74722900       0.46365500 </v>
   <v>       0.99568100       0.25128400       0.97958800 </v>
   <v>       0.42825000       0.25364100       0.47472500 </v>
   <v>       0.04528100       0.75086900       0.04477500 </v>
   <v>       0.51750400       0.75005300       0.50871100 </v>
   <v>       0.54508100       0.24991700       0.02344800 </v>
   <v>       0.98672700       0.25188900       0.53737600 </v>
   <v>       0.26366100       0.46964900       0.94393400 </v>
   <v>       0.46880800       0.53087000       0.22936900 </v>
   <v>       0.96021900       0.54085300       0.76106000 </v>
   <v>       0.53774900       0.02814400       0.74587900 </v>
   <v>       0.05607900       0.03620000       0.25724400 </v>
   <v>       0.76096400       0.98273100       0.03752100 </v>
   <v>       0.24082600       0.96104600       0.55133000 </v>
   <v>       0.25629900       0.02847000       0.94975500 </v>
   <v>       0.73593800       0.02967800       0.44902600 </v>
   <v>       0.44325900       0.96861500       0.24116200 </v>
   <v>       0.96312400       0.97041300       0.75130400 </v>
   <v>       0.76529200       0.52343000       0.05991500 </v>
   <v>       0.23709100       0.53130200       0.57098500 </v>
   <v>       0.06187000       0.46460100       0.26847200 </v>
   <v>       0.66158400       0.47389300       0.62394200 </v>
  </varray>
 </structure>
</modeling>
