CsPbBr3 cubic bulk                      
           1
     8.456489    0.000000    8.040301
     0.000000   11.729847    0.000000
    -8.456489    0.000000    8.040301
   Cs   Pb   Br
   8   8  23
Direct configuration=     1
   0.27642700  0.24841800  0.19004800
   0.77127300  0.22520800  0.75739000
   0.70245600  0.76833100  0.25190900
   0.21396500  0.75635500  0.78461600
   0.24496100  0.23648800  0.72785000
   0.80524300  0.24400100  0.22878000
   0.73513000  0.76354100  0.75351800
   0.22701100  0.75159900  0.30461900
   0.01055700  0.99769000  0.00760300
   0.48732000  0.00352500  0.49302200
   0.50484000  0.99922200  0.99409000
   0.98990900  0.99738600  0.49994300
   0.51142500  0.49928900  0.99231800
   0.99672000  0.50166900  0.51195300
   0.01076100  0.50387900  0.01127900
   0.47484000  0.49888800  0.48592900
   0.49582800  0.74723500  0.94949100
   0.94905100  0.74722900  0.46365500
   0.99568100  0.25128400  0.97958800
   0.42825000  0.25364100  0.47472500
   0.04528100  0.75086900  0.04477500
   0.51750400  0.75005300  0.50871100
   0.54508100  0.24991700  0.02344800
   0.98672700  0.25188900  0.53737600
   0.26366100  0.46964900  0.94393400
   0.46880800  0.53087000  0.22936900
   0.96021900  0.54085300  0.76106000
   0.53774900  0.02814400  0.74587900
   0.05607900  0.03620000  0.25724400
   0.76096400  0.98273100  0.03752100
   0.24082600  0.96104600  0.55133000
   0.25629900  0.02847000  0.94975500
   0.73593800  0.02967800  0.44902600
   0.44325900  0.96861500  0.24116200
   0.96312400  0.97041300  0.75130400
   0.76529200  0.52343000  0.05991500
   0.23709100  0.53130200  0.57098500
   0.06187000  0.46460100  0.26847200
   0.66158400  0.47389300  0.62394200
