 vasp.5.4.4.18Apr17-6-g9f103f2a35 (build Jun 22 2020 09:36:46) gamma-only        
 executed on tx2_gcc-7.3_libsci-1 date 2021.03.02  09:49:06
 running on   64 total cores
 distrk:  each k-point on   64 cores,    1 groups
 distr:  one band on NCORES_PER_BAND=   8 cores,    8 groups


--------------------------------------------------------------------------------------------------------


 INCAR:
 POTCAR:    PAW_PBE Cs_sv 08Apr2002               
 POTCAR:    PAW_PBE Pb_d 06Sep2000                
 POTCAR:    PAW_PBE Br 06Sep2000                  
 POTCAR:    PAW_PBE Cs_sv 08Apr2002               
 POTCAR:    PAW_PBE Pb_d 06Sep2000                
 POTCAR:    PAW_PBE Br 06Sep2000                  
 POTCAR:    PAW_PBE Cs_sv 08Apr2002               
   SHA256 =  c1463496f0f6037ed62c6012a8013a89ee9ad6ffb38599dcd6c079e7ed31779b Cs
   COPYR  = (c) Copyright 08Apr2002 Georg Kresse                                
   COPYR  = This file is part of the software VASP. Any use, copying, and all ot
   COPYR  = If you do not have a valid VASP license, you may not use, copy or di
   VRHFIN =Cs: 5s5p6s                                                           
   LEXCH  = PE                                                                  
   EATOM  =   555.6835 eV,   40.8416 Ry                                         
                                                                                
   TITEL  = PAW_PBE Cs_sv 08Apr2002                                             
   LULTRA =        F    use ultrasoft PP ?                                      
   IUNSCR =        1    unscreen: 0-lin 1-nonlin 2-no                           
   RPACOR =    2.200    partial core radius                                     
   POMASS =  132.900; ZVAL   =    9.000    mass and valenz                      
   RCORE  =    2.500    outmost cutoff radius                                   
   RWIGS  =    2.500; RWIGS  =    1.323    wigner-seitz radius (au A)           
   ENMAX  =  220.318; ENMIN  =  165.238 eV                                      
   RCLOC  =    2.207    cutoff for local pot                                    
   LCOR   =        T    correct aug charges                                     
   LPAW   =        T    paw PP                                                  
   EAUG   =  407.933                                                            
   DEXC   =    0.000                                                            
   RMAX   =    2.554    core radius for proj-oper                               
   RAUG   =    1.300    factor for augmentation sphere                          
   RDEP   =    2.590    radius for radial grids                                 
   RDEPT  =    2.117    core radius for aug-charge                              
                                                                                
   Atomic configuration                                                         
   13 entries                                                                   
     n  l   j            E        occ.                                          
     1  0  0.50    -35790.1377   2.0000                                         
     2  0  0.50     -5613.6201   2.0000                                         
     2  1  1.50     -5035.0101   6.0000                                         
     3  0  0.50     -1167.0767   2.0000                                         
     3  1  1.50      -980.9754   6.0000                                         
     3  2  2.50      -708.0703  10.0000                                         
     4  0  0.50      -220.2386   2.0000                                         
     4  1  1.50      -160.7596   6.0000                                         
     4  2  2.50       -74.2354  10.0000                                         
     5  0  0.50       -26.7287   2.0000                                         
     6  0  0.50        -2.0862   1.0000                                         
     5  1  1.50       -13.5159   6.0000                                         
     5  2  2.50        -0.4136   0.0000                                         
   Description                                                                  
     l       E           TYP  RCUT    TYP  RCUT                                 
     0    -26.7287425     23  1.900                                             
     0     -2.0862306     23  1.900                                             
     1    -13.5158719     23  2.500                                             
     1     -2.7211652     23  2.500                                             
     2     -0.4136171     23  2.500                                             
  local pseudopotential read in
  partial core-charges read in
  partial kinetic energy density read in
  atomic valenz-charges read in
  non local Contribution for L=           0  read in
    real space projection operators read in
  non local Contribution for L=           0  read in
    real space projection operators read in
  non local Contribution for L=           1  read in
    real space projection operators read in
  non local Contribution for L=           1  read in
    real space projection operators read in
  non local Contribution for L=           2  read in
    real space projection operators read in
    PAW grid and wavefunctions read in

   number of l-projection  operators is LMAX  =           5
   number of lm-projection operators is LMMAX =          13

 POTCAR:    PAW_PBE Pb_d 06Sep2000                
   SHA256 =  fb885b08f0fba73a15f6a6b0e39bd200c13ec96ef97cf3ecd8e63bade5137abd Pb
   COPYR  = (c) Copyright 06Sep2000 Georg Kresse                                
   COPYR  = This file is part of the software VASP. Any use, copying, and all ot
   COPYR  = If you do not have a valid VASP license, you may not use, copy or di
   VRHFIN =Pb:                                                                  
   LEXCH  = PE                                                                  
   EATOM  =  1661.6185 eV,  122.1255 Ry                                         
                                                                                
   TITEL  = PAW_PBE Pb_d 06Sep2000                                              
   LULTRA =        F    use ultrasoft PP ?                                      
   IUNSCR =        1    unscreen: 0-lin 1-nonlin 2-no                           
   RPACOR =    2.200    partial core radius                                     
   POMASS =  207.200; ZVAL   =   14.000    mass and valenz                      
   RCORE  =    2.500    outmost cutoff radius                                   
   RWIGS  =    3.260; RWIGS  =    1.725    wigner-seitz radius (au A)           
   ENMAX  =  237.835; ENMIN  =  178.376 eV                                      
   ICORE  =        3    local potential                                         
   LCOR   =        T    correct aug charges                                     
   LPAW   =        T    paw PP                                                  
   EAUG   =  391.914                                                            
   DEXC   =    0.000                                                            
   RMAX   =    2.565    core radius for proj-oper                               
   RAUG   =    1.300    factor for augmentation sphere                          
   RDEP   =    2.643    radius for radial grids                                 
   RDEPT  =    2.092    core radius for aug-charge                              
                                                                                
   Atomic configuration                                                         
   16 entries                                                                   
     n  l   j            E        occ.                                          
     1  0  0.50    -88091.8466   2.0000                                         
     2  0  0.50    -15753.4197   2.0000                                         
     2  1  1.50    -13508.1797   6.0000                                         
     3  0  0.50     -3781.7194   2.0000                                         
     3  1  1.50     -3138.2529   6.0000                                         
     3  2  2.50     -2483.2977  10.0000                                         
     4  0  0.50      -856.2895   2.0000                                         
     4  1  1.50      -645.4942   6.0000                                         
     4  2  2.50      -401.8768  10.0000                                         
     4  3  3.50      -132.9059  14.0000                                         
     5  0  0.50      -144.0950   2.0000                                         
     5  1  1.50       -85.7879   6.0000                                         
     5  2  2.50       -21.1769  10.0000                                         
     6  0  0.50       -12.0372   2.0000                                         
     6  1  1.50        -3.4971   2.0000                                         
     5  3  2.50        -2.7212   0.0000                                         
   Description                                                                  
     l       E           TYP  RCUT    TYP  RCUT                                 
     2    -21.1768523     23  2.500                                             
     2      1.3605826     23  2.500                                             
     0    -12.0371562     23  2.500                                             
     0     13.6058260     23  2.500                                             
     1     -3.4971339     23  2.500                                             
     1     13.6058260     23  2.500                                             
     3     -1.3605826      7  2.500                                             
  local pseudopotential read in
  partial core-charges read in
  partial kinetic energy density read in
  atomic valenz-charges read in
  non local Contribution for L=           2  read in
    real space projection operators read in
  non local Contribution for L=           2  read in
    real space projection operators read in
  non local Contribution for L=           0  read in
    real space projection operators read in
  non local Contribution for L=           0  read in
    real space projection operators read in
  non local Contribution for L=           1  read in
    real space projection operators read in
  non local Contribution for L=           1  read in
    real space projection operators read in
    PAW grid and wavefunctions read in

   number of l-projection  operators is LMAX  =           6
   number of lm-projection operators is LMMAX =          18

 POTCAR:    PAW_PBE Br 06Sep2000                  
   SHA256 =  96a73d2954943bbee26f4990d676cc6c3bf44b8dd2c75cd4b3b825d8403f0103 Br
   COPYR  = (c) Copyright 06Sep2000 Georg Kresse                                
   COPYR  = This file is part of the software VASP. Any use, copying, and all ot
   COPYR  = If you do not have a valid VASP license, you may not use, copy or di
   VRHFIN =Br: s2p5                                                             
   LEXCH  = PE                                                                  
   EATOM  =   368.4488 eV,   27.0802 Ry                                         
                                                                                
   TITEL  = PAW_PBE Br 06Sep2000                                                
   LULTRA =        F    use ultrasoft PP ?                                      
   IUNSCR =        1    unscreen: 0-lin 1-nonlin 2-no                           
   RPACOR =    1.900    partial core radius                                     
   POMASS =   79.904; ZVAL   =    7.000    mass and valenz                      
   RCORE  =    2.100    outmost cutoff radius                                   
   RWIGS  =    2.200; RWIGS  =    1.164    wigner-seitz radius (au A)           
   ENMAX  =  216.285; ENMIN  =  162.214 eV                                      
   ICORE  =        3    local potential                                         
   LCOR   =        T    correct aug charges                                     
   LPAW   =        T    paw PP                                                  
   EAUG   =  503.852                                                            
   DEXC   =    0.000                                                            
   RMAX   =    2.139    core radius for proj-oper                               
   RAUG   =    1.300    factor for augmentation sphere                          
   RDEP   =    2.186    radius for radial grids                                 
   RDEPT  =    1.890    core radius for aug-charge                              
                                                                                
   Atomic configuration                                                         
   10 entries                                                                   
     n  l   j            E        occ.                                          
     1  0  0.50    -13316.2796   2.0000                                         
     2  0  0.50     -1732.8239   2.0000                                         
     2  1  1.50     -1528.2193   6.0000                                         
     3  0  0.50      -238.0460   2.0000                                         
     3  1  1.50      -173.4609   6.0000                                         
     3  2  2.50       -66.7132  10.0000                                         
     4  0  0.50       -20.1334   2.0000                                         
     4  1  0.50        -7.8591   5.0000                                         
     4  2  2.50        -8.1635   0.0000                                         
     4  3  2.50        -8.1635   0.0000                                         
   Description                                                                  
     l       E           TYP  RCUT    TYP  RCUT                                 
     0    -20.1333652     23  2.100                                             
     0    -21.4939478     23  2.100                                             
     1     -7.8591052     23  2.100                                             
     1     -3.1608434     23  2.100                                             
     2     -8.1634956     23  2.100                                             
     3     -1.3605826      7  2.100                                             
  local pseudopotential read in
  partial core-charges read in
  partial kinetic energy density read in
  atomic valenz-charges read in
  non local Contribution for L=           0  read in
    real space projection operators read in
  non local Contribution for L=           0  read in
    real space projection operators read in
  non local Contribution for L=           1  read in
    real space projection operators read in
  non local Contribution for L=           1  read in
    real space projection operators read in
  non local Contribution for L=           2  read in
    real space projection operators read in
    PAW grid and wavefunctions read in

   number of l-projection  operators is LMAX  =           5
   number of lm-projection operators is LMMAX =          13

 POTCAR:    PAW_PBE Cs_sv 08Apr2002               
   SHA256 =  c1463496f0f6037ed62c6012a8013a89ee9ad6ffb38599dcd6c079e7ed31779b Cs
   COPYR  = (c) Copyright 08Apr2002 Georg Kresse                                
   COPYR  = This file is part of the software VASP. Any use, copying, and all ot
   COPYR  = If you do not have a valid VASP license, you may not use, copy or di
   VRHFIN =Cs: 5s5p6s                                                           
   LEXCH  = PE                                                                  
   EATOM  =   555.6835 eV,   40.8416 Ry                                         
                                                                                
   TITEL  = PAW_PBE Cs_sv 08Apr2002                                             
   LULTRA =        F    use ultrasoft PP ?                                      
   IUNSCR =        1    unscreen: 0-lin 1-nonlin 2-no                           
   RPACOR =    2.200    partial core radius                                     
   POMASS =  132.900; ZVAL   =    9.000    mass and valenz                      
   RCORE  =    2.500    outmost cutoff radius                                   
   RWIGS  =    2.500; RWIGS  =    1.323    wigner-seitz radius (au A)           
   ENMAX  =  220.318; ENMIN  =  165.238 eV                                      
   RCLOC  =    2.207    cutoff for local pot                                    
   LCOR   =        T    correct aug charges                                     
   LPAW   =        T    paw PP                                                  
   EAUG   =  407.933                                                            
   DEXC   =    0.000                                                            
   RMAX   =    2.554    core radius for proj-oper                               
   RAUG   =    1.300    factor for augmentation sphere                          
   RDEP   =    2.590    radius for radial grids                                 
   RDEPT  =    2.117    core radius for aug-charge                              
                                                                                
   Atomic configuration                                                         
   13 entries                                                                   
     n  l   j            E        occ.                                          
     1  0  0.50    -35790.1377   2.0000                                         
     2  0  0.50     -5613.6201   2.0000                                         
     2  1  1.50     -5035.0101   6.0000                                         
     3  0  0.50     -1167.0767   2.0000                                         
     3  1  1.50      -980.9754   6.0000                                         
     3  2  2.50      -708.0703  10.0000                                         
     4  0  0.50      -220.2386   2.0000                                         
     4  1  1.50      -160.7596   6.0000                                         
     4  2  2.50       -74.2354  10.0000                                         
     5  0  0.50       -26.7287   2.0000                                         
     6  0  0.50        -2.0862   1.0000                                         
     5  1  1.50       -13.5159   6.0000                                         
     5  2  2.50        -0.4136   0.0000                                         
   Description                                                                  
     l       E           TYP  RCUT    TYP  RCUT                                 
     0    -26.7287425     23  1.900                                             
     0     -2.0862306     23  1.900                                             
     1    -13.5158719     23  2.500                                             
     1     -2.7211652     23  2.500                                             
     2     -0.4136171     23  2.500                                             
  local pseudopotential read in
  partial core-charges read in
  partial kinetic energy density read in
  atomic valenz-charges read in
  non local Contribution for L=           0  read in
    real space projection operators read in
  non local Contribution for L=           0  read in
    real space projection operators read in
  non local Contribution for L=           1  read in
    real space projection operators read in
  non local Contribution for L=           1  read in
    real space projection operators read in
  non local Contribution for L=           2  read in
    real space projection operators read in
    PAW grid and wavefunctions read in

   number of l-projection  operators is LMAX  =           5
   number of lm-projection operators is LMMAX =          13

 POTCAR:    PAW_PBE Pb_d 06Sep2000                
   SHA256 =  fb885b08f0fba73a15f6a6b0e39bd200c13ec96ef97cf3ecd8e63bade5137abd Pb
   COPYR  = (c) Copyright 06Sep2000 Georg Kresse                                
   COPYR  = This file is part of the software VASP. Any use, copying, and all ot
   COPYR  = If you do not have a valid VASP license, you may not use, copy or di
   VRHFIN =Pb:                                                                  
   LEXCH  = PE                                                                  
   EATOM  =  1661.6185 eV,  122.1255 Ry                                         
                                                                                
   TITEL  = PAW_PBE Pb_d 06Sep2000                                              
   LULTRA =        F    use ultrasoft PP ?                                      
   IUNSCR =        1    unscreen: 0-lin 1-nonlin 2-no                           
   RPACOR =    2.200    partial core radius                                     
   POMASS =  207.200; ZVAL   =   14.000    mass and valenz                      
   RCORE  =    2.500    outmost cutoff radius                                   
   RWIGS  =    3.260; RWIGS  =    1.725    wigner-seitz radius (au A)           
   ENMAX  =  237.835; ENMIN  =  178.376 eV                                      
   ICORE  =        3    local potential                                         
   LCOR   =        T    correct aug charges                                     
   LPAW   =        T    paw PP                                                  
   EAUG   =  391.914                                                            
   DEXC   =    0.000                                                            
   RMAX   =    2.565    core radius for proj-oper                               
   RAUG   =    1.300    factor for augmentation sphere                          
   RDEP   =    2.643    radius for radial grids                                 
   RDEPT  =    2.092    core radius for aug-charge                              
                                                                                
   Atomic configuration                                                         
   16 entries                                                                   
     n  l   j            E        occ.                                          
     1  0  0.50    -88091.8466   2.0000                                         
     2  0  0.50    -15753.4197   2.0000                                         
     2  1  1.50    -13508.1797   6.0000                                         
     3  0  0.50     -3781.7194   2.0000                                         
     3  1  1.50     -3138.2529   6.0000                                         
     3  2  2.50     -2483.2977  10.0000                                         
     4  0  0.50      -856.2895   2.0000                                         
     4  1  1.50      -645.4942   6.0000                                         
     4  2  2.50      -401.8768  10.0000                                         
     4  3  3.50      -132.9059  14.0000                                         
     5  0  0.50      -144.0950   2.0000                                         
     5  1  1.50       -85.7879   6.0000                                         
     5  2  2.50       -21.1769  10.0000                                         
     6  0  0.50       -12.0372   2.0000                                         
     6  1  1.50        -3.4971   2.0000                                         
     5  3  2.50        -2.7212   0.0000                                         
   Description                                                                  
     l       E           TYP  RCUT    TYP  RCUT                                 
     2    -21.1768523     23  2.500                                             
     2      1.3605826     23  2.500                                             
     0    -12.0371562     23  2.500                                             
     0     13.6058260     23  2.500                                             
     1     -3.4971339     23  2.500                                             
     1     13.6058260     23  2.500                                             
     3     -1.3605826      7  2.500                                             
  local pseudopotential read in
  partial core-charges read in
  partial kinetic energy density read in
  atomic valenz-charges read in
  non local Contribution for L=           2  read in
    real space projection operators read in
  non local Contribution for L=           2  read in
    real space projection operators read in
  non local Contribution for L=           0  read in
    real space projection operators read in
  non local Contribution for L=           0  read in
    real space projection operators read in
  non local Contribution for L=           1  read in
    real space projection operators read in
  non local Contribution for L=           1  read in
    real space projection operators read in
    PAW grid and wavefunctions read in

   number of l-projection  operators is LMAX  =           6
   number of lm-projection operators is LMMAX =          18

 POTCAR:    PAW_PBE Br 06Sep2000                  
   SHA256 =  96a73d2954943bbee26f4990d676cc6c3bf44b8dd2c75cd4b3b825d8403f0103 Br
   COPYR  = (c) Copyright 06Sep2000 Georg Kresse                                
   COPYR  = This file is part of the software VASP. Any use, copying, and all ot
   COPYR  = If you do not have a valid VASP license, you may not use, copy or di
   VRHFIN =Br: s2p5                                                             
   LEXCH  = PE                                                                  
   EATOM  =   368.4488 eV,   27.0802 Ry                                         
                                                                                
   TITEL  = PAW_PBE Br 06Sep2000                                                
   LULTRA =        F    use ultrasoft PP ?                                      
   IUNSCR =        1    unscreen: 0-lin 1-nonlin 2-no                           
   RPACOR =    1.900    partial core radius                                     
   POMASS =   79.904; ZVAL   =    7.000    mass and valenz                      
   RCORE  =    2.100    outmost cutoff radius                                   
   RWIGS  =    2.200; RWIGS  =    1.164    wigner-seitz radius (au A)           
   ENMAX  =  216.285; ENMIN  =  162.214 eV                                      
   ICORE  =        3    local potential                                         
   LCOR   =        T    correct aug charges                                     
   LPAW   =        T    paw PP                                                  
   EAUG   =  503.852                                                            
   DEXC   =    0.000                                                            
   RMAX   =    2.139    core radius for proj-oper                               
   RAUG   =    1.300    factor for augmentation sphere                          
   RDEP   =    2.186    radius for radial grids                                 
   RDEPT  =    1.890    core radius for aug-charge                              
                                                                                
   Atomic configuration                                                         
   10 entries                                                                   
     n  l   j            E        occ.                                          
     1  0  0.50    -13316.2796   2.0000                                         
     2  0  0.50     -1732.8239   2.0000                                         
     2  1  1.50     -1528.2193   6.0000                                         
     3  0  0.50      -238.0460   2.0000                                         
     3  1  1.50      -173.4609   6.0000                                         
     3  2  2.50       -66.7132  10.0000                                         
     4  0  0.50       -20.1334   2.0000                                         
     4  1  0.50        -7.8591   5.0000                                         
     4  2  2.50        -8.1635   0.0000                                         
     4  3  2.50        -8.1635   0.0000                                         
   Description                                                                  
     l       E           TYP  RCUT    TYP  RCUT                                 
     0    -20.1333652     23  2.100                                             
     0    -21.4939478     23  2.100                                             
     1     -7.8591052     23  2.100                                             
     1     -3.1608434     23  2.100                                             
     2     -8.1634956     23  2.100                                             
     3     -1.3605826      7  2.100                                             
  local pseudopotential read in
  partial core-charges read in
  partial kinetic energy density read in
  atomic valenz-charges read in
  non local Contribution for L=           0  read in
    real space projection operators read in
  non local Contribution for L=           0  read in
    real space projection operators read in
  non local Contribution for L=           1  read in
    real space projection operators read in
  non local Contribution for L=           1  read in
    real space projection operators read in
  non local Contribution for L=           2  read in
    real space projection operators read in
    PAW grid and wavefunctions read in

   number of l-projection  operators is LMAX  =           5
   number of lm-projection operators is LMMAX =          13

 Optimization of the real space projectors (new method)

 maximal supplied QI-value         = 15.12
 optimisation between [QCUT,QGAM] = [  8.77, 17.69] = [ 21.53, 87.61] Ry 
 Optimized for a Real-space Cutoff    1.85 Angstroem

   l    n(q)    QCUT    max X(q) W(low)/X(q) W(high)/X(q)  e(spline) 
   0     10     8.768    25.322    0.81E-04    0.51E-04    0.48E-06
   0     10     8.768    99.187    0.78E-04    0.50E-04    0.47E-06
   1      9     8.768    11.761    0.21E-03    0.20E-03    0.37E-06
   1      9     8.768     8.275    0.24E-03    0.22E-03    0.41E-06
   2      9     8.768     3.829    0.23E-04    0.15E-03    0.18E-06
 Optimization of the real space projectors (new method)

 maximal supplied QI-value         = 15.12
 optimisation between [QCUT,QGAM] = [  8.77, 17.69] = [ 21.53, 87.61] Ry 
 Optimized for a Real-space Cutoff    1.59 Angstroem

   l    n(q)    QCUT    max X(q) W(low)/X(q) W(high)/X(q)  e(spline) 
   2      7     8.768     3.846    0.48E-04    0.11E-03    0.11E-06
   2      7     8.768     8.593    0.20E-03    0.22E-04    0.24E-06
   0      8     8.768    20.082    0.68E-04    0.88E-04    0.41E-07
   0      8     8.768     8.597    0.89E-04    0.13E-03    0.59E-07
   1      8     8.768    33.223    0.15E-03    0.53E-04    0.87E-07
   1      8     8.768    15.899    0.14E-03    0.44E-04    0.78E-07
 Optimization of the real space projectors (new method)

 maximal supplied QI-value         = 17.95
 optimisation between [QCUT,QGAM] = [  8.80, 17.59] = [ 21.67, 86.68] Ry 
 Optimized for a Real-space Cutoff    1.59 Angstroem

   l    n(q)    QCUT    max X(q) W(low)/X(q) W(high)/X(q)  e(spline) 
   0      8     8.797   175.082    0.82E-04    0.14E-03    0.89E-07
   0      8     8.797   174.004    0.79E-04    0.14E-03    0.86E-07
   1      8     8.797    54.315    0.16E-03    0.14E-04    0.30E-06
   1      8     8.797    42.441    0.16E-03    0.14E-04    0.30E-06
   2      7     8.797     3.596    0.92E-04    0.15E-03    0.85E-07
 Optimization of the real space projectors (new method)

 maximal supplied QI-value         = 15.12
 optimisation between [QCUT,QGAM] = [  8.77, 17.69] = [ 21.53, 87.61] Ry 
 Optimized for a Real-space Cutoff    1.85 Angstroem

   l    n(q)    QCUT    max X(q) W(low)/X(q) W(high)/X(q)  e(spline) 
   0     10     8.768    25.322    0.81E-04    0.51E-04    0.48E-06
   0     10     8.768    99.187    0.78E-04    0.50E-04    0.47E-06
   1      9     8.768    11.761    0.21E-03    0.20E-03    0.37E-06
   1      9     8.768     8.275    0.24E-03    0.22E-03    0.41E-06
   2      9     8.768     3.829    0.23E-04    0.15E-03    0.18E-06
 Optimization of the real space projectors (new method)

 maximal supplied QI-value         = 15.12
 optimisation between [QCUT,QGAM] = [  8.77, 17.69] = [ 21.53, 87.61] Ry 
 Optimized for a Real-space Cutoff    1.59 Angstroem

   l    n(q)    QCUT    max X(q) W(low)/X(q) W(high)/X(q)  e(spline) 
   2      7     8.768     3.846    0.48E-04    0.11E-03    0.11E-06
   2      7     8.768     8.593    0.20E-03    0.22E-04    0.24E-06
   0      8     8.768    20.082    0.68E-04    0.88E-04    0.41E-07
   0      8     8.768     8.597    0.89E-04    0.13E-03    0.59E-07
   1      8     8.768    33.223    0.15E-03    0.53E-04    0.87E-07
   1      8     8.768    15.899    0.14E-03    0.44E-04    0.78E-07
 Optimization of the real space projectors (new method)

 maximal supplied QI-value         = 17.95
 optimisation between [QCUT,QGAM] = [  8.80, 17.59] = [ 21.67, 86.68] Ry 
 Optimized for a Real-space Cutoff    1.59 Angstroem

   l    n(q)    QCUT    max X(q) W(low)/X(q) W(high)/X(q)  e(spline) 
   0      8     8.797   175.082    0.82E-04    0.14E-03    0.89E-07
   0      8     8.797   174.004    0.79E-04    0.14E-03    0.86E-07
   1      8     8.797    54.315    0.16E-03    0.14E-04    0.30E-06
   1      8     8.797    42.441    0.16E-03    0.14E-04    0.30E-06
   2      7     8.797     3.596    0.92E-04    0.15E-03    0.85E-07
  PAW_PBE Cs_sv 08Apr2002               :
 energy of atom  1       EATOM= -555.6835
 kinetic energy error for atom=    0.0069 (will be added to EATOM!!)
  PAW_PBE Pb_d 06Sep2000                :
 energy of atom  2       EATOM=-1661.6185
 kinetic energy error for atom=    0.0498 (will be added to EATOM!!)
  PAW_PBE Br 06Sep2000                  :
 energy of atom  3       EATOM= -368.4488
 kinetic energy error for atom=    0.0072 (will be added to EATOM!!)
  PAW_PBE Cs_sv 08Apr2002               :
 energy of atom  4       EATOM= -555.6835
 kinetic energy error for atom=    0.0069 (will be added to EATOM!!)
  PAW_PBE Pb_d 06Sep2000                :
 energy of atom  5       EATOM=-1661.6185
 kinetic energy error for atom=    0.0498 (will be added to EATOM!!)
  PAW_PBE Br 06Sep2000                  :
 energy of atom  6       EATOM= -368.4488
 kinetic energy error for atom=    0.0072 (will be added to EATOM!!)


 POSCAR: Cs63 Pb64 Br192                         
  positions in direct lattice
  velocities in cartesian coordinates

 METAGGA = SCAN     LMAXTAU =  6    LMIXTAU =  F

 exchange correlation table for  LEXCH =        8
   RHO(1)=    0.500       N(1)  =     2000
   RHO(2)=  100.500       N(2)  =     4000

 VTST: version 3.2, (02/03/18)

 CHAIN: initializing optimizer
 
 OPT: Using VASP Conjugate-Gradient optimizer
 CHAIN: Read ICHAIN            0

 POSCAR: Cs63 Pb64 Br192                         
  positions in direct lattice
  velocities in cartesian coordinates



--------------------------------------------------------------------------------------------------------


 ion  position               nearest neighbor table
   1  0.887  0.875  0.354-
   2  0.136  0.875  0.604-
   3  0.887  0.376  0.354-
   4  0.137  0.376  0.604-
   5  0.886  0.875  0.854-
   6  0.137  0.875  0.105-
   7  0.387  0.876  0.354-
   8  0.637  0.877  0.606-
   9  0.886  0.375  0.854-
  10  0.137  0.376  0.105-
  11  0.387  0.875  0.854-
  12  0.636  0.875  0.107-
  13  0.387  0.376  0.854-
  14  0.636  0.376  0.106-
  15  0.105  0.125  0.387-
  16  0.354  0.125  0.636-
  17  0.106  0.625  0.387-
  18  0.104  0.125  0.886-
  19  0.354  0.125  0.137-
  20  0.604  0.126  0.387-
  21  0.854  0.125  0.636-
  22  0.104  0.625  0.887-
  23  0.354  0.625  0.136-
  24  0.852  0.626  0.634-
  25  0.604  0.125  0.887-
  26  0.854  0.125  0.137-
  27  0.604  0.625  0.886-
  28  0.855  0.625  0.136-
  29  0.896  0.875  0.115-
  30  0.147  0.875  0.364-
  31  0.896  0.376  0.114-
  32  0.147  0.377  0.364-
  33  0.897  0.875  0.614-
  34  0.147  0.875  0.864-
  35  0.397  0.875  0.115-
  36  0.647  0.875  0.364-
  37  0.899  0.375  0.614-
  38  0.147  0.375  0.864-
  39  0.398  0.376  0.115-
  40  0.397  0.875  0.614-
  41  0.647  0.875  0.865-
  42  0.647  0.375  0.865-
  43  0.114  0.125  0.147-
  44  0.365  0.126  0.397-
  45  0.115  0.625  0.147-
  46  0.114  0.125  0.647-
  47  0.364  0.125  0.897-
  48  0.614  0.125  0.147-
  49  0.864  0.125  0.397-
  50  0.114  0.625  0.646-
  51  0.364  0.625  0.896-
  52  0.614  0.625  0.151-
  53  0.863  0.625  0.399-
  54  0.614  0.125  0.646-
  55  0.864  0.125  0.897-
  56  0.864  0.625  0.896-
  57  0.750  0.749  0.251- 310 2.96 143 2.98 203 3.01 252 3.02 132 3.02 225 3.05
  58  0.000  0.751  0.500- 220 2.99 144 2.99 241 3.00 133 3.00 226 3.01 200 3.02
  59  0.750  0.251  0.250- 136 2.99 141 3.00 216 3.01 207 3.01 250 3.01 227 3.01
  60  0.000  0.250  0.500- 142 2.99 137 2.99 239 3.00 228 3.01 217 3.01 204 3.01
  61  0.750  0.750  0.750- 315 2.97 149 2.99 138 3.00 223 3.01 229 3.01 209 3.02
  62  0.000  0.750  0.000- 150 2.99 139 3.00 197 3.00 224 3.00 247 3.01 230 3.01
  63  0.253  0.750  0.250- 231 2.98 300 2.99 198 3.00 127 3.01 248 3.02 213 3.04
  64  0.503  0.750  0.499- 301 2.96 232 2.98 314 2.98 208 3.04 128 3.04 311 3.06
  65  0.750  0.250  0.750- 145 2.99 298 2.99 246 3.00 221 3.01 210 3.01 233 3.01
  66  0.000  0.251  0.000- 146 2.99 140 3.00 199 3.01 234 3.01 243 3.01 222 3.01
  67  0.250  0.750  0.750- 153 2.99 242 3.00 236 3.00 130 3.01 218 3.01 201 3.01
  68  0.501  0.750  0.001- 154 2.99 202 2.99 237 3.01 131 3.01 219 3.01 251 3.02
  69  0.250  0.251  0.750- 151 3.00 134 3.00 240 3.00 312 3.01 214 3.01 205 3.01
  70  0.500  0.251  0.000- 135 2.99 152 2.99 206 3.00 238 3.01 249 3.01 215 3.01
  71  0.000  0.750  0.250- 115 2.99 225 2.99 241 3.01 155 3.01 197 3.01 213 3.02
  72  0.251  0.751  0.500- 311 2.98 116 2.99 198 3.00 156 3.01 242 3.02 226 3.02
  73  0.000  0.251  0.250- 113 2.99 157 3.00 227 3.00 211 3.01 239 3.01 199 3.01
  74  0.000  0.750  0.750- 121 2.99 229 3.00 200 3.00 158 3.01 218 3.01 247 3.01
  75  0.250  0.750  0.000- 122 2.99 219 3.00 248 3.01 159 3.01 201 3.01 230 3.01
  76  0.503  0.749  0.254- 310 2.95 314 2.97 123 2.98 160 3.03 202 3.06 231 3.06
  77  0.749  0.751  0.500- 297 2.95 232 2.97 203 3.00 161 3.03 315 3.03 220 3.03
  78  0.000  0.251  0.750- 117 2.99 162 3.00 233 3.00 204 3.01 214 3.01 243 3.01
  79  0.250  0.251  0.000- 118 2.99 163 3.00 215 3.00 205 3.01 234 3.01 244 3.01
  80  0.750  0.251  0.500- 164 2.98 120 3.00 207 3.00 313 3.01 217 3.01 246 3.02
  81  0.501  0.751  0.750- 296 2.99 208 2.99 223 3.00 165 3.01 236 3.01 251 3.02
  82  0.750  0.750  0.000- 126 2.99 237 3.00 209 3.00 252 3.01 166 3.01 224 3.01
  83  0.500  0.251  0.750- 124 2.99 167 3.00 308 3.00 312 3.01 221 3.01 249 3.01
  84  0.750  0.251  0.000- 125 2.99 168 3.00 238 3.00 210 3.01 250 3.01 222 3.01
  85  0.000  0.000  0.250- 155 2.99 169 3.00 113 3.00 183 3.01 253 3.01 267 3.01
  86  0.250  0.000  0.500- 156 2.98 114 3.00 254 3.00 268 3.01 170 3.01 184 3.01
  87  0.000  0.501  0.250- 171 2.99 115 3.00 157 3.00 185 3.01 269 3.02 255 3.02
  88  0.000  0.000  0.750- 158 2.99 117 3.00 173 3.00 270 3.01 256 3.01 187 3.01
  89  0.250  0.000  0.000- 159 2.99 118 3.00 257 3.01 188 3.01 271 3.01 174 3.01
  90  0.500  0.000  0.250- 160 2.97 189 3.01 119 3.01 258 3.01 175 3.01 272 3.01
  91  0.750  0.000  0.500- 161 2.97 176 3.00 273 3.01 120 3.01 190 3.02 259 3.02
  92  0.000  0.501  0.750- 177 3.00 162 3.00 121 3.00 274 3.00 191 3.01 260 3.01
  93  0.250  0.500  0.000- 163 2.99 122 3.00 261 3.00 192 3.01 275 3.01 178 3.01
  94  0.750  0.501  0.500- 297 2.96 305 2.96 277 3.00 164 3.03 307 3.03 262 3.04
  95  0.500  0.000  0.750- 165 2.99 278 3.00 124 3.00 180 3.01 263 3.01 193 3.01
  96  0.750  0.000  0.000- 166 2.99 125 3.00 181 3.00 194 3.01 279 3.01 264 3.01
  97  0.501  0.501  0.750- 296 2.99 318 2.99 167 3.00 265 3.01 304 3.01 195 3.02
  98  0.750  0.501  0.000- 168 3.00 126 3.00 280 3.00 182 3.00 196 3.01 266 3.01
  99  0.750  0.000  0.250- 132 2.98 273 3.00 258 3.01 141 3.01 194 3.01 169 3.01
 100  0.000  0.001  0.500- 133 2.98 259 3.00 183 3.00 142 3.01 170 3.01 270 3.01
 101  0.750  0.502  0.251- 316 2.96 143 2.99 136 3.01 277 3.01 196 3.01 171 3.06
 102  0.001  0.501  0.500- 262 2.98 137 2.99 144 3.00 185 3.00 274 3.02 172 3.03
 103  0.750  0.001  0.750- 138 2.98 190 3.00 145 3.00 263 3.01 279 3.01 173 3.01
 104  0.000  0.000  0.000- 139 2.99 146 3.00 267 3.01 264 3.01 187 3.01 174 3.01
 105  0.250  0.000  0.250- 127 2.99 268 3.00 147 3.01 175 3.01 253 3.01 188 3.01
 106  0.500  0.000  0.500- 128 2.96 189 3.01 176 3.01 278 3.01 254 3.01 148 3.02
 107  0.750  0.501  0.750- 307 2.97 298 3.00 149 3.00 265 3.00 177 3.01 280 3.02
 108  0.000  0.500  0.000- 140 2.99 269 3.00 266 3.00 150 3.00 191 3.01 178 3.01
 109  0.250  0.000  0.750- 130 2.99 184 3.00 151 3.00 180 3.01 256 3.01 271 3.01
 110  0.500  0.000  0.000- 131 2.99 272 3.00 152 3.00 193 3.01 181 3.01 257 3.01
 111  0.250  0.501  0.750- 186 2.99 134 3.00 153 3.00 304 3.00 260 3.01 275 3.02
 112  0.501  0.501  0.001- 276 2.99 154 3.00 135 3.00 182 3.01 261 3.01 195 3.02
 113  0.985  0.126  0.231-  73 2.99  85 3.00
 114  0.235  0.126  0.482- 291 2.99  86 3.00
 115  0.985  0.626  0.231-  71 2.99  87 3.00
 116  0.237  0.626  0.481-  72 2.99 293 3.00
 117  0.985  0.126  0.731-  78 2.99  88 3.00
 118  0.234  0.126  0.981-  79 2.99  89 3.00
 119  0.485  0.126  0.232- 290 3.00  90 3.01
 120  0.735  0.126  0.482-  80 3.00  91 3.01
 121  0.984  0.626  0.730-  74 2.99  92 3.00
 122  0.235  0.626  0.981-  75 2.99  93 3.00
 123  0.482  0.626  0.230-  76 2.98 292 2.99
 124  0.484  0.126  0.731-  83 2.99  95 3.00
 125  0.735  0.126  0.981-  84 2.99  96 3.00
 126  0.735  0.626  0.980-  82 2.99  98 3.00
 127  0.232  0.876  0.235- 105 2.99  63 3.01
 128  0.480  0.877  0.486- 106 2.96  64 3.04
 129  0.232  0.376  0.235- 288 2.99 294 3.00
 130  0.231  0.876  0.735- 109 2.99  67 3.01
 131  0.481  0.876  0.985- 110 2.99  68 3.01
 132  0.733  0.876  0.235-  99 2.98  57 3.02
 133  0.982  0.876  0.484- 100 2.98  58 3.00
 134  0.231  0.376  0.735- 111 3.00  69 3.00
 135  0.481  0.376  0.985-  70 2.99 112 3.00
 136  0.733  0.376  0.235-  59 2.99 101 3.01
 137  0.983  0.376  0.484- 102 2.99  60 2.99
 138  0.732  0.876  0.736- 103 2.98  61 3.00
 139  0.981  0.876  0.985- 104 2.99  62 3.00
 140  0.981  0.376  0.984- 108 2.99  66 3.00
 141  0.770  0.126  0.266-  59 3.00  99 3.01
 142  0.021  0.126  0.516-  60 2.99 100 3.01
 143  0.774  0.626  0.265-  57 2.98 101 2.99
 144  0.020  0.626  0.516-  58 2.99 102 3.00
 145  0.771  0.126  0.767-  65 2.99 103 3.00
 146  0.020  0.126  0.016-  66 2.99 104 3.00
 147  0.269  0.126  0.267- 288 3.00 105 3.01
 148  0.519  0.126  0.516- 289 3.01 106 3.02
 149  0.771  0.626  0.766-  61 2.99 107 3.00
 150  0.020  0.626  0.017-  62 2.99 108 3.00
 151  0.270  0.126  0.766-  69 3.00 109 3.00
 152  0.520  0.126  0.016-  70 2.99 110 3.00
 153  0.271  0.626  0.765-  67 2.99 111 3.00
 154  0.521  0.626  0.017-  68 2.99 112 3.00
 155  0.017  0.876  0.270-  85 2.99  71 3.01
 156  0.266  0.876  0.520-  86 2.98  72 3.01
 157  0.017  0.376  0.270-  73 3.00  87 3.00
 158  0.016  0.876  0.770-  88 2.99  74 3.01
 159  0.266  0.876  0.020-  89 2.99  75 3.01
 160  0.517  0.876  0.268-  90 2.97  76 3.03
 161  0.768  0.877  0.521-  91 2.97  77 3.03
 162  0.016  0.376  0.770-  92 3.00  78 3.00
 163  0.266  0.376  0.021-  93 2.99  79 3.00
 164  0.768  0.375  0.522-  80 2.98  94 3.03
 165  0.516  0.876  0.770-  95 2.99  81 3.01
 166  0.766  0.876  0.021-  96 2.99  82 3.01
 167  0.516  0.376  0.770-  83 3.00  97 3.00
 168  0.766  0.376  0.020-  98 3.00  84 3.00
 169  0.874  0.982  0.225-  85 3.00  99 3.01
 170  0.124  0.982  0.475-  86 3.01 100 3.01
 171  0.875  0.482  0.225-  87 2.99 101 3.06
 172  0.126  0.483  0.476- 293 3.03 102 3.03
 173  0.874  0.982  0.725-  88 3.00 103 3.01
 174  0.124  0.982  0.975- 104 3.01  89 3.01
 175  0.374  0.983  0.224- 105 3.01  90 3.01
 176  0.624  0.982  0.475-  91 3.00 106 3.01
 177  0.875  0.482  0.725-  92 3.00 107 3.01
 178  0.124  0.482  0.975- 108 3.01  93 3.01
 179  0.376  0.482  0.225- 294 2.98 292 3.06
 180  0.374  0.982  0.725-  95 3.01 109 3.01
 181  0.624  0.982  0.975-  96 3.00 110 3.01
 182  0.624  0.482  0.975-  98 3.00 112 3.01
 183  0.975  0.019  0.374- 100 3.00  85 3.01
 184  0.225  0.018  0.624- 109 3.00  86 3.01
 185  0.975  0.519  0.374- 102 3.00  87 3.01
 186  0.226  0.519  0.624- 111 2.99 293 3.02
 187  0.975  0.018  0.874- 104 3.01  88 3.01
 188  0.225  0.018  0.124-  89 3.01 105 3.01
 189  0.475  0.018  0.374-  90 3.01 106 3.01
 190  0.725  0.019  0.624- 103 3.00  91 3.02
 191  0.975  0.518  0.874-  92 3.01 108 3.01
 192  0.225  0.518  0.124-  93 3.01 294 3.02
 193  0.475  0.018  0.874- 110 3.01  95 3.01
 194  0.725  0.018  0.124-  96 3.01  99 3.01
 195  0.475  0.518  0.875- 112 3.02  97 3.02
 196  0.725  0.518  0.124-  98 3.01 101 3.01
 197  0.026  0.768  0.126-  62 3.00  71 3.01
 198  0.276  0.769  0.376-  63 3.00  72 3.00
 199  0.026  0.268  0.126-  66 3.01  73 3.01
 200  0.026  0.768  0.626-  74 3.00  58 3.02
 201  0.276  0.768  0.876-  75 3.01  67 3.01
 202  0.525  0.768  0.127-  68 2.99  76 3.06
 203  0.777  0.769  0.377-  77 3.00  57 3.01
 204  0.026  0.268  0.626-  78 3.01  60 3.01
 205  0.276  0.268  0.876-  79 3.01  69 3.01
 206  0.526  0.268  0.126-  70 3.00 290 3.01
 207  0.776  0.269  0.376-  80 3.00  59 3.01
 208  0.526  0.769  0.627-  81 2.99  64 3.04
 209  0.776  0.769  0.877-  82 3.00  61 3.02
 210  0.776  0.268  0.876-  84 3.01  65 3.01
 211  0.126  0.232  0.276-  73 3.01 288 3.01
 212  0.376  0.233  0.526- 291 3.00 289 3.02
 213  0.127  0.732  0.275-  71 3.02  63 3.04
 214  0.126  0.232  0.776-  78 3.01  69 3.01
 215  0.376  0.232  0.026-  79 3.00  70 3.01
 216  0.626  0.232  0.276-  59 3.01 290 3.01
 217  0.876  0.232  0.526-  60 3.01  80 3.01
 218  0.126  0.732  0.776-  67 3.01  74 3.01
 219  0.376  0.732  0.026-  75 3.00  68 3.01
 220  0.877  0.735  0.526-  58 2.99  77 3.03
 221  0.626  0.232  0.776-  65 3.01  83 3.01
 222  0.876  0.232  0.026-  66 3.01  84 3.01
 223  0.626  0.733  0.776-  81 3.00  61 3.01
 224  0.876  0.732  0.026-  62 3.00  82 3.01
 225  0.875  0.768  0.225-  71 2.99  57 3.05
 226  0.124  0.768  0.475-  58 3.01  72 3.02
 227  0.874  0.268  0.225-  73 3.00  59 3.01
 228  0.124  0.268  0.474-  60 3.01 291 3.02
 229  0.874  0.769  0.725-  74 3.00  61 3.01
 230  0.124  0.768  0.975-  62 3.01  75 3.01
 231  0.376  0.768  0.225-  63 2.98  76 3.06
 232  0.626  0.777  0.481-  77 2.97  64 2.98
 233  0.874  0.268  0.725-  78 3.00  65 3.01
 234  0.124  0.268  0.975-  66 3.01  79 3.01
 235  0.374  0.268  0.224- 288 3.00 290 3.01
 236  0.374  0.768  0.725-  67 3.00  81 3.01
 237  0.624  0.768  0.975-  82 3.00  68 3.01
 238  0.624  0.268  0.975-  84 3.00  70 3.01
 239  0.975  0.232  0.374-  60 3.00  73 3.01
 240  0.225  0.232  0.624-  69 3.00 291 3.01
 241  0.975  0.732  0.374-  58 3.00  71 3.01
 242  0.225  0.732  0.624-  67 3.00  72 3.02
 243  0.975  0.232  0.874-  66 3.01  78 3.01
 244  0.225  0.232  0.124- 288 3.01  79 3.01
 245  0.475  0.233  0.374- 290 3.01 289 3.01
 246  0.725  0.232  0.624-  65 3.00  80 3.02
 247  0.975  0.732  0.874-  62 3.01  74 3.01
 248  0.225  0.732  0.124-  75 3.01  63 3.02
 249  0.475  0.232  0.874-  70 3.01  83 3.01
 250  0.725  0.232  0.124-  84 3.01  59 3.01
 251  0.475  0.732  0.875-  68 3.02  81 3.02
 252  0.725  0.732  0.124-  82 3.01  57 3.02
 253  0.126  0.018  0.276-  85 3.01 105 3.01
 254  0.376  0.018  0.526-  86 3.00 106 3.01
 255  0.127  0.518  0.275-  87 3.02 294 3.04
 256  0.126  0.018  0.776- 109 3.01  88 3.01
 257  0.376  0.019  0.026-  89 3.01 110 3.01
 258  0.626  0.018  0.276-  99 3.01  90 3.01
 259  0.876  0.019  0.526- 100 3.00  91 3.02
 260  0.126  0.519  0.776- 111 3.01  92 3.01
 261  0.376  0.518  0.026-  93 3.00 112 3.01
 262  0.878  0.516  0.527- 102 2.98  94 3.04
 263  0.626  0.018  0.776- 103 3.01  95 3.01
 264  0.876  0.018  0.026- 104 3.01  96 3.01
 265  0.627  0.518  0.776- 107 3.00  97 3.01
 266  0.876  0.518  0.026- 108 3.00  98 3.01
 267  0.026  0.982  0.126- 104 3.01  85 3.01
 268  0.276  0.983  0.376- 105 3.00  86 3.01
 269  0.026  0.482  0.126- 108 3.00  87 3.02
 270  0.026  0.982  0.626-  88 3.01 100 3.01
 271  0.276  0.982  0.876-  89 3.01 109 3.01
 272  0.526  0.983  0.126- 110 3.00  90 3.01
 273  0.776  0.982  0.376-  99 3.00  91 3.01
 274  0.027  0.483  0.626-  92 3.00 102 3.02
 275  0.276  0.482  0.876-  93 3.01 111 3.02
 276  0.525  0.483  0.127- 112 2.99 292 3.06
 277  0.777  0.482  0.377-  94 3.00 101 3.01
 278  0.526  0.983  0.627-  95 3.00 106 3.01
 279  0.776  0.982  0.876-  96 3.01 103 3.01
 280  0.776  0.483  0.877-  98 3.00 107 3.02
 281  0.388  0.375  0.354-
 282  0.638  0.375  0.607-
 283  0.357  0.626  0.635-
 284  0.398  0.377  0.615-
 285  0.646  0.378  0.364-
 286  0.615  0.626  0.643-
 287  0.369  0.626  0.399-
 288  0.250  0.251  0.250- 129 2.99 147 3.00 235 3.00 309 3.01 244 3.01 211 3.01
 289  0.500  0.252  0.500- 299 2.97 313 3.00 245 3.01 148 3.01 308 3.01 212 3.02
 290  0.500  0.251  0.250- 302 2.99 119 3.00 216 3.01 245 3.01 206 3.01 235 3.01
 291  0.251  0.251  0.500- 114 2.99 303 2.99 212 3.00 309 3.01 240 3.01 228 3.02
 292  0.503  0.503  0.254- 316 2.96 306 2.97 123 2.99 302 3.02 179 3.06 276 3.06
 293  0.253  0.500  0.500- 317 2.97 303 2.99 319 3.00 116 3.00 186 3.02 172 3.03
 294  0.253  0.501  0.250- 179 2.98 300 3.00 319 3.00 129 3.00 192 3.02 255 3.04
 295  0.504  0.502  0.499- 301 2.96 305 2.98 306 2.98 299 3.03 318 3.04 317 3.06
 296  0.486  0.626  0.732-  81 2.99  97 2.99
 297  0.740  0.626  0.492-  77 2.95  94 2.96
 298  0.733  0.375  0.737-  65 2.99 107 3.00
 299  0.480  0.376  0.486- 289 2.97 295 3.03
 300  0.272  0.626  0.268-  63 2.99 294 3.00
 301  0.512  0.626  0.521-  64 2.96 295 2.96
 302  0.517  0.376  0.267- 290 2.99 292 3.02
 303  0.267  0.375  0.521- 293 2.99 291 2.99
 304  0.374  0.483  0.726- 111 3.00  97 3.01
 305  0.626  0.474  0.482-  94 2.96 295 2.98
 306  0.469  0.511  0.375- 292 2.97 295 2.98
 307  0.725  0.517  0.626- 107 2.97  94 3.03
 308  0.526  0.268  0.627-  83 3.00 289 3.01
 309  0.276  0.269  0.376- 291 3.01 288 3.01
 310  0.628  0.733  0.277-  76 2.95  57 2.96
 311  0.377  0.736  0.526-  72 2.98  64 3.06
 312  0.374  0.269  0.725-  83 3.01  69 3.01
 313  0.624  0.269  0.474- 289 3.00  80 3.01
 314  0.469  0.740  0.375-  76 2.97  64 2.98
 315  0.725  0.735  0.625-  61 2.97  77 3.03
 316  0.628  0.519  0.277- 292 2.96 101 2.96
 317  0.378  0.517  0.527- 293 2.97 295 3.06
 318  0.526  0.482  0.627-  97 2.99 295 3.04
 319  0.277  0.481  0.376- 293 3.00 294 3.00


IMPORTANT INFORMATION: All symmetrisations will be switched off!
NOSYMM: (Re-)initialisation of all symmetry stuff for point group C_1.



 KPOINTS: 1x1x1                                   

Automatic generation of k-mesh.
Space group operators:
 irot       det(A)        alpha          n_x          n_y          n_z        tau_x        tau_y        tau_z
    1     1.000000     0.000000     1.000000     0.000000     0.000000     0.000000     0.000000     0.000000
 
 Subroutine IBZKPT returns following result:
 ===========================================
 
 Found      1 irreducible k-points:
 
 Following reciprocal coordinates:
            Coordinates               Weight
  0.000000  0.000000  0.000000      1.000000
 
 Following cartesian coordinates:
            Coordinates               Weight
 -0.000000  0.000000  0.000000      1.000000
 


--------------------------------------------------------------------------------------------------------




 Dimension of arrays:
   k-points           NKPTS =      1   k-points in BZ     NKDIM =      1   number of bands    NBANDS=   1688
   number of dos      NEDOS =    301   number of ions     NIONS =    319
   non local maximal  LDIM  =      6   non local SUM 2l+1 LMDIM =     18
   total plane-waves  NPLWV = ******
   max r-space proj   IRMAX =   5716   max aug-charges    IRDMAX=  91227
   dimension x,y,z NGX =   140 NGY =  140 NGZ =  140
   dimension x,y,z NGXF=   280 NGYF=  280 NGZF=  280
   support grid    NGXF=   560 NGYF=  560 NGZF=  560
   ions per type =              56  56 168   7   8  24
   NGX,Y,Z   is equivalent  to a cutoff of   9.97,  9.89,  9.97 a.u.
   NGXF,Y,Z  is equivalent  to a cutoff of  19.95, 19.78, 19.95 a.u.

 SYSTEM =  CsPbBr3 cubic bulk                      
 POSCAR =  Cs63 Pb64 Br192                         

 Startparameter for this run:
   NWRITE =      2    write-flag & timer
   PREC   = accura    normal or accurate (medium, high low for compatibility)
   ISTART =      0    job   : 0-new  1-cont  2-samecut
   ICHARG =      2    charge: 1-file 2-atom 10-const
   ISPIN  =      1    spin polarized calculation?
   LNONCOLLINEAR =      F non collinear calculations
   LSORBIT =      F    spin-orbit coupling
   INIWAV =      1    electr: 0-lowe 1-rand  2-diag
   LASPH  =      T    aspherical Exc in radial PAW
   METAGGA=      F    non-selfconsistent MetaGGA calc.

 Electronic Relaxation 1
   ENCUT  =  300.0 eV  22.05 Ry    4.70 a.u.  32.96 33.23 32.96*2*pi/ulx,y,z
   ENINI  =  300.0     initial cutoff
   ENAUG  =  503.9 eV  augmentation charge cutoff
   NELM   =    200;   NELMIN=  2; NELMDL=  0     # of ELM steps 
   EDIFF  = 0.1E-05   stopping-criterion for ELM
   LREAL  =      T    real-space projection
   NLSPLINE    = F    spline interpolate recip. space projectors
   LCOMPAT=      F    compatible to vasp.4.4
   GGA_COMPAT  = T    GGA compatible to vasp.4.4-vasp.4.6
   LMAXPAW     = -100 max onsite density
   LMAXMIX     =    2 max onsite mixed and CHGCAR
   VOSKOWN=      0    Vosko Wilk Nusair interpolation
   ROPT   =   -0.00025  -0.00025  -0.00025  -0.00025
   ROPT   =   -0.00025  -0.00025
 Ionic relaxation
   EDIFFG = -.1E-01   stopping-criterion for IOM
   NSW    =     25    number of steps for IOM
   NBLOCK =      1;   KBLOCK =     25    inner block; outer block 
   IBRION =      2    ionic relax: 0-MD 1-quasi-New 2-CG
   NFREE  =      1    steps in history (QN), initial steepest desc. (CG)
   ISIF   =      2    stress and relaxation
   IWAVPR =     11    prediction:  0-non 1-charg 2-wave 3-comb
   ISYM   =      0    0-nonsym 1-usesym 2-fastsym
   LCORR  =      T    Harris-Foulkes like correction to forces

   POTIM  = 0.5000    time-step for ionic-motion
   TEIN   =    0.0    initial temperature
   TEBEG  =    0.0;   TEEND  =   0.0 temperature during run
   SMASS  =  -3.00    Nose mass-parameter (am)
   estimated Nose-frequenzy (Omega)   =  0.10E-29 period in steps =****** mass=  -0.124E-25a.u.
   SCALEE = 1.0000    scale energy and forces
   NPACO  =    256;   APACO  = 16.0  distance and # of slots for P.C.
   PSTRESS=    0.0 pullay stress

  Mass of Ions in am
   POMASS = 132.90207.20 79.90132.90207.20 79.90
  Ionic Valenz
   ZVAL   =   9.00 14.00  7.00  9.00 14.00  7.00
  Atomic Wigner-Seitz radii
   RWIGS  =  -1.00 -1.00 -1.00 -1.00 -1.00 -1.00
  virtual crystal weights 
   VCA    =   1.00  1.00  1.00  1.00  1.00  1.00
   NELECT =    2808.0000    total number of electrons
   NUPDOWN=       0.0000    fix difference up-down

 DOS related values:
   EMIN   =  10.00;   EMAX   =-10.00  energy-range for DOS
   EFERMI =   0.00
   ISMEAR =     0;   SIGMA  =   0.01  broadening in eV -4-tet -1-fermi 0-gaus

 Electronic relaxation 2 (details)
   IALGO  =     38    algorithm
   LDIAG  =      T    sub-space diagonalisation (order eigenvalues)
   LSUBROT=      F    optimize rotation matrix (better conditioning)
   TURBO    =      0    0=normal 1=particle mesh
   IRESTART =      0    0=no restart 2=restart with 2 vectors
   NREBOOT  =      0    no. of reboots
   NMIN     =      0    reboot dimension
   EREF     =   0.00    reference energy to select bands
   IMIX   =      4    mixing-type and parameters
     AMIX     =   0.40;   BMIX     =  1.00
     AMIX_MAG =   1.60;   BMIX_MAG =  1.00
     AMIN     =   0.10
     WC   =   100.;   INIMIX=   1;  MIXPRE=   1;  MAXMIX= -45

 Intra band minimization:
   WEIMIN = 0.0010     energy-eigenvalue tresh-hold
   EBREAK =  0.15E-09  absolut break condition
   DEPER  =   0.30     relativ break condition  

   TIME   =   0.40     timestep for ELM

  volume/ion in A,a.u.               =      40.13       270.83
  Fermi-wavevector in a.u.,A,eV,Ry     =   0.987293  1.865713 13.262239  0.974747
  Thomas-Fermi vector in A             =   2.118736

 Write flags
   LWAVE        =      F    write WAVECAR
   LDOWNSAMPLE  =      F    k-point downsampling of WAVECAR
   LCHARG       =      F    write CHGCAR
   LVTOT        =      F    write LOCPOT, total local potential
   LVHAR        =      T    write LOCPOT, Hartree potential only
   LELF         =      F    write electronic localiz. function (ELF)
   LORBIT       =     10    0 simple, 1 ext, 2 COOP (PROOUT), +10 PAW based schemes


 Dipole corrections
   LMONO  =      F    monopole corrections only (constant potential shift)
   LDIPOL =      F    correct potential (dipole corrections)
   IDIPOL =      0    1-x, 2-y, 3-z, 4-all directions 
   EPSILON=  1.0000000 bulk dielectric constant

 Exchange correlation treatment:
   GGA     =    --    GGA type
   LEXCH   =     8    internal setting for exchange type
   VOSKOWN=      0    Vosko Wilk Nusair interpolation
   LHFCALC =     F    Hartree Fock is set to
   LHFONE  =     F    Hartree Fock one center treatment
   AEXX    =    0.0000 exact exchange contribution

 Linear response parameters
   LEPSILON=     F    determine dielectric tensor
   LRPA    =     F    only Hartree local field effects (RPA)
   LNABLA  =     F    use nabla operator in PAW spheres
   LVEL    =     F    velocity operator in full k-point grid
   LINTERFAST=   F  fast interpolation
   KINTER  =     0    interpolate to denser k-point grid
   CSHIFT  =0.1000    complex shift for real part using Kramers Kronig
   OMEGAMAX=  -1.0    maximum frequency
   DEG_THRESHOLD= 0.2000000E-02 threshold for treating states as degnerate
   RTIME   =   -0.100 relaxation time in fs
  (WPLASMAI=    0.000 imaginary part of plasma frequency in eV, 0.658/RTIME)
   DFIELD  = 0.0000000 0.0000000 0.0000000 field for delta impulse in time

 Orbital magnetization related:
   ORBITALMAG=     F  switch on orbital magnetization
   LCHIMAG   =     F  perturbation theory with respect to B field
   DQ        =  0.001000  dq finite difference perturbation B field
   LLRAUG    =     F  two centre corrections for induced B field



--------------------------------------------------------------------------------------------------------


 conjugate gradient relaxation of ions
 charge density and potential will be updated during run
 non-spin polarized calculation
 Variant of blocked Davidson
 Davidson routine will perform the subspace rotation
 perform sub-space diagonalisation
    after iterative eigenvector-optimisation
 modified Broyden-mixing scheme, WC =      100.0
 initial mixing is a Kerker type mixing with AMIX =  0.4000 and BMIX =      1.0000
 Hartree-type preconditioning will be used
 using additional bands          284
 real space projection scheme for non local part
 use partial core corrections
 calculate Harris-corrections to forces   (improved forces if not selfconsistent)
 use gradient corrections 
 use of overlap-Matrix (Vanderbilt PP)
 Gauss-broadening in eV      SIGMA  =   0.01


--------------------------------------------------------------------------------------------------------


  energy-cutoff  :      300.00
  volume of cell :    12802.17
      direct lattice vectors                 reciprocal lattice vectors
    16.840035000  0.000000000 16.155961000     0.029691150 -0.000000000  0.030948329
     0.000000000 23.527616000  0.000000000     0.000000000  0.042503244 -0.000000000
   -16.840035000  0.000000000 16.155961000    -0.029691150  0.000000000  0.030948329

  length of vectors
    23.336706165 23.527616000 23.336706165     0.042887801  0.042503244  0.042887801



 k-points in units of 2pi/SCALE and weight: 1x1x1                                   
  -0.00000000  0.00000000  0.00000000       1.000

 k-points in reciprocal lattice and weights: 1x1x1                                   
   0.00000000  0.00000000  0.00000000       1.000

 position of ions in fractional coordinates (direct lattice) 
   0.88655062  0.87521975  0.35385784
   0.13633128  0.87515305  0.60369793
   0.88660500  0.37557756  0.35388576
   0.13686866  0.37570369  0.60376982
   0.88624394  0.87521442  0.85383203
   0.13661496  0.87504615  0.10466155
   0.38696220  0.87599106  0.35392549
   0.63699670  0.87663164  0.60553059
   0.88604505  0.37540983  0.85362907
   0.13669416  0.37554069  0.10543864
   0.38659700  0.87497908  0.85438670
   0.63629111  0.87469936  0.10660757
   0.38651437  0.37565848  0.85421967
   0.63621347  0.37612304  0.10608422
   0.10535675  0.12536525  0.38656973
   0.35408282  0.12545979  0.63619689
   0.10639583  0.62515262  0.38658258
   0.10386956  0.12534776  0.88645635
   0.35410398  0.12537463  0.13727763
   0.60405848  0.12553159  0.38696770
   0.85372307  0.12542549  0.63628753
   0.10385250  0.62535174  0.88681129
   0.35368959  0.62537105  0.13634446
   0.85246285  0.62561816  0.63353211
   0.60390276  0.12532053  0.88655164
   0.85372205  0.12534392  0.13660094
   0.60356530  0.62536880  0.88640526
   0.85516110  0.62531646  0.13585949
   0.89635439  0.87497179  0.11454889
   0.14683828  0.87479602  0.36425686
   0.89626949  0.37555820  0.11447168
   0.14683292  0.37696602  0.36440429
   0.89707572  0.87519337  0.61407954
   0.14665414  0.87514181  0.86424227
   0.39735358  0.87467343  0.11494309
   0.64650983  0.87482160  0.36352174
   0.89869863  0.37542828  0.61432284
   0.14660779  0.37547425  0.86414801
   0.39760479  0.37618130  0.11501194
   0.39665201  0.87500585  0.61408219
   0.64669232  0.87512577  0.86451285
   0.64659267  0.37546371  0.86453341
   0.11418486  0.12530369  0.14675301
   0.36470524  0.12569094  0.39701778
   0.11460280  0.62527923  0.14705932
   0.11423619  0.12528907  0.64687017
   0.36415554  0.12530432  0.89680225
   0.61406033  0.12535072  0.14683559
   0.86388370  0.12539693  0.39684784
   0.11437334  0.62512251  0.64626549
   0.36444919  0.62518783  0.89645252
   0.61422026  0.62544704  0.15073091
   0.86276876  0.62536309  0.39854774
   0.61369101  0.12533074  0.64586949
   0.86422191  0.12527645  0.89705270
   0.86417287  0.62531435  0.89644166
   0.74966485  0.74941459  0.25104867
   0.00015556  0.75052029  0.50005001
   0.75012422  0.25085454  0.25034234
   0.00027981  0.25044933  0.50008610
   0.75017376  0.75044741  0.75022836
   0.00013691  0.75044043  0.00030770
   0.25271980  0.75028854  0.25049933
   0.50317681  0.74987064  0.49905226
   0.75019299  0.25016436  0.75022835
   0.00013621  0.25061578  0.00020916
   0.25021666  0.75031099  0.74999987
   0.50059822  0.75003811  0.00111586
   0.25019273  0.25063656  0.75009109
   0.50014818  0.25056197  0.00026004
   0.00047912  0.75023095  0.25047125
   0.25118136  0.75055178  0.50024497
   0.00024991  0.25059151  0.25028385
   0.00005519  0.75028807  0.74997931
   0.25038117  0.75046640  0.00036594
   0.50336385  0.74878650  0.25378027
   0.74939707  0.75069716  0.49977927
   0.00016540  0.25060235  0.75014548
   0.25030646  0.25066354  0.00030234
   0.75018570  0.25133569  0.50019513
   0.50054615  0.75065536  0.75002167
   0.74998722  0.75041685  0.00038348
   0.50012066  0.25061406  0.75010513
   0.75008053  0.25066055  0.00028297
   0.00017754  0.00042436  0.25022311
   0.25029176  0.00043005  0.50018702
   0.00044021  0.50065587  0.25038096
   0.00014839  0.00034673  0.75012270
   0.25031090  0.00041491  0.00028693
   0.50029559  0.00029549  0.25026941
   0.75013201  0.00014245  0.50010948
   0.00006418  0.50081457  0.74999914
   0.25031171  0.50043396  0.00033544
   0.74979849  0.50074816  0.50004644
   0.50017004  0.00043166  0.75016324
   0.75005782  0.00029484  0.00027304
   0.50060387  0.50064141  0.75014325
   0.75003581  0.50064383  0.00033222
   0.75022457  0.00049387  0.25035254
   0.00016517  0.00067047  0.50012672
   0.74963333  0.50184478  0.25096707
   0.00055340  0.50063604  0.50009982
   0.75020163  0.00062220  0.75023372
   0.00017973  0.00043299  0.00027178
   0.25029958  0.00040425  0.25030643
   0.50023617  0.00021322  0.50014074
   0.75036033  0.50084783  0.75034632
   0.00017582  0.50046793  0.00029950
   0.25020207  0.00047266  0.75018936
   0.50019307  0.00031997  0.00031672
   0.25027640  0.50086196  0.74993085
   0.50058980  0.50071364  0.00117007
   0.98456551  0.12576819  0.23088926
   0.23517613  0.12593729  0.48164994
   0.98508232  0.62568498  0.23069890
   0.23744153  0.62571309  0.48128543
   0.98454565  0.12575294  0.73119698
   0.23438532  0.12578164  0.98114748
   0.48467331  0.12589546  0.23150295
   0.73458511  0.12594763  0.48154349
   0.98370572  0.62581066  0.72990302
   0.23463076  0.62569792  0.98102244
   0.48159110  0.62603927  0.23005405
   0.48446818  0.12574812  0.73127616
   0.73454018  0.12568514  0.98133321
   0.73479154  0.62575734  0.98038808
   0.23170789  0.87567692  0.23476961
   0.48034781  0.87662336  0.48565392
   0.23196191  0.37577094  0.23491105
   0.23079722  0.87580412  0.73457532
   0.48117503  0.87562434  0.98495739
   0.73328805  0.87590544  0.23497912
   0.98201507  0.87608185  0.48424421
   0.23115717  0.37575832  0.73473793
   0.48116808  0.37559588  0.98483581
   0.73266533  0.37590345  0.23488229
   0.98261135  0.37557125  0.48390809
   0.73188757  0.87601471  0.73585486
   0.98091431  0.87573599  0.98466380
   0.98056909  0.37566023  0.98447084
   0.76982659  0.12593074  0.26640955
   0.02084136  0.12584021  0.51622097
   0.77398448  0.62584168  0.26462160
   0.01961533  0.62585553  0.51588213
   0.77051360  0.12567146  0.76679808
   0.01972418  0.12574268  0.01622031
   0.26949689  0.12573149  0.26687715
   0.51891261  0.12638006  0.51569427
   0.77062900  0.62582136  0.76555690
   0.01973122  0.62567313  0.01662792
   0.26984063  0.12576429  0.76629852
   0.51974943  0.12566614  0.01624708
   0.27101748  0.62582739  0.76536295
   0.52103058  0.62558857  0.01741095
   0.01657906  0.87593253  0.26978889
   0.26586814  0.87619593  0.52003919
   0.01671849  0.37557555  0.26975752
   0.01630071  0.87576895  0.76998740
   0.26645537  0.87579488  0.02030196
   0.51658286  0.87614110  0.26785235
   0.76769740  0.87662897  0.52056638
   0.01616311  0.37582827  0.76964326
   0.26640134  0.37568050  0.02072899
   0.76830213  0.37506922  0.52182584
   0.51644766  0.87601137  0.77046160
   0.76559068  0.87580069  0.02054729
   0.51628688  0.37553003  0.77000626
   0.76569834  0.37567783  0.02007265
   0.87432505  0.98248983  0.22462250
   0.12421860  0.98233535  0.47456041
   0.87537482  0.48210047  0.22509449
   0.12586495  0.48322067  0.47600368
   0.87426158  0.98225510  0.72466428
   0.12418109  0.98219473  0.97471796
   0.37412038  0.98252280  0.22449820
   0.62431286  0.98237545  0.47459151
   0.87451166  0.48215101  0.72476069
   0.12418190  0.48216048  0.97482060
   0.37594295  0.48248590  0.22511767
   0.37413648  0.98223206  0.72479301
   0.62416405  0.98228210  0.97476380
   0.62428395  0.48213527  0.97476047
   0.97471419  0.01855316  0.37414913
   0.22460121  0.01829404  0.62432840
   0.97483694  0.51870320  0.37430066
   0.22592550  0.51885185  0.62435670
   0.97461343  0.01825025  0.87418395
   0.22456768  0.01829699  0.12414756
   0.47469808  0.01829376  0.37410901
   0.72474621  0.01857334  0.62444683
   0.97470021  0.51835127  0.87411907
   0.22525469  0.51847502  0.12436053
   0.47457032  0.01829486  0.87426061
   0.72460593  0.01832056  0.12419262
   0.47506451  0.51826398  0.87469912
   0.72467065  0.51849045  0.12432092
   0.02578380  0.76827248  0.12615254
   0.27602228  0.76924118  0.37640106
   0.02582697  0.26830754  0.12621180
   0.02623062  0.76842120  0.62646847
   0.27570147  0.76828747  0.87630757
   0.52535498  0.76789534  0.12666658
   0.77698428  0.76889040  0.37652116
   0.02633080  0.26840154  0.62636067
   0.27583259  0.26844711  0.87638861
   0.52602496  0.26798270  0.12605721
   0.77599037  0.26866628  0.37633642
   0.52578536  0.76924418  0.62690462
   0.77611680  0.76853813  0.87679355
   0.77578992  0.26817335  0.87638328
   0.12622051  0.23233330  0.27571458
   0.37619300  0.23279400  0.52604642
   0.12705917  0.73231268  0.27536368
   0.12621393  0.23235269  0.77591063
   0.37613645  0.23212440  0.02586978
   0.62631788  0.23229474  0.27580179
   0.87633708  0.23212091  0.52579080
   0.12625649  0.73194867  0.77587936
   0.37615140  0.73215883  0.02560482
   0.87684791  0.73541758  0.52640234
   0.62621339  0.23214849  0.77576341
   0.87621899  0.23225428  0.02585450
   0.62638498  0.73253668  0.77611920
   0.87633383  0.73247062  0.02567039
   0.87536093  0.76838307  0.22497334
   0.12448635  0.76798317  0.47475111
   0.87430901  0.26811783  0.22464896
   0.12416674  0.26833529  0.47428200
   0.87439522  0.76852506  0.72489321
   0.12416915  0.76825801  0.97472084
   0.37551740  0.76819397  0.22510355
   0.62555518  0.77735219  0.48060630
   0.87423955  0.26818855  0.72454787
   0.12410708  0.26838580  0.97469385
   0.37412062  0.26795368  0.22439659
   0.37413751  0.76841484  0.72500654
   0.62422972  0.76832161  0.97472121
   0.62412043  0.26820908  0.97471420
   0.97473045  0.23203965  0.37422891
   0.22456453  0.23213727  0.62437845
   0.97461514  0.73194080  0.37432601
   0.22473209  0.73231027  0.62433155
   0.97463918  0.23226397  0.87419599
   0.22461346  0.23222089  0.12430691
   0.47501094  0.23283057  0.37418534
   0.72466581  0.23202555  0.62446168
   0.97475971  0.73214062  0.87421392
   0.22498998  0.73222870  0.12422223
   0.47461024  0.23220205  0.87420046
   0.72468508  0.23228527  0.12422069
   0.47482836  0.73227095  0.87458265
   0.72471589  0.73212678  0.12427096
   0.12626406  0.01824950  0.27575680
   0.37615173  0.01844792  0.52587348
   0.12729461  0.51821826  0.27502999
   0.12624543  0.01835762  0.77599580
   0.37620146  0.01864599  0.02613977
   0.62634742  0.01845515  0.27591385
   0.87648410  0.01875341  0.52590432
   0.12632252  0.51883046  0.77604436
   0.37621789  0.51838138  0.02563650
   0.87751937  0.51592410  0.52677312
   0.62629033  0.01843656  0.77589293
   0.87627531  0.01829159  0.02595289
   0.62656586  0.51817408  0.77632958
   0.87635372  0.51810366  0.02572312
   0.02584406  0.98222474  0.12618909
   0.27569772  0.98257525  0.37628221
   0.02568663  0.48221091  0.12607421
   0.02593535  0.98235009  0.62630780
   0.27584680  0.98218290  0.87631706
   0.52613346  0.98275399  0.12614319
   0.77600978  0.98244673  0.37624605
   0.02667275  0.48266310  0.62647576
   0.27561770  0.48225756  0.87636976
   0.52549464  0.48310681  0.12674410
   0.77695850  0.48234724  0.37668537
   0.52579244  0.98300954  0.62650996
   0.77588788  0.98235091  0.87638447
   0.77646641  0.48269107  0.87687644
   0.38807234  0.37486181  0.35374088
   0.63807899  0.37509694  0.60680890
   0.35725781  0.62649443  0.63527340
   0.39849955  0.37694891  0.61468818
   0.64621685  0.37784018  0.36367808
   0.61466679  0.62583221  0.64307678
   0.36893371  0.62566784  0.39892944
   0.25032008  0.25075091  0.25040580
   0.50040082  0.25207672  0.50009957
   0.50042461  0.25097415  0.25023962
   0.25057217  0.25086600  0.50032831
   0.50339205  0.50302143  0.25370772
   0.25305547  0.50029633  0.50028234
   0.25309923  0.50080873  0.25048842
   0.50351919  0.50245361  0.49915342
   0.48645655  0.62577632  0.73176643
   0.74003722  0.62584559  0.49209849
   0.73254575  0.37541026  0.73653177
   0.48044381  0.37615523  0.48561846
   0.27177916  0.62566867  0.26829989
   0.51170159  0.62634140  0.52072404
   0.51708615  0.37581278  0.26689372
   0.26710476  0.37544861  0.52125173
   0.37431553  0.48278475  0.72592552
   0.62613480  0.47448014  0.48198353
   0.46946338  0.51071346  0.37493826
   0.72547560  0.51733697  0.62565812
   0.52625987  0.26828605  0.62656446
   0.27605036  0.26865770  0.37641211
   0.62767784  0.73309255  0.27723351
   0.37662517  0.73579405  0.52618466
   0.37410368  0.26854330  0.72456294
   0.62420704  0.26948298  0.47425621
   0.46942485  0.74048484  0.37491044
   0.72495822  0.73544123  0.62534606
   0.62785067  0.51866446  0.27734861
   0.37762198  0.51688930  0.52725196
   0.52614253  0.48238407  0.62689406
   0.27670563  0.48137303  0.37641484

 position of ions in cartesian coordinates  (Angst):
   8.97056495 20.59183422 20.03999066
  -7.87047070 20.59026491 11.95588309
   8.97101079  8.83644470 20.04132035
  -7.86263194  8.83941215 11.96572631
   0.54581776 20.59170882 28.11259955
   0.53809647 20.58774971  3.89805389
   0.55633941 20.60998127 11.96975271
   0.52989048 20.62505250 20.07422244
   0.54588635  8.83249831 28.10610720
   0.52634407  8.83557726  3.91188810
  -7.87759481 20.58617177 20.04928431
   8.91988930 20.57959063 12.00224214
  -7.87617358  8.83834855 20.04525075
   8.92739504  8.84927857 11.99253260
  -4.73563656  2.94954552  7.94754502
  -4.75081083  2.95176975 15.99892029
  -4.71835480 14.70835081  7.96453998
 -13.17878882  2.94913406 15.99966679
   3.65136330  2.94976606  7.93874202
   3.65581636  2.95345914 16.01098039
   3.66162210  2.95096283 24.07255314
 -13.18505350 14.71303550 16.00512548
   3.66009960 14.71348984  7.91697103
   3.68680138 14.71930391 24.00767664
  -4.75981709  2.94849326 24.07972306
  12.07634471  2.94904356 15.99961958
  -4.76303467 14.71343701 24.07190624
  12.11306422 14.71220553 16.01089006
  13.16563198 20.58600040 16.33211382
  -3.66133644 20.58186484  8.25723323
  13.16550250  8.83598903 16.32949499
  -3.66390944  8.86911187  8.25952851
   4.76566559 20.59121355 24.41416541
 -12.08420925 20.59000037 16.33200292
   4.75580256 20.57898060  8.27664491
   4.76552935 20.58246656 16.31803078
   4.78889827  8.83293248 24.44431578
 -12.08340239  8.83401394 16.32973123
   4.75887350  8.85064916  8.28181604
  -3.66153188 20.58680175 16.32938235
  -3.66810538 20.58962296 24.41497169
  -3.67012970  8.83376594 24.41369415
  -0.54844871  2.94809710  4.21570209
  -0.54414424  2.95720808 12.30636738
  -0.54656891 14.71132966  4.22740309
  -8.96957474  2.94775311 12.29640467
  -8.96978917  2.94811202 20.37198488
   7.86808107  2.94920350 12.29300480
   7.86490034  2.95029090 20.36832960
  -8.95708254 14.70764245 12.28885129
  -8.95895469 14.70917916 20.37107886
   7.80517677 14.71527783 12.35852123
   7.81749813 14.71330253 20.37778023
  -0.54188680  2.94873353 20.34941026
  -0.55287157  2.94745615 28.45508390
  -0.54340752 14.71215581 28.44441959
   8.39671381 17.63193867 16.16748859
  -8.41824000 17.65795317  8.08130177
   8.41634443  5.90200923 16.16349865
  -8.41675545  5.89247560  8.08389208
  -0.00091937 17.65623841 24.24043809
  -0.00287618 17.65607424  0.00718313
   0.03739287 17.65250076  8.12998858
   0.06945761 17.64266839 16.19197374
  -0.00059549  5.88577100 24.24074875
  -0.00122849  5.89639182  0.00557984
  -8.41636676 17.65302883 16.15945912
   8.41130038 17.64660853  8.10567322
  -8.41830581  5.89688070 16.16054635
   8.41813383  5.89512589  8.08457578
  -4.20987612 17.65114573  4.05434438
  -4.19424005 17.65869407 12.14001451
  -4.21058032  5.89582091  4.04761371
 -12.62874839 17.65248954 12.11752810
   4.21026523 17.65668524  4.05106056
   4.20299626 17.61716134 12.23239098
   4.20357237 17.66211451 20.18164427
 -12.62969082  5.89607577 12.12199334
   4.21007806  5.89751541  4.04882597
   4.20984993  5.91332957 20.20110399
  -4.20117642 17.66113102 20.20412501
  12.62335318 17.65551942 12.12295964
  -4.20974721  5.89635132 20.19859899
  12.62661715  5.89744521 12.12284352
  -4.21077612  0.00998413  4.04546323
  -4.20824494  0.01011814 12.12470590
  -4.20901087 11.77923908  4.05225703
 -12.62959376  0.00815770 12.12135050
   4.21041228  0.00976180  4.04864876
   4.21044959  0.00695221 12.12609884
   4.21038813  0.00335144 20.19885284
 -12.62893094 11.78297290 12.11799377
   4.20960909 11.77401805  4.04944549
   4.20583322 11.78141053 20.19244605
  -4.20989426  0.01015591 20.20033582
  12.62640186  0.00693697 12.12231612
  -4.20225191 11.77889892 20.20702181
  12.62503473 11.77895580 12.12291669
   8.41786244  0.01161954 16.16528481
  -8.41936996  0.01577462  8.08269626
   8.39755717 11.80721129 16.16566103
  -8.41237916 11.77877242  8.08853402
  -0.00054042  0.01463897 24.24097499
  -0.00155007  0.01018712  0.00729457
  -0.00011533  0.00951115  8.08777110
   0.00160695  0.00501645 16.16205039
   0.00023606 11.78375551 24.24535814
  -0.00208278 11.77481730  0.00767932
  -8.41980352  0.01112060 16.16228495
   8.41793519  0.00752805  8.08621657
  -8.41419843 11.78408785 16.15930948
   8.41024563 11.78059819  8.10641287
  12.69193448  2.95902563 19.63683989
  -4.15062761  2.96300424 11.58101408
  12.70384312 14.72087593 19.64211390
  -4.10633974 14.72153721 11.61172471
   4.26640058  2.95866695 27.71947102
 -12.57550089  2.95934218 19.63810051
   4.26339761  2.96202005 11.57051571
   4.26122973  2.96324737 19.64772621
   4.27404639 14.72383283 27.68499592
 -12.56926201 14.72118041 19.64004560
   4.23589288 14.72921150 11.49731128
  -4.15625494  2.95855353 19.64151808
  -4.15600322  2.95707178 27.72158347
  -4.13585423 14.72257851 27.71037510
  -0.05155955 20.60259023  7.53639231
  -0.08935511 20.62485781 15.60668629
  -0.04966358  8.84099438  7.54278134
  -8.48364083 20.60558292 15.59652106
  -8.48371257 20.60135332 23.68677831
   8.39153975 20.60796691 15.64328662
   8.38247869 20.61211729 23.68882774
  -8.48031753  8.84069747 15.60496352
  -8.48178232  8.83687573 23.68470170
   8.38268395  8.84411211 15.63166158
   8.39818033  8.83629624 23.69303094
  -0.06680942 20.61053779 23.71278947
  -0.06314164 20.60398016 31.75580335
  -0.06570558  8.83838967 31.74710849
   8.47756056  2.96285005 16.74139066
  -8.34221008  2.96072010  8.67675804
   8.57768871 14.72456277 16.77967928
  -8.35715018 14.72488854  8.65147608
   0.06256950  2.95674987 24.83674750
   0.05900526  2.95842556  0.58071769
   0.04411650  2.95816228  8.66563819
   0.05419705  2.97342155 16.71506834
   0.08541447 14.72408472 24.81855950
   0.05225972 14.72059707  0.58741691
  -8.36036809  2.95893393 16.73982369
   8.47899733  2.95662480  8.65953871
  -8.32479504 14.72422657 16.74372190
   8.48097219 14.71860762  8.69904042
  -4.26406239 20.60860419  4.62654938
  -4.28024952 20.61480129 12.69708816
  -4.26118623  8.83639737  4.62829529
 -12.69211019 20.60475554 12.70324009
   4.14523198 20.60536558  4.63284032
   4.18863051 20.61351144 12.67330455
   4.16169502 20.62498970 20.81313936
 -12.68863209  8.84234314 12.69545711
   4.13713102  8.83886659  4.63886643
   4.15066930  8.82448465 20.84325710
  -4.27760367 20.61045907 20.79125583
  12.54655687 20.60550224 12.70081443
  -4.27264331  8.83532626 20.78130181
  12.55636272  8.83880368 12.69488560
  10.94101360 23.11564352 17.75455382
  -5.89976848 23.11200892  9.67385031
  10.95074346 11.34267482 17.77913930
  -5.89634836 11.36903041  9.72376614
   2.51922382 23.11012086 25.83218387
 -14.32307051 23.10870045 17.75377018
   2.51964271 23.11641927  9.67125846
   2.52131280 23.11295242 17.75385618
   2.52181163 11.34386383 25.83778177
 -14.32478564 11.34408655 17.75544154
   2.53990306 11.35174291  9.71071192
  -5.90506829 23.10957878 17.75426192
[...]
      6.74061     11.34848     18.63823         0.002135      0.001274      0.000039
     -1.69609     23.12787     18.61655         0.001753     -0.000055     -0.001065
     -1.69237     23.11238     26.69405         0.000074      0.000494     -0.000099
     -1.69091     11.35657     26.71134        -0.001177     -0.000245      0.000899
      0.57814      8.81960     11.98471         0.001806     -0.002430     -0.000791
      0.52659      8.82514     20.11236        -0.002699     -0.004296     -0.000177
     -4.68179     14.73992     16.03530        -0.000217     -0.004063      0.002808
     -3.64062      8.86871     16.36902        -0.005592     -0.004392     -0.003862
      4.75796      8.88968     16.31582         0.000097     -0.001994      0.001865
     -0.47843     14.72434     20.32006        -0.000955     -0.002822      0.001903
     -0.50513     14.72047     12.40557         0.001612     -0.000736      0.001614
     -0.00144      5.89957      8.08971         0.001480     -0.000306     -0.003926
      0.00507      5.93076     16.16405        -0.000308     -0.003513      0.001057
      4.21312      5.90482     12.12770        -0.001703      0.000043      0.002695
     -4.20590      5.90228     12.13152         0.000411     -0.001068     -0.006511
      4.20469     11.83490     12.23167         0.000188      0.002109      0.000821
     -4.16331     11.77078     12.17090         0.001874      0.001124     -0.002280
      0.04397     11.78284      8.13594         0.002096      0.001973     -0.000624
      0.07352     11.82154     16.19914        -0.001783     -0.001643     -0.000371
     -4.13103     14.72302     19.68156         0.002075      0.004067     -0.002283
      4.17530     14.72465     19.90634        -0.003132      0.001437      0.001237
     -0.06712      8.83251     23.73436         0.001703      0.003178      0.003936
     -0.08714      8.85004     15.60766         0.002936     -0.001639      0.001583
      0.05859     14.72049      8.72550         0.003555      0.002118      0.002910
     -0.15194     14.73632     16.67983         0.000574      0.001547     -0.005931
      4.21325      8.84198     12.66595        -0.003660      0.000245      0.001468
     -4.27984      8.83341     12.73666         0.001844      0.002027     -0.003154
     -5.92112     11.35877     17.77545         0.004072     -0.002380     -0.002100
      2.42751     11.16339     17.90272         0.000256      0.002416     -0.000053
      1.59181     12.01587     13.64212         0.002968      0.005060      0.000981
      1.68093     12.17171     21.82886        -0.001170      0.001413      0.000308
     -1.68913      6.31213     18.62498         0.000359      0.001726     -0.003088
     -1.69010      6.32088     10.54116        -0.001352     -0.002423     -0.002084
      5.90149     17.24792     14.61971         0.003751      0.000966      0.001960
     -2.51859     17.31148     14.58576        -0.000551      0.001087     -0.001985
     -5.90175      6.31818     17.75001        -0.000827     -0.001415     -0.002385
      2.52518      6.34029     17.74673         0.003855     -0.001340      0.004183
      1.59163     17.42184     13.64105        -0.000948      0.001115     -0.000146
      1.67747     17.30318     21.81546        -0.000581     -0.001085      0.001201
      5.90247     12.20294     14.62436         0.001563     -0.000073      0.001202
     -2.51977     12.16117     14.61911         0.001764     -0.002770      0.000565
     -1.69666     11.34935     18.62841        -0.000431     -0.000456     -0.002449
     -1.67911     11.32556     10.55179        -0.000609      0.001509     -0.001058
 -----------------------------------------------------------------------------------
    total drift:                                0.188167     -0.555754     -1.267090


--------------------------------------------------------------------------------------------------------



  FREE ENERGIE OF THE ION-ELECTRON SYSTEM (eV)
  ---------------------------------------------------
  free  energy   TOTEN  =    -11395.71362178 eV

  energy  without entropy=   -11395.71362178  energy(sigma->0) =   -11395.71362178



--------------------------------------------------------------------------------------------------------


    POTLOK:  cpu time    8.0069: real time    8.0078


--------------------------------------------------------------------------------------------------------


 stress matrix after NEB project (eV)
     -4.64166      0.01316      0.01290
      0.01317     -4.88350      0.05982
      0.01293      0.05983     -7.80519
  FORCES: max atom, RMS     0.008092    0.002676
  FORCE total and by dimension    0.047802    0.006511
  Stress total and by dimension   10.311275    7.805189


--------------------------------------------------------------------------------------------------------


  
 reached required accuracy - stopping structural energy minimisation
     LOOP+:  cpu time 4221.8955: real time 4231.2919
    4ORBIT:  cpu time    0.0000: real time    0.0000



 total charge     

# of ion       s       p       d       tot
------------------------------------------
    1        1.786   4.719   0.019   6.524
    2        1.786   4.719   0.019   6.524
    3        1.786   4.719   0.019   6.524
    4        1.786   4.719   0.019   6.524
    5        1.786   4.719   0.019   6.524
    6        1.786   4.719   0.019   6.524
    7        1.786   4.719   0.020   6.525
    8        1.786   4.719   0.020   6.525
    9        1.786   4.719   0.019   6.524
   10        1.786   4.719   0.019   6.524
   11        1.786   4.719   0.019   6.524
   12        1.786   4.719   0.019   6.524
   13        1.786   4.719   0.019   6.524
   14        1.786   4.719   0.019   6.523
   15        1.786   4.719   0.019   6.524
   16        1.786   4.719   0.019   6.524
   17        1.786   4.719   0.018   6.523
   18        1.786   4.719   0.019   6.524
   19        1.786   4.719   0.019   6.524
   20        1.786   4.719   0.019   6.524
   21        1.786   4.719   0.019   6.524
   22        1.786   4.719   0.019   6.524
   23        1.786   4.719   0.019   6.525
   24        1.786   4.719   0.019   6.524
   25        1.786   4.719   0.019   6.524
   26        1.786   4.719   0.019   6.524
   27        1.786   4.719   0.019   6.524
   28        1.786   4.719   0.019   6.525
   29        1.786   4.719   0.019   6.524
   30        1.786   4.719   0.019   6.524
   31        1.786   4.719   0.019   6.524
   32        1.786   4.719   0.019   6.524
   33        1.786   4.719   0.019   6.525
   34        1.786   4.719   0.019   6.524
   35        1.786   4.719   0.019   6.524
   36        1.786   4.719   0.019   6.525
   37        1.786   4.719   0.019   6.525
   38        1.786   4.719   0.019   6.524
   39        1.786   4.719   0.019   6.524
   40        1.786   4.719   0.019   6.525
   41        1.786   4.719   0.019   6.525
   42        1.786   4.719   0.019   6.525
   43        1.786   4.719   0.019   6.524
   44        1.786   4.719   0.019   6.524
   45        1.786   4.719   0.019   6.524
   46        1.786   4.719   0.019   6.525
   47        1.786   4.719   0.019   6.524
   48        1.786   4.719   0.019   6.524
   49        1.786   4.719   0.019   6.524
   50        1.786   4.719   0.019   6.524
   51        1.786   4.719   0.019   6.524
   52        1.786   4.719   0.019   6.524
   53        1.786   4.719   0.019   6.523
   54        1.786   4.719   0.019   6.524
   55        1.786   4.719   0.019   6.525
   56        1.786   4.719   0.019   6.525
   57        1.554   0.417   9.833  11.804
   58        1.555   0.418   9.834  11.806
   59        1.555   0.417   9.833  11.805
   60        1.555   0.417   9.833  11.805
   61        1.555   0.419   9.834  11.807
   62        1.555   0.417   9.833  11.806
   63        1.555   0.416   9.833  11.803
   64        1.554   0.412   9.833  11.799
   65        1.555   0.418   9.834  11.806
   66        1.555   0.417   9.833  11.805
   67        1.555   0.417   9.833  11.805
   68        1.554   0.417   9.833  11.805
   69        1.555   0.417   9.833  11.805
   70        1.555   0.417   9.834  11.806
   71        1.555   0.417   9.833  11.805
   72        1.554   0.417   9.833  11.805
   73        1.555   0.417   9.833  11.806
   74        1.555   0.417   9.833  11.805
   75        1.555   0.417   9.833  11.805
   76        1.554   0.414   9.833  11.800
   77        1.554   0.416   9.833  11.803
   78        1.555   0.417   9.833  11.805
   79        1.555   0.417   9.833  11.805
   80        1.555   0.416   9.833  11.805
   81        1.555   0.417   9.833  11.805
   82        1.555   0.417   9.833  11.805
   83        1.555   0.417   9.834  11.806
   84        1.555   0.417   9.833  11.805
   85        1.555   0.417   9.833  11.806
   86        1.555   0.418   9.834  11.806
   87        1.555   0.417   9.833  11.805
   88        1.555   0.417   9.833  11.805
   89        1.555   0.417   9.833  11.805
   90        1.555   0.418   9.834  11.806
   91        1.555   0.417   9.833  11.805
   92        1.555   0.417   9.833  11.805
   93        1.555   0.417   9.833  11.805
   94        1.554   0.416   9.833  11.803
   95        1.555   0.418   9.834  11.806
   96        1.555   0.417   9.833  11.805
   97        1.555   0.418   9.833  11.806
   98        1.555   0.417   9.834  11.806
   99        1.555   0.418   9.834  11.806
  100        1.555   0.417   9.833  11.805
  101        1.554   0.417   9.833  11.803
  102        1.555   0.417   9.833  11.805
  103        1.555   0.418   9.834  11.806
  104        1.555   0.417   9.833  11.805
  105        1.555   0.417   9.833  11.805
  106        1.555   0.418   9.833  11.806
  107        1.555   0.419   9.834  11.807
  108        1.555   0.417   9.833  11.805
  109        1.555   0.417   9.833  11.805
  110        1.555   0.417   9.833  11.805
  111        1.555   0.417   9.834  11.805
  112        1.554   0.417   9.833  11.805
  113        1.614   3.287   0.006   4.907
  114        1.614   3.287   0.006   4.908
  115        1.614   3.287   0.006   4.907
  116        1.614   3.286   0.006   4.906
  117        1.614   3.286   0.006   4.907
  118        1.614   3.286   0.006   4.907
  119        1.614   3.287   0.006   4.907
  120        1.614   3.287   0.006   4.907
  121        1.614   3.285   0.006   4.905
  122        1.614   3.286   0.006   4.907
  123        1.614   3.286   0.006   4.907
  124        1.614   3.287   0.006   4.907
  125        1.614   3.287   0.006   4.907
  126        1.614   3.286   0.006   4.907
  127        1.614   3.286   0.006   4.907
  128        1.614   3.287   0.006   4.907
  129        1.614   3.287   0.006   4.907
  130        1.614   3.286   0.006   4.907
  131        1.614   3.286   0.006   4.907
  132        1.614   3.287   0.006   4.907
  133        1.614   3.286   0.006   4.907
  134        1.614   3.286   0.006   4.907
  135        1.614   3.286   0.006   4.907
  136        1.614   3.287   0.006   4.907
  137        1.614   3.286   0.006   4.907
  138        1.614   3.287   0.006   4.908
  139        1.614   3.286   0.006   4.907
  140        1.614   3.286   0.006   4.906
  141        1.614   3.287   0.006   4.907
  142        1.614   3.287   0.006   4.907
  143        1.614   3.287   0.006   4.908
  144        1.614   3.286   0.006   4.906
  145        1.614   3.287   0.006   4.907
  146        1.614   3.286   0.006   4.906
  147        1.614   3.286   0.006   4.906
  148        1.614   3.287   0.006   4.907
  149        1.614   3.286   0.006   4.907
  150        1.614   3.286   0.006   4.906
  151        1.614   3.286   0.006   4.906
  152        1.614   3.286   0.006   4.907
  153        1.614   3.286   0.006   4.906
  154        1.614   3.285   0.006   4.906
  155        1.614   3.286   0.006   4.906
  156        1.614   3.287   0.006   4.907
  157        1.614   3.286   0.006   4.907
  158        1.614   3.286   0.006   4.906
  159        1.614   3.286   0.006   4.906
  160        1.614   3.286   0.006   4.907
  161        1.614   3.287   0.006   4.907
  162        1.614   3.286   0.006   4.906
  163        1.614   3.286   0.006   4.906
  164        1.614   3.286   0.006   4.907
  165        1.614   3.287   0.006   4.907
  166        1.614   3.286   0.006   4.907
  167        1.614   3.287   0.006   4.907
  168        1.614   3.286   0.006   4.906
  169        1.614   3.285   0.006   4.905
  170        1.614   3.285   0.006   4.905
  171        1.614   3.285   0.006   4.905
  172        1.614   3.285   0.006   4.904
  173        1.614   3.285   0.006   4.905
  174        1.614   3.285   0.006   4.904
  175        1.614   3.285   0.006   4.905
  176        1.614   3.284   0.006   4.904
  177        1.614   3.284   0.006   4.905
  178        1.614   3.285   0.006   4.905
  179        1.614   3.285   0.006   4.904
  180        1.614   3.284   0.006   4.904
  181        1.614   3.284   0.006   4.904
  182        1.614   3.285   0.006   4.905
  183        1.614   3.284   0.006   4.904
  184        1.614   3.285   0.006   4.905
  185        1.614   3.284   0.006   4.903
  186        1.614   3.284   0.006   4.904
  187        1.614   3.285   0.006   4.905
  188        1.614   3.285   0.006   4.905
  189        1.614   3.285   0.006   4.905
  190        1.614   3.285   0.006   4.905
  191        1.614   3.285   0.006   4.905
  192        1.614   3.285   0.006   4.904
  193        1.614   3.285   0.006   4.905
  194        1.614   3.285   0.006   4.905
  195        1.614   3.285   0.006   4.905
  196        1.614   3.284   0.006   4.904
  197        1.614   3.285   0.006   4.905
  198        1.614   3.284   0.006   4.904
  199        1.614   3.285   0.006   4.904
  200        1.614   3.285   0.006   4.905
  201        1.614   3.285   0.006   4.905
  202        1.614   3.284   0.006   4.904
  203        1.614   3.284   0.006   4.904
  204        1.614   3.285   0.006   4.904
  205        1.614   3.284   0.006   4.904
  206        1.614   3.285   0.006   4.905
  207        1.614   3.284   0.006   4.904
  208        1.614   3.284   0.006   4.904
  209        1.614   3.285   0.006   4.905
  210        1.614   3.285   0.006   4.905
  211        1.614   3.284   0.006   4.904
  212        1.614   3.284   0.006   4.904
  213        1.614   3.284   0.006   4.904
  214        1.614   3.285   0.006   4.904
  215        1.614   3.284   0.006   4.904
  216        1.614   3.284   0.006   4.904
  217        1.614   3.285   0.006   4.904
  218        1.614   3.284   0.006   4.904
  219        1.614   3.285   0.006   4.905
  220        1.614   3.285   0.006   4.905
  221        1.614   3.284   0.006   4.904
  222        1.614   3.285   0.006   4.904
  223        1.614   3.284   0.006   4.904
  224        1.614   3.285   0.006   4.905
  225        1.614   3.285   0.006   4.905
  226        1.614   3.285   0.006   4.905
  227        1.614   3.285   0.006   4.905
  228        1.614   3.284   0.006   4.904
  229        1.614   3.285   0.006   4.905
  230        1.614   3.285   0.006   4.905
  231        1.614   3.285   0.006   4.904
  232        1.615   3.285   0.006   4.906
  233        1.614   3.285   0.006   4.905
  234        1.614   3.284   0.006   4.904
  235        1.614   3.285   0.006   4.905
  236        1.614   3.285   0.006   4.905
  237        1.614   3.285   0.006   4.905
  238        1.614   3.284   0.006   4.904
  239        1.614   3.284   0.006   4.904
  240        1.614   3.285   0.006   4.905
  241        1.614   3.284   0.006   4.904
  242        1.614   3.284   0.006   4.904
  243        1.614   3.285   0.006   4.905
  244        1.614   3.285   0.006   4.905
  245        1.614   3.285   0.006   4.905
  246        1.614   3.285   0.006   4.905
  247        1.614   3.285   0.006   4.905
  248        1.614   3.285   0.006   4.904
  249        1.614   3.285   0.006   4.905
  250        1.614   3.285   0.006   4.905
  251        1.614   3.285   0.006   4.905
  252        1.614   3.284   0.006   4.904
  253        1.614   3.285   0.006   4.905
  254        1.614   3.285   0.006   4.905
  255        1.614   3.284   0.006   4.904
  256        1.614   3.285   0.006   4.905
  257        1.614   3.284   0.006   4.904
  258        1.614   3.284   0.006   4.904
  259        1.614   3.285   0.006   4.905
  260        1.614   3.285   0.006   4.904
  261        1.614   3.285   0.006   4.905
  262        1.614   3.285   0.006   4.905
  263        1.614   3.284   0.006   4.904
  264        1.614   3.284   0.006   4.904
  265        1.614   3.284   0.006   4.904
  266        1.614   3.285   0.006   4.905
  267        1.614   3.284   0.006   4.904
  268        1.614   3.284   0.006   4.904
  269        1.614   3.285   0.006   4.905
  270        1.614   3.285   0.006   4.904
  271        1.614   3.284   0.006   4.904
  272        1.614   3.285   0.006   4.905
  273        1.614   3.284   0.006   4.904
  274        1.614   3.285   0.006   4.905
  275        1.614   3.285   0.006   4.905
  276        1.614   3.284   0.006   4.903
  277        1.614   3.284   0.006   4.904
  278        1.614   3.285   0.006   4.905
  279        1.614   3.285   0.006   4.905
  280        1.614   3.285   0.006   4.905
  281        1.786   4.719   0.020   6.525
  282        1.786   4.719   0.020   6.525
  283        1.786   4.719   0.018   6.523
  284        1.786   4.719   0.020   6.525
  285        1.786   4.719   0.019   6.524
  286        1.786   4.719   0.018   6.523
  287        1.786   4.719   0.019   6.523
  288        1.555   0.417   9.833  11.805
  289        1.555   0.417   9.833  11.805
  290        1.555   0.418   9.834  11.806
  291        1.555   0.417   9.833  11.805
  292        1.554   0.413   9.833  11.800
  293        1.555   0.418   9.834  11.806
  294        1.554   0.416   9.833  11.804
  295        1.554   0.412   9.833  11.799
  296        1.614   3.287   0.006   4.907
  297        1.615   3.281   0.007   4.903
  298        1.614   3.288   0.006   4.908
  299        1.614   3.287   0.006   4.908
  300        1.614   3.285   0.006   4.905
  301        1.615   3.281   0.006   4.903
  302        1.614   3.286   0.006   4.906
  303        1.614   3.287   0.006   4.907
  304        1.614   3.285   0.006   4.905
  305        1.615   3.285   0.006   4.906
  306        1.615   3.284   0.006   4.905
  307        1.614   3.286   0.006   4.906
  308        1.614   3.285   0.006   4.904
  309        1.614   3.284   0.006   4.904
  310        1.615   3.275   0.007   4.897
  311        1.614   3.285   0.006   4.904
  312        1.614   3.284   0.006   4.904
  313        1.614   3.283   0.006   4.903
  314        1.615   3.284   0.006   4.905
  315        1.614   3.285   0.006   4.906
  316        1.615   3.275   0.007   4.897
  317        1.614   3.285   0.006   4.905
  318        1.614   3.284   0.006   4.904
  319        1.614   3.284   0.006   4.904
--------------------------------------------------
tot        521.908 954.722 631.6932108.322


 total amount of memory used by VASP MPI-rank0   207254. kBytes
=======================================================================

   base      :      30000. kBytes
   nonlr-proj:      21720. kBytes
   fftplans  :      59112. kBytes
   grid      :      63297. kBytes
   one-center:        311. kBytes
   wavefun   :      32814. kBytes

  
  
 General timing and accounting informations for this job:
 ========================================================
  
                  Total CPU time used (sec):     4306.595
                            User time (sec):     4190.268
                          System time (sec):      116.328
                         Elapsed time (sec):     4323.206
  
                   Maximum memory used (kb):      297368.
                   Average memory used (kb):           0.
  
                          Minor page faults:     20736605
                          Major page faults:            0
                 Voluntary context switches:         2113
