  20  20   1   0
  0.3759469E+02  0.8436208E-09  0.1167184E-08  0.7636071E-09  0.5000000E-15
   1.0000000000000000E-004
  CAR 
 CsPbBr3 cubic bulk                      
      9.17526151    -21.64744690  301      1.07145776      1.00000000
    -21.647  0.0000E+00  0.0000E+00
    -21.545  0.0000E+00  0.0000E+00
    -21.442  0.0000E+00  0.0000E+00
    -21.339  0.0000E+00  0.0000E+00
    -21.236  0.0000E+00  0.0000E+00
    -21.134  0.0000E+00  0.0000E+00
    -21.031  0.0000E+00  0.0000E+00
    -20.928  0.0000E+00  0.0000E+00
    -20.826  0.0000E+00  0.0000E+00
    -20.723  0.0000E+00  0.0000E+00
    -20.620  0.0000E+00  0.0000E+00
    -20.517  0.0000E+00  0.0000E+00
    -20.415  0.0000E+00  0.0000E+00
    -20.312  0.0000E+00  0.0000E+00
    -20.209  0.7786E+02  0.8000E+01
    -20.106  0.0000E+00  0.8000E+01
    -20.004  0.0000E+00  0.8000E+01
    -19.901  0.0000E+00  0.8000E+01
    -19.798  0.0000E+00  0.8000E+01
    -19.695  0.0000E+00  0.8000E+01
    -19.593  0.0000E+00  0.8000E+01
    -19.490  0.0000E+00  0.8000E+01
    -19.387  0.0000E+00  0.8000E+01
    -19.284  0.0000E+00  0.8000E+01
    -19.182  0.0000E+00  0.8000E+01
    -19.079  0.0000E+00  0.8000E+01
    -18.976  0.0000E+00  0.8000E+01
    -18.873  0.0000E+00  0.8000E+01
    -18.771  0.0000E+00  0.8000E+01
    -18.668  0.0000E+00  0.8000E+01
    -18.565  0.0000E+00  0.8000E+01
    -18.462  0.0000E+00  0.8000E+01
    -18.360  0.0000E+00  0.8000E+01
    -18.257  0.0000E+00  0.8000E+01
    -18.154  0.0000E+00  0.8000E+01
    -18.051  0.0000E+00  0.8000E+01
    -17.949  0.0000E+00  0.8000E+01
    -17.846  0.0000E+00  0.8000E+01
    -17.743  0.0000E+00  0.8000E+01
    -17.640  0.0000E+00  0.8000E+01
    -17.538  0.0000E+00  0.8000E+01
    -17.435  0.0000E+00  0.8000E+01
    -17.332  0.0000E+00  0.8000E+01
    -17.230  0.0000E+00  0.8000E+01
    -17.127  0.0000E+00  0.8000E+01
    -17.024  0.0000E+00  0.8000E+01
    -16.921  0.0000E+00  0.8000E+01
    -16.819  0.0000E+00  0.8000E+01
    -16.716  0.0000E+00  0.8000E+01
    -16.613  0.0000E+00  0.8000E+01
    -16.510  0.0000E+00  0.8000E+01
    -16.408  0.0000E+00  0.8000E+01
    -16.305  0.0000E+00  0.8000E+01
    -16.202  0.0000E+00  0.8000E+01
    -16.099  0.6003E-15  0.8000E+01
    -15.997  0.6308E+02  0.1448E+02
    -15.894  0.6488E+02  0.2400E+02
    -15.791  0.2336E+03  0.4800E+02
    -15.688  0.0000E+00  0.4800E+02
    -15.586  0.0000E+00  0.4800E+02
    -15.483  0.0000E+00  0.4800E+02
    -15.380  0.0000E+00  0.4800E+02
    -15.277  0.0000E+00  0.4800E+02
    -15.175  0.0000E+00  0.4800E+02
    -15.072  0.0000E+00  0.4800E+02
    -14.969  0.0000E+00  0.4800E+02
    -14.866  0.0000E+00  0.4800E+02
    -14.764  0.0000E+00  0.4800E+02
    -14.661  0.0000E+00  0.4800E+02
    -14.558  0.0000E+00  0.4800E+02
    -14.455  0.0000E+00  0.4800E+02
    -14.353  0.0000E+00  0.4800E+02
    -14.250  0.0000E+00  0.4800E+02
    -14.147  0.0000E+00  0.4800E+02
    -14.045  0.1079E+01  0.4811E+02
    -13.942  0.1864E+02  0.5003E+02
    -13.839  0.1892E+02  0.5206E+02
    -13.736  0.2357E+02  0.5531E+02
    -13.634  0.3210E+02  0.6019E+02
    -13.531  0.3609E+02  0.6515E+02
    -13.428  0.3834E+02  0.7027E+02
    -13.325  0.9733E+01  0.7200E+02
    -13.223  0.0000E+00  0.7200E+02
    -13.120  0.0000E+00  0.7200E+02
    -13.017  0.0000E+00  0.7200E+02
    -12.914  0.0000E+00  0.7200E+02
    -12.812  0.0000E+00  0.7200E+02
    -12.709  0.0000E+00  0.7200E+02
    -12.606  0.0000E+00  0.7200E+02
    -12.503  0.0000E+00  0.7200E+02
    -12.401  0.0000E+00  0.7200E+02
    -12.298  0.0000E+00  0.7200E+02
    -12.195  0.0000E+00  0.7200E+02
    -12.092  0.0000E+00  0.7200E+02
    -11.990  0.0000E+00  0.7200E+02
    -11.887  0.0000E+00  0.7200E+02
    -11.784  0.0000E+00  0.7200E+02
    -11.681  0.0000E+00  0.7200E+02
    -11.579  0.0000E+00  0.7200E+02
    -11.476  0.0000E+00  0.7200E+02
    -11.373  0.0000E+00  0.7200E+02
    -11.270  0.0000E+00  0.7200E+02
    -11.168  0.0000E+00  0.7200E+02
    -11.065  0.0000E+00  0.7200E+02
    -10.962  0.0000E+00  0.7200E+02
    -10.859  0.0000E+00  0.7200E+02
    -10.757  0.0000E+00  0.7200E+02
    -10.654  0.0000E+00  0.7200E+02
    -10.551  0.0000E+00  0.7200E+02
    -10.449  0.0000E+00  0.7200E+02
    -10.346  0.0000E+00  0.7200E+02
    -10.243  0.0000E+00  0.7200E+02
    -10.140  0.0000E+00  0.7200E+02
    -10.038  0.0000E+00  0.7200E+02
     -9.935  0.0000E+00  0.7200E+02
     -9.832  0.0000E+00  0.7200E+02
     -9.729  0.0000E+00  0.7200E+02
     -9.627  0.0000E+00  0.7200E+02
     -9.524  0.0000E+00  0.7200E+02
     -9.421  0.0000E+00  0.7200E+02
     -9.318  0.0000E+00  0.7200E+02
     -9.216  0.0000E+00  0.7200E+02
     -9.113  0.0000E+00  0.7200E+02
     -9.010  0.0000E+00  0.7200E+02
     -8.907  0.0000E+00  0.7200E+02
     -8.805  0.0000E+00  0.7200E+02
     -8.702  0.0000E+00  0.7200E+02
     -8.599  0.0000E+00  0.7200E+02
     -8.496  0.0000E+00  0.7200E+02
     -8.394  0.0000E+00  0.7200E+02
     -8.291  0.0000E+00  0.7200E+02
     -8.188  0.0000E+00  0.7200E+02
     -8.085  0.0000E+00  0.7200E+02
     -7.983  0.0000E+00  0.7200E+02
     -7.880  0.9992E-05  0.7200E+02
     -7.777  0.1081E+01  0.7211E+02
     -7.674  0.2042E-08  0.7211E+02
     -7.572  0.6489E+01  0.7278E+02
     -7.469  0.4325E+01  0.7322E+02
     -7.366  0.8434E+01  0.7409E+02
     -7.264  0.1099E+01  0.7422E+02
     -7.161  0.1255E-03  0.7556E+02
     -7.058  0.8651E+01  0.7644E+02
     -6.955  0.8701E+01  0.7734E+02
     -6.853  0.8575E+01  0.7866E+02
     -6.750  0.4621E+01  0.7914E+02
     -6.647  0.1601E+03  0.9668E+02
     -6.544  0.2684E+02  0.1032E+03
     -6.442  0.4374E+01  0.1037E+03
     -6.339  0.0000E+00  0.1039E+03
     -6.236  0.0000E+00  0.1039E+03
     -6.133  0.6069E-11  0.1039E+03
     -6.031  0.1081E+01  0.1040E+03
     -5.928  0.0000E+00  0.1040E+03
     -5.825  0.0000E+00  0.1040E+03
     -5.722  0.0000E+00  0.1040E+03
     -5.620  0.0000E+00  0.1040E+03
     -5.517  0.0000E+00  0.1040E+03
     -5.414  0.0000E+00  0.1040E+03
     -5.311  0.0000E+00  0.1040E+03
     -5.209  0.0000E+00  0.1040E+03
     -5.106  0.0000E+00  0.1040E+03
     -5.003  0.0000E+00  0.1040E+03
     -4.900  0.0000E+00  0.1040E+03
     -4.798  0.0000E+00  0.1040E+03
     -4.695  0.0000E+00  0.1040E+03
     -4.592  0.0000E+00  0.1040E+03
     -4.489  0.0000E+00  0.1040E+03
     -4.387  0.0000E+00  0.1040E+03
     -4.284  0.0000E+00  0.1040E+03
     -4.181  0.0000E+00  0.1040E+03
     -4.079  0.0000E+00  0.1040E+03
     -3.976  0.0000E+00  0.1040E+03
     -3.873  0.0000E+00  0.1040E+03
     -3.770  0.0000E+00  0.1040E+03
     -3.668  0.0000E+00  0.1040E+03
     -3.565  0.0000E+00  0.1040E+03
     -3.462  0.0000E+00  0.1040E+03
     -3.359  0.0000E+00  0.1040E+03
     -3.257  0.0000E+00  0.1040E+03
     -3.154  0.0000E+00  0.1040E+03
     -3.051  0.1089E+01  0.1041E+03
     -2.948  0.1368E+02  0.1056E+03
     -2.846  0.1268E+02  0.1071E+03
     -2.743  0.2881E+01  0.1084E+03
     -2.640  0.6329E+01  0.1095E+03
     -2.537  0.1046E+02  0.1106E+03
     -2.435  0.2319E+02  0.1130E+03
     -2.332  0.6429E+01  0.1138E+03
     -2.229  0.2163E+01  0.1140E+03
     -2.126  0.1606E+02  0.1157E+03
     -2.024  0.1907E+02  0.1180E+03
     -1.921  0.6517E+01  0.1189E+03
     -1.818  0.1551E+02  0.1210E+03
     -1.715  0.2331E+02  0.1241E+03
     -1.613  0.7533E+01  0.1267E+03
     -1.510  0.2134E+01  0.1269E+03
     -1.407  0.3116E+02  0.1301E+03
     -1.304  0.3014E+02  0.1338E+03
     -1.202  0.1535E+02  0.1357E+03
     -1.099  0.3275E+02  0.1407E+03
     -0.996  0.7255E+02  0.1488E+03
     -0.893  0.3339E+02  0.1528E+03
     -0.791  0.4036E+02  0.1574E+03
     -0.688  0.6890E+02  0.1659E+03
     -0.585  0.1234E+02  0.1679E+03
     -0.483  0.1765E+01  0.1682E+03
     -0.380  0.1190E+02  0.1694E+03
     -0.277  0.6483E+01  0.1710E+03
     -0.174  0.6518E+01  0.1717E+03
     -0.072  0.1193E+02  0.1733E+03
      0.031  0.4918E+01  0.1741E+03
      0.134  0.4326E+01  0.1747E+03
      0.237  0.0000E+00  0.1747E+03
      0.339  0.1035E+01  0.1748E+03
      0.442  0.4354E+01  0.1754E+03
      0.545  0.0000E+00  0.1759E+03
      0.648  0.0000E+00  0.1759E+03
      0.750  0.0000E+00  0.1759E+03
      0.853  0.0000E+00  0.1759E+03
      0.956  0.1053E+01  0.1760E+03
      1.059  0.0000E+00  0.1760E+03
      1.161  0.0000E+00  0.1760E+03
      1.264  0.0000E+00  0.1760E+03
      1.367  0.0000E+00  0.1760E+03
      1.470  0.0000E+00  0.1760E+03
      1.572  0.0000E+00  0.1760E+03
      1.675  0.0000E+00  0.1760E+03
      1.778  0.0000E+00  0.1760E+03
      1.881  0.0000E+00  0.1760E+03
      1.983  0.0000E+00  0.1760E+03
      2.086  0.0000E+00  0.1760E+03
      2.189  0.0000E+00  0.1760E+03
      2.292  0.0000E+00  0.1760E+03
      2.394  0.0000E+00  0.1760E+03
      2.497  0.0000E+00  0.1760E+03
      2.600  0.0000E+00  0.1760E+03
      2.702  0.0000E+00  0.1760E+03
      2.805  0.0000E+00  0.1760E+03
      2.908  0.0000E+00  0.1760E+03
      3.011  0.0000E+00  0.1760E+03
      3.113  0.1333E-13  0.1760E+03
      3.216  0.1511E+01  0.1762E+03
      3.319  0.0000E+00  0.1762E+03
      3.422  0.6487E+01  0.1769E+03
      3.524  0.5407E+01  0.1774E+03
      3.627  0.7852E+01  0.1783E+03
      3.730  0.3593E+01  0.1788E+03
      3.833  0.8652E+01  0.1800E+03
      3.935  0.2166E+01  0.1802E+03
      4.038  0.5833E+01  0.1809E+03
      4.141  0.4326E+01  0.1816E+03
      4.244  0.6367E+01  0.1822E+03
      4.346  0.2298E+01  0.1825E+03
      4.449  0.8651E+01  0.1836E+03
      4.552  0.1505E+02  0.1851E+03
      4.655  0.2163E+01  0.1853E+03
      4.757  0.5504E+01  0.1859E+03
      4.860  0.2163E+01  0.1862E+03
      4.963  0.4857E+01  0.1867E+03
      5.066  0.6661E-03  0.1880E+03
      5.168  0.1010E+02  0.1890E+03
      5.271  0.6248E+01  0.1900E+03
      5.374  0.3411E+01  0.1906E+03
      5.477  0.2163E+01  0.1909E+03
      5.579  0.8461E+01  0.1918E+03
      5.682  0.4429E+01  0.1930E+03
      5.785  0.8652E+01  0.1941E+03
      5.888  0.6494E+01  0.1948E+03
      5.990  0.6489E+01  0.1959E+03
      6.093  0.2160E+00  0.1959E+03
      6.196  0.2163E+01  0.1962E+03
      6.298  0.1297E+02  0.1976E+03
      6.401  0.1171E+02  0.1988E+03
      6.504  0.9493E-03  0.1990E+03
      6.607  0.6420E+01  0.1998E+03
      6.709  0.1837E+02  0.2023E+03
      6.812  0.1592E+02  0.2045E+03
      6.915  0.1733E+02  0.2063E+03
      7.018  0.1593E+02  0.2083E+03
      7.120  0.1590E+02  0.2104E+03
      7.223  0.1966E+02  0.2138E+03
      7.326  0.1818E+02  0.2160E+03
      7.429  0.1717E+02  0.2187E+03
      7.531  0.1452E+02  0.2203E+03
      7.634  0.1165E+02  0.2218E+03
      7.737  0.1492E+02  0.2233E+03
      7.840  0.3244E+01  0.2240E+03
      7.942  0.0000E+00  0.2240E+03
      8.045  0.0000E+00  0.2240E+03
      8.148  0.0000E+00  0.2240E+03
      8.251  0.0000E+00  0.2240E+03
      8.353  0.0000E+00  0.2240E+03
      8.456  0.0000E+00  0.2240E+03
      8.559  0.0000E+00  0.2240E+03
      8.662  0.0000E+00  0.2240E+03
      8.764  0.0000E+00  0.2240E+03
      8.867  0.0000E+00  0.2240E+03
      8.970  0.0000E+00  0.2240E+03
      9.073  0.0000E+00  0.2240E+03
      9.175  0.0000E+00  0.2240E+03
      9.17526151    -21.64744690  301      1.07145776      1.00000000
    -21.647  0.0000E+00  0.0000E+00  0.0000E+00
    -21.545  0.0000E+00  0.0000E+00  0.0000E+00
    -21.442  0.0000E+00  0.0000E+00  0.0000E+00
    -21.339  0.0000E+00  0.0000E+00  0.0000E+00
    -21.236  0.0000E+00  0.0000E+00  0.0000E+00
    -21.134  0.0000E+00  0.0000E+00  0.0000E+00
    -21.031  0.0000E+00  0.0000E+00  0.0000E+00
    -20.928  0.0000E+00  0.0000E+00  0.0000E+00
    -20.826  0.0000E+00  0.0000E+00  0.0000E+00
    -20.723  0.0000E+00  0.0000E+00  0.0000E+00
    -20.620  0.0000E+00  0.0000E+00  0.0000E+00
    -20.517  0.0000E+00  0.0000E+00  0.0000E+00
    -20.415  0.0000E+00  0.0000E+00  0.0000E+00
    -20.312  0.0000E+00  0.0000E+00  0.0000E+00
    -20.209  0.1727E+02  0.1698E-04  0.1921E-05
    -20.106  0.0000E+00  0.0000E+00  0.0000E+00
    -20.004  0.0000E+00  0.0000E+00  0.0000E+00
    -19.901  0.0000E+00  0.0000E+00  0.0000E+00
    -19.798  0.0000E+00  0.0000E+00  0.0000E+00
    -19.695  0.0000E+00  0.0000E+00  0.0000E+00
    -19.593  0.0000E+00  0.0000E+00  0.0000E+00
    -19.490  0.0000E+00  0.0000E+00  0.0000E+00
    -19.387  0.0000E+00  0.0000E+00  0.0000E+00
    -19.284  0.0000E+00  0.0000E+00  0.0000E+00
    -19.182  0.0000E+00  0.0000E+00  0.0000E+00
    -19.079  0.0000E+00  0.0000E+00  0.0000E+00
    -18.976  0.0000E+00  0.0000E+00  0.0000E+00
    -18.873  0.0000E+00  0.0000E+00  0.0000E+00
    -18.771  0.0000E+00  0.0000E+00  0.0000E+00
    -18.668  0.0000E+00  0.0000E+00  0.0000E+00
    -18.565  0.0000E+00  0.0000E+00  0.0000E+00
    -18.462  0.0000E+00  0.0000E+00  0.0000E+00
    -18.360  0.0000E+00  0.0000E+00  0.0000E+00
    -18.257  0.0000E+00  0.0000E+00  0.0000E+00
    -18.154  0.0000E+00  0.0000E+00  0.0000E+00
    -18.051  0.0000E+00  0.0000E+00  0.0000E+00
    -17.949  0.0000E+00  0.0000E+00  0.0000E+00
    -17.846  0.0000E+00  0.0000E+00  0.0000E+00
    -17.743  0.0000E+00  0.0000E+00  0.0000E+00
    -17.640  0.0000E+00  0.0000E+00  0.0000E+00
    -17.538  0.0000E+00  0.0000E+00  0.0000E+00
    -17.435  0.0000E+00  0.0000E+00  0.0000E+00
    -17.332  0.0000E+00  0.0000E+00  0.0000E+00
    -17.230  0.0000E+00  0.0000E+00  0.0000E+00
    -17.127  0.0000E+00  0.0000E+00  0.0000E+00
    -17.024  0.0000E+00  0.0000E+00  0.0000E+00
    -16.921  0.0000E+00  0.0000E+00  0.0000E+00
    -16.819  0.0000E+00  0.0000E+00  0.0000E+00
    -16.716  0.0000E+00  0.0000E+00  0.0000E+00
    -16.613  0.0000E+00  0.0000E+00  0.0000E+00
    -16.510  0.0000E+00  0.0000E+00  0.0000E+00
    -16.408  0.0000E+00  0.0000E+00  0.0000E+00
    -16.305  0.0000E+00  0.0000E+00  0.0000E+00
    -16.202  0.0000E+00  0.0000E+00  0.0000E+00
    -16.099  0.3813E-22  0.2088E-20  0.4159E-21
    -15.997  0.1790E-03  0.1317E-03  0.3390E-04
    -15.894  0.3804E-04  0.7537E-04  0.7900E-05
    -15.791  0.1760E-03  0.8987E-04  0.1065E-04
    -15.688  0.0000E+00  0.0000E+00  0.0000E+00
    -15.586  0.0000E+00  0.0000E+00  0.0000E+00
    -15.483  0.0000E+00  0.0000E+00  0.0000E+00
    -15.380  0.0000E+00  0.0000E+00  0.0000E+00
    -15.277  0.0000E+00  0.0000E+00  0.0000E+00
    -15.175  0.0000E+00  0.0000E+00  0.0000E+00
    -15.072  0.0000E+00  0.0000E+00  0.0000E+00
    -14.969  0.0000E+00  0.0000E+00  0.0000E+00
    -14.866  0.0000E+00  0.0000E+00  0.0000E+00
    -14.764  0.0000E+00  0.0000E+00  0.0000E+00
    -14.661  0.0000E+00  0.0000E+00  0.0000E+00
    -14.558  0.0000E+00  0.0000E+00  0.0000E+00
    -14.455  0.0000E+00  0.0000E+00  0.0000E+00
    -14.353  0.0000E+00  0.0000E+00  0.0000E+00
    -14.250  0.0000E+00  0.0000E+00  0.0000E+00
    -14.147  0.0000E+00  0.0000E+00  0.0000E+00
    -14.045  0.8254E-03  0.2449E-05  0.9627E-06
    -13.942  0.7337E-02  0.3606E-02  0.5778E-04
    -13.839  0.2652E-02  0.5063E-02  0.1449E-03
    -13.736  0.6976E-03  0.5368E-02  0.3217E-03
    -13.634  0.3988E-02  0.7146E-02  0.6556E-03
    -13.531  0.1227E-02  0.5241E-02  0.4858E-03
    -13.428  0.1633E-02  0.3954E-02  0.6671E-03
    -13.325  0.7131E-03  0.1180E-02  0.1457E-03
    -13.223  0.0000E+00  0.0000E+00  0.0000E+00
    -13.120  0.0000E+00  0.0000E+00  0.0000E+00
    -13.017  0.0000E+00  0.0000E+00  0.0000E+00
    -12.914  0.0000E+00  0.0000E+00  0.0000E+00
    -12.812  0.0000E+00  0.0000E+00  0.0000E+00
    -12.709  0.0000E+00  0.0000E+00  0.0000E+00
    -12.606  0.0000E+00  0.0000E+00  0.0000E+00
    -12.503  0.0000E+00  0.0000E+00  0.0000E+00
    -12.401  0.0000E+00  0.0000E+00  0.0000E+00
    -12.298  0.0000E+00  0.0000E+00  0.0000E+00
    -12.195  0.0000E+00  0.0000E+00  0.0000E+00
    -12.092  0.0000E+00  0.0000E+00  0.0000E+00
    -11.990  0.0000E+00  0.0000E+00  0.0000E+00
    -11.887  0.0000E+00  0.0000E+00  0.0000E+00
    -11.784  0.0000E+00  0.0000E+00  0.0000E+00
    -11.681  0.0000E+00  0.0000E+00  0.0000E+00
    -11.579  0.0000E+00  0.0000E+00  0.0000E+00
    -11.476  0.0000E+00  0.0000E+00  0.0000E+00
    -11.373  0.0000E+00  0.0000E+00  0.0000E+00
    -11.270  0.0000E+00  0.0000E+00  0.0000E+00
    -11.168  0.0000E+00  0.0000E+00  0.0000E+00
    -11.065  0.0000E+00  0.0000E+00  0.0000E+00
    -10.962  0.0000E+00  0.0000E+00  0.0000E+00
    -10.859  0.0000E+00  0.0000E+00  0.0000E+00
    -10.757  0.0000E+00  0.0000E+00  0.0000E+00
    -10.654  0.0000E+00  0.0000E+00  0.0000E+00
    -10.551  0.0000E+00  0.0000E+00  0.0000E+00
    -10.449  0.0000E+00  0.0000E+00  0.0000E+00
    -10.346  0.0000E+00  0.0000E+00  0.0000E+00
    -10.243  0.0000E+00  0.0000E+00  0.0000E+00
    -10.140  0.0000E+00  0.0000E+00  0.0000E+00
    -10.038  0.0000E+00  0.0000E+00  0.0000E+00
     -9.935  0.0000E+00  0.0000E+00  0.0000E+00
     -9.832  0.0000E+00  0.0000E+00  0.0000E+00
     -9.729  0.0000E+00  0.0000E+00  0.0000E+00
     -9.627  0.0000E+00  0.0000E+00  0.0000E+00
     -9.524  0.0000E+00  0.0000E+00  0.0000E+00
     -9.421  0.0000E+00  0.0000E+00  0.0000E+00
     -9.318  0.0000E+00  0.0000E+00  0.0000E+00
     -9.216  0.0000E+00  0.0000E+00  0.0000E+00
     -9.113  0.0000E+00  0.0000E+00  0.0000E+00
     -9.010  0.0000E+00  0.0000E+00  0.0000E+00
     -8.907  0.0000E+00  0.0000E+00  0.0000E+00
     -8.805  0.0000E+00  0.0000E+00  0.0000E+00
     -8.702  0.0000E+00  0.0000E+00  0.0000E+00
     -8.599  0.0000E+00  0.0000E+00  0.0000E+00
     -8.496  0.0000E+00  0.0000E+00  0.0000E+00
     -8.394  0.0000E+00  0.0000E+00  0.0000E+00
     -8.291  0.0000E+00  0.0000E+00  0.0000E+00
     -8.188  0.0000E+00  0.0000E+00  0.0000E+00
     -8.085  0.0000E+00  0.0000E+00  0.0000E+00
     -7.983  0.0000E+00  0.0000E+00  0.0000E+00
     -7.880  0.1035E-23  0.1001E-08  0.1598E-09
     -7.777  0.1120E-18  0.1084E-03  0.1729E-04
     -7.674  0.1277E-26  0.2844E-11  0.1521E-13
     -7.572  0.3183E-06  0.7825E-02  0.8337E-04
     -7.469  0.4033E-17  0.1092E-01  0.5438E-04
     -7.366  0.2335E-04  0.2896E-01  0.9507E-04
     -7.264  0.2478E-06  0.1084E-01  0.5255E-05
     -7.161  0.6964E-22  0.1265E-05  0.4259E-09
     -7.058  0.2522E-04  0.1060E+00  0.8342E-04
     -6.955  0.4661E-04  0.1140E+00  0.6983E-04
     -6.853  0.9142E-04  0.2424E+00  0.8572E-04
     -6.750  0.7231E-05  0.6194E+00  0.2247E-04
     -6.647  0.1619E-03  0.2977E+02  0.2153E-03
     -6.544  0.3430E-04  0.4380E+01  0.5717E-04
     -6.442  0.5995E-04  0.1234E+00  0.3175E-04
     -6.339  0.0000E+00  0.0000E+00  0.0000E+00
     -6.236  0.0000E+00  0.0000E+00  0.0000E+00
     -6.133  0.1025E-15  0.5244E-13  0.5089E-17
     -6.031  0.1826E-04  0.9344E-02  0.9068E-06
     -5.928  0.0000E+00  0.0000E+00  0.0000E+00
     -5.825  0.0000E+00  0.0000E+00  0.0000E+00
     -5.722  0.0000E+00  0.0000E+00  0.0000E+00
     -5.620  0.0000E+00  0.0000E+00  0.0000E+00
     -5.517  0.0000E+00  0.0000E+00  0.0000E+00
     -5.414  0.0000E+00  0.0000E+00  0.0000E+00
     -5.311  0.0000E+00  0.0000E+00  0.0000E+00
     -5.209  0.0000E+00  0.0000E+00  0.0000E+00
     -5.106  0.0000E+00  0.0000E+00  0.0000E+00
     -5.003  0.0000E+00  0.0000E+00  0.0000E+00
     -4.900  0.0000E+00  0.0000E+00  0.0000E+00
     -4.798  0.0000E+00  0.0000E+00  0.0000E+00
     -4.695  0.0000E+00  0.0000E+00  0.0000E+00
     -4.592  0.0000E+00  0.0000E+00  0.0000E+00
     -4.489  0.0000E+00  0.0000E+00  0.0000E+00
     -4.387  0.0000E+00  0.0000E+00  0.0000E+00
     -4.284  0.0000E+00  0.0000E+00  0.0000E+00
     -4.181  0.0000E+00  0.0000E+00  0.0000E+00
     -4.079  0.0000E+00  0.0000E+00  0.0000E+00
     -3.976  0.0000E+00  0.0000E+00  0.0000E+00
     -3.873  0.0000E+00  0.0000E+00  0.0000E+00
     -3.770  0.0000E+00  0.0000E+00  0.0000E+00
     -3.668  0.0000E+00  0.0000E+00  0.0000E+00
     -3.565  0.0000E+00  0.0000E+00  0.0000E+00
     -3.462  0.0000E+00  0.0000E+00  0.0000E+00
     -3.359  0.0000E+00  0.0000E+00  0.0000E+00
     -3.257  0.0000E+00  0.0000E+00  0.0000E+00
     -3.154  0.0000E+00  0.0000E+00  0.0000E+00
     -3.051  0.6847E-06  0.1175E-02  0.3676E-04
     -2.948  0.8429E-04  0.1998E-01  0.1565E-02
     -2.846  0.7374E-03  0.2466E-01  0.2002E-02
     -2.743  0.3331E-03  0.5228E-02  0.4110E-03
     -2.640  0.6582E-03  0.1466E-01  0.7358E-03
     -2.537  0.2925E-03  0.2803E-01  0.1299E-02
     -2.435  0.9155E-03  0.3776E-01  0.2873E-02
     -2.332  0.6575E-03  0.4152E-02  0.5727E-03
     -2.229  0.4453E-09  0.5799E-02  0.3283E-03
     -2.126  0.1764E-02  0.4314E-01  0.2281E-02
     -2.024  0.5201E-02  0.2312E-01  0.4007E-02
     -1.921  0.4071E-02  0.9802E-02  0.1246E-02
     -1.818  0.1011E-01  0.2572E-01  0.2880E-02
     -1.715  0.2425E-01  0.4097E-01  0.5546E-02
     -1.613  0.5756E-02  0.2258E-01  0.1905E-02
     -1.510  0.1305E-03  0.2396E-01  0.2072E-03
     -1.407  0.6586E-02  0.1702E+00  0.1348E-01
     -1.304  0.2137E-02  0.1427E+00  0.1702E-01
     -1.202  0.2560E-02  0.6718E-01  0.9077E-02
     -1.099  0.3733E-02  0.9099E-01  0.1873E-01
     -0.996  0.7715E-02  0.1521E+00  0.4069E-01
     -0.893  0.4225E-02  0.5646E-01  0.1029E-01
     -0.791  0.2176E-02  0.9599E-01  0.1759E-01
     -0.688  0.3387E-02  0.1766E+00  0.2099E-01
     -0.585  0.8759E-03  0.2131E-01  0.4125E-02
     -0.483  0.4999E-04  0.2903E-02  0.5068E-03
     -0.380  0.8380E-03  0.2172E-01  0.4406E-02
     -0.277  0.3026E-03  0.1301E-01  0.1404E-02
     -0.174  0.4911E-03  0.6430E-02  0.9002E-03
     -0.072  0.1316E-02  0.6227E-02  0.2148E-02
      0.031  0.5063E-03  0.4014E-02  0.7821E-03
      0.134  0.3232E-16  0.3687E-02  0.1211E-03
      0.237  0.0000E+00  0.0000E+00  0.0000E+00
      0.339  0.1219E-04  0.8229E-03  0.1744E-03
      0.442  0.1057E-06  0.1861E-02  0.1261E-02
      0.545  0.0000E+00  0.0000E+00  0.0000E+00
      0.648  0.0000E+00  0.0000E+00  0.0000E+00
      0.750  0.0000E+00  0.0000E+00  0.0000E+00
      0.853  0.0000E+00  0.0000E+00  0.0000E+00
      0.956  0.1329E-17  0.1342E-03  0.2451E-03
      1.059  0.0000E+00  0.0000E+00  0.0000E+00
      1.161  0.0000E+00  0.0000E+00  0.0000E+00
      1.264  0.0000E+00  0.0000E+00  0.0000E+00
      1.367  0.0000E+00  0.0000E+00  0.0000E+00
      1.470  0.0000E+00  0.0000E+00  0.0000E+00
      1.572  0.0000E+00  0.0000E+00  0.0000E+00
      1.675  0.0000E+00  0.0000E+00  0.0000E+00
      1.778  0.0000E+00  0.0000E+00  0.0000E+00
      1.881  0.0000E+00  0.0000E+00  0.0000E+00
      1.983  0.0000E+00  0.0000E+00  0.0000E+00
      2.086  0.0000E+00  0.0000E+00  0.0000E+00
      2.189  0.0000E+00  0.0000E+00  0.0000E+00
      2.292  0.0000E+00  0.0000E+00  0.0000E+00
      2.394  0.0000E+00  0.0000E+00  0.0000E+00
      2.497  0.0000E+00  0.0000E+00  0.0000E+00
      2.600  0.0000E+00  0.0000E+00  0.0000E+00
      2.702  0.0000E+00  0.0000E+00  0.0000E+00
      2.805  0.0000E+00  0.0000E+00  0.0000E+00
      2.908  0.0000E+00  0.0000E+00  0.0000E+00
      3.011  0.0000E+00  0.0000E+00  0.0000E+00
      3.113  0.1406E-30  0.1663E-17  0.1808E-16
      3.216  0.1867E-04  0.2676E-03  0.1656E-02
      3.319  0.0000E+00  0.0000E+00  0.0000E+00
      3.422  0.7365E-03  0.1672E-02  0.3593E-02
      3.524  0.3212E-04  0.9110E-03  0.4427E-02
      3.627  0.6077E-03  0.6197E-02  0.3657E-02
      3.730  0.2785E-03  0.1202E-02  0.1412E-02
      3.833  0.1141E-02  0.7874E-02  0.5589E-02
      3.935  0.2566E-08  0.9019E-03  0.2688E-02
      4.038  0.1373E-02  0.3040E-02  0.4810E-02
      4.141  0.8089E-03  0.1678E-02  0.4347E-02
      4.244  0.6820E-03  0.2105E-02  0.7070E-02
      4.346  0.8946E-03  0.4888E-03  0.2113E-02
      4.449  0.1327E-03  0.1408E-02  0.7254E-02
      4.552  0.1051E-02  0.4831E-02  0.1042E-01
      4.655  0.2896E-03  0.2888E-03  0.1698E-02
      4.757  0.2663E-03  0.2057E-02  0.2098E-02
      4.860  0.5702E-04  0.6814E-03  0.2817E-02
      4.963  0.4948E-03  0.3003E-02  0.6273E-02
      5.066  0.1030E-06  0.1503E-06  0.3423E-06
      5.168  0.1833E-02  0.2516E-02  0.5920E-02
      5.271  0.2838E-03  0.2332E-02  0.6106E-02
      5.374  0.9973E-03  0.1262E-02  0.4614E-02
      5.477  0.5577E-14  0.1407E-02  0.3920E-02
      5.579  0.1297E-01  0.1804E-02  0.1462E-01
      5.682  0.1669E-02  0.3147E-02  0.6537E-02
      5.785  0.5526E-02  0.3656E-02  0.1302E-01
      5.888  0.1246E-01  0.4751E-02  0.8073E-02
      5.990  0.7040E-03  0.7388E-03  0.1499E-01
      6.093  0.4073E-12  0.3006E-05  0.1005E-02
      6.196  0.1635E-01  0.2442E-02  0.1272E-01
      6.298  0.1504E-01  0.5112E-02  0.3649E-01
      6.401  0.1018E-01  0.5196E-02  0.5559E-01
      6.504  0.4763E-06  0.7027E-06  0.2867E-04
      6.607  0.1232E-01  0.8343E-02  0.2126E-01
      6.709  0.4078E-01  0.1520E-01  0.2755E+00
      6.812  0.1911E-01  0.2174E-01  0.3411E+00
      6.915  0.1055E-01  0.1752E-01  0.4789E+00
      7.018  0.6811E-01  0.2945E-01  0.3928E+00
      7.120  0.2841E-01  0.2314E-01  0.4069E+00
      7.223  0.2676E-01  0.2189E-01  0.5920E+00
      7.326  0.9308E-02  0.4323E-01  0.5430E+00
      7.429  0.2129E-01  0.2395E-01  0.5224E+00
      7.531  0.1456E-01  0.1681E-01  0.5694E+00
      7.634  0.3356E-01  0.2063E-01  0.3783E+00
      7.737  0.9305E-02  0.2709E-01  0.4230E+00
      7.840  0.1400E-02  0.1332E-01  0.7207E-01
      7.942  0.0000E+00  0.0000E+00  0.0000E+00
      8.045  0.0000E+00  0.0000E+00  0.0000E+00
      8.148  0.0000E+00  0.0000E+00  0.0000E+00
      8.251  0.0000E+00  0.0000E+00  0.0000E+00
      8.353  0.0000E+00  0.0000E+00  0.0000E+00
      8.456  0.0000E+00  0.0000E+00  0.0000E+00
      8.559  0.0000E+00  0.0000E+00  0.0000E+00
      8.662  0.0000E+00  0.0000E+00  0.0000E+00
      8.764  0.0000E+00  0.0000E+00  0.0000E+00
      8.867  0.0000E+00  0.0000E+00  0.0000E+00
      8.970  0.0000E+00  0.0000E+00  0.0000E+00
      9.073  0.0000E+00  0.0000E+00  0.0000E+00
      9.175  0.0000E+00  0.0000E+00  0.0000E+00
      9.17526151    -21.64744690  301      1.07145776      1.00000000
    -21.647  0.0000E+00  0.0000E+00  0.0000E+00
    -21.545  0.0000E+00  0.0000E+00  0.0000E+00
    -21.442  0.0000E+00  0.0000E+00  0.0000E+00
    -21.339  0.0000E+00  0.0000E+00  0.0000E+00
    -21.236  0.0000E+00  0.0000E+00  0.0000E+00
    -21.134  0.0000E+00  0.0000E+00  0.0000E+00
    -21.031  0.0000E+00  0.0000E+00  0.0000E+00
    -20.928  0.0000E+00  0.0000E+00  0.0000E+00
    -20.826  0.0000E+00  0.0000E+00  0.0000E+00
    -20.723  0.0000E+00  0.0000E+00  0.0000E+00
    -20.620  0.0000E+00  0.0000E+00  0.0000E+00
    -20.517  0.0000E+00  0.0000E+00  0.0000E+00
    -20.415  0.0000E+00  0.0000E+00  0.0000E+00
    -20.312  0.0000E+00  0.0000E+00  0.0000E+00
    -20.209  0.1727E+02  0.1697E-04  0.1923E-05
    -20.106  0.0000E+00  0.0000E+00  0.0000E+00
    -20.004  0.0000E+00  0.0000E+00  0.0000E+00
    -19.901  0.0000E+00  0.0000E+00  0.0000E+00
    -19.798  0.0000E+00  0.0000E+00  0.0000E+00
    -19.695  0.0000E+00  0.0000E+00  0.0000E+00
    -19.593  0.0000E+00  0.0000E+00  0.0000E+00
    -19.490  0.0000E+00  0.0000E+00  0.0000E+00
    -19.387  0.0000E+00  0.0000E+00  0.0000E+00
    -19.284  0.0000E+00  0.0000E+00  0.0000E+00
    -19.182  0.0000E+00  0.0000E+00  0.0000E+00
    -19.079  0.0000E+00  0.0000E+00  0.0000E+00
    -18.976  0.0000E+00  0.0000E+00  0.0000E+00
    -18.873  0.0000E+00  0.0000E+00  0.0000E+00
    -18.771  0.0000E+00  0.0000E+00  0.0000E+00
    -18.668  0.0000E+00  0.0000E+00  0.0000E+00
    -18.565  0.0000E+00  0.0000E+00  0.0000E+00
    -18.462  0.0000E+00  0.0000E+00  0.0000E+00
    -18.360  0.0000E+00  0.0000E+00  0.0000E+00
    -18.257  0.0000E+00  0.0000E+00  0.0000E+00
    -18.154  0.0000E+00  0.0000E+00  0.0000E+00
    -18.051  0.0000E+00  0.0000E+00  0.0000E+00
    -17.949  0.0000E+00  0.0000E+00  0.0000E+00
    -17.846  0.0000E+00  0.0000E+00  0.0000E+00
    -17.743  0.0000E+00  0.0000E+00  0.0000E+00
    -17.640  0.0000E+00  0.0000E+00  0.0000E+00
    -17.538  0.0000E+00  0.0000E+00  0.0000E+00
    -17.435  0.0000E+00  0.0000E+00  0.0000E+00
    -17.332  0.0000E+00  0.0000E+00  0.0000E+00
    -17.230  0.0000E+00  0.0000E+00  0.0000E+00
    -17.127  0.0000E+00  0.0000E+00  0.0000E+00
    -17.024  0.0000E+00  0.0000E+00  0.0000E+00
    -16.921  0.0000E+00  0.0000E+00  0.0000E+00
    -16.819  0.0000E+00  0.0000E+00  0.0000E+00
    -16.716  0.0000E+00  0.0000E+00  0.0000E+00
    -16.613  0.0000E+00  0.0000E+00  0.0000E+00
    -16.510  0.0000E+00  0.0000E+00  0.0000E+00
    -16.408  0.0000E+00  0.0000E+00  0.0000E+00
    -16.305  0.0000E+00  0.0000E+00  0.0000E+00
    -16.202  0.0000E+00  0.0000E+00  0.0000E+00
    -16.099  0.3813E-22  0.2088E-20  0.4159E-21
    -15.997  0.1776E-03  0.1136E-03  0.2866E-04
    -15.894  0.2240E-04  0.1098E-03  0.9603E-05
    -15.791  0.1756E-03  0.8960E-04  0.1060E-04
    -15.688  0.0000E+00  0.0000E+00  0.0000E+00
    -15.586  0.0000E+00  0.0000E+00  0.0000E+00
    -15.483  0.0000E+00  0.0000E+00  0.0000E+00
    -15.380  0.0000E+00  0.0000E+00  0.0000E+00
    -15.277  0.0000E+00  0.0000E+00  0.0000E+00
    -15.175  0.0000E+00  0.0000E+00  0.0000E+00
    -15.072  0.0000E+00  0.0000E+00  0.0000E+00
    -14.969  0.0000E+00  0.0000E+00  0.0000E+00
    -14.866  0.0000E+00  0.0000E+00  0.0000E+00
    -14.764  0.0000E+00  0.0000E+00  0.0000E+00
    -14.661  0.0000E+00  0.0000E+00  0.0000E+00
    -14.558  0.0000E+00  0.0000E+00  0.0000E+00
    -14.455  0.0000E+00  0.0000E+00  0.0000E+00
    -14.353  0.0000E+00  0.0000E+00  0.0000E+00
    -14.250  0.0000E+00  0.0000E+00  0.0000E+00
    -14.147  0.0000E+00  0.0000E+00  0.0000E+00
    -14.045  0.8254E-03  0.2449E-05  0.9627E-06
    -13.942  0.7840E-02  0.3002E-02  0.7123E-04
    -13.839  0.3053E-02  0.5442E-02  0.1335E-03
    -13.736  0.7687E-03  0.7222E-02  0.3362E-03
    -13.634  0.9617E-03  0.4008E-02  0.3836E-03
    -13.531  0.2793E-02  0.6654E-02  0.6829E-03
    -13.428  0.2150E-02  0.3529E-02  0.6498E-03
    -13.325  0.3006E-03  0.9892E-03  0.1432E-03
    -13.223  0.0000E+00  0.0000E+00  0.0000E+00
    -13.120  0.0000E+00  0.0000E+00  0.0000E+00
    -13.017  0.0000E+00  0.0000E+00  0.0000E+00
    -12.914  0.0000E+00  0.0000E+00  0.0000E+00
    -12.812  0.0000E+00  0.0000E+00  0.0000E+00
    -12.709  0.0000E+00  0.0000E+00  0.0000E+00
    -12.606  0.0000E+00  0.0000E+00  0.0000E+00
    -12.503  0.0000E+00  0.0000E+00  0.0000E+00