 running on   64 total cores
 distrk:  each k-point on   64 cores,    1 groups
 distr:  one band on    8 cores,    8 groups
 using from now: INCAR     
 vasp.5.4.4.18Apr17-6-g9f103f2a35 (build Jun 22 2020 09:27:21) complex           
 POSCAR found type information on POSCAR  Cs Pb Br
 POSCAR found :  3 types and      20 ions
 scaLAPACK will be used
 LDA part: xc-table for Pade appr. of Perdew
 POSCAR found type information on POSCAR  Cs Pb Br
 POSCAR found :  3 types and      20 ions
 POSCAR, INCAR and KPOINTS ok, starting setup
 FFT: planning ...
 WAVECAR not read
 WARNING: random wavefunctions but no delay for mixing, default for NELMDL
 entering main loop
       N       E                     dE             d eps       ncg     rms          rms(c)
DAV:   1     0.672140615982E+03    0.67214E+03   -0.56500E+04  1840   0.934E+02
DAV:   2    -0.576922254732E+03   -0.12491E+04   -0.11939E+04  2160   0.290E+02
DAV:   3    -0.748769647225E+03   -0.17185E+03   -0.17073E+03  2424   0.127E+02
DAV:   4    -0.754291425639E+03   -0.55218E+01   -0.55025E+01  2152   0.297E+01
DAV:   5    -0.754559347360E+03   -0.26792E+00   -0.26778E+00  2368   0.525E+00    0.746E+00
DAV:   6    -0.714844830771E+03    0.39715E+02   -0.11784E+01  2392   0.283E+01    0.529E+00
DAV:   7    -0.714615567279E+03    0.22926E+00   -0.37251E+00  2264   0.493E+00    0.261E+00
DAV:   8    -0.714701148135E+03   -0.85581E-01   -0.18442E-01  2136   0.173E+00    0.149E+00
DAV:   9    -0.714733504625E+03   -0.32356E-01   -0.64848E-02  2032   0.110E+00    0.309E-01
DAV:  10    -0.714734127416E+03   -0.62279E-03   -0.42296E-03  2536   0.314E-01    0.174E-01
DAV:  11    -0.714735157008E+03   -0.10296E-02   -0.13376E-03  2008   0.144E-01    0.595E-02
DAV:  12    -0.714735254735E+03   -0.97727E-04   -0.37962E-04  2192   0.798E-02    0.223E-02
DAV:  13    -0.714735244268E+03    0.10467E-04   -0.43022E-05  2328   0.255E-02    0.796E-03
DAV:  14    -0.714735259269E+03   -0.15001E-04   -0.33819E-06  1832   0.594E-03    0.199E-03
DAV:  15    -0.714735264923E+03   -0.56545E-05   -0.47237E-07  1272   0.312E-03    0.120E-03
DAV:  16    -0.714735261609E+03    0.33146E-05   -0.13131E-07  1112   0.180E-03    0.483E-04
DAV:  17    -0.714735260317E+03    0.12917E-05   -0.42819E-08  1112   0.101E-03    0.308E-04
DAV:  18    -0.714735260029E+03    0.28818E-06   -0.18483E-08  1088   0.692E-04
   1 F= -.71473526E+03 E0= -.71473526E+03  d E =-.831984E-76
Application 1865594 resources: utime ~8307s, stime ~78s, Rss ~78892, inblocks ~1438, outblocks ~127336
