CsPbBr3 cubic bulk                      
           1
     8.436208    0.000000   -0.000000
     0.000000   11.671841    0.000000
    -0.000000    0.000000    7.636070
   Cs   Pb   Br
   4   4  12
Direct configuration=     1
   0.08350114  0.25000000  0.46522432
   0.41649886  0.75000000  0.96522432
   0.58350114  0.25000000  0.03477568
   0.91649886  0.75000000  0.53477568
   0.00000000  0.00000000  0.00000000
   0.50000000  0.00000000  0.50000000
   0.50000000  0.50000000  0.50000000
   0.00000000  0.50000000  0.00000000
   0.49985693  0.75000000  0.43116611
   0.00014307  0.25000000  0.93116611
   0.99985693  0.75000000  0.06883389
   0.50014307  0.25000000  0.56883389
   0.31071244  0.46448491  0.17665112
   0.18928756  0.53551509  0.67665112
   0.81071244  0.03551509  0.32334888
   0.68928756  0.96448491  0.82334888
   0.31071244  0.03551509  0.17665112
   0.18928756  0.96448491  0.67665112
   0.68928756  0.53551509  0.82334888
   0.81071244  0.46448491  0.32334888
