       N       E                     dE             d eps       ncg     rms          rms(c)
DAV:   1     0.133447099722E+04    0.13345E+04   -0.11054E+05  3464   0.973E+02
DAV:   2    -0.111804477589E+04   -0.24525E+04   -0.23742E+04  4136   0.300E+02
DAV:   3    -0.147513269637E+04   -0.35709E+03   -0.35528E+03  4432   0.136E+02
DAV:   4    -0.148672351046E+04   -0.11591E+02   -0.11557E+02  3936   0.325E+01
DAV:   5    -0.148721914491E+04   -0.49563E+00   -0.49540E+00  4424   0.532E+00    0.102E+01
DAV:   6    -0.140956483941E+04    0.77654E+02   -0.23488E+01  4312   0.310E+01    0.730E+00
DAV:   7    -0.140904705756E+04    0.51778E+00   -0.84762E+00  4064   0.556E+00    0.371E+00
DAV:   8    -0.140922102834E+04   -0.17397E+00   -0.44283E-01  4024   0.202E+00    0.216E+00
DAV:   9    -0.140928652771E+04   -0.65499E-01   -0.17429E-01  3824   0.134E+00    0.466E-01
DAV:  10    -0.140928992504E+04   -0.33973E-02   -0.23129E-02  4496   0.447E-01    0.322E-01
DAV:  11    -0.140929193332E+04   -0.20083E-02   -0.27926E-03  3768   0.158E-01    0.150E-01
DAV:  12    -0.140929473392E+04   -0.28006E-02   -0.52701E-03  3592   0.194E-01    0.103E-01
DAV:  13    -0.140929438256E+04    0.35135E-03   -0.15540E-03  4368   0.115E-01    0.478E-02
DAV:  14    -0.140929433229E+04    0.50273E-04   -0.45673E-04  3984   0.402E-02    0.276E-02
DAV:  15    -0.140929431246E+04    0.19833E-04   -0.36199E-05  3760   0.152E-02    0.160E-02
DAV:  16    -0.140929437063E+04   -0.58169E-04   -0.35513E-05  3840   0.170E-02    0.735E-03
DAV:  17    -0.140929437278E+04   -0.21579E-05   -0.63836E-06  3592   0.691E-03    0.546E-03
DAV:  18    -0.140929437018E+04    0.26068E-05   -0.26141E-06  2856   0.328E-03    0.194E-03
DAV:  19    -0.140929436536E+04    0.48145E-05   -0.36359E-07  2208   0.191E-03    0.110E-03
DAV:  20    -0.140929436177E+04    0.35896E-05   -0.14737E-07  2048   0.141E-03    0.886E-04
DAV:  21    -0.140929436214E+04   -0.36861E-06   -0.20376E-07  2048   0.116E-03
   1 F= -.14092944E+04 E0= -.14092944E+04  d E =-.102557E-55
