 vasp.5.4.4.18Apr17-6-g9f103f2a35 (build Jun 22 2020 09:27:21) complex           
 executed on tx2_gcc-7.3_libsci-1 date 2021.10.11  20:34:01
 running on   64 total cores
 distrk:  each k-point on   64 cores,    1 groups
 distr:  one band on NCORES_PER_BAND=   8 cores,    8 groups


--------------------------------------------------------------------------------------------------------


 INCAR:
 POTCAR:    PAW_PBE Cs_sv 08Apr2002               
 POTCAR:    PAW_PBE Pb_d 06Sep2000                
 POTCAR:    PAW_PBE Br 06Sep2000                  
 POTCAR:    PAW_PBE Cs_sv 08Apr2002               
   SHA256 =  c1463496f0f6037ed62c6012a8013a89ee9ad6ffb38599dcd6c079e7ed31779b Cs
   COPYR  = (c) Copyright 08Apr2002 Georg Kresse                                
   COPYR  = This file is part of the software VASP. Any use, copying, and all ot
   COPYR  = If you do not have a valid VASP license, you may not use, copy or di
   VRHFIN =Cs: 5s5p6s                                                           
   LEXCH  = PE                                                                  
   EATOM  =   555.6835 eV,   40.8416 Ry                                         
                                                                                
   TITEL  = PAW_PBE Cs_sv 08Apr2002                                             
   LULTRA =        F    use ultrasoft PP ?                                      
   IUNSCR =        1    unscreen: 0-lin 1-nonlin 2-no                           
   RPACOR =    2.200    partial core radius                                     
   POMASS =  132.900; ZVAL   =    9.000    mass and valenz                      
   RCORE  =    2.500    outmost cutoff radius                                   
   RWIGS  =    2.500; RWIGS  =    1.323    wigner-seitz radius (au A)           
   ENMAX  =  220.318; ENMIN  =  165.238 eV                                      
   RCLOC  =    2.207    cutoff for local pot                                    
   LCOR   =        T    correct aug charges                                     
   LPAW   =        T    paw PP                                                  
   EAUG   =  407.933                                                            
   DEXC   =    0.000                                                            
   RMAX   =    2.554    core radius for proj-oper                               
   RAUG   =    1.300    factor for augmentation sphere                          
   RDEP   =    2.590    radius for radial grids                                 
   RDEPT  =    2.117    core radius for aug-charge                              
                                                                                
   Atomic configuration                                                         
   13 entries                                                                   
     n  l   j            E        occ.                                          
     1  0  0.50    -35790.1377   2.0000                                         
     2  0  0.50     -5613.6201   2.0000                                         
     2  1  1.50     -5035.0101   6.0000                                         
     3  0  0.50     -1167.0767   2.0000                                         
     3  1  1.50      -980.9754   6.0000                                         
     3  2  2.50      -708.0703  10.0000                                         
     4  0  0.50      -220.2386   2.0000                                         
     4  1  1.50      -160.7596   6.0000                                         
     4  2  2.50       -74.2354  10.0000                                         
     5  0  0.50       -26.7287   2.0000                                         
     6  0  0.50        -2.0862   1.0000                                         
     5  1  1.50       -13.5159   6.0000                                         
     5  2  2.50        -0.4136   0.0000                                         
   Description                                                                  
     l       E           TYP  RCUT    TYP  RCUT                                 
     0    -26.7287425     23  1.900                                             
     0     -2.0862306     23  1.900                                             
     1    -13.5158719     23  2.500                                             
     1     -2.7211652     23  2.500                                             
     2     -0.4136171     23  2.500                                             
  local pseudopotential read in
  partial core-charges read in
  partial kinetic energy density read in
  atomic valenz-charges read in
  non local Contribution for L=           0  read in
    real space projection operators read in
  non local Contribution for L=           0  read in
    real space projection operators read in
  non local Contribution for L=           1  read in
    real space projection operators read in
  non local Contribution for L=           1  read in
    real space projection operators read in
  non local Contribution for L=           2  read in
    real space projection operators read in
    PAW grid and wavefunctions read in

   number of l-projection  operators is LMAX  =           5
   number of lm-projection operators is LMMAX =          13

 POTCAR:    PAW_PBE Pb_d 06Sep2000                
   SHA256 =  fb885b08f0fba73a15f6a6b0e39bd200c13ec96ef97cf3ecd8e63bade5137abd Pb
   COPYR  = (c) Copyright 06Sep2000 Georg Kresse                                
   COPYR  = This file is part of the software VASP. Any use, copying, and all ot
   COPYR  = If you do not have a valid VASP license, you may not use, copy or di
   VRHFIN =Pb:                                                                  
   LEXCH  = PE                                                                  
   EATOM  =  1661.6185 eV,  122.1255 Ry                                         
                                                                                
   TITEL  = PAW_PBE Pb_d 06Sep2000                                              
   LULTRA =        F    use ultrasoft PP ?                                      
   IUNSCR =        1    unscreen: 0-lin 1-nonlin 2-no                           
   RPACOR =    2.200    partial core radius                                     
   POMASS =  207.200; ZVAL   =   14.000    mass and valenz                      
   RCORE  =    2.500    outmost cutoff radius                                   
   RWIGS  =    3.260; RWIGS  =    1.725    wigner-seitz radius (au A)           
   ENMAX  =  237.835; ENMIN  =  178.376 eV                                      
   ICORE  =        3    local potential                                         
   LCOR   =        T    correct aug charges                                     
   LPAW   =        T    paw PP                                                  
   EAUG   =  391.914                                                            
   DEXC   =    0.000                                                            
   RMAX   =    2.565    core radius for proj-oper                               
   RAUG   =    1.300    factor for augmentation sphere                          
   RDEP   =    2.643    radius for radial grids                                 
   RDEPT  =    2.092    core radius for aug-charge                              
                                                                                
   Atomic configuration                                                         
   16 entries                                                                   
     n  l   j            E        occ.                                          
     1  0  0.50    -88091.8466   2.0000                                         
     2  0  0.50    -15753.4197   2.0000                                         
     2  1  1.50    -13508.1797   6.0000                                         
     3  0  0.50     -3781.7194   2.0000                                         
     3  1  1.50     -3138.2529   6.0000                                         
     3  2  2.50     -2483.2977  10.0000                                         
     4  0  0.50      -856.2895   2.0000                                         
     4  1  1.50      -645.4942   6.0000                                         
     4  2  2.50      -401.8768  10.0000                                         
     4  3  3.50      -132.9059  14.0000                                         
     5  0  0.50      -144.0950   2.0000                                         
     5  1  1.50       -85.7879   6.0000                                         
     5  2  2.50       -21.1769  10.0000                                         
     6  0  0.50       -12.0372   2.0000                                         
     6  1  1.50        -3.4971   2.0000                                         
     5  3  2.50        -2.7212   0.0000                                         
   Description                                                                  
     l       E           TYP  RCUT    TYP  RCUT                                 
     2    -21.1768523     23  2.500                                             
     2      1.3605826     23  2.500                                             
     0    -12.0371562     23  2.500                                             
     0     13.6058260     23  2.500                                             
     1     -3.4971339     23  2.500                                             
     1     13.6058260     23  2.500                                             
     3     -1.3605826      7  2.500                                             
  local pseudopotential read in
  partial core-charges read in
  partial kinetic energy density read in
  atomic valenz-charges read in
  non local Contribution for L=           2  read in
    real space projection operators read in
  non local Contribution for L=           2  read in
    real space projection operators read in
  non local Contribution for L=           0  read in
    real space projection operators read in
  non local Contribution for L=           0  read in
    real space projection operators read in
  non local Contribution for L=           1  read in
    real space projection operators read in
  non local Contribution for L=           1  read in
    real space projection operators read in
    PAW grid and wavefunctions read in

   number of l-projection  operators is LMAX  =           6
   number of lm-projection operators is LMMAX =          18

 POTCAR:    PAW_PBE Br 06Sep2000                  
   SHA256 =  96a73d2954943bbee26f4990d676cc6c3bf44b8dd2c75cd4b3b825d8403f0103 Br
   COPYR  = (c) Copyright 06Sep2000 Georg Kresse                                
   COPYR  = This file is part of the software VASP. Any use, copying, and all ot
   COPYR  = If you do not have a valid VASP license, you may not use, copy or di
   VRHFIN =Br: s2p5                                                             
   LEXCH  = PE                                                                  
   EATOM  =   368.4488 eV,   27.0802 Ry                                         
                                                                                
   TITEL  = PAW_PBE Br 06Sep2000                                                
   LULTRA =        F    use ultrasoft PP ?                                      
   IUNSCR =        1    unscreen: 0-lin 1-nonlin 2-no                           
   RPACOR =    1.900    partial core radius                                     
   POMASS =   79.904; ZVAL   =    7.000    mass and valenz                      
   RCORE  =    2.100    outmost cutoff radius                                   
   RWIGS  =    2.200; RWIGS  =    1.164    wigner-seitz radius (au A)           
   ENMAX  =  216.285; ENMIN  =  162.214 eV                                      
   ICORE  =        3    local potential                                         
   LCOR   =        T    correct aug charges                                     
   LPAW   =        T    paw PP                                                  
   EAUG   =  503.852                                                            
   DEXC   =    0.000                                                            
   RMAX   =    2.139    core radius for proj-oper                               
   RAUG   =    1.300    factor for augmentation sphere                          
   RDEP   =    2.186    radius for radial grids                                 
   RDEPT  =    1.890    core radius for aug-charge                              
                                                                                
   Atomic configuration                                                         
   10 entries                                                                   
     n  l   j            E        occ.                                          
     1  0  0.50    -13316.2796   2.0000                                         
     2  0  0.50     -1732.8239   2.0000                                         
     2  1  1.50     -1528.2193   6.0000                                         
     3  0  0.50      -238.0460   2.0000                                         
     3  1  1.50      -173.4609   6.0000                                         
     3  2  2.50       -66.7132  10.0000                                         
     4  0  0.50       -20.1334   2.0000                                         
     4  1  0.50        -7.8591   5.0000                                         
     4  2  2.50        -8.1635   0.0000                                         
     4  3  2.50        -8.1635   0.0000                                         
   Description                                                                  
     l       E           TYP  RCUT    TYP  RCUT                                 
     0    -20.1333652     23  2.100                                             
     0    -21.4939478     23  2.100                                             
     1     -7.8591052     23  2.100                                             
     1     -3.1608434     23  2.100                                             
     2     -8.1634956     23  2.100                                             
     3     -1.3605826      7  2.100                                             
  local pseudopotential read in
  partial core-charges read in
  partial kinetic energy density read in
  atomic valenz-charges read in
  non local Contribution for L=           0  read in
    real space projection operators read in
  non local Contribution for L=           0  read in
    real space projection operators read in
  non local Contribution for L=           1  read in
    real space projection operators read in
  non local Contribution for L=           1  read in
    real space projection operators read in
  non local Contribution for L=           2  read in
    real space projection operators read in
    PAW grid and wavefunctions read in

   number of l-projection  operators is LMAX  =           5
   number of lm-projection operators is LMMAX =          13

 Optimization of the real space projectors (new method)

 maximal supplied QI-value         = 15.12
 optimisation between [QCUT,QGAM] = [  8.77, 17.69] = [ 21.53, 87.61] Ry 
 Optimized for a Real-space Cutoff    1.85 Angstroem

   l    n(q)    QCUT    max X(q) W(low)/X(q) W(high)/X(q)  e(spline) 
   0     10     8.768    25.322    0.81E-04    0.51E-04    0.48E-06
   0     10     8.768    99.187    0.78E-04    0.50E-04    0.47E-06
   1      9     8.768    11.761    0.21E-03    0.20E-03    0.37E-06
   1      9     8.768     8.275    0.24E-03    0.22E-03    0.41E-06
   2      9     8.768     3.829    0.23E-04    0.15E-03    0.18E-06
 Optimization of the real space projectors (new method)

 maximal supplied QI-value         = 15.12
 optimisation between [QCUT,QGAM] = [  8.77, 17.69] = [ 21.53, 87.61] Ry 
 Optimized for a Real-space Cutoff    1.59 Angstroem

   l    n(q)    QCUT    max X(q) W(low)/X(q) W(high)/X(q)  e(spline) 
   2      7     8.768     3.846    0.48E-04    0.11E-03    0.11E-06
   2      7     8.768     8.593    0.20E-03    0.22E-04    0.24E-06
   0      8     8.768    20.082    0.68E-04    0.88E-04    0.41E-07
   0      8     8.768     8.597    0.89E-04    0.13E-03    0.59E-07
   1      8     8.768    33.223    0.15E-03    0.53E-04    0.87E-07
   1      8     8.768    15.899    0.14E-03    0.44E-04    0.78E-07
 Optimization of the real space projectors (new method)

 maximal supplied QI-value         = 17.95
 optimisation between [QCUT,QGAM] = [  8.80, 17.59] = [ 21.67, 86.68] Ry 
 Optimized for a Real-space Cutoff    1.59 Angstroem

   l    n(q)    QCUT    max X(q) W(low)/X(q) W(high)/X(q)  e(spline) 
   0      8     8.797   175.082    0.82E-04    0.14E-03    0.89E-07
   0      8     8.797   174.004    0.79E-04    0.14E-03    0.86E-07
   1      8     8.797    54.315    0.16E-03    0.14E-04    0.30E-06
   1      8     8.797    42.441    0.16E-03    0.14E-04    0.30E-06
   2      7     8.797     3.596    0.92E-04    0.15E-03    0.85E-07
  PAW_PBE Cs_sv 08Apr2002               :
 energy of atom  1       EATOM= -555.6835
 kinetic energy error for atom=    0.0069 (will be added to EATOM!!)
  PAW_PBE Pb_d 06Sep2000                :
 energy of atom  2       EATOM=-1661.6185
 kinetic energy error for atom=    0.0498 (will be added to EATOM!!)
  PAW_PBE Br 06Sep2000                  :
 energy of atom  3       EATOM= -368.4488
 kinetic energy error for atom=    0.0072 (will be added to EATOM!!)


 POSCAR: Cs8 Pb8 Br23                            
  positions in direct lattice
  No initial velocities read in

 METAGGA = SCAN     LMAXTAU =  6    LMIXTAU =  F

 exchange correlation table for  LEXCH =        8
   RHO(1)=    0.500       N(1)  =     2000
   RHO(2)=  100.500       N(2)  =     4000

 VTST: version 3.2, (02/03/18)

 CHAIN: initializing optimizer
 
 OPT: Using VASP Conjugate-Gradient optimizer
 CHAIN: Read ICHAIN            0

 POSCAR: Cs8 Pb8 Br23                            
  positions in direct lattice
  No initial velocities read in



--------------------------------------------------------------------------------------------------------


 ion  position               nearest neighbor table
   1  0.269  0.250  0.202-
   2  0.772  0.239  0.730-
   3  0.719  0.762  0.248-
   4  0.202  0.755  0.783-
   5  0.282  0.245  0.729-
   6  0.797  0.247  0.226-
   7  0.735  0.750  0.805-
   8  0.222  0.751  0.275-
   9  0.001  0.001  1.000-  19 2.96  29 2.97  21 2.97  31 3.00  28 3.00  34 3.01
  10  0.504  0.999  0.498-  20 2.88  27 2.97  33 2.98  30 2.99  32 2.99
  11  0.499  1.000  1.000-  31 2.97  22 2.98  29 2.99  17 2.99  27 3.01  33 3.02
  12  0.004  0.003  0.500-  18 2.98  28 2.99  32 3.00  34 3.01  23 3.02  30 3.04
  13  0.499  0.497  0.001-  22 2.97  24 2.99  17 2.99  35 3.00  37 3.01  25 3.05
  14  0.999  0.509  0.501-  36 2.89  18 2.96  26 2.97  23 2.99  38 3.01
  15  0.000  0.499  0.000-  19 2.95  21 2.97  24 3.00  35 3.00  38 3.01  26 3.02
  16  0.485  0.494  0.503-  39 2.59  25 2.97  37 2.98  20 2.99  36 2.99
  17  0.473  0.748  0.964-  13 2.99  11 2.99
  18  0.971  0.755  0.452-  14 2.96  12 2.98
  19  0.976  0.251  0.973-  15 2.95   9 2.96
  20  0.471  0.241  0.468-  10 2.88  16 2.99
  21  0.015  0.751  0.032-   9 2.97  15 2.97
  22  0.529  0.249  0.041-  13 2.97  11 2.98
  23  0.017  0.257  0.537-  14 2.99  12 3.02
  24  0.247  0.470  0.948-  13 2.99  15 3.00
  25  0.452  0.534  0.253-  16 2.97  13 3.05
  26  0.948  0.534  0.746-  14 2.97  15 3.02
  27  0.547  0.027  0.750-  10 2.97  11 3.01
  28  0.051  0.036  0.252-  12 2.99   9 3.00
  29  0.753  0.984  0.042-   9 2.97  11 2.99
  30  0.258  0.958  0.547-  10 2.99  12 3.04
  31  0.249  0.031  0.950-  11 2.97   9 3.00
  32  0.751  0.033  0.448-  10 2.99  12 3.00
  33  0.453  0.959  0.249-  10 2.98  11 3.02
  34  0.952  0.966  0.747-   9 3.01  12 3.01
  35  0.752  0.524  0.052-  15 3.00  13 3.00
  36  0.241  0.547  0.552-  14 2.89  16 2.99
  37  0.543  0.455  0.752-  16 2.98  13 3.01
  38  0.049  0.466  0.254-  15 3.01  14 3.01
  39  0.660  0.629  0.504-  16 2.59


IMPORTANT INFORMATION: All symmetrisations will be switched off!
NOSYMM: (Re-)initialisation of all symmetry stuff for point group C_1.



 KPOINTS: 1x1x1                                   

Automatic generation of k-mesh.
Space group operators:
 irot       det(A)        alpha          n_x          n_y          n_z        tau_x        tau_y        tau_z
    1     1.000000     0.000001     1.000000     0.000000     0.000000     0.000000     0.000000     0.000000
 
 Subroutine IBZKPT returns following result:
 ===========================================
 
 Found      8 irreducible k-points:
 
 Following reciprocal coordinates:
            Coordinates               Weight
  0.000000  0.000000  0.000000      1.000000
  0.500000  0.000000  0.000000      1.000000
  0.000000  0.500000  0.000000      1.000000
  0.500000  0.500000  0.000000      1.000000
  0.000000  0.000000  0.500000      1.000000
  0.500000  0.000000  0.500000      1.000000
  0.000000  0.500000  0.500000      1.000000
  0.500000  0.500000  0.500000      1.000000
 
 Following cartesian coordinates:
            Coordinates               Weight
 -0.000000  0.000000  0.000000      1.000000
  0.029563  0.000000  0.031093      1.000000
 -0.000000  0.042626  0.000000      1.000000
  0.029563  0.042626  0.031093      1.000000
 -0.029563  0.000000  0.031093      1.000000
  0.000000  0.000000  0.062187      1.000000
 -0.029563  0.042626  0.031093      1.000000
  0.000000  0.042626  0.062187      1.000000
 


--------------------------------------------------------------------------------------------------------




 Dimension of arrays:
   k-points           NKPTS =      8   k-points in BZ     NKDIM =      8   number of bands    NBANDS=    208
   number of dos      NEDOS =    301   number of ions     NIONS =     39
   non local maximal  LDIM  =      6   non local SUM 2l+1 LMDIM =     18
   total plane-waves  NPLWV = 343000
   max r-space proj   IRMAX =   5734   max aug-charges    IRDMAX=  91523
   dimension x,y,z NGX =    70 NGY =   70 NGZ =   70
   dimension x,y,z NGXF=   140 NGYF=  140 NGZF=  140
   support grid    NGXF=   280 NGYF=  280 NGZF=  280
   ions per type =               8   8  23
   NGX,Y,Z   is equivalent  to a cutoff of   9.97,  9.92,  9.97 a.u.
   NGXF,Y,Z  is equivalent  to a cutoff of  19.95, 19.84, 19.95 a.u.

 SYSTEM =  CsPbBr3 cubic bulk                      
 POSCAR =  Cs8 Pb8 Br23                            

 Startparameter for this run:
   NWRITE =      2    write-flag & timer
   PREC   = accura    normal or accurate (medium, high low for compatibility)
   ISTART =      0    job   : 0-new  1-cont  2-samecut
   ICHARG =      2    charge: 1-file 2-atom 10-const
   ISPIN  =      1    spin polarized calculation?
   LNONCOLLINEAR =      F non collinear calculations
   LSORBIT =      F    spin-orbit coupling
   INIWAV =      1    electr: 0-lowe 1-rand  2-diag
   LASPH  =      T    aspherical Exc in radial PAW
   METAGGA=      F    non-selfconsistent MetaGGA calc.

 Electronic Relaxation 1
   ENCUT  =  300.0 eV  22.05 Ry    4.70 a.u.  16.48 16.57 16.48*2*pi/ulx,y,z
   ENINI  =  300.0     initial cutoff
   ENAUG  =  503.9 eV  augmentation charge cutoff
   NELM   =    200;   NELMIN=  2; NELMDL= -5     # of ELM steps 
   EDIFF  = 0.1E-05   stopping-criterion for ELM
   LREAL  =      T    real-space projection
   NLSPLINE    = F    spline interpolate recip. space projectors
   LCOMPAT=      F    compatible to vasp.4.4
   GGA_COMPAT  = T    GGA compatible to vasp.4.4-vasp.4.6
   LMAXPAW     = -100 max onsite density
   LMAXMIX     =    2 max onsite mixed and CHGCAR
   VOSKOWN=      0    Vosko Wilk Nusair interpolation
   ROPT   =   -0.00025  -0.00025  -0.00025
 Ionic relaxation
   EDIFFG = -.1E-01   stopping-criterion for IOM
   NSW    =      0    number of steps for IOM
   NBLOCK =      1;   KBLOCK =      1    inner block; outer block 
   IBRION =     -1    ionic relax: 0-MD 1-quasi-New 2-CG
   NFREE  =      1    steps in history (QN), initial steepest desc. (CG)
   ISIF   =      2    stress and relaxation
   IWAVPR =     10    prediction:  0-non 1-charg 2-wave 3-comb
   ISYM   =      0    0-nonsym 1-usesym 2-fastsym
   LCORR  =      T    Harris-Foulkes like correction to forces

   POTIM  = 0.5000    time-step for ionic-motion
   TEIN   =    0.0    initial temperature
   TEBEG  =    0.0;   TEEND  =   0.0 temperature during run
   SMASS  =  -3.00    Nose mass-parameter (am)
   estimated Nose-frequenzy (Omega)   =  0.10E-29 period in steps =****** mass=  -0.311E-26a.u.
   SCALEE = 1.0000    scale energy and forces
   NPACO  =    256;   APACO  = 16.0  distance and # of slots for P.C.
   PSTRESS=    0.0 pullay stress

  Mass of Ions in am
   POMASS = 132.90207.20 79.90
  Ionic Valenz
   ZVAL   =   9.00 14.00  7.00
  Atomic Wigner-Seitz radii
   RWIGS  =  -1.00 -1.00 -1.00
  virtual crystal weights 
   VCA    =   1.00  1.00  1.00
   NELECT =     344.0000    total number of electrons
   NUPDOWN=       0.0000    fix difference up-down

 DOS related values:
   EMIN   =  10.00;   EMAX   =-10.00  energy-range for DOS
   EFERMI =   0.00
   ISMEAR =     0;   SIGMA  =   0.01  broadening in eV -4-tet -1-fermi 0-gaus

 Electronic relaxation 2 (details)
   IALGO  =     38    algorithm
   LDIAG  =      T    sub-space diagonalisation (order eigenvalues)
   LSUBROT=      F    optimize rotation matrix (better conditioning)
   TURBO    =      0    0=normal 1=particle mesh
   IRESTART =      0    0=no restart 2=restart with 2 vectors
   NREBOOT  =      0    no. of reboots
   NMIN     =      0    reboot dimension
   EREF     =   0.00    reference energy to select bands
   IMIX   =      4    mixing-type and parameters
     AMIX     =   0.40;   BMIX     =  1.00
     AMIX_MAG =   1.60;   BMIX_MAG =  1.00
     AMIN     =   0.10
     WC   =   100.;   INIMIX=   1;  MIXPRE=   1;  MAXMIX= -45

 Intra band minimization:
   WEIMIN = 0.0000     energy-eigenvalue tresh-hold
   EBREAK =  0.12E-08  absolut break condition
   DEPER  =   0.30     relativ break condition  

   TIME   =   0.40     timestep for ELM

  volume/ion in A,a.u.               =      40.90       276.00
  Fermi-wavevector in a.u.,A,eV,Ry     =   0.981747  1.855232 13.113654  0.963826
  Thomas-Fermi vector in A             =   2.112777

 Write flags
   LWAVE        =      F    write WAVECAR
   LDOWNSAMPLE  =      F    k-point downsampling of WAVECAR
   LCHARG       =      F    write CHGCAR
   LVTOT        =      F    write LOCPOT, total local potential
   LVHAR        =      T    write LOCPOT, Hartree potential only
   LELF         =      F    write electronic localiz. function (ELF)
   LORBIT       =     10    0 simple, 1 ext, 2 COOP (PROOUT), +10 PAW based schemes


 Dipole corrections
   LMONO  =      F    monopole corrections only (constant potential shift)
   LDIPOL =      F    correct potential (dipole corrections)
   IDIPOL =      0    1-x, 2-y, 3-z, 4-all directions 
   EPSILON=  1.0000000 bulk dielectric constant

 Exchange correlation treatment:
   GGA     =    --    GGA type
   LEXCH   =     8    internal setting for exchange type
   VOSKOWN=      0    Vosko Wilk Nusair interpolation
   LHFCALC =     F    Hartree Fock is set to
   LHFONE  =     F    Hartree Fock one center treatment
   AEXX    =    0.0000 exact exchange contribution

 Linear response parameters
   LEPSILON=     F    determine dielectric tensor
   LRPA    =     F    only Hartree local field effects (RPA)
   LNABLA  =     F    use nabla operator in PAW spheres
   LVEL    =     F    velocity operator in full k-point grid
   LINTERFAST=   F  fast interpolation
   KINTER  =     0    interpolate to denser k-point grid
   CSHIFT  =0.1000    complex shift for real part using Kramers Kronig
   OMEGAMAX=  -1.0    maximum frequency
   DEG_THRESHOLD= 0.2000000E-02 threshold for treating states as degnerate
   RTIME   =   -0.100 relaxation time in fs
  (WPLASMAI=    0.000 imaginary part of plasma frequency in eV, 0.658/RTIME)
   DFIELD  = 0.0000000 0.0000000 0.0000000 field for delta impulse in time

 Orbital magnetization related:
   ORBITALMAG=     F  switch on orbital magnetization
   LCHIMAG   =     F  perturbation theory with respect to B field
   DQ        =  0.001000  dq finite difference perturbation B field
   LLRAUG    =     F  two centre corrections for induced B field



--------------------------------------------------------------------------------------------------------


 Static calculation
 charge density and potential will be updated during run
 non-spin polarized calculation
 Variant of blocked Davidson
 Davidson routine will perform the subspace rotation
 perform sub-space diagonalisation
    after iterative eigenvector-optimisation
 modified Broyden-mixing scheme, WC =      100.0
 initial mixing is a Kerker type mixing with AMIX =  0.4000 and BMIX =      1.0000
 Hartree-type preconditioning will be used
 using additional bands           36
 real space projection scheme for non local part
 use partial core corrections
 calculate Harris-corrections to forces   (improved forces if not selfconsistent)
 use gradient corrections 
 use of overlap-Matrix (Vanderbilt PP)
 Gauss-broadening in eV      SIGMA  =   0.01


--------------------------------------------------------------------------------------------------------


  energy-cutoff  :      300.00
  volume of cell :     1595.09
      direct lattice vectors                 reciprocal lattice vectors
     8.456489000  0.000000000  8.040301000     0.059126193 -0.000000000  0.062186727
     0.000000000 11.729847000  0.000000000     0.000000000  0.085252604 -0.000000000
    -8.456489000  0.000000000  8.040301000    -0.059126193  0.000000000  0.062186727

  length of vectors
    11.668703715 11.729847000 11.668703715     0.085808482  0.085252604  0.085808482



 k-points in units of 2pi/SCALE and weight: 1x1x1                                   
  -0.00000000  0.00000000  0.00000000       0.125
   0.02956310  0.00000000  0.03109336       0.125
  -0.00000000  0.04262630  0.00000000       0.125
   0.02956310  0.04262630  0.03109336       0.125
  -0.02956310  0.00000000  0.03109336       0.125
   0.00000000  0.00000000  0.06218673       0.125
  -0.02956310  0.04262630  0.03109336       0.125
   0.00000000  0.04262630  0.06218673       0.125

 k-points in reciprocal lattice and weights: 1x1x1                                   
   0.00000000  0.00000000  0.00000000       0.125
   0.50000000  0.00000000  0.00000000       0.125
   0.00000000  0.50000000  0.00000000       0.125
   0.50000000  0.50000000  0.00000000       0.125
   0.00000000  0.00000000  0.50000000       0.125
   0.50000000  0.00000000  0.50000000       0.125
   0.00000000  0.50000000  0.50000000       0.125
   0.50000000  0.50000000  0.50000000       0.125

 position of ions in fractional coordinates (direct lattice) 
   0.26921000  0.24964000  0.20247400
   0.77229600  0.23886000  0.73002500
   0.71861100  0.76218400  0.24817900
   0.20185700  0.75521400  0.78262300
   0.28233300  0.24481300  0.72932000
   0.79720700  0.24749000  0.22639500
   0.73546700  0.75023600  0.80486700
   0.22227600  0.75149800  0.27496100
   0.00106800  0.00149700  0.99994900
   0.50412800  0.99946900  0.49817200
   0.49864500  0.99989500  0.99953900
   0.00350600  0.00255700  0.49981600
   0.49879200  0.49718500  0.00052900
   0.99874500  0.50891400  0.50064400
   0.00015900  0.49945700  0.00041600
   0.48479000  0.49350700  0.50342700
   0.47324600  0.74842900  0.96449700
   0.97082100  0.75498300  0.45240000
   0.97605300  0.25085000  0.97264600
   0.47052700  0.24139700  0.46815900
   0.01502700  0.75070600  0.03181300
   0.52945700  0.24865300  0.04071500
   0.01689300  0.25730300  0.53670400
   0.24731700  0.46970800  0.94773100
   0.45207300  0.53399800  0.25279900
   0.94756000  0.53352400  0.74633800
   0.54731500  0.02652800  0.74987800
   0.05083200  0.03596100  0.25233700
   0.75297300  0.98365700  0.04155100
   0.25825300  0.95844700  0.54692400
   0.24868400  0.03085200  0.94951900
   0.75087400  0.03296300  0.44817100
   0.45343500  0.95887500  0.24873700
   0.95193900  0.96558000  0.74710600
   0.75202300  0.52382600  0.05212800
   0.24096300  0.54707600  0.55160000
   0.54292500  0.45527100  0.75172600
   0.04937700  0.46569000  0.25389700
   0.65969000  0.62895500  0.50357200

 position of ions in cartesian coordinates  (Angst):
   0.56435225  2.92823901  3.79248134
   0.35746425  2.80179125 12.07911304
   3.97820303  8.94030171  7.77328260
  -4.91124129  8.85854467  7.91551553
  -3.77994065  2.87161903  8.13399463
   4.82706540  2.90301983  8.23006818
  -0.58688034  8.80015349 12.38474900
  -0.44553012  8.81495656  3.99793515
  -8.44702619  0.01755958  8.04847799
   0.05036685 11.72361845  8.05879369
  -4.23580460 11.72861537 12.04585031
  -4.19704006  0.02999322  4.04686038
   4.21355558  5.83190398  4.01469114
   4.21218563  5.96948336 12.05553888
  -0.00217332  5.85855419  0.00462317
  -0.15760359  5.78876160  7.94556213
  -4.15425868  8.77895766 11.55988648
   4.38402148  8.85583508 11.44312523
   0.02881126  2.94243212 15.66812652
   0.02002497  2.83154988  7.54731798
  -0.14195062  8.80566652  0.37660770
   4.13304135  2.91666165  4.58435450
  -4.39577600  3.01812482  4.45108651
  -5.92304329  5.50960297  9.60854563
   1.68515839  6.26371484  5.66738305
   1.70163163  6.25815489 13.61944978
  -1.71297178  0.31116938 10.42982218
  -1.70402482  0.42181703  2.43757001
   6.01613232 11.53814611  6.38821211
  -2.44114314 11.24243667  6.47386544
  -5.92660347  0.36188924  9.63391278
   2.55980459  0.38665095  9.64068271
   1.73102639 11.24745704  5.64567423
   1.73216801 11.32610567 13.66083321
   5.91865437  6.14439883  6.46561609
  -2.62689837  6.41711778  6.37244508
  -1.76572336  5.34025917 10.40938373
  -1.72952113  5.46247245  2.43841425
   1.32021015  7.37754592  9.35297662



--------------------------------------------------------------------------------------------------------


 k-point  1 :   0.0000 0.0000 0.0000  plane waves:   18809
 k-point  2 :   0.5000 0.0000 0.0000  plane waves:   18808
 k-point  3 :   0.0000 0.5000 0.0000  plane waves:   18794
 k-point  4 :   0.5000 0.5000 0.0000  plane waves:   18804
 k-point  5 :   0.0000 0.0000 0.5000  plane waves:   18808
 k-point  6 :   0.5000 0.0000 0.5000  plane waves:   18790
 k-point  7 :   0.0000 0.5000 0.5000  plane waves:   18804
 k-point  8 :   0.5000 0.5000 0.5000  plane waves:   18800

 maximum and minimum number of plane-waves per node :      2389     2304

 maximum number of plane-waves:     18809
 maximum index in each direction: 
   IXMAX=   16   IYMAX=   16   IZMAX=   16
   IXMIN=  -16   IYMIN=  -17   IZMIN=  -16


 real space projection operators:
  total allocation   :      16739.63 KBytes
  max/ min on nodes  :       2190.31       1823.12


 parallel 3D FFT for wavefunctions:
    minimum data exchange during FFTs selected (reduces bandwidth)
 parallel 3D FFT for charge:
    minimum data exchange during FFTs selected (reduces bandwidth)


 total amount of memory used by VASP MPI-rank0    60641. kBytes
=======================================================================

   base      :      30000. kBytes
   nonlr-proj:       6476. kBytes
   fftplans  :       8423. kBytes
   grid      :       7465. kBytes
   one-center:         77. kBytes
   wavefun   :       8200. kBytes

     INWAV:  cpu time    0.0000: real time    0.0000
 Broyden mixing: mesh for mixing (old mesh)
   NGX = 33   NGY = 33   NGZ = 33
  (NGX  =140   NGY  =140   NGZ  =140)
  gives a total of  35937 points

 initial charge density was supplied:
 charge density of overlapping atoms calculated
 number of electron     345.0000000 magnetization 
 keeping initial charge density in first step


--------------------------------------------------------------------------------------------------------


 Maximum index for non-local projection operator          729
 Maximum index for augmentation-charges         3041 (set IRDMAX)


--------------------------------------------------------------------------------------------------------


 First call to EWALD:  gamma=   0.152
 Maximum number of real-space cells 3x 3x 3
 Maximum number of reciprocal cells 3x 3x 3

    FEWALD:  cpu time    0.0038: real time    0.0038


--------------------------------------- Iteration      1(   1)  ---------------------------------------


    POTLOK:  cpu time    0.2627: real time    0.2739
    SETDIJ:  cpu time    1.1986: real time    1.1987
     EDDAV:  cpu time   16.4514: real time   16.4576
       DOS:  cpu time    0.0008: real time    0.0008
    --------------------------------------------
      LOOP:  cpu time   17.9135: real time   17.9310

 eigenvalue-minimisations  :  3464
 total energy-change (2. order) : 0.1334471E+04  (-0.1105436E+05)
 number of electron     345.0000000 magnetization 
 augmentation part      345.0000000 magnetization 

 Free energy of the ion-electron system (eV)
  ---------------------------------------------------
  alpha Z        PSCENC =       872.70583573
  Ewald energy   TEWEN  =    -17918.39184714
  -Hartree energ DENC   =     -7437.78173089
  -exchange      EXHF   =         0.00000000
  -V(xc)+E(xc)   XCENC  =       908.21398668
  PAW double counting   =     21345.28103884   -22405.85761495
  entropy T*S    EENTRO =        -0.00264920
  eigenvalues    EBANDS =      -241.81463753
  atomic energy  EATOM  =     26212.11861568
  Solvation  Ediel_sol  =         0.00000000
  ---------------------------------------------------
  free energy    TOTEN  =      1334.47099722 eV

  energy without entropy =     1334.47364642  energy(sigma->0) =     1334.47232182


--------------------------------------------------------------------------------------------------------




--------------------------------------- Iteration      1(   2)  ---------------------------------------


     EDDAV:  cpu time   18.4394: real time   18.4676
       DOS:  cpu time    0.0004: real time    0.0004
    --------------------------------------------
      LOOP:  cpu time   18.4398: real time   18.4680

 eigenvalue-minimisations  :  4136
 total energy-change (2. order) :-0.2452516E+04  (-0.2374238E+04)
 number of electron     345.0000000 magnetization 
 augmentation part      345.0000000 magnetization 

 Free energy of the ion-electron system (eV)
  ---------------------------------------------------
  alpha Z        PSCENC =       872.70583573
  Ewald energy   TEWEN  =    -17918.39184714
  -Hartree energ DENC   =     -7437.78173089
  -exchange      EXHF   =         0.00000000
  -V(xc)+E(xc)   XCENC  =       908.21398668
  PAW double counting   =     21345.28103884   -22405.85761495
  entropy T*S    EENTRO =        -0.00000000
  eigenvalues    EBANDS =     -2694.33305984
  atomic energy  EATOM  =     26212.11861568
  Solvation  Ediel_sol  =         0.00000000
  ---------------------------------------------------
  free energy    TOTEN  =     -1118.04477589 eV

  energy without entropy =    -1118.04477589  energy(sigma->0) =    -1118.04477589


--------------------------------------------------------------------------------------------------------




--------------------------------------- Iteration      1(   3)  ---------------------------------------


     EDDAV:  cpu time   19.2522: real time   19.3041
       DOS:  cpu time    0.0004: real time    0.0004
    --------------------------------------------
      LOOP:  cpu time   19.2526: real time   19.3045

 eigenvalue-minimisations  :  4432
 total energy-change (2. order) :-0.3570879E+03  (-0.3552768E+03)
 number of electron     345.0000000 magnetization 
 augmentation part      345.0000000 magnetization 

 Free energy of the ion-electron system (eV)
  ---------------------------------------------------
  alpha Z        PSCENC =       872.70583573
  Ewald energy   TEWEN  =    -17918.39184714
  -Hartree energ DENC   =     -7437.78173089
  -exchange      EXHF   =         0.00000000
  -V(xc)+E(xc)   XCENC  =       908.21398668
  PAW double counting   =     21345.28103884   -22405.85761495
  entropy T*S    EENTRO =        -0.00000000
  eigenvalues    EBANDS =     -3051.42098032
  atomic energy  EATOM  =     26212.11861568
  Solvation  Ediel_sol  =         0.00000000
  ---------------------------------------------------
  free energy    TOTEN  =     -1475.13269637 eV

  energy without entropy =    -1475.13269637  energy(sigma->0) =    -1475.13269637


--------------------------------------------------------------------------------------------------------




--------------------------------------- Iteration      1(   4)  ---------------------------------------


     EDDAV:  cpu time   17.8890: real time   17.8919
       DOS:  cpu time    0.0004: real time    0.0004
    --------------------------------------------
      LOOP:  cpu time   17.8894: real time   17.8923

 eigenvalue-minimisations  :  3936
 total energy-change (2. order) :-0.1159081E+02  (-0.1155719E+02)
 number of electron     345.0000000 magnetization 
 augmentation part      345.0000000 magnetization 

 Free energy of the ion-electron system (eV)
  ---------------------------------------------------
  alpha Z        PSCENC =       872.70583573
  Ewald energy   TEWEN  =    -17918.39184714
  -Hartree energ DENC   =     -7437.78173089
  -exchange      EXHF   =         0.00000000
  -V(xc)+E(xc)   XCENC  =       908.21398668
  PAW double counting   =     21345.28103884   -22405.85761495
  entropy T*S    EENTRO =        -0.00000000
  eigenvalues    EBANDS =     -3063.01179441
  atomic energy  EATOM  =     26212.11861568
  Solvation  Ediel_sol  =         0.00000000
  ---------------------------------------------------
  free energy    TOTEN  =     -1486.72351046 eV

  energy without entropy =    -1486.72351046  energy(sigma->0) =    -1486.72351046


--------------------------------------------------------------------------------------------------------




--------------------------------------- Iteration      1(   5)  ---------------------------------------


     EDDAV:  cpu time   19.2011: real time   19.2580
       DOS:  cpu time    0.0004: real time    0.0004
    CHARGE:  cpu time    2.6934: real time    2.6935
    MIXING:  cpu time    0.0017: real time    0.0017
    --------------------------------------------
      LOOP:  cpu time   21.8967: real time   21.9536

 eigenvalue-minimisations  :  4424
 total energy-change (2. order) :-0.4956344E+00  (-0.4954008E+00)
 number of electron     344.0000000 magnetization 
 augmentation part       -5.0563047 magnetization 

 Broyden mixing:
  rms(total) = 0.10247E+01    rms(broyden)= 0.10241E+01
  rms(prec ) = 0.14059E+01
  weight for this iteration     100.00

 Free energy of the ion-electron system (eV)
  ---------------------------------------------------
  alpha Z        PSCENC =       872.70583573
  Ewald energy   TEWEN  =    -17918.39184714
  -Hartree energ DENC   =     -7437.78173089
  -exchange      EXHF   =         0.00000000
  -V(xc)+E(xc)   XCENC  =       908.21398668
  PAW double counting   =     21345.28103884   -22405.85761495
  entropy T*S    EENTRO =        -0.00000000
  eigenvalues    EBANDS =     -3063.50742886
  atomic energy  EATOM  =     26212.11861568
  Solvation  Ediel_sol  =         0.00000000
  ---------------------------------------------------
  free energy    TOTEN  =     -1487.21914491 eV

  energy without entropy =    -1487.21914491  energy(sigma->0) =    -1487.21914491


--------------------------------------------------------------------------------------------------------




--------------------------------------- Iteration      1(   6)  ---------------------------------------


    POTLOK:  cpu time    0.2539: real time    0.3029
    SETDIJ:  cpu time    1.2010: real time    1.2011
     EDDAV:  cpu time   18.9211: real time   18.9222
       DOS:  cpu time    0.0004: real time    0.0004
    CHARGE:  cpu time    2.6889: real time    2.6890
    MIXING:  cpu time    0.0015: real time    0.0015
    --------------------------------------------
      LOOP:  cpu time   23.0669: real time   23.1170

 eigenvalue-minimisations  :  4312
 total energy-change (2. order) : 0.7765431E+02  (-0.2348844E+01)
 number of electron     344.0000000 magnetization 
 augmentation part       -3.6541588 magnetization 

 Broyden mixing:
  rms(total) = 0.72991E+00    rms(broyden)= 0.72982E+00
  rms(prec ) = 0.90790E+00
  weight for this iteration     100.00

 eigenvalues of (default mixing * dielectric matrix)
  average eigenvalue GAMMA=   1.2110
  1.2110

 Free energy of the ion-electron system (eV)
  ---------------------------------------------------
  alpha Z        PSCENC =       872.70583573
  Ewald energy   TEWEN  =    -17918.39184714
  -Hartree energ DENC   =     -7418.79736859
  -exchange      EXHF   =         0.00000000
  -V(xc)+E(xc)   XCENC  =       936.24047939
  PAW double counting   =     21640.92431456   -22699.82334898
  entropy T*S    EENTRO =        -0.00000000
  eigenvalues    EBANDS =     -3034.54152005
  atomic energy  EATOM  =     26212.11861568
  Solvation  Ediel_sol  =         0.00000000
  ---------------------------------------------------
  free energy    TOTEN  =     -1409.56483941 eV

  energy without entropy =    -1409.56483941  energy(sigma->0) =    -1409.56483941


--------------------------------------------------------------------------------------------------------




--------------------------------------- Iteration      1(   7)  ---------------------------------------


    POTLOK:  cpu time    0.2978: real time    0.3089
    SETDIJ:  cpu time    1.1990: real time    1.1990
     EDDAV:  cpu time   18.2030: real time   18.2039
       DOS:  cpu time    0.0004: real time    0.0004
    CHARGE:  cpu time    2.6834: real time    2.6835
    MIXING:  cpu time    0.0015: real time    0.0015
    --------------------------------------------
      LOOP:  cpu time   22.3852: real time   22.3972

 eigenvalue-minimisations  :  4064
 total energy-change (2. order) : 0.5177818E+00  (-0.8476172E+00)
 number of electron     344.0000000 magnetization 
 augmentation part       -3.1036627 magnetization 

 Broyden mixing:
  rms(total) = 0.37083E+00    rms(broyden)= 0.37082E+00
  rms(prec ) = 0.41310E+00
  weight for this iteration     100.00

 eigenvalues of (default mixing * dielectric matrix)
  average eigenvalue GAMMA=   1.3091
  1.3091  1.3091

 Free energy of the ion-electron system (eV)
  ---------------------------------------------------
  alpha Z        PSCENC =       872.70583573
  Ewald energy   TEWEN  =    -17918.39184714
  -Hartree energ DENC   =     -7461.31366952
  -exchange      EXHF   =         0.00000000
  -V(xc)+E(xc)   XCENC  =       941.31577443
  PAW double counting   =     22266.02406909   -23323.09633876
  entropy T*S    EENTRO =        -0.00000000
  eigenvalues    EBANDS =     -2998.40949707
  atomic energy  EATOM  =     26212.11861568
  Solvation  Ediel_sol  =         0.00000000
  ---------------------------------------------------
  free energy    TOTEN  =     -1409.04705756 eV

  energy without entropy =    -1409.04705756  energy(sigma->0) =    -1409.04705756


--------------------------------------------------------------------------------------------------------




--------------------------------------- Iteration      1(   8)  ---------------------------------------


    POTLOK:  cpu time    0.2689: real time    0.2937
    SETDIJ:  cpu time    1.1986: real time    1.1986
     EDDAV:  cpu time   18.0747: real time   18.0754
       DOS:  cpu time    0.0004: real time    0.0004
    CHARGE:  cpu time    2.6963: real time    2.6964
    MIXING:  cpu time    0.0015: real time    0.0015
    --------------------------------------------
      LOOP:  cpu time   22.2404: real time   22.2660

 eigenvalue-minimisations  :  4024
 total energy-change (2. order) :-0.1739708E+00  (-0.4428316E-01)
 number of electron     344.0000000 magnetization 
 augmentation part       -3.1895152 magnetization 

 Broyden mixing:
  rms(total) = 0.21586E+00    rms(broyden)= 0.21586E+00
  rms(prec ) = 0.24488E+00
  weight for this iteration     100.00

 eigenvalues of (default mixing * dielectric matrix)
  average eigenvalue GAMMA=   1.7003
  1.1277  1.2964  2.6768

 Free energy of the ion-electron system (eV)
  ---------------------------------------------------
  alpha Z        PSCENC =       872.70583573
  Ewald energy   TEWEN  =    -17918.39184714
  -Hartree energ DENC   =     -7467.50115331
  -exchange      EXHF   =         0.00000000
  -V(xc)+E(xc)   XCENC  =       942.05050421
  PAW double counting   =     22504.50407486   -23561.98032200
  entropy T*S    EENTRO =        -0.00000000
  eigenvalues    EBANDS =     -2992.72673637
  atomic energy  EATOM  =     26212.11861568
  Solvation  Ediel_sol  =         0.00000000
  ---------------------------------------------------
  free energy    TOTEN  =     -1409.22102834 eV

  energy without entropy =    -1409.22102834  energy(sigma->0) =    -1409.22102834


--------------------------------------------------------------------------------------------------------




--------------------------------------- Iteration      1(   9)  ---------------------------------------


    POTLOK:  cpu time    0.2754: real time    0.2815
    SETDIJ:  cpu time    1.1981: real time    1.1982
     EDDAV:  cpu time   17.5150: real time   17.5157
       DOS:  cpu time    0.0008: real time    0.0008
    CHARGE:  cpu time    2.6864: real time    2.6865
    MIXING:  cpu time    0.0019: real time    0.0019
    --------------------------------------------
      LOOP:  cpu time   21.6776: real time   21.6846

 eigenvalue-minimisations  :  3824
 total energy-change (2. order) :-0.6549936E-01  (-0.1742909E-01)
 number of electron     344.0000000 magnetization 
 augmentation part       -3.2286797 magnetization 

 Broyden mixing:
  rms(total) = 0.46566E-01    rms(broyden)= 0.46563E-01
  rms(prec ) = 0.56048E-01
  weight for this iteration     100.00

 eigenvalues of (default mixing * dielectric matrix)
  average eigenvalue GAMMA=   1.4719
  2.5364  1.2505  1.2505  0.8501

 Free energy of the ion-electron system (eV)
  ---------------------------------------------------
  alpha Z        PSCENC =       872.70583573
  Ewald energy   TEWEN  =    -17918.39184714
  -Hartree energ DENC   =     -7474.76138550
  -exchange      EXHF   =         0.00000000
  -V(xc)+E(xc)   XCENC  =       943.93246416
  PAW double counting   =     22844.52173770   -23902.87728578
  entropy T*S    EENTRO =        -0.00000000
  eigenvalues    EBANDS =     -2986.53466255
  atomic energy  EATOM  =     26212.11861568
  Solvation  Ediel_sol  =         0.00000000
  ---------------------------------------------------
  free energy    TOTEN  =     -1409.28652771 eV

  energy without entropy =    -1409.28652771  energy(sigma->0) =    -1409.28652771


--------------------------------------------------------------------------------------------------------




--------------------------------------- Iteration      1(  10)  ---------------------------------------


    POTLOK:  cpu time    0.2539: real time    0.3161
    SETDIJ:  cpu time    1.1989: real time    1.1989
     EDDAV:  cpu time   19.4471: real time   19.4481
       DOS:  cpu time    0.0004: real time    0.0004
    CHARGE:  cpu time    2.6872: real time    2.6873
    MIXING:  cpu time    0.0016: real time    0.0016
    --------------------------------------------
      LOOP:  cpu time   23.5890: real time   23.6524

 eigenvalue-minimisations  :  4496
 total energy-change (2. order) :-0.3397336E-02  (-0.2312857E-02)
 number of electron     344.0000000 magnetization 
 augmentation part       -3.2151756 magnetization 

 Broyden mixing:
  rms(total) = 0.32220E-01    rms(broyden)= 0.32218E-01
  rms(prec ) = 0.40987E-01
  weight for this iteration     100.00

 eigenvalues of (default mixing * dielectric matrix)
  average eigenvalue GAMMA=   1.3158
  2.4190  1.3299  1.3299  0.8412  0.6591

 Free energy of the ion-electron system (eV)
  ---------------------------------------------------
  alpha Z        PSCENC =       872.70583573
  Ewald energy   TEWEN  =    -17918.39184714
  -Hartree energ DENC   =     -7473.09325353
  -exchange      EXHF   =         0.00000000
  -V(xc)+E(xc)   XCENC  =       943.78202759
  PAW double counting   =     22812.61603325   -23871.01861321
  entropy T*S    EENTRO =        -0.00000000
  eigenvalues    EBANDS =     -2988.00872341
  atomic energy  EATOM  =     26212.11861568
  Solvation  Ediel_sol  =         0.00000000
  ---------------------------------------------------
  free energy    TOTEN  =     -1409.28992504 eV

  energy without entropy =    -1409.28992504  energy(sigma->0) =    -1409.28992504


--------------------------------------------------------------------------------------------------------




--------------------------------------- Iteration      1(  11)  ---------------------------------------


    POTLOK:  cpu time    0.2819: real time    0.3049
    SETDIJ:  cpu time    1.1994: real time    1.1995
     EDDAV:  cpu time   17.3976: real time   17.3984
       DOS:  cpu time    0.0004: real time    0.0004
    CHARGE:  cpu time    2.6866: real time    2.6867
    MIXING:  cpu time    0.0016: real time    0.0016
    --------------------------------------------
      LOOP:  cpu time   21.5676: real time   21.5915

 eigenvalue-minimisations  :  3768
 total energy-change (2. order) :-0.2008279E-02  (-0.2792560E-03)
 number of electron     344.0000000 magnetization 
 augmentation part       -3.2139144 magnetization 

 Broyden mixing:
  rms(total) = 0.15048E-01    rms(broyden)= 0.15047E-01
  rms(prec ) = 0.23212E-01
  weight for this iteration     100.00

 eigenvalues of (default mixing * dielectric matrix)
  average eigenvalue GAMMA=   1.6025
  2.7546  2.7546  1.2047  1.2047  0.8481  0.8481

 Free energy of the ion-electron system (eV)
  ---------------------------------------------------
  alpha Z        PSCENC =       872.70583573
  Ewald energy   TEWEN  =    -17918.39184714
  -Hartree energ DENC   =     -7471.81685188
  -exchange      EXHF   =         0.00000000
  -V(xc)+E(xc)   XCENC  =       943.72162973
  PAW double counting   =     22795.84133514   -23854.40973406
  entropy T*S    EENTRO =        -0.00000000
  eigenvalues    EBANDS =     -2989.06091653
  atomic energy  EATOM  =     26212.11861568
  Solvation  Ediel_sol  =         0.00000000
  ---------------------------------------------------
  free energy    TOTEN  =     -1409.29193332 eV

  energy without entropy =    -1409.29193332  energy(sigma->0) =    -1409.29193332


--------------------------------------------------------------------------------------------------------




--------------------------------------- Iteration      1(  12)  ---------------------------------------


    POTLOK:  cpu time    0.2765: real time    0.3130
    SETDIJ:  cpu time    1.1991: real time    1.1992
     EDDAV:  cpu time   16.8832: real time   16.8840
       DOS:  cpu time    0.0004: real time    0.0004
    CHARGE:  cpu time    2.6867: real time    2.6868
    MIXING:  cpu time    0.0016: real time    0.0016
    --------------------------------------------
      LOOP:  cpu time   21.0476: real time   21.0850

 eigenvalue-minimisations  :  3592
 total energy-change (2. order) :-0.2800592E-02  (-0.5270077E-03)
 number of electron     344.0000000 magnetization 
 augmentation part       -3.2172095 magnetization 

 Broyden mixing:
  rms(total) = 0.10252E-01    rms(broyden)= 0.10251E-01
  rms(prec ) = 0.13133E-01
  weight for this iteration     100.00

 eigenvalues of (default mixing * dielectric matrix)
  average eigenvalue GAMMA=   1.6088
  2.8616  2.8616  1.3340  1.3340  0.8867  0.9918  0.9918

 Free energy of the ion-electron system (eV)
  ---------------------------------------------------
  alpha Z        PSCENC =       872.70583573
  Ewald energy   TEWEN  =    -17918.39184714
  -Hartree energ DENC   =     -7471.14132550
  -exchange      EXHF   =         0.00000000
  -V(xc)+E(xc)   XCENC  =       943.76142764
  PAW double counting   =     22790.04216700   -23848.87854129
  entropy T*S    EENTRO =        -0.00000000
  eigenvalues    EBANDS =     -2989.51106604
  atomic energy  EATOM  =     26212.11861568
  Solvation  Ediel_sol  =         0.00000000
  ---------------------------------------------------
  free energy    TOTEN  =     -1409.29473392 eV

  energy without entropy =    -1409.29473392  energy(sigma->0) =    -1409.29473392


--------------------------------------------------------------------------------------------------------




--------------------------------------- Iteration      1(  13)  ---------------------------------------


    POTLOK:  cpu time    0.3046: real time    0.3142
    SETDIJ:  cpu time    1.1990: real time    1.1990
     EDDAV:  cpu time   19.1340: real time   19.1348
       DOS:  cpu time    0.0004: real time    0.0004
    CHARGE:  cpu time    2.6939: real time    2.6939
    MIXING:  cpu time    0.0018: real time    0.0018
    --------------------------------------------
      LOOP:  cpu time   23.3337: real time   23.3442

 eigenvalue-minimisations  :  4368
 total energy-change (2. order) : 0.3513533E-03  (-0.1554042E-03)
 number of electron     344.0000000 magnetization 
 augmentation part       -3.2178176 magnetization 

 Broyden mixing:
  rms(total) = 0.47840E-02    rms(broyden)= 0.47833E-02
  rms(prec ) = 0.55515E-02
  weight for this iteration     100.00

 eigenvalues of (default mixing * dielectric matrix)
  average eigenvalue GAMMA=   1.5603
  3.2150  2.4843  1.5967  1.2416  1.0952  1.0952  0.9700  0.7847

 Free energy of the ion-electron system (eV)
  ---------------------------------------------------
  alpha Z        PSCENC =       872.70583573
  Ewald energy   TEWEN  =    -17918.39184714
  -Hartree energ DENC   =     -7472.24118795
  -exchange      EXHF   =         0.00000000
  -V(xc)+E(xc)   XCENC  =       943.82655667
  PAW double counting   =     22789.32408378   -23848.11239255
  entropy T*S    EENTRO =        -0.00000000
  eigenvalues    EBANDS =     -2988.52404678
  atomic energy  EATOM  =     26212.11861568
  Solvation  Ediel_sol  =         0.00000000
  ---------------------------------------------------
  free energy    TOTEN  =     -1409.29438256 eV

  energy without entropy =    -1409.29438256  energy(sigma->0) =    -1409.29438256


--------------------------------------------------------------------------------------------------------




--------------------------------------- Iteration      1(  14)  ---------------------------------------


    POTLOK:  cpu time    0.2771: real time    0.3044
    SETDIJ:  cpu time    1.1962: real time    1.1963
     EDDAV:  cpu time   18.0161: real time   18.0169
       DOS:  cpu time    0.0008: real time    0.0008
    CHARGE:  cpu time    2.6928: real time    2.6929
    MIXING:  cpu time    0.0017: real time    0.0017
    --------------------------------------------
      LOOP:  cpu time   22.1847: real time   22.2130

 eigenvalue-minimisations  :  3984
 total energy-change (2. order) : 0.5027291E-04  (-0.4567302E-04)
 number of electron     344.0000000 magnetization 
 augmentation part       -3.2173324 magnetization 

 Broyden mixing:
  rms(total) = 0.27556E-02    rms(broyden)= 0.27545E-02
  rms(prec ) = 0.34922E-02
  weight for this iteration     100.00

 eigenvalues of (default mixing * dielectric matrix)
  average eigenvalue GAMMA=   1.5558
  3.2432  2.2825  2.2825  1.1525  1.1525  0.8798  0.8798  1.0645  1.0645

 Free energy of the ion-electron system (eV)
  ---------------------------------------------------
  alpha Z        PSCENC =       872.70583573
  Ewald energy   TEWEN  =    -17918.39184714
  -Hartree energ DENC   =     -7472.46977657
  -exchange      EXHF   =         0.00000000
  -V(xc)+E(xc)   XCENC  =       943.83974082
  PAW double counting   =     22791.24836479   -23850.01761968
  entropy T*S    EENTRO =        -0.00000000
  eigenvalues    EBANDS =     -2988.32764592
  atomic energy  EATOM  =     26212.11861568
  Solvation  Ediel_sol  =         0.00000000
  ---------------------------------------------------
  free energy    TOTEN  =     -1409.29433229 eV

  energy without entropy =    -1409.29433229  energy(sigma->0) =    -1409.29433229


--------------------------------------------------------------------------------------------------------




--------------------------------------- Iteration      1(  15)  ---------------------------------------


    POTLOK:  cpu time    0.2594: real time    0.3068
    SETDIJ:  cpu time    1.2003: real time    1.2003
     EDDAV:  cpu time   17.3719: real time   17.3726
       DOS:  cpu time    0.0005: real time    0.0005
    CHARGE:  cpu time    2.6948: real time    2.6949
    MIXING:  cpu time    0.0022: real time    0.0022
    --------------------------------------------
      LOOP:  cpu time   21.5291: real time   21.5773

 eigenvalue-minimisations  :  3760
 total energy-change (2. order) : 0.1983275E-04  (-0.3619865E-05)
 number of electron     344.0000000 magnetization 
 augmentation part       -3.2172847 magnetization 

 Broyden mixing:
  rms(total) = 0.15986E-02    rms(broyden)= 0.15974E-02
  rms(prec ) = 0.21440E-02
  weight for this iteration     100.00

 eigenvalues of (default mixing * dielectric matrix)
  average eigenvalue GAMMA=   1.6443
  3.7966  2.4807  2.4807  1.3426  1.3426  1.1644  1.1644  0.8124  0.9292  0.9292

 Free energy of the ion-electron system (eV)
  ---------------------------------------------------
  alpha Z        PSCENC =       872.70583573
  Ewald energy   TEWEN  =    -17918.39184714
  -Hartree energ DENC   =     -7472.62371547
  -exchange      EXHF   =         0.00000000
  -V(xc)+E(xc)   XCENC  =       943.84521325
  PAW double counting   =     22791.68396211   -23850.44756221
  entropy T*S    EENTRO =        -0.00000000
  eigenvalues    EBANDS =     -2988.18481440
  atomic energy  EATOM  =     26212.11861568
  Solvation  Ediel_sol  =         0.00000000
  ---------------------------------------------------
  free energy    TOTEN  =     -1409.29431246 eV

  energy without entropy =    -1409.29431246  energy(sigma->0) =    -1409.29431246


--------------------------------------------------------------------------------------------------------




--------------------------------------- Iteration      1(  16)  ---------------------------------------


    POTLOK:  cpu time    0.2748: real time    0.3128
    SETDIJ:  cpu time    1.2035: real time    1.2036
     EDDAV:  cpu time   17.6291: real time   17.6298
       DOS:  cpu time    0.0004: real time    0.0004
    CHARGE:  cpu time    2.6855: real time    2.6857
    MIXING:  cpu time    0.0018: real time    0.0018
    --------------------------------------------
      LOOP:  cpu time   21.7952: real time   21.8341

 eigenvalue-minimisations  :  3840
 total energy-change (2. order) :-0.5816949E-04  (-0.3551275E-05)
 number of electron     344.0000000 magnetization 
 augmentation part       -3.2168584 magnetization 

 Broyden mixing:
  rms(total) = 0.73540E-03    rms(broyden)= 0.73280E-03
  rms(prec ) = 0.87141E-03
  weight for this iteration     100.00

 eigenvalues of (default mixing * dielectric matrix)
  average eigenvalue GAMMA=   1.6860
  4.2334  2.6979  2.4740  1.9498  1.0823  1.0823  1.1403  1.1403  0.9645  0.9645
  0.8167

 Free energy of the ion-electron system (eV)
  ---------------------------------------------------
  alpha Z        PSCENC =       872.70583573
  Ewald energy   TEWEN  =    -17918.39184714
  -Hartree energ DENC   =     -7472.61836539
  -exchange      EXHF   =         0.00000000
  -V(xc)+E(xc)   XCENC  =       943.83575220
  PAW double counting   =     22791.00978671   -23849.76928852
  entropy T*S    EENTRO =        -0.00000000
  eigenvalues    EBANDS =     -2988.18485990
  atomic energy  EATOM  =     26212.11861568
  Solvation  Ediel_sol  =         0.00000000
  ---------------------------------------------------
  free energy    TOTEN  =     -1409.29437063 eV

  energy without entropy =    -1409.29437063  energy(sigma->0) =    -1409.29437063


--------------------------------------------------------------------------------------------------------




--------------------------------------- Iteration      1(  17)  ---------------------------------------


    POTLOK:  cpu time    0.2687: real time    0.3148
    SETDIJ:  cpu time    1.2035: real time    1.2036
     EDDAV:  cpu time   16.9421: real time   16.9428
       DOS:  cpu time    0.0008: real time    0.0008
    CHARGE:  cpu time    2.6868: real time    2.6870
    MIXING:  cpu time    0.0021: real time    0.0021
    --------------------------------------------
      LOOP:  cpu time   21.1041: real time   21.1511

 eigenvalue-minimisations  :  3592
 total energy-change (2. order) :-0.2157884E-05  (-0.6383627E-06)
 number of electron     344.0000000 magnetization 
 augmentation part       -3.2168037 magnetization 

 Broyden mixing:
  rms(total) = 0.54572E-03    rms(broyden)= 0.54225E-03
  rms(prec ) = 0.60127E-03
  weight for this iteration     100.00

 eigenvalues of (default mixing * dielectric matrix)
  average eigenvalue GAMMA=   1.6671
  4.3140  2.9263  2.1802  2.1802  1.2269  1.2269  1.1450  1.1450  1.0006  1.0006
  0.8293  0.8293

 Free energy of the ion-electron system (eV)
  ---------------------------------------------------
  alpha Z        PSCENC =       872.70583573
  Ewald energy   TEWEN  =    -17918.39184714
  -Hartree energ DENC   =     -7472.61245962
  -exchange      EXHF   =         0.00000000
  -V(xc)+E(xc)   XCENC  =       943.83303367
  PAW double counting   =     22791.10550997   -23849.86270209
  entropy T*S    EENTRO =        -0.00000000
  eigenvalues    EBANDS =     -2988.19035899
  atomic energy  EATOM  =     26212.11861568
  Solvation  Ediel_sol  =         0.00000000
  ---------------------------------------------------
  free energy    TOTEN  =     -1409.29437278 eV

  energy without entropy =    -1409.29437278  energy(sigma->0) =    -1409.29437278


--------------------------------------------------------------------------------------------------------




--------------------------------------- Iteration      1(  18)  ---------------------------------------


    POTLOK:  cpu time    0.2835: real time    0.3214
    SETDIJ:  cpu time    1.2048: real time    1.2049
     EDDAV:  cpu time   14.8534: real time   14.8540
       DOS:  cpu time    0.0005: real time    0.0005
    CHARGE:  cpu time    2.6816: real time    2.6817
    MIXING:  cpu time    0.0020: real time    0.0020
    --------------------------------------------
      LOOP:  cpu time   19.0257: real time   19.0644

 eigenvalue-minimisations  :  2856
 total energy-change (2. order) : 0.2606794E-05  (-0.2614145E-06)
 number of electron     344.0000000 magnetization 
 augmentation part       -3.2168511 magnetization 

 Broyden mixing:
  rms(total) = 0.19407E-03    rms(broyden)= 0.18410E-03
  rms(prec ) = 0.20882E-03
  weight for this iteration     100.00

 eigenvalues of (default mixing * dielectric matrix)
  average eigenvalue GAMMA=   1.6877
  4.6596  3.0082  2.2827  2.2827  1.3657  1.3657  1.1466  1.1466  1.0187  1.0187
  0.7995  0.9228  0.9228

 Free energy of the ion-electron system (eV)
  ---------------------------------------------------
  alpha Z        PSCENC =       872.70583573
  Ewald energy   TEWEN  =    -17918.39184714
  -Hartree energ DENC   =     -7472.61290767
  -exchange      EXHF   =         0.00000000
  -V(xc)+E(xc)   XCENC  =       943.83267674
  PAW double counting   =     22791.10185919   -23849.85807368
  entropy T*S    EENTRO =        -0.00000000
  eigenvalues    EBANDS =     -2988.19052901
  atomic energy  EATOM  =     26212.11861568
  Solvation  Ediel_sol  =         0.00000000
  ---------------------------------------------------
  free energy    TOTEN  =     -1409.29437018 eV

  energy without entropy =    -1409.29437018  energy(sigma->0) =    -1409.29437018


--------------------------------------------------------------------------------------------------------




--------------------------------------- Iteration      1(  19)  ---------------------------------------


    POTLOK:  cpu time    0.2642: real time    0.3130
    SETDIJ:  cpu time    1.2036: real time    1.2036
     EDDAV:  cpu time   13.0212: real time   13.0216
       DOS:  cpu time    0.0004: real time    0.0004
    CHARGE:  cpu time    2.6867: real time    2.6868
    MIXING:  cpu time    0.0020: real time    0.0020
    --------------------------------------------
      LOOP:  cpu time   17.1781: real time   17.2275

 eigenvalue-minimisations  :  2208
 total energy-change (2. order) : 0.4814478E-05  (-0.3635855E-07)
 number of electron     344.0000000 magnetization 
 augmentation part       -3.2168679 magnetization 

 Broyden mixing:
  rms(total) = 0.11017E-03    rms(broyden)= 0.91511E-04
  rms(prec ) = 0.10795E-03
  weight for this iteration     100.00
  WARNING: grid for Broyden might be to small

 eigenvalues of (default mixing * dielectric matrix)
  average eigenvalue GAMMA=   1.6585
  4.6409  3.0419  2.4192  1.7709  1.7709  1.2428  1.2428  1.2774  1.0532  1.0532
  1.0321  1.0321  0.8209  0.8209

 Free energy of the ion-electron system (eV)
  ---------------------------------------------------
  alpha Z        PSCENC =       872.70583573
  Ewald energy   TEWEN  =    -17918.39184714
  -Hartree energ DENC   =     -7472.61575087
  -exchange      EXHF   =         0.00000000
  -V(xc)+E(xc)   XCENC  =       943.83277224
  PAW double counting   =     22791.20127535   -23849.95714414
  entropy T*S    EENTRO =        -0.00000000
  eigenvalues    EBANDS =     -2988.18812221
  atomic energy  EATOM  =     26212.11861568
  Solvation  Ediel_sol  =         0.00000000
  ---------------------------------------------------
  free energy    TOTEN  =     -1409.29436536 eV

  energy without entropy =    -1409.29436536  energy(sigma->0) =    -1409.29436536


--------------------------------------------------------------------------------------------------------




--------------------------------------- Iteration      1(  20)  ---------------------------------------


    POTLOK:  cpu time    0.2578: real time    0.3142
    SETDIJ:  cpu time    1.2031: real time    1.2032
     EDDAV:  cpu time   12.5645: real time   12.5651
       DOS:  cpu time    0.0007: real time    0.0007
    CHARGE:  cpu time    2.6879: real time    2.6880
    MIXING:  cpu time    0.0021: real time    0.0021
    --------------------------------------------
      LOOP:  cpu time   16.7162: real time   16.7732

 eigenvalue-minimisations  :  2048
 total energy-change (2. order) : 0.3589587E-05  (-0.1473730E-07)
 number of electron     344.0000000 magnetization 
 augmentation part       -3.2168973 magnetization 

 Broyden mixing:
  rms(total) = 0.88590E-04    rms(broyden)= 0.63922E-04
  rms(prec ) = 0.72937E-04
  weight for this iteration     100.00
  WARNING: grid for Broyden might be to small

 eigenvalues of (default mixing * dielectric matrix)
  average eigenvalue GAMMA=   1.6646
  4.7320  3.0544  2.4169  2.0742  2.0742  1.3096  1.3096  1.1986  1.1986  1.0339
  1.0339  0.9052  0.9052  0.7954  0.9279

 Free energy of the ion-electron system (eV)
  ---------------------------------------------------
  alpha Z        PSCENC =       872.70583573
  Ewald energy   TEWEN  =    -17918.39184714
  -Hartree energ DENC   =     -7472.62271549
  -exchange      EXHF   =         0.00000000
  -V(xc)+E(xc)   XCENC  =       943.83314235
  PAW double counting   =     22791.21596621   -23849.97131654
  entropy T*S    EENTRO =        -0.00000000
  eigenvalues    EBANDS =     -2988.18204257
  atomic energy  EATOM  =     26212.11861568
  Solvation  Ediel_sol  =         0.00000000
  ---------------------------------------------------
  free energy    TOTEN  =     -1409.29436177 eV

  energy without entropy =    -1409.29436177  energy(sigma->0) =    -1409.29436177


--------------------------------------------------------------------------------------------------------




--------------------------------------- Iteration      1(  21)  ---------------------------------------


    POTLOK:  cpu time    0.2880: real time    0.2974
    SETDIJ:  cpu time    1.2045: real time    1.2046
     EDDAV:  cpu time   12.5613: real time   12.5617
       DOS:  cpu time    0.0004: real time    0.0004
    --------------------------------------------
      LOOP:  cpu time   14.0542: real time   14.0640

 eigenvalue-minimisations  :  2048
 total energy-change (2. order) :-0.3686082E-06  (-0.2037633E-07)
 number of electron     344.0000000 magnetization 
 augmentation part       -3.2168973 magnetization 

 Free energy of the ion-electron system (eV)
  ---------------------------------------------------
  alpha Z        PSCENC =       872.70583573
  Ewald energy   TEWEN  =    -17918.39184714
  -Hartree energ DENC   =     -7472.62166594
  -exchange      EXHF   =         0.00000000
  -V(xc)+E(xc)   XCENC  =       943.83311576
  PAW double counting   =     22791.21797398   -23849.97410672
  entropy T*S    EENTRO =        -0.00000000
  eigenvalues    EBANDS =     -2988.18228348
  atomic energy  EATOM  =     26212.11861568
  Solvation  Ediel_sol  =         0.00000000
  ---------------------------------------------------
  free energy    TOTEN  =     -1409.29436214 eV

  energy without entropy =    -1409.29436214  energy(sigma->0) =    -1409.29436214


--------------------------------------------------------------------------------------------------------




 average (electrostatic) potential at core
  the test charge radii are     1.1312  1.1541  1.0178
  (the norm of the test charge is              1.0000)
       1 -55.1902       2 -55.2879       3 -55.1625       4 -55.2060       5 -55.2913
       6 -55.3626       7 -55.2259       8 -55.1998       9-101.6029      10-101.9098
      11-101.6201      12-101.6654      13-101.5810      14-101.9267      15-101.6248
      16-101.6919      17 -68.9599      18 -69.0207      19 -69.0570      20 -69.3865
      21 -69.0583      22 -68.9599      23 -69.0299      24 -68.9448      25 -68.8942
      26 -69.0161      27 -69.0352      28 -68.9729      29 -69.0243      30 -69.0045
      31 -69.0199      32 -69.0200      33 -69.0220      34 -68.9720      35 -68.9645
      36 -69.3638      37 -68.9350      38 -69.0088      39 -69.2542



 E-fermi :   0.5052     XC(G=0):  -7.9550     alpha+bet : -6.9586


 k-point     1 :       0.0000    0.0000    0.0000
  band No.  band energies     occupation 
      1     -20.8878      2.00000
      2     -20.8162      2.00000
      3     -20.8128      2.00000
      4     -20.7562      2.00000
      5     -20.7383      2.00000
      6     -20.7311      2.00000
      7     -20.7193      2.00000
      8     -20.7044      2.00000
      9     -16.6979      2.00000
     10     -16.6837      2.00000
     11     -16.6689      2.00000
     12     -16.6521      2.00000
     13     -16.6029      2.00000
     14     -16.5888      2.00000
     15     -16.5876      2.00000
     16     -16.5779      2.00000
     17     -16.5689      2.00000
     18     -16.5465      2.00000
     19     -16.5319      2.00000
     20     -16.5027      2.00000
     21     -16.4591      2.00000
     22     -16.4542      2.00000
     23     -16.4449      2.00000
     24     -16.4271      2.00000
     25     -16.4193      2.00000
     26     -16.4179      2.00000
     27     -16.4129      2.00000
     28     -16.4023      2.00000
     29     -16.3673      2.00000
     30     -16.3598      2.00000
     31     -16.3358      2.00000
     32     -16.3314      2.00000
     33     -16.3286      2.00000
     34     -16.3196      2.00000
     35     -16.3181      2.00000
     36     -16.3067      2.00000
     37     -16.2933      2.00000
     38     -16.2892      2.00000
     39     -16.2858      2.00000
     40     -16.2803      2.00000
     41     -16.2767      2.00000
     42     -16.2721      2.00000
     43     -16.2717      2.00000
     44     -16.2697      2.00000
     45     -16.2609      2.00000
     46     -16.2454      2.00000
     47     -16.2399      2.00000
     48     -16.2323      2.00000
     49     -14.4879      2.00000
     50     -14.3587      2.00000
     51     -14.3184      2.00000
     52     -14.2893      2.00000
     53     -14.1426      2.00000
     54     -14.1233      2.00000
     55     -14.1212      2.00000
     56     -14.0766      2.00000
     57     -14.0610      2.00000
     58     -14.0516      2.00000
     59     -14.0343      2.00000
     60     -14.0305      2.00000
     61     -14.0213      2.00000
     62     -14.0044      2.00000
     63     -13.9973      2.00000
     64     -13.9801      2.00000
     65     -13.9406      2.00000
     66     -13.9193      2.00000
     67     -13.8952      2.00000
     68     -13.7713      2.00000
     69     -13.7573      2.00000
     70     -13.7233      2.00000
     71     -13.7101      2.00000
     72      -8.2044      2.00000
     73      -7.7820      2.00000
     74      -7.7464      2.00000
     75      -7.7088      2.00000
     76      -7.3488      2.00000
     77      -7.3086      2.00000
     78      -7.2785      2.00000
     79      -7.2651      2.00000
     80      -7.2522      2.00000
     81      -7.2437      2.00000
     82      -7.2185      2.00000
     83      -7.2105      2.00000
     84      -7.2061      2.00000
     85      -7.1908      2.00000
     86      -7.1864      2.00000
     87      -7.1822      2.00000
     88      -7.1737      2.00000
     89      -7.1603      2.00000
     90      -7.1533      2.00000
     91      -7.1509      2.00000
     92      -7.1468      2.00000
     93      -7.1359      2.00000
     94      -7.1321      2.00000
     95      -7.1285      2.00000
     96      -7.1176      2.00000
     97      -7.1136      2.00000
     98      -7.1096      2.00000
     99      -7.1012      2.00000
    100      -7.0881      2.00000
    101      -7.0806      2.00000
    102      -7.0597      2.00000
    103      -6.5798      2.00000
    104      -3.3965      2.00000
    105      -3.3184      2.00000
    106      -3.2823      2.00000
    107      -3.2625      2.00000
    108      -3.2173      2.00000
    109      -3.2049      2.00000
    110      -3.1768      2.00000
    111      -3.1643      2.00000
    112      -3.1501      2.00000
    113      -3.0701      2.00000
    114      -3.0325      2.00000
    115      -2.8818      2.00000
    116      -2.2024      2.00000
    117      -2.1843      2.00000
    118      -2.1425      2.00000
    119      -2.0765      2.00000
    120      -2.0335      2.00000
    121      -2.0068      2.00000
    122      -1.9240      2.00000
    123      -1.9135      2.00000
    124      -1.8792      2.00000
    125      -1.8417      2.00000
    126      -1.8071      2.00000
    127      -1.7528      2.00000
    128      -1.7075      2.00000
    129      -1.6610      2.00000
    130      -1.6580      2.00000
    131      -1.6009      2.00000
    132      -1.5782      2.00000
    133      -1.5492      2.00000
    134      -1.5405      2.00000
    135      -1.5243      2.00000
    136      -1.5095      2.00000
    137      -1.4890      2.00000
    138      -1.4816      2.00000
    139      -1.4583      2.00000
    140      -1.4488      2.00000
    141      -1.4300      2.00000
    142      -1.4243      2.00000
    143      -1.4198      2.00000
    144      -1.3915      2.00000
    145      -1.3780      2.00000
    146      -1.3622      2.00000
    147      -1.3523      2.00000
    148      -1.3450      2.00000
    149      -1.3303      2.00000
    150      -1.3275      2.00000
    151      -1.3105      2.00000
    152      -1.3031      2.00000
    153      -1.3000      2.00000
[...]


--------------------------------------------------------------------------------------------------------


 soft charge-density along one line, spin component           1
         0         1         2         3         4         5         6         7         8         9
 total charge-density along one line

 pseudopotential strength for first ion, spin component:           1
 17.931  -4.694  -0.000   0.001  -0.002   0.000  -0.001   0.002
 -4.694   1.237   0.000  -0.000   0.000  -0.000   0.000  -0.001
 -0.000   0.000   2.247  -0.000  -0.000  -2.684   0.000   0.000
  0.001  -0.000  -0.000   2.248  -0.001   0.000  -2.686   0.002
 -0.002   0.000  -0.000  -0.001   2.247   0.000   0.002  -2.684
  0.000  -0.000  -2.684   0.000   0.000   3.173  -0.000  -0.000
 -0.001   0.000   0.000  -2.686   0.002  -0.000   3.175  -0.002
  0.002  -0.001   0.000   0.002  -2.684  -0.000  -0.002   3.173
 -0.000   0.000   0.000  -0.000   0.000  -0.000   0.000  -0.000
 -0.000   0.000   0.001   0.000  -0.000  -0.002  -0.000   0.000
  0.001  -0.000   0.000  -0.001   0.000  -0.000   0.001  -0.000
 -0.001   0.000  -0.000  -0.001   0.001   0.000   0.002  -0.001
 -0.000   0.000   0.000  -0.000  -0.002  -0.000   0.000   0.003
 total augmentation occupancy for first ion, spin component:           1
  1.912  -0.138  -0.000   0.000  -0.000   0.000   0.001  -0.001  -0.000  -0.000   0.001  -0.002  -0.000
 -0.138   0.115  -0.000   0.002  -0.004  -0.000  -0.002   0.002   0.001   0.001  -0.004   0.006   0.002
 -0.000  -0.000   2.017  -0.000  -0.001   0.004  -0.000  -0.000   0.001   0.003   0.000  -0.000   0.000
  0.000   0.002  -0.000   2.020  -0.004  -0.000   0.006  -0.002  -0.000   0.000  -0.002  -0.002  -0.000
 -0.000  -0.004  -0.001  -0.004   2.017  -0.000  -0.002   0.004   0.000  -0.000   0.000   0.002  -0.004
  0.000  -0.000   0.004  -0.000  -0.000   0.008   0.000   0.000  -0.002  -0.002  -0.000  -0.000  -0.000
  0.001  -0.002  -0.000   0.006  -0.002   0.000   0.007   0.002  -0.000  -0.000   0.002  -0.000   0.001
 -0.001   0.002  -0.000  -0.002   0.004   0.000   0.002   0.009  -0.000  -0.000  -0.001  -0.001   0.003
 -0.000   0.001   0.001  -0.000   0.000  -0.002  -0.000  -0.000   0.006   0.002  -0.000   0.000  -0.000
 -0.000   0.001   0.003   0.000  -0.000  -0.002  -0.000  -0.000   0.002   0.005  -0.000   0.000  -0.000
  0.001  -0.004   0.000  -0.002   0.000  -0.000   0.002  -0.001  -0.000  -0.000   0.005  -0.002  -0.001
 -0.002   0.006  -0.000  -0.002   0.002  -0.000  -0.000  -0.001   0.000   0.000  -0.002   0.004   0.001
 -0.000   0.002   0.000  -0.000  -0.004  -0.000   0.001   0.003  -0.000  -0.000  -0.001   0.001   0.004


------------------------ aborting loop because EDIFF is reached ----------------------------------------





 total charge     

# of ion       s       p       d       tot
------------------------------------------
    1        1.785   4.717   0.018   6.520
    2        1.785   4.717   0.018   6.520
    3        1.787   4.718   0.021   6.525
    4        1.786   4.717   0.018   6.521
    5        1.785   4.716   0.016   6.517
    6        1.785   4.716   0.017   6.519
    7        1.786   4.717   0.018   6.520
    8        1.786   4.717   0.018   6.521
    9        1.554   0.424   9.835  11.814
   10        1.532   0.435   9.830  11.798
   11        1.554   0.418   9.834  11.806
   12        1.553   0.410   9.833  11.796
   13        1.554   0.413   9.833  11.800
   14        1.533   0.431   9.830  11.794
   15        1.554   0.419   9.834  11.807
   16        1.536   0.499   9.839  11.873
   17        1.614   3.283   0.006   4.904
   18        1.615   3.282   0.007   4.903
   19        1.615   3.288   0.007   4.910
   20        1.617   3.267   0.008   4.891
   21        1.615   3.287   0.007   4.909
   22        1.614   3.283   0.007   4.904
   23        1.614   3.280   0.006   4.900
   24        1.614   3.280   0.006   4.900
   25        1.614   3.278   0.006   4.897
   26        1.614   3.278   0.006   4.898
   27        1.614   3.281   0.006   4.901
   28        1.614   3.282   0.006   4.902
   29        1.614   3.288   0.007   4.909
   30        1.614   3.276   0.006   4.895
   31        1.614   3.285   0.007   4.906
   32        1.614   3.279   0.006   4.899
   33        1.614   3.279   0.006   4.899
   34        1.614   3.282   0.006   4.902
   35        1.614   3.283   0.006   4.903
   36        1.617   3.269   0.007   4.893
   37        1.614   3.279   0.006   4.900
   38        1.614   3.280   0.006   4.899
   39        1.619   3.296   0.012   4.927
--------------------------------------------------
tot         63.791 116.647  78.964 259.403

    CHARGE:  cpu time    0.3925: real time    0.3925
    FORLOC:  cpu time    0.0114: real time    0.0114
    FORNL :  cpu time    1.9090: real time    1.9091
    STRESS:  cpu time   49.4865: real time   49.4883
    FORCOR:  cpu time    0.2412: real time    0.2413
    FORHAR:  cpu time    0.0275: real time    0.0275
    MIXING:  cpu time    0.0022: real time    0.0022
    OFIELD:  cpu time    0.0000: real time    0.0000

  FORCE on cell =-STRESS in cart. coord.  units (eV):
  Direction    XX          YY          ZZ          XY          YZ          ZX
  --------------------------------------------------------------------------------------
  Alpha Z   872.70584   872.70584   872.70584
  Ewald   -5886.38127 -5978.94757 -6053.14233   130.97580    79.94527   -82.39679
  Hartree  2558.94233  2464.83440  2448.84449    75.67403    44.43388   -67.38637
  E(xc)   -1449.42059 -1449.48937 -1449.54437     0.16354     0.08186     0.01475
  Local   -3064.69155 -2875.29867 -2789.04489  -207.14812  -124.38536   150.91469
  n-local  1749.63653  1749.59339  1748.55693     2.56115     2.06484     0.58992
  augment   818.22107   816.98144   817.34609     0.26267     0.19675    -0.47570
  Kinetic  4396.11189  4396.04558  4399.74847    -0.64866    -1.57615    -0.37532
  Fock        0.00000     0.00000     0.00000     0.00000     0.00000     0.00000
  -------------------------------------------------------------------------------------
  Total      -4.87576    -3.57498    -4.52978     1.84041     0.76108     0.88518
  in kB      -4.89743    -3.59086    -4.54991     1.84859     0.76446     0.88911
  external pressure =       -4.35 kB  Pullay stress =        0.00 kB


 VOLUME and BASIS-vectors are now :
 -----------------------------------------------------------------------------
  energy-cutoff  :      300.00
  volume of cell :     1595.09
      direct lattice vectors                 reciprocal lattice vectors
     8.456489000  0.000000000  8.040301000     0.059126193 -0.000000000  0.062186727
     0.000000000 11.729847000  0.000000000     0.000000000  0.085252604 -0.000000000
    -8.456489000  0.000000000  8.040301000    -0.059126193  0.000000000  0.062186727

  length of vectors
    11.668703715 11.729847000 11.668703715     0.085808482  0.085252604  0.085808482


 FORCES acting on ions
    electron-ion (+dipol)            ewald-force                    non-local-force                 convergence-correction
 -----------------------------------------------------------------------------------------------
   0.351E+02 -.647E+01 -.383E+02   -.350E+02 0.648E+01 0.382E+02   -.124E+00 0.573E-02 0.912E-01   0.965E-04 0.100E-03 0.135E-03
   -.235E+01 -.310E+02 0.341E+02   0.227E+01 0.307E+02 -.337E+02   0.530E-01 0.221E+00 -.317E+00   -.139E-03 0.463E-04 -.800E-04
   0.196E+02 0.248E+02 -.199E+02   -.196E+02 -.248E+02 0.199E+02   0.722E-01 0.193E-01 -.117E+00   0.209E-03 -.462E-04 -.179E-03
   -.607E+02 0.859E+01 -.101E+02   0.606E+02 -.855E+01 0.102E+02   0.146E+00 -.610E-01 -.645E-01   0.158E-05 -.115E-03 0.506E-04
   0.262E+01 -.650E+01 0.212E+02   -.271E+01 0.649E+01 -.211E+02   0.107E+00 0.451E-01 -.975E-01   0.137E-03 0.144E-03 0.140E-03
   0.766E+02 -.399E+02 -.120E+02   -.761E+02 0.395E+02 0.117E+02   -.514E+00 0.434E+00 0.297E+00   -.900E-05 -.272E-04 -.166E-03
   -.280E+02 0.669E+01 0.637E+02   0.280E+02 -.678E+01 -.635E+02   -.236E-01 0.586E-01 -.205E+00   -.121E-03 -.781E-04 0.574E-04
   -.289E+02 0.725E+01 -.315E+02   0.287E+02 -.718E+01 0.314E+02   0.162E+00 -.708E-01 0.196E+00   0.513E-04 -.930E-04 0.103E-04
   -.835E+01 0.150E+01 -.677E+01   0.872E+01 -.173E+01 0.709E+01   -.381E+00 0.231E+00 -.329E+00   -.588E-04 -.709E-04 -.150E-04
   -.114E+01 0.104E+03 -.219E+02   0.144E+01 -.109E+03 0.229E+02   -.306E+00 0.563E+01 -.110E+01   -.215E-04 0.111E-02 -.199E-03
   0.208E+01 0.696E+01 0.614E+01   -.199E+01 -.716E+01 -.589E+01   -.926E-01 0.207E+00 -.239E+00   0.495E-04 -.814E-05 0.740E-04
   0.259E+01 -.172E+02 -.126E+02   -.247E+01 0.178E+02 0.135E+02   -.114E+00 -.617E+00 -.859E+00   0.126E-04 -.472E-04 -.176E-04
   -.149E+00 -.101E+02 -.916E+01   -.233E-01 0.104E+02 0.948E+01   0.175E+00 -.353E+00 -.323E+00   0.248E-04 0.982E-05 0.165E-04
   0.586E+02 0.342E+02 0.889E+02   -.614E+02 -.351E+02 -.936E+02   0.295E+01 0.966E+00 0.481E+01   0.540E-03 0.236E-03 0.939E-03
   0.169E+01 -.369E+00 0.502E+00   -.144E+01 0.749E+00 -.542E+00   -.227E+00 -.377E+00 0.445E-01   0.122E-04 0.763E-04 -.351E-04
   -.123E+02 -.561E+01 0.108E+01   0.820E+01 0.135E+01 -.499E+01   0.338E+01 0.348E+01 0.324E+01   -.166E-03 -.248E-03 -.139E-03
   -.779E+00 0.669E+01 0.410E+02   0.691E+00 -.668E+01 -.413E+02   0.806E-01 0.197E-01 0.259E+00   0.424E-04 -.930E-04 0.461E-04
   0.136E+02 0.121E+02 0.398E+02   -.137E+02 -.120E+02 -.402E+02   0.348E-01 -.159E-01 0.393E+00   0.281E-05 -.228E-04 0.251E-04
   -.147E+02 -.776E+01 0.324E+02   0.148E+02 0.774E+01 -.326E+02   -.144E+00 0.804E-02 0.188E+00   -.216E-04 0.593E-04 -.136E-04
   -.260E+02 -.260E+02 0.213E+02   0.260E+02 0.264E+02 -.217E+02   0.123E-01 -.811E+00 0.381E+00   0.282E-04 0.925E-04 0.400E-04
   0.173E+02 0.745E+01 -.306E+02   -.176E+02 -.748E+01 0.308E+02   0.219E+00 0.183E-01 -.153E+00   -.420E-04 -.591E-04 -.272E-04
   -.195E+01 -.721E+01 -.438E+02   0.203E+01 0.722E+01 0.442E+02   -.673E-01 -.184E-01 -.330E+00   -.204E-04 0.881E-04 -.404E-05
   0.309E+01 -.114E+02 -.107E+02   -.312E+01 0.114E+02 0.109E+02   0.337E-01 0.229E-01 -.171E+00   0.386E-04 0.426E-04 0.225E-04
   -.290E+02 0.960E+01 0.241E+02   0.293E+02 -.978E+01 -.244E+02   -.230E+00 0.160E+00 0.265E+00   0.931E-04 0.285E-04 0.714E-04
   0.157E+02 -.231E+02 -.185E+01   -.157E+02 0.233E+02 0.163E+01   0.110E+00 -.215E+00 0.828E-01   -.839E-06 -.686E-04 0.601E-04
   0.161E+02 -.504E+01 0.493E+02   -.163E+02 0.516E+01 -.495E+02   0.241E+00 -.119E+00 0.185E+00   -.148E-04 0.209E-04 -.749E-05
   -.311E+02 0.254E+01 -.323E+01   0.313E+02 -.242E+01 0.348E+01   -.136E+00 -.119E+00 -.238E+00   -.949E-05 0.536E-04 -.192E-04
   -.126E+02 -.228E+02 -.389E+02   0.128E+02 0.229E+02 0.391E+02   -.208E+00 -.160E+00 -.217E+00   -.168E-04 -.236E-04 0.268E-04
   0.271E+02 0.458E+01 -.131E+02   -.273E+02 -.462E+01 0.132E+02   0.192E+00 0.476E-01 -.135E+00   -.738E-04 -.526E-04 -.430E-04
   0.407E+01 0.361E+02 -.328E+02   -.430E+01 -.363E+02 0.330E+02   0.218E+00 0.226E+00 -.162E+00   0.624E-04 0.203E-04 0.139E-04
   -.273E+02 -.131E+02 0.226E+02   0.274E+02 0.133E+02 -.229E+02   -.172E+00 -.185E+00 0.268E+00   0.582E-04 0.100E-04 0.646E-04
   -.667E+00 -.207E+02 0.287E+02   0.874E+00 0.208E+02 -.289E+02   -.206E+00 -.154E+00 0.235E+00   -.581E-04 0.328E-04 -.466E-04
   0.334E+02 0.318E+02 0.513E+01   -.336E+02 -.321E+02 -.538E+01   0.185E+00 0.204E+00 0.243E+00   0.304E-04 0.336E-04 0.281E-04
   0.900E+01 0.194E+02 0.414E+02   -.921E+01 -.196E+02 -.416E+02   0.189E+00 0.188E+00 0.236E+00   -.190E-04 -.460E-04 -.550E-04
   0.387E+02 -.485E+01 -.274E+02   -.390E+02 0.496E+01 0.276E+02   0.215E+00 -.118E+00 -.191E+00   -.766E-04 0.373E-04 -.891E-04
   -.490E+01 -.333E+02 -.477E+02   0.492E+01 0.335E+02 0.482E+02   -.317E+00 -.856E-01 -.766E+00   0.886E-04 -.674E-04 0.577E-04
   -.388E+02 0.115E+02 -.156E+02   0.391E+02 -.117E+02 0.159E+02   -.314E+00 0.144E+00 -.165E+00   -.967E-05 0.291E-04 -.743E-04
   0.483E+01 0.223E+02 -.321E+02   -.464E+01 -.225E+02 0.323E+02   -.190E+00 0.210E+00 -.243E+00   0.577E-04 0.506E-04 0.709E-04
   -.570E+02 -.744E+02 -.661E+02   0.580E+02 0.754E+02 0.672E+02   -.149E+00 -.336E-01 0.177E-01   -.131E-03 -.140E-03 -.939E-04
 -----------------------------------------------------------------------------------------------
   -.482E+01 -.906E+01 -.495E+01   -.135E-12 0.426E-13 0.568E-13   0.486E+01 0.903E+01 0.501E+01   0.627E-03 0.102E-02 0.646E-03


 POSITION                                       TOTAL-FORCE (eV/Angst)
 -----------------------------------------------------------------------------------
      0.56435      2.92824      3.79248         0.014726      0.015848      0.011090
      0.35746      2.80179     12.07911        -0.022316     -0.001113     -0.006472
      3.97820      8.94030      7.77328         0.110932      0.075061     -0.077437
     -4.91124      8.85854      7.91552        -0.009365     -0.006226     -0.008237
     -3.77994      2.87162      8.13399         0.024196      0.019428      0.000308
      4.82707      2.90302      8.23007         0.008012     -0.000443     -0.008819
     -0.58688      8.80015     12.38475         0.017858     -0.032575     -0.029561
     -0.44553      8.81496      3.99794        -0.002532     -0.018990     -0.006027
     -8.44703      0.01756      8.04848        -0.002291      0.002192     -0.000180
      0.05037     11.72362      8.05879         0.007112      0.200899     -0.042633
     -4.23580     11.72862     12.04585        -0.007330      0.005643     -0.000458
     -4.19704      0.02999      4.04686         0.005799     -0.034893      0.001256
      4.21356      5.83190      4.01469        -0.010226      0.009264     -0.005890
      4.21219      5.96948     12.05554         0.100613      0.069499      0.158930
     -0.00217      5.85855      0.00462         0.008077      0.000767      0.006289
     -0.15760      5.78876      7.94556        -0.692444     -0.795199     -0.706629
     -4.15426      8.77896     11.55989         0.004674      0.015160     -0.001815
      4.38402      8.85584     11.44313         0.005245     -0.004563      0.007085
      0.02881      2.94243     15.66813        -0.006452     -0.001255     -0.004670
      0.02002      2.83155      7.54732         0.053136     -0.466427      0.058869
     -0.14195      8.80567      0.37661        -0.003238      0.004187     -0.003518
      4.13304      2.91666      4.58435         0.001663     -0.020247      0.001463
     -4.39578      3.01812      4.45109        -0.003859      0.004134     -0.006544
     -5.92304      5.50960      9.60855        -0.011685      0.000745     -0.011465
      1.68516      6.26371      5.66738         0.067444     -0.004922     -0.112136
      1.70163      6.25815     13.61945        -0.002018     -0.000673     -0.020489
     -1.71297      0.31117     10.42982         0.011686     -0.003905     -0.008716
     -1.70402      0.42182      2.43757        -0.009039      0.004142      0.002062
      6.01613     11.53815      6.38821         0.010697      0.013602     -0.002097
     -2.44114     11.24244      6.47387         0.013586      0.002942      0.010347
     -5.92660      0.36189      9.63391        -0.005151     -0.005756     -0.000350
      2.55980      0.38665      9.64068        -0.004943      0.010615     -0.001228
      1.73103     11.24746      5.64567        -0.004643     -0.002438      0.000473
      1.73217     11.32611     13.66083         0.000760     -0.000664     -0.005543
      5.91865      6.14440      6.46562         0.010848     -0.006248      0.016722
     -2.62690      6.41712      6.37245        -0.327130      0.059221     -0.299227
     -1.76572      5.34026     10.40938        -0.094123     -0.018679      0.090569
     -1.72952      5.46247      2.43841        -0.016505     -0.004805      0.000083
      1.32021      7.37755      9.35298         0.758227      0.916673      1.004599
 -----------------------------------------------------------------------------------
    total drift:                                0.039064     -0.023988      0.057694


--------------------------------------------------------------------------------------------------------



  FREE ENERGIE OF THE ION-ELECTRON SYSTEM (eV)
  ---------------------------------------------------
  free  energy   TOTEN  =     -1409.29436214 eV

  energy  without entropy=    -1409.29436214  energy(sigma->0) =    -1409.29436214



--------------------------------------------------------------------------------------------------------


    POTLOK:  cpu time    1.4401: real time    1.4401


--------------------------------------------------------------------------------------------------------


 stress matrix after NEB project (eV)
     -4.87576      1.84044      0.88518
      1.84041     -3.57498      0.76098
      0.88520      0.76108     -4.52978
  FORCES: max atom, RMS     1.557054    0.343837
  FORCE total and by dimension    2.147262    1.004599
  Stress total and by dimension    8.159175    4.875756
     LOOP+:  cpu time  482.7083: real time  483.4497
    4ORBIT:  cpu time    0.0000: real time    0.0000



 total charge     

# of ion       s       p       d       tot
------------------------------------------
    1        1.785   4.717   0.018   6.520
    2        1.785   4.717   0.018   6.520
    3        1.787   4.718   0.021   6.525
    4        1.786   4.717   0.018   6.521
    5        1.785   4.716   0.016   6.517
    6        1.785   4.716   0.017   6.519
    7        1.786   4.717   0.018   6.520
    8        1.786   4.717   0.018   6.521
    9        1.554   0.424   9.835  11.814
   10        1.532   0.435   9.830  11.798
   11        1.554   0.418   9.834  11.806
   12        1.553   0.410   9.833  11.796
   13        1.554   0.413   9.833  11.800
   14        1.533   0.431   9.830  11.794
   15        1.554   0.419   9.834  11.807
   16        1.536   0.499   9.839  11.873
   17        1.614   3.283   0.006   4.904
   18        1.615   3.282   0.007   4.903
   19        1.615   3.288   0.007   4.910
   20        1.617   3.267   0.008   4.891
   21        1.615   3.287   0.007   4.909
   22        1.614   3.283   0.007   4.904
   23        1.614   3.280   0.006   4.900
   24        1.614   3.280   0.006   4.900
   25        1.614   3.278   0.006   4.897
   26        1.614   3.278   0.006   4.898
   27        1.614   3.281   0.006   4.901
   28        1.614   3.282   0.006   4.902
   29        1.614   3.288   0.007   4.909
   30        1.614   3.276   0.006   4.895
   31        1.614   3.285   0.007   4.906
   32        1.614   3.279   0.006   4.899
   33        1.614   3.279   0.006   4.899
   34        1.614   3.282   0.006   4.902
   35        1.614   3.283   0.006   4.903
   36        1.617   3.269   0.007   4.893
   37        1.614   3.279   0.006   4.900
   38        1.614   3.280   0.006   4.899
   39        1.619   3.296   0.012   4.927
--------------------------------------------------
tot         63.791 116.647  78.964 259.403


 total amount of memory used by VASP MPI-rank0    60641. kBytes
=======================================================================

   base      :      30000. kBytes
   nonlr-proj:       6476. kBytes
   fftplans  :       8423. kBytes
   grid      :       7465. kBytes
   one-center:         77. kBytes
   wavefun   :       8200. kBytes

  
  
 General timing and accounting informations for this job:
 ========================================================
  
                  Total CPU time used (sec):      495.081
                            User time (sec):      493.593
                          System time (sec):        1.488
                         Elapsed time (sec):      496.085
  
                   Maximum memory used (kb):       78044.
                   Average memory used (kb):           0.
  
                          Minor page faults:        21003
                          Major page faults:            0
                 Voluntary context switches:         1954
