<?xml version="1.0" encoding="ISO-8859-1"?>
<modeling>
 <generator>
  <i name="program" type="string">vasp </i>
  <i name="version" type="string">5.4.4.18Apr17-6-g9f103f2a35  </i>
  <i name="subversion" type="string">(build Jun 22 2020 09:27:21) complex            parallel </i>
  <i name="platform" type="string">tx2_gcc-7.3_libsci-18.07_cray-fftw-3.3.8 </i>
  <i name="date" type="string">2021 10 11 </i>
  <i name="time" type="string">20:34:01 </i>
 </generator>
 <incar>
  <i type="string" name="SYSTEM"> CsPbBr3 cubic bulk</i>
  <i type="string" name="PREC">accurate</i>
  <i type="string" name="ALGO"> NORMAL   ! Electronic minimisation algo</i>
  <i type="logical" name="ADDGRID"> T  </i>
  <i type="int" name="ISPIN">     1</i>
  <i type="int" name="NELM">   200</i>
  <i type="int" name="IBRION">     2</i>
  <i name="EDIFF">      0.00000100</i>
  <i name="EDIFFG">     -0.01000000</i>
  <i type="int" name="NSW">     0</i>
  <i type="int" name="ISIF">     2</i>
  <i type="int" name="ISYM">     0</i>
  <i name="ENCUT">    300.00000000</i>
  <i name="POTIM">      0.50000000</i>
  <i name="NUPDOWN">      0.00000000</i>
  <i name="NELECT">    344.00000000</i>
  <i type="string" name="LREAL"> AUTO</i>
  <i type="int" name="ISMEAR">     0</i>
  <i name="SIGMA">      0.01000000</i>
  <i type="logical" name="LWAVE"> F  </i>
  <i type="logical" name="LCHARG"> F  </i>
  <i type="logical" name="LVHAR"> T  </i>
  <i type="int" name="LORBIT">    10</i>
  <i type="logical" name="LASPH"> T  </i>
  <v type="int" name="KPOINT_BSE">    -1     0     0     0</v>
  <i type="int" name="NELM">   200</i>
  <i type="string" name="METAGGA"> SCAN       ! PBE exchange-correlation</i>
  <i type="logical" name="LASPH"> T  </i>
 </incar>
 <structure name="primitive_cell" >
  <crystal>
   <varray name="basis" >
    <v>       8.45648900       0.00000000       8.04030100 </v>
    <v>       0.00000000      11.72984700       0.00000000 </v>
    <v>      -8.45648900       0.00000000       8.04030100 </v>
   </varray>
   <i name="volume">   1595.08833419 </i>
   <varray name="rec_basis" >
    <v>       0.05912619      -0.00000000       0.06218673 </v>
    <v>       0.00000000       0.08525260      -0.00000000 </v>
    <v>      -0.05912619       0.00000000       0.06218673 </v>
   </varray>
  </crystal>
  <varray name="positions" >
   <v>       0.26921000       0.24964000       0.20247400 </v>
   <v>       0.05083200       0.03596100       0.25233700 </v>
   <v>      -0.47054300       0.24865300       0.04071500 </v>
   <v>       0.04937700       0.46569000       0.25389700 </v>
   <v>       0.47052700       0.24139700       0.46815900 </v>
   <v>       0.24868400       0.03085200      -0.05048100 </v>
   <v>       0.24731700       0.46970800      -0.05226900 </v>
   <v>       0.45207300      -0.46600200       0.25279900 </v>
   <v>       0.45343500      -0.04112500       0.24873700 </v>
   <v>      -0.02394700       0.25085000      -0.02735400 </v>
   <v>       0.49879200       0.49718500       0.00052900 </v>
   <v>       0.49864500      -0.00010500      -0.00046100 </v>
   <v>       0.00106800       0.00149700      -0.00005100 </v>
   <v>       0.00015900       0.49945700       0.00041600 </v>
   <v>       0.01689300       0.25730300      -0.46329600 </v>
   <v>       0.48479000       0.49350700      -0.49657300 </v>
   <v>      -0.49587200      -0.00053100       0.49817200 </v>
   <v>       0.25825300      -0.04155300      -0.45307600 </v>
   <v>       0.24096300      -0.45292400      -0.44840000 </v>
   <v>      -0.20279300       0.24749000       0.22639500 </v>
   <v>       0.28233300       0.24481300      -0.27068000 </v>
   <v>       0.00350600       0.00255700       0.49981600 </v>
   <v>      -0.00125500      -0.49108600      -0.49935600 </v>
   <v>       0.22227600      -0.24850200       0.27496100 </v>
   <v>      -0.24912600       0.03296300       0.44817100 </v>
   <v>      -0.45707500       0.45527100      -0.24827400 </v>
   <v>      -0.24797700      -0.47617400       0.05212800 </v>
   <v>      -0.24702700      -0.01634300       0.04155100 </v>
   <v>       0.01502700      -0.24929400       0.03181300 </v>
   <v>      -0.45268500       0.02652800      -0.25012200 </v>
   <v>       0.47324600      -0.25157100      -0.03550300 </v>
   <v>      -0.04806100      -0.03442000      -0.25289400 </v>
   <v>      -0.34031000      -0.37104500      -0.49642800 </v>
   <v>      -0.05244000      -0.46647600      -0.25366200 </v>
   <v>      -0.02917900      -0.24501700       0.45240000 </v>
   <v>       0.20185700      -0.24478600      -0.21737700 </v>
   <v>      -0.28138900      -0.23781600       0.24817900 </v>
   <v>      -0.22770400       0.23886000      -0.26997500 </v>
   <v>      -0.26453300      -0.24976400      -0.19513300 </v>
  </varray>
 </structure>
 <varray name="primitive_index" >
  <v type="int" >        1 </v>
  <v type="int" >       28 </v>
  <v type="int" >       22 </v>
  <v type="int" >       38 </v>
  <v type="int" >       20 </v>
  <v type="int" >       31 </v>
  <v type="int" >       24 </v>
  <v type="int" >       25 </v>
  <v type="int" >       33 </v>
  <v type="int" >       19 </v>
  <v type="int" >       13 </v>
  <v type="int" >       11 </v>
  <v type="int" >        9 </v>
  <v type="int" >       15 </v>
  <v type="int" >       23 </v>
  <v type="int" >       16 </v>
  <v type="int" >       10 </v>
  <v type="int" >       30 </v>
  <v type="int" >       36 </v>
  <v type="int" >        6 </v>
  <v type="int" >        5 </v>
  <v type="int" >       12 </v>
  <v type="int" >       14 </v>
  <v type="int" >        8 </v>
  <v type="int" >       32 </v>
  <v type="int" >       37 </v>
  <v type="int" >       35 </v>
  <v type="int" >       29 </v>
  <v type="int" >       21 </v>
  <v type="int" >       27 </v>
  <v type="int" >       17 </v>
  <v type="int" >       34 </v>
  <v type="int" >       39 </v>
  <v type="int" >       26 </v>
  <v type="int" >       18 </v>
  <v type="int" >        4 </v>
  <v type="int" >        3 </v>
  <v type="int" >        2 </v>
  <v type="int" >        7 </v>
 </varray>
 <kpoints>
  <generation param="Gamma">
   <v type="int" name="divisions">       2        2        2 </v>
   <v name="usershift">      0.00000000       0.00000000       0.00000000 </v>
   <v name="genvec1">      0.50000000       0.00000000       0.00000000 </v>
   <v name="genvec2">      0.00000000       0.50000000       0.00000000 </v>
   <v name="genvec3">      0.00000000       0.00000000       0.50000000 </v>
   <v name="shift">      0.00000000       0.00000000       0.00000000 </v>
  </generation>
  <varray name="kpointlist" >
   <v>       0.00000000       0.00000000       0.00000000 </v>
   <v>       0.50000000       0.00000000       0.00000000 </v>
   <v>       0.00000000       0.50000000       0.00000000 </v>
   <v>       0.50000000       0.50000000       0.00000000 </v>
   <v>       0.00000000       0.00000000       0.50000000 </v>
   <v>       0.50000000       0.00000000       0.50000000 </v>
   <v>       0.00000000       0.50000000       0.50000000 </v>
   <v>       0.50000000       0.50000000       0.50000000 </v>
  </varray>
  <varray name="weights" >
   <v>       0.12500000 </v>
   <v>       0.12500000 </v>
   <v>       0.12500000 </v>
   <v>       0.12500000 </v>
   <v>       0.12500000 </v>
   <v>       0.12500000 </v>
   <v>       0.12500000 </v>
   <v>       0.12500000 </v>
  </varray>
 </kpoints>
 <parameters>
  <separator name="general" >
   <i type="string" name="SYSTEM">CsPbBr3 cubic bulk</i>
   <i type="logical" name="LCOMPAT"> F  </i>
  </separator>
  <separator name="electronic" >
   <i type="string" name="PREC">accura</i>
   <i name="ENMAX">    300.00000000</i>
   <i name="ENAUG">    503.85200000</i>
   <i name="EDIFF">      0.00000100</i>
   <i type="int" name="IALGO">    38</i>
   <i type="int" name="IWAVPR">    10</i>
   <i type="int" name="NBANDS">   208</i>
   <i name="NELECT">    344.00000000</i>
   <i type="int" name="TURBO">     0</i>
   <i type="int" name="IRESTART">     0</i>
   <i type="int" name="NREBOOT">     0</i>
   <i type="int" name="NMIN">     0</i>
   <i name="EREF">      0.00000000</i>
   <separator name="electronic smearing" >
    <i type="int" name="ISMEAR">     0</i>
    <i name="SIGMA">      0.01000000</i>
    <i name="KSPACING">      0.50000000</i>
    <i type="logical" name="KGAMMA"> T  </i>
   </separator>
   <separator name="electronic projectors" >
    <i type="logical" name="LREAL"> T  </i>
    <v name="ROPT">     -0.00025000     -0.00025000     -0.00025000</v>
    <i type="int" name="LMAXPAW">  -100</i>
    <i type="int" name="LMAXMIX">     2</i>
    <i type="logical" name="NLSPLINE"> F  </i>
   </separator>
   <separator name="electronic startup" >
    <i type="int" name="ISTART">     0</i>
    <i type="int" name="ICHARG">     2</i>
    <i type="int" name="INIWAV">     1</i>
   </separator>
   <separator name="electronic spin" >
    <i type="int" name="ISPIN">     1</i>
    <i type="logical" name="LNONCOLLINEAR"> F  </i>
    <v name="MAGMOM">      0.00000000      0.00000000      0.00000000      0.00000000      0.00000000      0.00000000      0.00000000      0.00000000      0.00000000      0.00000000      0.00000000      0.00000000      0.00000000      0.00000000      0.00000000      0.00000000      0.00000000      0.00000000      0.00000000      0.00000000
      0.00000000      0.00000000      0.00000000      0.00000000      0.00000000      0.00000000      0.00000000      0.00000000      0.00000000      0.00000000      0.00000000      0.00000000      0.00000000      0.00000000      0.00000000      0.00000000      0.00000000      0.00000000      0.00000000</v>
    <i name="NUPDOWN">      0.00000000</i>
    <i type="logical" name="LSORBIT"> F  </i>
    <v name="SAXIS">      0.00000000      0.00000000      1.00000000</v>
    <i type="logical" name="LSPIRAL"> F  </i>
    <v name="QSPIRAL">      0.00000000      0.00000000      0.00000000</v>
    <i type="logical" name="LZEROZ"> F  </i>
   </separator>
   <separator name="electronic exchange-correlation" >
    <i type="logical" name="LASPH"> T  </i>
    <i type="logical" name="LMETAGGA"> F  </i>
   </separator>
   <separator name="electronic convergence" >
    <i type="int" name="NELM">   200</i>
    <i type="int" name="NELMDL">    -5</i>
    <i type="int" name="NELMIN">     2</i>
    <i name="ENINI">    300.00000000</i>
    <separator name="electronic convergence detail" >
     <i type="logical" name="LDIAG"> T  </i>
     <i type="logical" name="LSUBROT"> F  </i>
     <i name="WEIMIN">      0.00000000</i>
     <i name="EBREAK">      0.00000000</i>
     <i name="DEPER">      0.30000000</i>
     <i type="int" name="NRMM">     4</i>
     <i name="TIME">      0.40000000</i>
    </separator>
   </separator>
   <separator name="electronic mixer" >
    <i name="AMIX">      0.40000000</i>
    <i name="BMIX">      1.00000000</i>
    <i name="AMIN">      0.10000000</i>
    <i name="AMIX_MAG">      1.60000000</i>
    <i name="BMIX_MAG">      1.00000000</i>
    <separator name="electronic mixer details" >
     <i type="int" name="IMIX">     4</i>
     <i type="logical" name="MIXFIRST"> F  </i>
     <i type="int" name="MAXMIX">   -45</i>
     <i name="WC">    100.00000000</i>
     <i type="int" name="INIMIX">     1</i>
     <i type="int" name="MIXPRE">     1</i>
     <i type="int" name="MREMOVE">     5</i>
    </separator>
   </separator>
   <separator name="electronic dipolcorrection" >
    <i type="logical" name="LDIPOL"> F  </i>
    <i type="logical" name="LMONO"> F  </i>
    <i type="int" name="IDIPOL">     0</i>
    <i name="EPSILON">      1.00000000</i>
    <v name="DIPOL">   -100.00000000   -100.00000000   -100.00000000</v>
    <i name="EFIELD">      0.00000000</i>
   </separator>
  </separator>
  <separator name="grids" >
   <i type="int" name="NGX">    70</i>
   <i type="int" name="NGY">    70</i>
   <i type="int" name="NGZ">    70</i>
   <i type="int" name="NGXF">   140</i>
   <i type="int" name="NGYF">   140</i>
   <i type="int" name="NGZF">   140</i>
   <i type="logical" name="ADDGRID"> T  </i>
  </separator>
  <separator name="ionic" >
   <i type="int" name="NSW">     0</i>
   <i type="int" name="IBRION">    -1</i>
   <i type="int" name="MDALGO">     0</i>
   <i type="int" name="ISIF">     2</i>
   <i name="PSTRESS">      0.00000000</i>
   <i name="EDIFFG">     -0.01000000</i>
   <i type="int" name="NFREE">     1</i>
   <i name="POTIM">      0.50000000</i>
   <i name="SMASS">     -3.00000000</i>
   <i name="SCALEE">      1.00000000</i>
  </separator>
  <separator name="ionic md" >
   <i name="TEBEG">      0.00010000</i>
   <i name="TEEND">      0.00010000</i>
   <i type="int" name="NBLOCK">     1</i>
   <i type="int" name="KBLOCK">     1</i>
   <i type="int" name="NPACO">   256</i>
   <i name="APACO">     16.00000000</i>
  </separator>
  <separator name="symmetry" >
   <i type="int" name="ISYM">     0</i>
   <i name="SYMPREC">      0.00001000</i>
  </separator>
  <separator name="dos" >
   <i type="int" name="LORBIT">    10</i>
   <v name="RWIGS">     -1.00000000     -1.00000000     -1.00000000</v>
   <i type="int" name="NEDOS">   301</i>
   <i name="EMIN">     10.00000000</i>
   <i name="EMAX">    -10.00000000</i>
   <i name="EFERMI">      0.00000000</i>
  </separator>
  <separator name="writing" >
   <i type="int" name="NWRITE">     2</i>
   <i type="logical" name="LWAVE"> F  </i>
   <i type="logical" name="LDOWNSAMPLE"> F  </i>
   <i type="logical" name="LCHARG"> F  </i>
   <i type="logical" name="LPARD"> F  </i>
   <i type="logical" name="LVTOT"> F  </i>
   <i type="logical" name="LVHAR"> T  </i>
   <i type="logical" name="LELF"> F  </i>
   <i type="logical" name="LOPTICS"> F  </i>
   <v name="STM">      0.00000000      0.00000000      0.00000000      0.00000000      0.00000000      0.00000000      0.00000000</v>
  </separator>
  <separator name="performance" >
   <i type="int" name="NPAR">     8</i>
   <i type="int" name="NSIM">     4</i>
   <i type="int" name="NBLK">    -1</i>
   <i type="logical" name="LPLANE"> T  </i>
   <i type="logical" name="LSCALAPACK"> T  </i>
   <i type="logical" name="LSCAAWARE"> F  </i>
   <i type="logical" name="LSCALU"> F  </i>
   <i type="logical" name="LASYNC"> F  </i>
   <i type="logical" name="LORBITALREAL"> F  </i>
  </separator>
  <separator name="miscellaneous" >
   <i type="int" name="IDIOT">     3</i>
   <i type="int" name="ISPECIAL">     0</i>
   <i type="logical" name="LMUSIC"> F  </i>
   <v name="POMASS">    132.90000000    207.20000000     79.90400000</v>
   <v name="DARWINR">      0.00000000      0.00000000      0.00000000</v>
   <v name="DARWINV">      1.00000000      1.00000000      1.00000000</v>
   <i type="logical" name="LCORR"> T  </i>
  </separator>
  <i type="logical" name="GGA_COMPAT"> T  </i>
  <i type="logical" name="LBERRY"> F  </i>
  <i type="int" name="ICORELEVEL">     0</i>
  <i type="logical" name="LDAU"> F  </i>
  <i type="int" name="I_CONSTRAINED_M">     0</i>
  <separator name="electronic exchange-correlation" >
   <i type="string" name="GGA">--</i>
   <i type="int" name="VOSKOWN">     0</i>
   <i type="logical" name="LHFCALC"> F  </i>
   <i type="string" name="PRECFOCK"></i>
   <i type="logical" name="LSYMGRAD"> F  </i>
   <i type="logical" name="LHFONE"> F  </i>
   <i type="logical" name="LRHFCALC"> F  </i>
   <i type="logical" name="LTHOMAS"> F  </i>
   <i type="logical" name="LMODELHF"> F  </i>
   <i name="ENCUT4O">     -1.00000000</i>
   <i type="int" name="EXXOEP">     0</i>
   <i type="int" name="FOURORBIT">     0</i>
   <i name="AEXX">      0.00000000</i>
   <i name="HFALPHA">      0.00000000</i>
   <i name="MCALPHA">      0.00000000</i>
   <i name="ALDAX">      1.00000000</i>
   <i name="AGGAX">      1.00000000</i>
   <i name="ALDAC">      1.00000000</i>
   <i name="AGGAC">      1.00000000</i>
   <i type="int" name="NKREDX">     1</i>
   <i type="int" name="NKREDY">     1</i>
   <i type="int" name="NKREDZ">     1</i>
   <i type="logical" name="SHIFTRED"> F  </i>
   <i type="logical" name="ODDONLY"> F  </i>
   <i type="logical" name="EVENONLY"> F  </i>
   <i type="int" name="LMAXFOCK">     0</i>
   <i type="int" name="NMAXFOCKAE">     0</i>
   <i type="logical" name="LFOCKAEDFT"> F  </i>
   <i name="HFSCREEN">      0.00000000</i>
   <i name="HFSCREENC">      0.00000000</i>
   <i type="int" name="NBANDSGWLOW">     0</i>
  </separator>
  <separator name="vdW DFT" >
   <i type="logical" name="LUSE_VDW"> F  </i>
   <i name="Zab_VDW">     -0.84910000</i>
   <i name="PARAM1">      0.12340000</i>
   <i name="PARAM2">      1.00000000</i>
   <i name="PARAM3">      0.00000000</i>
  </separator>
  <separator name="model GW" >
   <i type="int" name="MODEL_GW">     0</i>
   <i name="MODEL_EPS0">     24.53982053</i>
   <i name="MODEL_ALPHA">      1.00000000</i>
  </separator>
  <separator name="linear response parameters" >
   <i type="logical" name="LEPSILON"> F  </i>
   <i type="logical" name="LRPA"> F  </i>
   <i type="logical" name="LNABLA"> F  </i>
   <i type="logical" name="LVEL"> F  </i>
   <i type="int" name="KINTER">     0</i>
   <i name="CSHIFT">      0.10000000</i>
   <i name="OMEGAMAX">     -1.00000000</i>
   <i name="DEG_THRESHOLD">      0.00200000</i>
   <i name="RTIME">     -0.10000000</i>
   <i name="WPLASMAI">      0.00000000</i>
   <v name="DFIELD">      0.00000000      0.00000000      0.00000000</v>
   <v name="WPLASMA">      0.00000000      0.00000000      0.00000000      0.00000000      0.00000000      0.00000000      0.00000000      0.00000000      0.00000000</v>
  </separator>
  <separator name="orbital magnetization" >
   <i type="logical" name="NUCIND"> F  </i>
   <v name="MAGPOS">      0.00000000      0.00000000      0.00000000</v>
   <i type="logical" name="LNICSALL"> T  </i>
   <i type="logical" name="ORBITALMAG"> F  </i>
   <i type="logical" name="LMAGBLOCH"> F  </i>
   <i type="logical" name="LCHIMAG"> F  </i>
   <i type="logical" name="LGAUGE"> T  </i>
   <i type="int" name="MAGATOM">     0</i>
   <v name="MAGDIPOL">      0.00000000      0.00000000      0.00000000</v>
   <v name="AVECCONST">      0.00000000      0.00000000      0.00000000</v>
  </separator>
  <separator name="response functions" >
   <i type="logical" name="LADDER"> F  </i>
   <i type="logical" name="LRPAFORCE"> F  </i>
   <i type="logical" name="LFXC"> F  </i>
   <i type="logical" name="LHARTREE"> T  </i>
   <i type="int" name="IBSE">     0</i>
   <v type="int" name="KPOINT">    -1     0     0     0</v>
   <i type="logical" name="LTCTE"> F  </i>
   <i type="logical" name="LTETE"> F  </i>
   <i type="logical" name="LTRIPLET"> F  </i>
   <i type="logical" name="LFXCEPS"> F  </i>
   <i type="logical" name="LFXHEG"> F  </i>
   <i type="int" name="NATURALO">     2</i>
   <i type="logical" name="L2ORDER"> F  </i>
   <i type="logical" name="LMP2LT"> F  </i>
   <i type="logical" name="LUSEW"> F  </i>
   <i name="ENCUTGW">     -2.00000000</i>
   <i name="ENCUTGWSOFT">     -2.00000000</i>
   <i name="ENCUTLF">     -1.00000000</i>
   <i type="int" name="LMAXMP2">    -1</i>
   <i name="SCISSOR">      0.00000000</i>
   <i type="int" name="NOMEGA">     0</i>
   <i type="int" name="NOMEGAR">     0</i>
   <i type="int" name="NBANDSGW">    -1</i>
   <i type="int" name="NBANDSO">    -1</i>
   <i type="int" name="NBANDSV">    -1</i>
   <i type="int" name="NELM">   200</i>
   <i type="int" name="NELMHF">     1</i>
   <i type="int" name="DIM">     3</i>
   <i type="int" name="ANTIRES">     0</i>
   <i name="OMEGAMAX">    -30.00000000</i>
   <i name="OMEGAMIN">    -30.00000000</i>
   <i name="OMEGATL">   -200.00000000</i>
   <i type="int" name="OMEGAGRID">   140</i>
   <i name="CSHIFT">     -0.10000000</i>
   <i type="logical" name="SELFENERGY"> F  </i>
   <i type="logical" name="LSPECTRAL"> F  </i>
   <i type="logical" name="LSPECTRALGW"> F  </i>
   <i type="logical" name="LSINGLES"> F  </i>
   <i type="logical" name="LFERMIGW"> F  </i>
   <i type="logical" name="ODDONLYGW"> F  </i>
   <i type="logical" name="EVENONLYGW"> F  </i>
   <i type="int" name="NKREDLFX">     1</i>
   <i type="int" name="NKREDLFY">     1</i>
   <i type="int" name="NKREDLFZ">     1</i>
   <i type="int" name="MAXMEM">  2800</i>
   <i type="int" name="TELESCOPE">     0</i>
   <i type="int" name="TAUPAR">     1</i>
   <i type="int" name="OMEGAPAR">    -1</i>
   <i name="LAMBDA">      1.00000000</i>
  </separator>
  <separator name="External order field" >
   <i name="OFIELD_KAPPA">      0.00000000</i>
   <v name="OFIELD_K">      0.00000000      0.00000000      0.00000000</v>
   <i name="OFIELD_Q6_NEAR">      0.00000000</i>
   <i name="OFIELD_Q6_FAR">      0.00000000</i>
   <i name="OFIELD_A">      0.00000000</i>
  </separator>
 </parameters>
 <atominfo>
  <atoms>      39 </atoms>
  <types>       3 </types>
  <array name="atoms" >
   <dimension dim="1">ion</dimension>
   <field type="string">element</field>
   <field type="int">atomtype</field>
   <set>
    <rc><c>Cs</c><c>   1</c></rc>
    <rc><c>Cs</c><c>   1</c></rc>
    <rc><c>Cs</c><c>   1</c></rc>
    <rc><c>Cs</c><c>   1</c></rc>
    <rc><c>Cs</c><c>   1</c></rc>
    <rc><c>Cs</c><c>   1</c></rc>
    <rc><c>Cs</c><c>   1</c></rc>
    <rc><c>Cs</c><c>   1</c></rc>
    <rc><c>Pb</c><c>   2</c></rc>
    <rc><c>Pb</c><c>   2</c></rc>
    <rc><c>Pb</c><c>   2</c></rc>
    <rc><c>Pb</c><c>   2</c></rc>
    <rc><c>Pb</c><c>   2</c></rc>
    <rc><c>Pb</c><c>   2</c></rc>
    <rc><c>Pb</c><c>   2</c></rc>
    <rc><c>Pb</c><c>   2</c></rc>
    <rc><c>Br</c><c>   3</c></rc>
    <rc><c>Br</c><c>   3</c></rc>
    <rc><c>Br</c><c>   3</c></rc>
    <rc><c>Br</c><c>   3</c></rc>
    <rc><c>Br</c><c>   3</c></rc>
    <rc><c>Br</c><c>   3</c></rc>
    <rc><c>Br</c><c>   3</c></rc>
    <rc><c>Br</c><c>   3</c></rc>
    <rc><c>Br</c><c>   3</c></rc>
    <rc><c>Br</c><c>   3</c></rc>
    <rc><c>Br</c><c>   3</c></rc>
    <rc><c>Br</c><c>   3</c></rc>
    <rc><c>Br</c><c>   3</c></rc>
    <rc><c>Br</c><c>   3</c></rc>
    <rc><c>Br</c><c>   3</c></rc>
    <rc><c>Br</c><c>   3</c></rc>
    <rc><c>Br</c><c>   3</c></rc>
    <rc><c>Br</c><c>   3</c></rc>
    <rc><c>Br</c><c>   3</c></rc>
    <rc><c>Br</c><c>   3</c></rc>
    <rc><c>Br</c><c>   3</c></rc>
    <rc><c>Br</c><c>   3</c></rc>
    <rc><c>Br</c><c>   3</c></rc>
   </set>
  </array>
  <array name="atomtypes" >
   <dimension dim="1">type</dimension>
   <field type="int">atomspertype</field>
   <field type="string">element</field>
   <field>mass</field>
   <field>valence</field>
   <field type="string">pseudopotential</field>
   <set>
    <rc><c>   8</c><c>Cs</c><c>    132.90000000</c><c>      9.00000000</c><c>  PAW_PBE Cs_sv 08Apr2002               </c></rc>
    <rc><c>   8</c><c>Pb</c><c>    207.20000000</c><c>     14.00000000</c><c>  PAW_PBE Pb_d 06Sep2000                </c></rc>
    <rc><c>  23</c><c>Br</c><c>     79.90400000</c><c>      7.00000000</c><c>  PAW_PBE Br 06Sep2000                  </c></rc>
   </set>
  </array>
 </atominfo>
 <structure name="initialpos" >
  <crystal>
   <varray name="basis" >
    <v>       8.45648900       0.00000000       8.04030100 </v>
    <v>       0.00000000      11.72984700       0.00000000 </v>
    <v>      -8.45648900       0.00000000       8.04030100 </v>
   </varray>
   <i name="volume">   1595.08833419 </i>
   <varray name="rec_basis" >
    <v>       0.05912619      -0.00000000       0.06218673 </v>
    <v>       0.00000000       0.08525260      -0.00000000 </v>
    <v>      -0.05912619       0.00000000       0.06218673 </v>
   </varray>
  </crystal>
  <varray name="positions" >
   <v>       0.26921000       0.24964000       0.20247400 </v>
   <v>       0.77229600       0.23886000       0.73002500 </v>
   <v>       0.71861100       0.76218400       0.24817900 </v>
   <v>       0.20185700       0.75521400       0.78262300 </v>
   <v>       0.28233300       0.24481300       0.72932000 </v>
   <v>       0.79720700       0.24749000       0.22639500 </v>
   <v>       0.73546700       0.75023600       0.80486700 </v>
   <v>       0.22227600       0.75149800       0.27496100 </v>
   <v>       0.00106800       0.00149700       0.99994900 </v>
   <v>       0.50412800       0.99946900       0.49817200 </v>
   <v>       0.49864500       0.99989500       0.99953900 </v>
   <v>       0.00350600       0.00255700       0.49981600 </v>
   <v>       0.49879200       0.49718500       0.00052900 </v>
   <v>       0.99874500       0.50891400       0.50064400 </v>
   <v>       0.00015900       0.49945700       0.00041600 </v>
   <v>       0.48479000       0.49350700       0.50342700 </v>
   <v>       0.47324600       0.74842900       0.96449700 </v>
   <v>       0.97082100       0.75498300       0.45240000 </v>
   <v>       0.97605300       0.25085000       0.97264600 </v>
   <v>       0.47052700       0.24139700       0.46815900 </v>
   <v>       0.01502700       0.75070600       0.03181300 </v>
   <v>       0.52945700       0.24865300       0.04071500 </v>
   <v>       0.01689300       0.25730300       0.53670400 </v>
   <v>       0.24731700       0.46970800       0.94773100 </v>
   <v>       0.45207300       0.53399800       0.25279900 </v>
   <v>       0.94756000       0.53352400       0.74633800 </v>
   <v>       0.54731500       0.02652800       0.74987800 </v>
   <v>       0.05083200       0.03596100       0.25233700 </v>
   <v>       0.75297300       0.98365700       0.04155100 </v>
   <v>       0.25825300       0.95844700       0.54692400 </v>
   <v>       0.24868400       0.03085200       0.94951900 </v>
   <v>       0.75087400       0.03296300       0.44817100 </v>
   <v>       0.45343500       0.95887500       0.24873700 </v>
   <v>       0.95193900       0.96558000       0.74710600 </v>
   <v>       0.75202300       0.52382600       0.05212800 </v>
   <v>       0.24096300       0.54707600       0.55160000 </v>
   <v>       0.54292500       0.45527100       0.75172600 </v>
   <v>       0.04937700       0.46569000       0.25389700 </v>
   <v>       0.65969000       0.62895500       0.50357200 </v>
  </varray>
 </structure>
 <calculation>
  <scstep>
   <time name="dav">   16.45   16.46</time>
   <time name="total">   17.91   17.93</time>
   <energy>
    <i name="alphaZ">    872.70583573 </i>
    <i name="ewald"> -17918.39184714 </i>
    <i name="hartreedc">  -7437.78173089 </i>
    <i name="XCdc">    908.21398668 </i>
    <i name="pawpsdc">  21345.28103884 </i>
    <i name="pawaedc"> -22405.85761495 </i>
    <i name="eentropy">     -0.00264920 </i>
    <i name="bandstr">   -241.81463753 </i>
    <i name="atom">  26212.11861568 </i>
    <i name="e_fr_energy">   1334.47099722 </i>
    <i name="e_wo_entrp">   1334.47364642 </i>
    <i name="e_0_energy">   1334.47232182 </i>
   </energy>
  </scstep>
  <scstep>
   <time name="dav">   18.44   18.47</time>
   <time name="total">   18.44   18.47</time>
   <energy>
    <i name="e_fr_energy">  -1118.04477589 </i>
    <i name="e_wo_entrp">  -1118.04477589 </i>
    <i name="e_0_energy">  -1118.04477589 </i>
   </energy>
  </scstep>
  <scstep>
   <time name="dav">   19.25   19.30</time>
   <time name="total">   19.25   19.30</time>
   <energy>
    <i name="e_fr_energy">  -1475.13269637 </i>
    <i name="e_wo_entrp">  -1475.13269637 </i>
    <i name="e_0_energy">  -1475.13269637 </i>
   </energy>
  </scstep>
  <scstep>
   <time name="dav">   17.89   17.89</time>
   <time name="total">   17.89   17.89</time>
   <energy>
    <i name="e_fr_energy">  -1486.72351046 </i>
    <i name="e_wo_entrp">  -1486.72351046 </i>
    <i name="e_0_energy">  -1486.72351046 </i>
   </energy>
  </scstep>
  <scstep>
   <time name="dav">   19.20   19.26</time>
   <time name="total">   21.90   21.95</time>
   <energy>
    <i name="e_fr_energy">  -1487.21914491 </i>
    <i name="e_wo_entrp">  -1487.21914491 </i>
    <i name="e_0_energy">  -1487.21914491 </i>
   </energy>
  </scstep>
  <scstep>
   <time name="dav">   18.92   18.92</time>
   <time name="total">   23.07   23.12</time>
   <energy>
    <i name="e_fr_energy">  -1409.56483941 </i>
    <i name="e_wo_entrp">  -1409.56483941 </i>
    <i name="e_0_energy">  -1409.56483941 </i>
   </energy>
  </scstep>
  <scstep>
   <time name="dav">   18.20   18.20</time>
   <time name="total">   22.39   22.40</time>
   <energy>
    <i name="e_fr_energy">  -1409.04705756 </i>
    <i name="e_wo_entrp">  -1409.04705756 </i>
    <i name="e_0_energy">  -1409.04705756 </i>
   </energy>
  </scstep>
  <scstep>
   <time name="dav">   18.07   18.08</time>
   <time name="total">   22.24   22.27</time>
   <energy>
    <i name="e_fr_energy">  -1409.22102834 </i>
    <i name="e_wo_entrp">  -1409.22102834 </i>
    <i name="e_0_energy">  -1409.22102834 </i>
   </energy>
  </scstep>
  <scstep>
   <time name="dav">   17.51   17.52</time>
   <time name="total">   21.68   21.68</time>
   <energy>
    <i name="e_fr_energy">  -1409.28652771 </i>
    <i name="e_wo_entrp">  -1409.28652771 </i>
    <i name="e_0_energy">  -1409.28652771 </i>
   </energy>
  </scstep>
  <scstep>
   <time name="dav">   19.45   19.45</time>
   <time name="total">   23.59   23.65</time>
   <energy>
    <i name="e_fr_energy">  -1409.28992504 </i>
    <i name="e_wo_entrp">  -1409.28992504 </i>
    <i name="e_0_energy">  -1409.28992504 </i>
   </energy>
  </scstep>
  <scstep>
   <time name="dav">   17.40   17.40</time>
   <time name="total">   21.57   21.59</time>
   <energy>
    <i name="e_fr_energy">  -1409.29193332 </i>
    <i name="e_wo_entrp">  -1409.29193332 </i>
    <i name="e_0_energy">  -1409.29193332 </i>
   </energy>
  </scstep>
  <scstep>
   <time name="dav">   16.88   16.88</time>
   <time name="total">   21.05   21.08</time>
   <energy>
    <i name="e_fr_energy">  -1409.29473392 </i>
    <i name="e_wo_entrp">  -1409.29473392 </i>
    <i name="e_0_energy">  -1409.29473392 </i>
   </energy>
  </scstep>
  <scstep>
   <time name="dav">   19.13   19.13</time>
   <time name="total">   23.33   23.34</time>
   <energy>
    <i name="e_fr_energy">  -1409.29438256 </i>
    <i name="e_wo_entrp">  -1409.29438256 </i>
    <i name="e_0_energy">  -1409.29438256 </i>
   </energy>
  </scstep>
  <scstep>
   <time name="dav">   18.02   18.02</time>
   <time name="total">   22.18   22.21</time>
   <energy>
    <i name="e_fr_energy">  -1409.29433229 </i>
    <i name="e_wo_entrp">  -1409.29433229 </i>
    <i name="e_0_energy">  -1409.29433229 </i>
   </energy>
  </scstep>
  <scstep>
   <time name="dav">   17.37   17.37</time>
   <time name="total">   21.53   21.58</time>
   <energy>
    <i name="e_fr_energy">  -1409.29431246 </i>
    <i name="e_wo_entrp">  -1409.29431246 </i>
    <i name="e_0_energy">  -1409.29431246 </i>
   </energy>
  </scstep>
  <scstep>
   <time name="dav">   17.63   17.63</time>
   <time name="total">   21.80   21.83</time>
   <energy>
    <i name="e_fr_energy">  -1409.29437063 </i>
    <i name="e_wo_entrp">  -1409.29437063 </i>
    <i name="e_0_energy">  -1409.29437063 </i>
   </energy>
  </scstep>
  <scstep>
   <time name="dav">   16.94   16.94</time>
   <time name="total">   21.10   21.15</time>
   <energy>
    <i name="e_fr_energy">  -1409.29437278 </i>
    <i name="e_wo_entrp">  -1409.29437278 </i>
    <i name="e_0_energy">  -1409.29437278 </i>
   </energy>
  </scstep>
  <scstep>
   <time name="dav">   14.85   14.85</time>
   <time name="total">   19.03   19.06</time>
   <energy>
    <i name="e_fr_energy">  -1409.29437018 </i>
    <i name="e_wo_entrp">  -1409.29437018 </i>
    <i name="e_0_energy">  -1409.29437018 </i>
   </energy>
  </scstep>
  <scstep>
   <time name="dav">   13.02   13.02</time>
   <time name="total">   17.18   17.23</time>
   <energy>
    <i name="e_fr_energy">  -1409.29436536 </i>
    <i name="e_wo_entrp">  -1409.29436536 </i>
    <i name="e_0_energy">  -1409.29436536 </i>
   </energy>
  </scstep>
  <scstep>
   <time name="dav">   12.56   12.57</time>
   <time name="total">   16.72   16.77</time>
   <energy>
    <i name="e_fr_energy">  -1409.29436177 </i>
    <i name="e_wo_entrp">  -1409.29436177 </i>
    <i name="e_0_energy">  -1409.29436177 </i>
   </energy>
  </scstep>
  <scstep>
   <time name="dav">   12.56   12.56</time>
   <time name="total">   14.05   14.06</time>
   <energy>
    <i name="alphaZ">    872.70583573 </i>
    <i name="ewald"> -17918.39184714 </i>
    <i name="hartreedc">  -7472.62166594 </i>
    <i name="XCdc">    943.83311576 </i>
    <i name="pawpsdc">  22791.21797398 </i>
    <i name="pawaedc"> -23849.97410672 </i>
    <i name="eentropy">     -0.00000000 </i>
    <i name="bandstr">  -2988.18228348 </i>
    <i name="atom">  26212.11861568 </i>
    <i name="e_fr_energy">  -1409.29436214 </i>
    <i name="e_wo_entrp">  -1409.29436214 </i>
    <i name="e_0_energy">  -1409.29436214 </i>
   </energy>
  </scstep>
  <structure>
   <crystal>
    <varray name="basis" >
     <v>       8.45648900       0.00000000       8.04030100 </v>
     <v>       0.00000000      11.72984700       0.00000000 </v>
     <v>      -8.45648900       0.00000000       8.04030100 </v>
    </varray>
    <i name="volume">   1595.08833419 </i>
    <varray name="rec_basis" >
     <v>       0.05912619      -0.00000000       0.06218673 </v>
     <v>       0.00000000       0.08525260      -0.00000000 </v>
     <v>      -0.05912619       0.00000000       0.06218673 </v>
    </varray>
   </crystal>
   <varray name="positions" >
    <v>       0.26921000       0.24964000       0.20247400 </v>
    <v>       0.77229600       0.23886000       0.73002500 </v>
    <v>       0.71861100       0.76218400       0.24817900 </v>
    <v>       0.20185700       0.75521400       0.78262300 </v>
    <v>       0.28233300       0.24481300       0.72932000 </v>
    <v>       0.79720700       0.24749000       0.22639500 </v>
    <v>       0.73546700       0.75023600       0.80486700 </v>
    <v>       0.22227600       0.75149800       0.27496100 </v>
    <v>       0.00106800       0.00149700       0.99994900 </v>
    <v>       0.50412800       0.99946900       0.49817200 </v>
    <v>       0.49864500       0.99989500       0.99953900 </v>
    <v>       0.00350600       0.00255700       0.49981600 </v>
    <v>       0.49879200       0.49718500       0.00052900 </v>
    <v>       0.99874500       0.50891400       0.50064400 </v>
    <v>       0.00015900       0.49945700       0.00041600 </v>
    <v>       0.48479000       0.49350700       0.50342700 </v>
    <v>       0.47324600       0.74842900       0.96449700 </v>
    <v>       0.97082100       0.75498300       0.45240000 </v>
    <v>       0.97605300       0.25085000       0.97264600 </v>
    <v>       0.47052700       0.24139700       0.46815900 </v>
    <v>       0.01502700       0.75070600       0.03181300 </v>
    <v>       0.52945700       0.24865300       0.04071500 </v>
    <v>       0.01689300       0.25730300       0.53670400 </v>
    <v>       0.24731700       0.46970800       0.94773100 </v>
    <v>       0.45207300       0.53399800       0.25279900 </v>
    <v>       0.94756000       0.53352400       0.74633800 </v>
    <v>       0.54731500       0.02652800       0.74987800 </v>
    <v>       0.05083200       0.03596100       0.25233700 </v>
    <v>       0.75297300       0.98365700       0.04155100 </v>
    <v>       0.25825300       0.95844700       0.54692400 </v>
    <v>       0.24868400       0.03085200       0.94951900 </v>
    <v>       0.75087400       0.03296300       0.44817100 </v>
    <v>       0.45343500       0.95887500       0.24873700 </v>
    <v>       0.95193900       0.96558000       0.74710600 </v>
    <v>       0.75202300       0.52382600       0.05212800 </v>
    <v>       0.24096300       0.54707600       0.55160000 </v>
    <v>       0.54292500       0.45527100       0.75172600 </v>
    <v>       0.04937700       0.46569000       0.25389700 </v>
    <v>       0.65969000       0.62895500       0.50357200 </v>
   </varray>
  </structure>
  <varray name="forces" >
   <v>       0.01472639       0.01584815       0.01109045 </v>
   <v>      -0.02231636      -0.00111332      -0.00647237 </v>
   <v>       0.11093184       0.07506124      -0.07743654 </v>
   <v>      -0.00936492      -0.00622633      -0.00823701 </v>
   <v>       0.02419641       0.01942760       0.00030818 </v>
   <v>       0.00801246      -0.00044327      -0.00881899 </v>
   <v>       0.01785776      -0.03257473      -0.02956137 </v>
   <v>      -0.00253239      -0.01899031      -0.00602745 </v>
   <v>      -0.00229150       0.00219191      -0.00018034 </v>
   <v>       0.00711158       0.20089885      -0.04263348 </v>
   <v>      -0.00733038       0.00564320      -0.00045846 </v>
   <v>       0.00579919      -0.03489324       0.00125559 </v>
   <v>      -0.01022618       0.00926410      -0.00589017 </v>
   <v>       0.10061254       0.06949872       0.15892995 </v>
   <v>       0.00807720       0.00076712       0.00628877 </v>
   <v>      -0.69244441      -0.79519933      -0.70662916 </v>
   <v>       0.00467380       0.01515971      -0.00181465 </v>
   <v>       0.00524508      -0.00456250       0.00708469 </v>
   <v>      -0.00645214      -0.00125517      -0.00467022 </v>
   <v>       0.05313615      -0.46642748       0.05886895 </v>
   <v>      -0.00323792       0.00418733      -0.00351785 </v>
   <v>       0.00166324      -0.02024694       0.00146254 </v>
   <v>      -0.00385941       0.00413443      -0.00654398 </v>
   <v>      -0.01168500       0.00074497      -0.01146481 </v>
   <v>       0.06744394      -0.00492246      -0.11213601 </v>
   <v>      -0.00201775      -0.00067263      -0.02048945 </v>
   <v>       0.01168596      -0.00390505      -0.00871645 </v>
   <v>      -0.00903862       0.00414156       0.00206200 </v>
   <v>       0.01069725       0.01360203      -0.00209678 </v>
   <v>       0.01358581       0.00294167       0.01034696 </v>
   <v>      -0.00515141      -0.00575626      -0.00035009 </v>
   <v>      -0.00494346       0.01061505      -0.00122751 </v>
   <v>      -0.00464277      -0.00243822       0.00047260 </v>
   <v>       0.00076037      -0.00066362      -0.00554345 </v>
   <v>       0.01084815      -0.00624759       0.01672206 </v>
   <v>      -0.32713024       0.05922133      -0.29922742 </v>
   <v>      -0.09412260      -0.01867879       0.09056906 </v>
   <v>      -0.01650464      -0.00480457       0.00008322 </v>
   <v>       0.75822698       0.91667286       1.00459898 </v>
  </varray>
  <varray name="stress" >
   <v>      -4.89742546       1.84862060       0.88911475 </v>
   <v>       1.84859008      -3.59086400       0.76435905 </v>
   <v>       0.88912966       0.76446450      -4.54991176 </v>
  </varray>
  <energy>
   <i name="e_fr_energy">  -1409.29436214 </i>
   <i name="e_wo_entrp">  -1409.29436214 </i>
   <i name="e_0_energy">     -0.00000000 </i>
  </energy>
  <time name="totalsc">  482.71  483.45</time>
  <eigenvalues>
   <array>
    <dimension dim="1">band</dimension>
    <dimension dim="2">kpoint</dimension>
    <dimension dim="3">spin</dimension>
    <field>eigene</field>
    <field>occ</field>
    <set>
     <set comment="spin 1">
      <set comment="kpoint 1">
       <r>  -20.8878    1.0000 </r>
       <r>  -20.8162    1.0000 </r>
       <r>  -20.8128    1.0000 </r>
       <r>  -20.7562    1.0000 </r>
       <r>  -20.7383    1.0000 </r>
       <r>  -20.7311    1.0000 </r>
       <r>  -20.7193    1.0000 </r>
       <r>  -20.7044    1.0000 </r>
       <r>  -16.6979    1.0000 </r>
       <r>  -16.6837    1.0000 </r>
       <r>  -16.6689    1.0000 </r>
       <r>  -16.6521    1.0000 </r>
       <r>  -16.6029    1.0000 </r>
       <r>  -16.5888    1.0000 </r>
       <r>  -16.5876    1.0000 </r>
       <r>  -16.5779    1.0000 </r>
       <r>  -16.5689    1.0000 </r>
       <r>  -16.5465    1.0000 </r>
       <r>  -16.5319    1.0000 </r>
       <r>  -16.5027    1.0000 </r>
       <r>  -16.4591    1.0000 </r>
       <r>  -16.4542    1.0000 </r>
       <r>  -16.4449    1.0000 </r>
       <r>  -16.4271    1.0000 </r>
       <r>  -16.4193    1.0000 </r>
       <r>  -16.4179    1.0000 </r>
       <r>  -16.4129    1.0000 </r>
       <r>  -16.4023    1.0000 </r>
       <r>  -16.3673    1.0000 </r>
       <r>  -16.3598    1.0000 </r>
       <r>  -16.3358    1.0000 </r>
       <r>  -16.3314    1.0000 </r>
       <r>  -16.3286    1.0000 </r>
       <r>  -16.3196    1.0000 </r>
       <r>  -16.3181    1.0000 </r>
       <r>  -16.3067    1.0000 </r>
       <r>  -16.2933    1.0000 </r>
       <r>  -16.2892    1.0000 </r>
       <r>  -16.2858    1.0000 </r>
       <r>  -16.2803    1.0000 </r>
       <r>  -16.2767    1.0000 </r>
       <r>  -16.2721    1.0000 </r>
       <r>  -16.2717    1.0000 </r>
       <r>  -16.2697    1.0000 </r>
       <r>  -16.2609    1.0000 </r>
       <r>  -16.2454    1.0000 </r>
       <r>  -16.2399    1.0000 </r>
       <r>  -16.2323    1.0000 </r>
       <r>  -14.4879    1.0000 </r>
       <r>  -14.3587    1.0000 </r>
       <r>  -14.3184    1.0000 </r>
       <r>  -14.2893    1.0000 </r>
       <r>  -14.1426    1.0000 </r>
       <r>  -14.1233    1.0000 </r>
       <r>  -14.1212    1.0000 </r>
       <r>  -14.0766    1.0000 </r>
       <r>  -14.0610    1.0000 </r>
       <r>  -14.0516    1.0000 </r>
       <r>  -14.0343    1.0000 </r>
       <r>  -14.0305    1.0000 </r>
       <r>  -14.0213    1.0000 </r>
       <r>  -14.0044    1.0000 </r>
       <r>  -13.9973    1.0000 </r>
       <r>  -13.9801    1.0000 </r>
       <r>  -13.9406    1.0000 </r>
       <r>  -13.9193    1.0000 </r>
       <r>  -13.8952    1.0000 </r>
       <r>  -13.7713    1.0000 </r>
       <r>  -13.7573    1.0000 </r>
       <r>  -13.7233    1.0000 </r>
       <r>  -13.7101    1.0000 </r>
       <r>   -8.2044    1.0000 </r>
       <r>   -7.7820    1.0000 </r>
       <r>   -7.7464    1.0000 </r>
       <r>   -7.7088    1.0000 </r>
       <r>   -7.3488    1.0000 </r>
       <r>   -7.3086    1.0000 </r>
       <r>   -7.2785    1.0000 </r>
       <r>   -7.2651    1.0000 </r>
       <r>   -7.2522    1.0000 </r>
       <r>   -7.2437    1.0000 </r>
       <r>   -7.2185    1.0000 </r>
       <r>   -7.2105    1.0000 </r>
       <r>   -7.2061    1.0000 </r>
       <r>   -7.1908    1.0000 </r>
       <r>   -7.1864    1.0000 </r>
       <r>   -7.1822    1.0000 </r>
       <r>   -7.1737    1.0000 </r>
       <r>   -7.1603    1.0000 </r>
       <r>   -7.1533    1.0000 </r>
       <r>   -7.1509    1.0000 </r>
       <r>   -7.1468    1.0000 </r>
       <r>   -7.1359    1.0000 </r>
       <r>   -7.1321    1.0000 </r>
       <r>   -7.1285    1.0000 </r>
       <r>   -7.1176    1.0000 </r>
       <r>   -7.1136    1.0000 </r>
       <r>   -7.1096    1.0000 </r>
       <r>   -7.1012    1.0000 </r>
       <r>   -7.0881    1.0000 </r>
       <r>   -7.0806    1.0000 </r>
       <r>   -7.0597    1.0000 </r>
       <r>   -6.5798    1.0000 </r>
       <r>   -3.3965    1.0000 </r>
       <r>   -3.3184    1.0000 </r>
       <r>   -3.2823    1.0000 </r>
       <r>   -3.2625    1.0000 </r>
       <r>   -3.2173    1.0000 </r>
       <r>   -3.2049    1.0000 </r>
       <r>   -3.1768    1.0000 </r>
       <r>   -3.1643    1.0000 </r>
       <r>   -3.1501    1.0000 </r>
       <r>   -3.0701    1.0000 </r>
       <r>   -3.0325    1.0000 </r>
       <r>   -2.8818    1.0000 </r>
       <r>   -2.2024    1.0000 </r>
       <r>   -2.1843    1.0000 </r>
       <r>   -2.1425    1.0000 </r>
       <r>   -2.0765    1.0000 </r>
       <r>   -2.0335    1.0000 </r>
       <r>   -2.0068    1.0000 </r>
       <r>   -1.9240    1.0000 </r>
       <r>   -1.9135    1.0000 </r>
       <r>   -1.8792    1.0000 </r>
       <r>   -1.8417    1.0000 </r>
       <r>   -1.8071    1.0000 </r>
       <r>   -1.7528    1.0000 </r>
       <r>   -1.7075    1.0000 </r>
       <r>   -1.6610    1.0000 </r>
       <r>   -1.6580    1.0000 </r>
       <r>   -1.6009    1.0000 </r>
       <r>   -1.5782    1.0000 </r>
       <r>   -1.5492    1.0000 </r>
       <r>   -1.5405    1.0000 </r>
       <r>   -1.5243    1.0000 </r>
       <r>   -1.5095    1.0000 </r>
       <r>   -1.4890    1.0000 </r>
       <r>   -1.4816    1.0000 </r>
       <r>   -1.4583    1.0000 </r>
       <r>   -1.4488    1.0000 </r>
       <r>   -1.4300    1.0000 </r>
       <r>   -1.4243    1.0000 </r>
       <r>   -1.4198    1.0000 </r>
       <r>   -1.3915    1.0000 </r>
       <r>   -1.3780    1.0000 </r>
       <r>   -1.3622    1.0000 </r>
       <r>   -1.3523    1.0000 </r>
       <r>   -1.3450    1.0000 </r>
       <r>   -1.3303    1.0000 </r>
       <r>   -1.3275    1.0000 </r>
       <r>   -1.3105    1.0000 </r>
       <r>   -1.3031    1.0000 </r>
       <r>   -1.3000    1.0000 </r>
       <r>   -1.2651    1.0000 </r>
       <r>   -1.2365    1.0000 </r>
       <r>   -1.1867    1.0000 </r>
       <r>   -1.1800    1.0000 </r>
       <r>   -1.1499    1.0000 </r>
       <r>   -1.1318    1.0000 </r>
       <r>   -1.1168    1.0000 </r>
       <r>   -1.0489    1.0000 </r>
       <r>   -1.0292    1.0000 </r>
       <r>   -0.9832    1.0000 </r>
       <r>   -0.9720    1.0000 </r>
       <r>   -0.8647    1.0000 </r>
       <r>   -0.7994    1.0000 </r>
       <r>   -0.7502    1.0000 </r>
       <r>   -0.6213    1.0000 </r>
       <r>   -0.3060    1.0000 </r>
       <r>   -0.2189    1.0000 </r>
       <r>   -0.1066    1.0000 </r>
       <r>    0.3949    1.0000 </r>
       <r>    2.6146    0.0000 </r>
       <r>    2.7482    0.0000 </r>
       <r>    2.8444    0.0000 </r>
       <r>    2.9198    0.0000 </r>
       <r>    3.0904    0.0000 </r>
       <r>    3.1059    0.0000 </r>
       <r>    3.1640    0.0000 </r>
       <r>    3.2008    0.0000 </r>
       <r>    3.2928    0.0000 </r>
       <r>    3.4523    0.0000 </r>
       <r>    3.5227    0.0000 </r>
       <r>    3.5666    0.0000 </r>
       <r>    4.2515    0.0000 </r>
       <r>    4.8124    0.0000 </r>
       <r>    5.1953    0.0000 </r>
       <r>    5.5033    0.0000 </r>
       <r>    5.6764    0.0000 </r>
       <r>    5.7853    0.0000 </r>
       <r>    5.8161    0.0000 </r>
       <r>    5.8369    0.0000 </r>
       <r>    5.8941    0.0000 </r>
       <r>    5.9650    0.0000 </r>
       <r>    6.0007    0.0000 </r>
       <r>    6.0365    0.0000 </r>
       <r>    6.1327    0.0000 </r>
       <r>    6.1430    0.0000 </r>
       <r>    6.2006    0.0000 </r>
       <r>    6.2470    0.0000 </r>
       <r>    6.2867    0.0000 </r>
       <r>    6.3911    0.0000 </r>
       <r>    6.3934    0.0000 </r>
       <r>    6.4282    0.0000 </r>
       <r>    6.5201    0.0000 </r>
       <r>    6.5696    0.0000 </r>
       <r>    6.6150    0.0000 </r>
       <r>    6.6589    0.0000 </r>
      </set>
      <set comment="kpoint 2">
       <r>  -20.8878    1.0000 </r>
       <r>  -20.8160    1.0000 </r>
       <r>  -20.8130    1.0000 </r>
       <r>  -20.7561    1.0000 </r>
       <r>  -20.7383    1.0000 </r>
       <r>  -20.7311    1.0000 </r>
       <r>  -20.7193    1.0000 </r>
       <r>  -20.7044    1.0000 </r>
       <r>  -16.6977    1.0000 </r>
       <r>  -16.6832    1.0000 </r>
       <r>  -16.6689    1.0000 </r>
       <r>  -16.6498    1.0000 </r>
       <r>  -16.6028    1.0000 </r>
       <r>  -16.5888    1.0000 </r>
       <r>  -16.5877    1.0000 </r>
       <r>  -16.5779    1.0000 </r>
       <r>  -16.5689    1.0000 </r>
       <r>  -16.5465    1.0000 </r>
       <r>  -16.5319    1.0000 </r>
       <r>  -16.5027    1.0000 </r>
       <r>  -16.4589    1.0000 </r>
       <r>  -16.4520    1.0000 </r>
       <r>  -16.4387    1.0000 </r>
       <r>  -16.4293    1.0000 </r>
       <r>  -16.4180    1.0000 </r>
       <r>  -16.4166    1.0000 </r>
       <r>  -16.4001    1.0000 </r>
       <r>  -16.3947    1.0000 </r>
       <r>  -16.3813    1.0000 </r>
       <r>  -16.3637    1.0000 </r>
       <r>  -16.3482    1.0000 </r>
       <r>  -16.3357    1.0000 </r>
       <r>  -16.3286    1.0000 </r>
       <r>  -16.3196    1.0000 </r>
       <r>  -16.3181    1.0000 </r>
       <r>  -16.3067    1.0000 </r>
       <r>  -16.2934    1.0000 </r>
       <r>  -16.2892    1.0000 </r>
       <r>  -16.2859    1.0000 </r>
       <r>  -16.2803    1.0000 </r>
       <r>  -16.2767    1.0000 </r>
       <r>  -16.2720    1.0000 </r>
       <r>  -16.2717    1.0000 </r>
       <r>  -16.2698    1.0000 </r>
       <r>  -16.2609    1.0000 </r>
       <r>  -16.2455    1.0000 </r>
       <r>  -16.2399    1.0000 </r>
       <r>  -16.2323    1.0000 </r>
       <r>  -14.4713    1.0000 </r>
       <r>  -14.3820    1.0000 </r>
       <r>  -14.3210    1.0000 </r>
       <r>  -14.2718    1.0000 </r>
       <r>  -14.2090    1.0000 </r>
       <r>  -14.1349    1.0000 </r>
       <r>  -14.1201    1.0000 </r>
       <r>  -14.0771    1.0000 </r>
       <r>  -14.0569    1.0000 </r>
       <r>  -14.0537    1.0000 </r>
       <r>  -14.0497    1.0000 </r>
       <r>  -14.0311    1.0000 </r>
       <r>  -14.0064    1.0000 </r>
       <r>  -14.0012    1.0000 </r>
       <r>  -13.9833    1.0000 </r>
       <r>  -13.9339    1.0000 </r>
       <r>  -13.9120    1.0000 </r>
       <r>  -13.8591    1.0000 </r>
       <r>  -13.8530    1.0000 </r>
       <r>  -13.8220    1.0000 </r>
       <r>  -13.7852    1.0000 </r>
       <r>  -13.7608    1.0000 </r>
       <r>  -13.7161    1.0000 </r>
       <r>   -8.0423    1.0000 </r>
       <r>   -7.9686    1.0000 </r>
       <r>   -7.6372    1.0000 </r>
       <r>   -7.5107    1.0000 </r>
       <r>   -7.4783    1.0000 </r>
       <r>   -7.4282    1.0000 </r>
       <r>   -7.3219    1.0000 </r>
       <r>   -7.2768    1.0000 </r>
       <r>   -7.2602    1.0000 </r>
       <r>   -7.2445    1.0000 </r>
       <r>   -7.2201    1.0000 </r>
       <r>   -7.2139    1.0000 </r>
       <r>   -7.2045    1.0000 </r>
       <r>   -7.2033    1.0000 </r>
       <r>   -7.1879    1.0000 </r>
       <r>   -7.1854    1.0000 </r>
       <r>   -7.1726    1.0000 </r>
       <r>   -7.1578    1.0000 </r>
       <r>   -7.1530    1.0000 </r>
       <r>   -7.1460    1.0000 </r>
       <r>   -7.1412    1.0000 </r>
       <r>   -7.1397    1.0000 </r>
       <r>   -7.1313    1.0000 </r>
       <r>   -7.1245    1.0000 </r>
       <r>   -7.1167    1.0000 </r>
       <r>   -7.1140    1.0000 </r>
       <r>   -7.1112    1.0000 </r>
       <r>   -7.1002    1.0000 </r>
       <r>   -7.0962    1.0000 </r>
       <r>   -7.0860    1.0000 </r>
       <r>   -6.9278    1.0000 </r>
       <r>   -6.8537    1.0000 </r>
       <r>   -3.3708    1.0000 </r>
       <r>   -3.2678    1.0000 </r>
       <r>   -3.2525    1.0000 </r>
       <r>   -3.2414    1.0000 </r>
       <r>   -3.2206    1.0000 </r>
       <r>   -3.1284    1.0000 </r>
       <r>   -3.1152    1.0000 </r>
       <r>   -3.0717    1.0000 </r>
       <r>   -2.9298    1.0000 </r>
       <r>   -2.5553    1.0000 </r>
       <r>   -2.5235    1.0000 </r>
       <r>   -2.4772    1.0000 </r>
       <r>   -2.4307    1.0000 </r>
       <r>   -2.3771    1.0000 </r>
       <r>   -2.3448    1.0000 </r>
       <r>   -2.1348    1.0000 </r>
       <r>   -2.0941    1.0000 </r>
       <r>   -2.0685    1.0000 </r>
       <r>   -2.0449    1.0000 </r>
       <r>   -2.0222    1.0000 </r>
       <r>   -1.9830    1.0000 </r>
       <r>   -1.9113    1.0000 </r>
       <r>   -1.8942    1.0000 </r>
       <r>   -1.8447    1.0000 </r>
       <r>   -1.7984    1.0000 </r>
       <r>   -1.7735    1.0000 </r>
       <r>   -1.7430    1.0000 </r>
       <r>   -1.6668    1.0000 </r>
       <r>   -1.6398    1.0000 </r>
       <r>   -1.5867    1.0000 </r>
       <r>   -1.5650    1.0000 </r>
       <r>   -1.5382    1.0000 </r>
       <r>   -1.5069    1.0000 </r>
       <r>   -1.4767    1.0000 </r>
       <r>   -1.4741    1.0000 </r>
       <r>   -1.4634    1.0000 </r>
       <r>   -1.4448    1.0000 </r>
       <r>   -1.4346    1.0000 </r>
       <r>   -1.4189    1.0000 </r>
       <r>   -1.4048    1.0000 </r>
       <r>   -1.3966    1.0000 </r>
       <r>   -1.3797    1.0000 </r>
       <r>   -1.3743    1.0000 </r>
       <r>   -1.3628    1.0000 </r>
       <r>   -1.3432    1.0000 </r>
       <r>   -1.3339    1.0000 </r>
       <r>   -1.3031    1.0000 </r>
       <r>   -1.2878    1.0000 </r>
       <r>   -1.2729    1.0000 </r>
       <r>   -1.2676    1.0000 </r>
       <r>   -1.2421    1.0000 </r>
       <r>   -1.2148    1.0000 </r>
       <r>   -1.1963    1.0000 </r>
       <r>   -1.1808    1.0000 </r>
       <r>   -1.1674    1.0000 </r>
       <r>   -1.1505    1.0000 </r>
       <r>   -1.1116    1.0000 </r>
       <r>   -1.0955    1.0000 </r>
       <r>   -1.0688    1.0000 </r>
       <r>   -1.0491    1.0000 </r>
       <r>   -0.9753    1.0000 </r>
       <r>   -0.8807    1.0000 </r>
       <r>   -0.8726    1.0000 </r>
       <r>   -0.6982    1.0000 </r>
       <r>   -0.6266    1.0000 </r>
       <r>   -0.5335    1.0000 </r>
       <r>   -0.4149    1.0000 </r>
       <r>   -0.0493    1.0000 </r>
       <r>    0.0693    1.0000 </r>
       <r>    2.5114    0.0000 </r>
       <r>    2.9222    0.0000 </r>
       <r>    2.9303    0.0000 </r>
       <r>    2.9783    0.0000 </r>
       <r>    3.1820    0.0000 </r>
       <r>    3.2868    0.0000 </r>
       <r>    3.3106    0.0000 </r>
       <r>    3.3724    0.0000 </r>
       <r>    3.4557    0.0000 </r>
       <r>    4.0315    0.0000 </r>
       <r>    4.3235    0.0000 </r>
       <r>    4.3805    0.0000 </r>
       <r>    4.5457    0.0000 </r>
       <r>    4.5810    0.0000 </r>
       <r>    4.8208    0.0000 </r>
       <r>    4.8521    0.0000 </r>
       <r>    5.1681    0.0000 </r>
       <r>    5.4652    0.0000 </r>
       <r>    5.6064    0.0000 </r>
       <r>    5.6807    0.0000 </r>
       <r>    5.7244    0.0000 </r>
       <r>    5.8791    0.0000 </r>
       <r>    5.9258    0.0000 </r>
       <r>    6.0203    0.0000 </r>
       <r>    6.0822    0.0000 </r>
       <r>    6.1399    0.0000 </r>
       <r>    6.1611    0.0000 </r>
       <r>    6.1982    0.0000 </r>
       <r>    6.2969    0.0000 </r>
       <r>    6.3361    0.0000 </r>
       <r>    6.3557    0.0000 </r>
       <r>    6.4295    0.0000 </r>
       <r>    6.4727    0.0000 </r>
       <r>    6.4841    0.0000 </r>
       <r>    6.5798    0.0000 </r>
       <r>    6.6418    0.0000 </r>
      </set>
      <set comment="kpoint 3">
       <r>  -20.8878    1.0000 </r>
       <r>  -20.8162    1.0000 </r>
       <r>  -20.8128    1.0000 </r>
       <r>  -20.7562    1.0000 </r>
       <r>  -20.7382    1.0000 </r>
       <r>  -20.7310    1.0000 </r>
       <r>  -20.7193    1.0000 </r>
       <r>  -20.7044    1.0000 </r>
       <r>  -16.6970    1.0000 </r>
       <r>  -16.6835    1.0000 </r>
       <r>  -16.6666    1.0000 </r>
       <r>  -16.6522    1.0000 </r>
       <r>  -16.6030    1.0000 </r>
       <r>  -16.5888    1.0000 </r>
       <r>  -16.5875    1.0000 </r>
       <r>  -16.5778    1.0000 </r>
       <r>  -16.5689    1.0000 </r>
       <r>  -16.5465    1.0000 </r>
       <r>  -16.5319    1.0000 </r>
       <r>  -16.5027    1.0000 </r>
       <r>  -16.4589    1.0000 </r>
       <r>  -16.4463    1.0000 </r>
       <r>  -16.4318    1.0000 </r>
       <r>  -16.4289    1.0000 </r>
       <r>  -16.4222    1.0000 </r>
       <r>  -16.4179    1.0000 </r>
       <r>  -16.4050    1.0000 </r>
       <r>  -16.3970    1.0000 </r>
       <r>  -16.3862    1.0000 </r>
       <r>  -16.3580    1.0000 </r>
       <r>  -16.3510    1.0000 </r>
       <r>  -16.3353    1.0000 </r>
       <r>  -16.3285    1.0000 </r>
       <r>  -16.3196    1.0000 </r>
       <r>  -16.3181    1.0000 </r>
       <r>  -16.3067    1.0000 </r>
       <r>  -16.2933    1.0000 </r>
       <r>  -16.2892    1.0000 </r>
       <r>  -16.2858    1.0000 </r>
       <r>  -16.2802    1.0000 </r>
       <r>  -16.2767    1.0000 </r>
       <r>  -16.2721    1.0000 </r>
       <r>  -16.2717    1.0000 </r>
       <r>  -16.2697    1.0000 </r>
       <r>  -16.2609    1.0000 </r>
       <r>  -16.2455    1.0000 </r>
       <r>  -16.2399    1.0000 </r>
       <r>  -16.2323    1.0000 </r>
       <r>  -14.4768    1.0000 </r>
       <r>  -14.3822    1.0000 </r>
       <r>  -14.3074    1.0000 </r>
       <r>  -14.2780    1.0000 </r>
       <r>  -14.2167    1.0000 </r>
       <r>  -14.1395    1.0000 </r>
       <r>  -14.0993    1.0000 </r>
       <r>  -14.0784    1.0000 </r>
       <r>  -14.0689    1.0000 </r>
       <r>  -14.0541    1.0000 </r>
       <r>  -14.0338    1.0000 </r>
       <r>  -14.0243    1.0000 </r>
       <r>  -14.0113    1.0000 </r>
       <r>  -13.9996    1.0000 </r>
       <r>  -13.9828    1.0000 </r>
       <r>  -13.9340    1.0000 </r>
       <r>  -13.9221    1.0000 </r>
       <r>  -13.8661    1.0000 </r>
       <r>  -13.8566    1.0000 </r>
       <r>  -13.8207    1.0000 </r>
       <r>  -13.7836    1.0000 </r>
       <r>  -13.7594    1.0000 </r>
       <r>  -13.7155    1.0000 </r>
       <r>   -8.0395    1.0000 </r>
       <r>   -7.9467    1.0000 </r>
       <r>   -7.6506    1.0000 </r>
       <r>   -7.5134    1.0000 </r>
       <r>   -7.4608    1.0000 </r>
       <r>   -7.4397    1.0000 </r>
       <r>   -7.3244    1.0000 </r>
       <r>   -7.2783    1.0000 </r>
       <r>   -7.2611    1.0000 </r>
       <r>   -7.2436    1.0000 </r>
       <r>   -7.2166    1.0000 </r>
       <r>   -7.2074    1.0000 </r>
       <r>   -7.2058    1.0000 </r>
       <r>   -7.1993    1.0000 </r>
       <r>   -7.1879    1.0000 </r>
       <r>   -7.1842    1.0000 </r>
       <r>   -7.1693    1.0000 </r>
       <r>   -7.1600    1.0000 </r>
       <r>   -7.1553    1.0000 </r>
       <r>   -7.1523    1.0000 </r>
       <r>   -7.1426    1.0000 </r>
       <r>   -7.1327    1.0000 </r>
       <r>   -7.1264    1.0000 </r>
       <r>   -7.1196    1.0000 </r>
       <r>   -7.1180    1.0000 </r>
       <r>   -7.1126    1.0000 </r>
       <r>   -7.1079    1.0000 </r>
       <r>   -7.1025    1.0000 </r>
       <r>   -7.0944    1.0000 </r>
       <r>   -7.0923    1.0000 </r>
       <r>   -6.9674    1.0000 </r>
       <r>   -6.8727    1.0000 </r>
       <r>   -3.3011    1.0000 </r>
       <r>   -3.2531    1.0000 </r>
       <r>   -3.2393    1.0000 </r>
       <r>   -3.1889    1.0000 </r>
       <r>   -3.1637    1.0000 </r>
       <r>   -3.1372    1.0000 </r>
       <r>   -3.1223    1.0000 </r>
       <r>   -3.1039    1.0000 </r>
       <r>   -2.9426    1.0000 </r>
       <r>   -2.5246    1.0000 </r>
       <r>   -2.4973    1.0000 </r>
       <r>   -2.4570    1.0000 </r>
       <r>   -2.4144    1.0000 </r>
       <r>   -2.3901    1.0000 </r>
       <r>   -2.3620    1.0000 </r>
       <r>   -2.1687    1.0000 </r>
       <r>   -2.1145    1.0000 </r>
       <r>   -2.0494    1.0000 </r>
       <r>   -2.0370    1.0000 </r>
       <r>   -1.9935    1.0000 </r>
       <r>   -1.9884    1.0000 </r>
       <r>   -1.9382    1.0000 </r>
       <r>   -1.8824    1.0000 </r>
       <r>   -1.8652    1.0000 </r>
       <r>   -1.8337    1.0000 </r>
       <r>   -1.7908    1.0000 </r>
       <r>   -1.7333    1.0000 </r>
       <r>   -1.6876    1.0000 </r>
       <r>   -1.6522    1.0000 </r>
       <r>   -1.6319    1.0000 </r>
       <r>   -1.5702    1.0000 </r>
       <r>   -1.5518    1.0000 </r>
       <r>   -1.5317    1.0000 </r>
       <r>   -1.4920    1.0000 </r>
       <r>   -1.4846    1.0000 </r>
       <r>   -1.4500    1.0000 </r>
       <r>   -1.4304    1.0000 </r>
       <r>   -1.4202    1.0000 </r>
       <r>   -1.4045    1.0000 </r>
       <r>   -1.3970    1.0000 </r>
       <r>   -1.3852    1.0000 </r>
       <r>   -1.3774    1.0000 </r>
       <r>   -1.3561    1.0000 </r>
       <r>   -1.3499    1.0000 </r>
       <r>   -1.3401    1.0000 </r>
       <r>   -1.3363    1.0000 </r>
       <r>   -1.3171    1.0000 </r>
       <r>   -1.2997    1.0000 </r>
       <r>   -1.2911    1.0000 </r>
       <r>   -1.2475    1.0000 </r>
       <r>   -1.2255    1.0000 </r>
       <r>   -1.2183    1.0000 </r>
       <r>   -1.1815    1.0000 </r>
       <r>   -1.1633    1.0000 </r>
       <r>   -1.1450    1.0000 </r>
       <r>   -1.1223    1.0000 </r>
       <r>   -1.1165    1.0000 </r>
       <r>   -1.0843    1.0000 </r>
       <r>   -1.0811    1.0000 </r>
       <r>   -1.0672    1.0000 </r>
       <r>   -1.0120    1.0000 </r>
       <r>   -0.8804    1.0000 </r>
       <r>   -0.8622    1.0000 </r>
       <r>   -0.7434    1.0000 </r>
       <r>   -0.6365    1.0000 </r>
       <r>   -0.6082    1.0000 </r>
       <r>   -0.4575    1.0000 </r>
       <r>   -0.0766    1.0000 </r>
       <r>    0.0169    1.0000 </r>
       <r>    2.6325    0.0000 </r>
       <r>    2.8590    0.0000 </r>
       <r>    2.9815    0.0000 </r>
       <r>    3.0729    0.0000 </r>
       <r>    3.1598    0.0000 </r>
       <r>    3.2833    0.0000 </r>
       <r>    3.3131    0.0000 </r>
       <r>    3.3595    0.0000 </r>
       <r>    3.4808    0.0000 </r>
       <r>    4.1207    0.0000 </r>
       <r>    4.4344    0.0000 </r>
       <r>    4.4876    0.0000 </r>
       <r>    4.6426    0.0000 </r>
       <r>    4.6747    0.0000 </r>
       <r>    4.8358    0.0000 </r>
       <r>    4.8911    0.0000 </r>
       <r>    4.9713    0.0000 </r>
       <r>    5.3292    0.0000 </r>
       <r>    5.6359    0.0000 </r>
       <r>    5.6762    0.0000 </r>
       <r>    5.7265    0.0000 </r>
       <r>    5.7506    0.0000 </r>
       <r>    5.9213    0.0000 </r>
       <r>    5.9892    0.0000 </r>
       <r>    6.0455    0.0000 </r>
       <r>    6.1026    0.0000 </r>
       <r>    6.1880    0.0000 </r>
       <r>    6.2189    0.0000 </r>
       <r>    6.2789    0.0000 </r>
       <r>    6.3054    0.0000 </r>
       <r>    6.3398    0.0000 </r>
       <r>    6.4569    0.0000 </r>
       <r>    6.5192    0.0000 </r>
       <r>    6.5291    0.0000 </r>
       <r>    6.5861    0.0000 </r>
       <r>    6.6766    0.0000 </r>
      </set>
      <set comment="kpoint 4">
       <r>  -20.8878    1.0000 </r>
       <r>  -20.8160    1.0000 </r>
       <r>  -20.8130    1.0000 </r>
       <r>  -20.7561    1.0000 </r>
       <r>  -20.7383    1.0000 </r>
       <r>  -20.7310    1.0000 </r>
       <r>  -20.7193    1.0000 </r>
       <r>  -20.7044    1.0000 </r>
       <r>  -16.6968    1.0000 </r>
       <r>  -16.6830    1.0000 </r>
       <r>  -16.6666    1.0000 </r>
       <r>  -16.6498    1.0000 </r>
       <r>  -16.6030    1.0000 </r>
       <r>  -16.5888    1.0000 </r>
       <r>  -16.5877    1.0000 </r>
       <r>  -16.5779    1.0000 </r>
       <r>  -16.5690    1.0000 </r>
       <r>  -16.5465    1.0000 </r>
       <r>  -16.5319    1.0000 </r>
       <r>  -16.5027    1.0000 </r>
       <r>  -16.4588    1.0000 </r>
       <r>  -16.4453    1.0000 </r>
       <r>  -16.4320    1.0000 </r>
       <r>  -16.4181    1.0000 </r>
       <r>  -16.4180    1.0000 </r>
       <r>  -16.4034    1.0000 </r>
       <r>  -16.4030    1.0000 </r>
       <r>  -16.3969    1.0000 </r>
       <r>  -16.3948    1.0000 </r>
       <r>  -16.3719    1.0000 </r>
       <r>  -16.3572    1.0000 </r>
       <r>  -16.3442    1.0000 </r>
       <r>  -16.3286    1.0000 </r>
       <r>  -16.3196    1.0000 </r>
       <r>  -16.3181    1.0000 </r>
       <r>  -16.3067    1.0000 </r>
       <r>  -16.2933    1.0000 </r>
       <r>  -16.2892    1.0000 </r>
       <r>  -16.2859    1.0000 </r>
       <r>  -16.2803    1.0000 </r>
       <r>  -16.2767    1.0000 </r>
       <r>  -16.2720    1.0000 </r>
       <r>  -16.2718    1.0000 </r>
       <r>  -16.2699    1.0000 </r>
       <r>  -16.2609    1.0000 </r>
       <r>  -16.2455    1.0000 </r>
       <r>  -16.2399    1.0000 </r>
       <r>  -16.2323    1.0000 </r>
       <r>  -14.4685    1.0000 </r>
       <r>  -14.3713    1.0000 </r>
       <r>  -14.3257    1.0000 </r>
       <r>  -14.2800    1.0000 </r>
       <r>  -14.2132    1.0000 </r>
       <r>  -14.1973    1.0000 </r>
       <r>  -14.1402    1.0000 </r>
       <r>  -14.1114    1.0000 </r>
       <r>  -14.0545    1.0000 </r>
       <r>  -14.0322    1.0000 </r>
       <r>  -14.0204    1.0000 </r>
       <r>  -14.0105    1.0000 </r>
       <r>  -13.9937    1.0000 </r>
       <r>  -13.9388    1.0000 </r>
       <r>  -13.9349    1.0000 </r>
       <r>  -13.9045    1.0000 </r>
       <r>  -13.8951    1.0000 </r>
       <r>  -13.8863    1.0000 </r>
       <r>  -13.8451    1.0000 </r>
       <r>  -13.8286    1.0000 </r>
       <r>  -13.8211    1.0000 </r>
       <r>  -13.8039    1.0000 </r>
       <r>  -13.7299    1.0000 </r>
       <r>   -7.9389    1.0000 </r>
       <r>   -7.8033    1.0000 </r>
       <r>   -7.7282    1.0000 </r>
       <r>   -7.6735    1.0000 </r>
       <r>   -7.3406    1.0000 </r>
       <r>   -7.3265    1.0000 </r>
       <r>   -7.2946    1.0000 </r>
       <r>   -7.2693    1.0000 </r>
       <r>   -7.2593    1.0000 </r>
       <r>   -7.2462    1.0000 </r>
       <r>   -7.2450    1.0000 </r>
       <r>   -7.2315    1.0000 </r>
       <r>   -7.2120    1.0000 </r>
       <r>   -7.2097    1.0000 </r>
       <r>   -7.1994    1.0000 </r>
       <r>   -7.1876    1.0000 </r>
       <r>   -7.1840    1.0000 </r>
       <r>   -7.1775    1.0000 </r>
       <r>   -7.1602    1.0000 </r>
       <r>   -7.1539    1.0000 </r>
       <r>   -7.1509    1.0000 </r>
       <r>   -7.1439    1.0000 </r>
       <r>   -7.1356    1.0000 </r>
       <r>   -7.1289    1.0000 </r>
       <r>   -7.1226    1.0000 </r>
       <r>   -7.1194    1.0000 </r>
       <r>   -7.1141    1.0000 </r>
       <r>   -7.1039    1.0000 </r>
       <r>   -7.1026    1.0000 </r>
       <r>   -7.0927    1.0000 </r>
       <r>   -7.0789    1.0000 </r>
       <r>   -7.0315    1.0000 </r>
       <r>   -3.2371    1.0000 </r>
       <r>   -3.2134    1.0000 </r>
       <r>   -3.1662    1.0000 </r>
       <r>   -3.1588    1.0000 </r>
       <r>   -3.0835    1.0000 </r>
       <r>   -3.0054    1.0000 </r>
       <r>   -2.6981    1.0000 </r>
       <r>   -2.6139    1.0000 </r>
       <r>   -2.5749    1.0000 </r>
       <r>   -2.5637    1.0000 </r>
       <r>   -2.5371    1.0000 </r>
       <r>   -2.4644    1.0000 </r>
       <r>   -2.4038    1.0000 </r>
       <r>   -2.3520    1.0000 </r>
       <r>   -2.3347    1.0000 </r>
       <r>   -2.3120    1.0000 </r>
       <r>   -2.2774    1.0000 </r>
       <r>   -2.2569    1.0000 </r>
       <r>   -2.1287    1.0000 </r>
       <r>   -2.0915    1.0000 </r>
       <r>   -2.0274    1.0000 </r>
       <r>   -1.9880    1.0000 </r>
       <r>   -1.9694    1.0000 </r>
       <r>   -1.8892    1.0000 </r>
       <r>   -1.8143    1.0000 </r>
       <r>   -1.8042    1.0000 </r>
       <r>   -1.7603    1.0000 </r>
       <r>   -1.7560    1.0000 </r>
       <r>   -1.7267    1.0000 </r>
       <r>   -1.6614    1.0000 </r>
       <r>   -1.6447    1.0000 </r>
       <r>   -1.6200    1.0000 </r>
       <r>   -1.6050    1.0000 </r>
       <r>   -1.5688    1.0000 </r>
       <r>   -1.5439    1.0000 </r>
       <r>   -1.5084    1.0000 </r>
       <r>   -1.4491    1.0000 </r>
       <r>   -1.4468    1.0000 </r>
       <r>   -1.4191    1.0000 </r>
       <r>   -1.4120    1.0000 </r>
       <r>   -1.3883    1.0000 </r>
       <r>   -1.3770    1.0000 </r>
       <r>   -1.3576    1.0000 </r>
       <r>   -1.3426    1.0000 </r>
       <r>   -1.3258    1.0000 </r>
       <r>   -1.3065    1.0000 </r>
       <r>   -1.2921    1.0000 </r>
       <r>   -1.2752    1.0000 </r>
       <r>   -1.2639    1.0000 </r>
       <r>   -1.2444    1.0000 </r>
       <r>   -1.2240    1.0000 </r>
       <r>   -1.2004    1.0000 </r>
       <r>   -1.1616    1.0000 </r>
       <r>   -1.1498    1.0000 </r>
       <r>   -1.1399    1.0000 </r>
       <r>   -1.1362    1.0000 </r>
       <r>   -1.1175    1.0000 </r>
       <r>   -1.0950    1.0000 </r>
       <r>   -1.0859    1.0000 </r>
       <r>   -1.0657    1.0000 </r>
       <r>   -0.9737    1.0000 </r>
       <r>   -0.9290    1.0000 </r>
       <r>   -0.9038    1.0000 </r>
       <r>   -0.8616    1.0000 </r>
       <r>   -0.7885    1.0000 </r>
       <r>   -0.5276    1.0000 </r>
       <r>   -0.4985    1.0000 </r>
       <r>   -0.4704    1.0000 </r>
       <r>   -0.2025    1.0000 </r>
       <r>    2.6206    0.0000 </r>
       <r>    3.0440    0.0000 </r>
       <r>    3.0734    0.0000 </r>
       <r>    3.1835    0.0000 </r>
       <r>    3.2466    0.0000 </r>
       <r>    3.3445    0.0000 </r>
       <r>    4.1278    0.0000 </r>
       <r>    4.2930    0.0000 </r>
       <r>    4.3598    0.0000 </r>
       <r>    4.4214    0.0000 </r>
       <r>    4.4560    0.0000 </r>
       <r>    4.5268    0.0000 </r>
       <r>    4.5655    0.0000 </r>
       <r>    4.6271    0.0000 </r>
       <r>    4.7017    0.0000 </r>
       <r>    4.7671    0.0000 </r>
       <r>    4.8303    0.0000 </r>
       <r>    4.8648    0.0000 </r>
       <r>    4.9366    0.0000 </r>
       <r>    5.0392    0.0000 </r>
       <r>    5.7054    0.0000 </r>
       <r>    5.7403    0.0000 </r>
       <r>    5.7782    0.0000 </r>
       <r>    5.8492    0.0000 </r>
       <r>    5.9722    0.0000 </r>
       <r>    5.9961    0.0000 </r>
       <r>    6.0348    0.0000 </r>
       <r>    6.0779    0.0000 </r>
       <r>    6.2265    0.0000 </r>
       <r>    6.2757    0.0000 </r>
       <r>    6.2885    0.0000 </r>
       <r>    6.3628    0.0000 </r>
       <r>    6.4046    0.0000 </r>
       <r>    6.5054    0.0000 </r>
       <r>    6.5172    0.0000 </r>
       <r>    6.5833    0.0000 </r>
      </set>
      <set comment="kpoint 5">
       <r>  -20.8878    1.0000 </r>
       <r>  -20.8162    1.0000 </r>
       <r>  -20.8128    1.0000 </r>
       <r>  -20.7562    1.0000 </r>
       <r>  -20.7382    1.0000 </r>
       <r>  -20.7312    1.0000 </r>
       <r>  -20.7193    1.0000 </r>
       <r>  -20.7044    1.0000 </r>
       <r>  -16.6975    1.0000 </r>
       <r>  -16.6830    1.0000 </r>
       <r>  -16.6669    1.0000 </r>
       <r>  -16.6500    1.0000 </r>
       <r>  -16.6027    1.0000 </r>
       <r>  -16.5888    1.0000 </r>
       <r>  -16.5876    1.0000 </r>
       <r>  -16.5779    1.0000 </r>
       <r>  -16.5689    1.0000 </r>
       <r>  -16.5465    1.0000 </r>
       <r>  -16.5319    1.0000 </r>
       <r>  -16.4989    1.0000 </r>
       <r>  -16.4589    1.0000 </r>
       <r>  -16.4535    1.0000 </r>
       <r>  -16.4305    1.0000 </r>
       <r>  -16.4269    1.0000 </r>
       <r>  -16.4246    1.0000 </r>
       <r>  -16.4180    1.0000 </r>
       <r>  -16.4156    1.0000 </r>
       <r>  -16.4050    1.0000 </r>
       <r>  -16.3739    1.0000 </r>
       <r>  -16.3655    1.0000 </r>
       <r>  -16.3400    1.0000 </r>
       <r>  -16.3316    1.0000 </r>
       <r>  -16.3286    1.0000 </r>
       <r>  -16.3196    1.0000 </r>
       <r>  -16.3181    1.0000 </r>
       <r>  -16.3065    1.0000 </r>
       <r>  -16.2933    1.0000 </r>
       <r>  -16.2892    1.0000 </r>
       <r>  -16.2859    1.0000 </r>
       <r>  -16.2803    1.0000 </r>
       <r>  -16.2767    1.0000 </r>
       <r>  -16.2721    1.0000 </r>
       <r>  -16.2717    1.0000 </r>
       <r>  -16.2698    1.0000 </r>
       <r>  -16.2609    1.0000 </r>
       <r>  -16.2454    1.0000 </r>
       <r>  -16.2399    1.0000 </r>
       <r>  -16.2323    1.0000 </r>
       <r>  -14.4803    1.0000 </r>
       <r>  -14.3557    1.0000 </r>
       <r>  -14.3221    1.0000 </r>
       <r>  -14.3031    1.0000 </r>
       <r>  -14.1728    1.0000 </r>
       <r>  -14.1536    1.0000 </r>
       <r>  -14.1233    1.0000 </r>
       <r>  -14.1061    1.0000 </r>
       <r>  -14.0725    1.0000 </r>
       <r>  -14.0594    1.0000 </r>
       <r>  -14.0276    1.0000 </r>
       <r>  -14.0192    1.0000 </r>
       <r>  -14.0024    1.0000 </r>
       <r>  -13.9861    1.0000 </r>
       <r>  -13.9788    1.0000 </r>
       <r>  -13.9703    1.0000 </r>
       <r>  -13.8605    1.0000 </r>
       <r>  -13.8471    1.0000 </r>
       <r>  -13.8452    1.0000 </r>
       <r>  -13.8107    1.0000 </r>
       <r>  -13.8056    1.0000 </r>
       <r>  -13.7808    1.0000 </r>
       <r>  -13.7285    1.0000 </r>
       <r>   -7.9950    1.0000 </r>
       <r>   -7.9754    1.0000 </r>
       <r>   -7.6197    1.0000 </r>
       <r>   -7.5818    1.0000 </r>
       <r>   -7.4607    1.0000 </r>
       <r>   -7.4191    1.0000 </r>
       <r>   -7.3228    1.0000 </r>
       <r>   -7.2738    1.0000 </r>
       <r>   -7.2588    1.0000 </r>
       <r>   -7.2519    1.0000 </r>
       <r>   -7.2201    1.0000 </r>
       <r>   -7.2125    1.0000 </r>
       <r>   -7.2085    1.0000 </r>
       <r>   -7.2019    1.0000 </r>
       <r>   -7.1878    1.0000 </r>
       <r>   -7.1848    1.0000 </r>
       <r>   -7.1690    1.0000 </r>
       <r>   -7.1653    1.0000 </r>
       <r>   -7.1536    1.0000 </r>
       <r>   -7.1457    1.0000 </r>
       <r>   -7.1423    1.0000 </r>
       <r>   -7.1369    1.0000 </r>
       <r>   -7.1332    1.0000 </r>
       <r>   -7.1290    1.0000 </r>
       <r>   -7.1227    1.0000 </r>
       <r>   -7.1118    1.0000 </r>
       <r>   -7.1032    1.0000 </r>
       <r>   -7.1007    1.0000 </r>
       <r>   -7.0967    1.0000 </r>
       <r>   -7.0827    1.0000 </r>
       <r>   -7.0131    1.0000 </r>
       <r>   -6.8081    1.0000 </r>
       <r>   -3.3777    1.0000 </r>
       <r>   -3.2802    1.0000 </r>
       <r>   -3.2711    1.0000 </r>
       <r>   -3.2243    1.0000 </r>
       <r>   -3.1848    1.0000 </r>
       <r>   -3.1264    1.0000 </r>
       <r>   -3.1030    1.0000 </r>
       <r>   -2.9391    1.0000 </r>
       <r>   -2.5949    1.0000 </r>
       <r>   -2.5412    1.0000 </r>
       <r>   -2.5157    1.0000 </r>
       <r>   -2.5059    1.0000 </r>
       <r>   -2.4292    1.0000 </r>
       <r>   -2.3987    1.0000 </r>
       <r>   -2.3750    1.0000 </r>
       <r>   -2.3008    1.0000 </r>
       <r>   -2.1744    1.0000 </r>
       <r>   -2.1111    1.0000 </r>
       <r>   -2.0720    1.0000 </r>
       <r>   -2.0213    1.0000 </r>
       <r>   -2.0002    1.0000 </r>
       <r>   -1.9181    1.0000 </r>
       <r>   -1.9002    1.0000 </r>
       <r>   -1.8416    1.0000 </r>
       <r>   -1.8372    1.0000 </r>
       <r>   -1.8013    1.0000 </r>
       <r>   -1.7287    1.0000 </r>
       <r>   -1.6812    1.0000 </r>
       <r>   -1.6615    1.0000 </r>
       <r>   -1.6100    1.0000 </r>
       <r>   -1.5838    1.0000 </r>
       <r>   -1.5579    1.0000 </r>
       <r>   -1.5308    1.0000 </r>
       <r>   -1.4935    1.0000 </r>
       <r>   -1.4828    1.0000 </r>
       <r>   -1.4529    1.0000 </r>
       <r>   -1.4349    1.0000 </r>
       <r>   -1.4126    1.0000 </r>
       <r>   -1.3954    1.0000 </r>
       <r>   -1.3855    1.0000 </r>
       <r>   -1.3733    1.0000 </r>
       <r>   -1.3620    1.0000 </r>
       <r>   -1.3524    1.0000 </r>
       <r>   -1.3400    1.0000 </r>
       <r>   -1.3317    1.0000 </r>
       <r>   -1.3104    1.0000 </r>
       <r>   -1.2916    1.0000 </r>
       <r>   -1.2873    1.0000 </r>
       <r>   -1.2728    1.0000 </r>
       <r>   -1.2612    1.0000 </r>
       <r>   -1.2486    1.0000 </r>
       <r>   -1.2173    1.0000 </r>
       <r>   -1.2122    1.0000 </r>
       <r>   -1.1826    1.0000 </r>
       <r>   -1.1626    1.0000 </r>
       <r>   -1.1514    1.0000 </r>
       <r>   -1.1095    1.0000 </r>
       <r>   -1.0961    1.0000 </r>
       <r>   -1.0514    1.0000 </r>
       <r>   -1.0129    1.0000 </r>
       <r>   -1.0114    1.0000 </r>
       <r>   -0.9436    1.0000 </r>
       <r>   -0.8794    1.0000 </r>
       <r>   -0.7930    1.0000 </r>
       <r>   -0.5682    1.0000 </r>
       <r>   -0.5336    1.0000 </r>
       <r>   -0.4556    1.0000 </r>
       <r>   -0.2443    1.0000 </r>
       <r>    0.0768    1.0000 </r>
       <r>    2.7125    0.0000 </r>
       <r>    2.9564    0.0000 </r>
       <r>    2.9691    0.0000 </r>
       <r>    2.9898    0.0000 </r>
       <r>    3.0995    0.0000 </r>
       <r>    3.3050    0.0000 </r>
       <r>    3.3522    0.0000 </r>
       <r>    3.4256    0.0000 </r>
       <r>    4.1354    0.0000 </r>
       <r>    4.1898    0.0000 </r>
       <r>    4.2987    0.0000 </r>
       <r>    4.4711    0.0000 </r>
       <r>    4.5399    0.0000 </r>
       <r>    4.5975    0.0000 </r>
       <r>    4.6643    0.0000 </r>
       <r>    4.7544    0.0000 </r>
       <r>    4.8707    0.0000 </r>
       <r>    5.2246    0.0000 </r>
       <r>    5.3049    0.0000 </r>
       <r>    5.5714    0.0000 </r>
       <r>    5.6899    0.0000 </r>
       <r>    5.8285    0.0000 </r>
       <r>    5.9267    0.0000 </r>
       <r>    5.9660    0.0000 </r>
       <r>    6.0751    0.0000 </r>
       <r>    6.0932    0.0000 </r>
       <r>    6.1225    0.0000 </r>
       <r>    6.1815    0.0000 </r>
       <r>    6.2336    0.0000 </r>
       <r>    6.3389    0.0000 </r>
       <r>    6.3956    0.0000 </r>
       <r>    6.4202    0.0000 </r>
       <r>    6.5280    0.0000 </r>
       <r>    6.5699    0.0000 </r>
       <r>    6.5896    0.0000 </r>
       <r>    6.6834    0.0000 </r>
      </set>
      <set comment="kpoint 6">
       <r>  -20.8878    1.0000 </r>
       <r>  -20.8160    1.0000 </r>
       <r>  -20.8130    1.0000 </r>
       <r>  -20.7561    1.0000 </r>
       <r>  -20.7382    1.0000 </r>
       <r>  -20.7312    1.0000 </r>
       <r>  -20.7193    1.0000 </r>
       <r>  -20.7045    1.0000 </r>
       <r>  -16.6973    1.0000 </r>
       <r>  -16.6825    1.0000 </r>
       <r>  -16.6668    1.0000 </r>
       <r>  -16.6477    1.0000 </r>
       <r>  -16.6026    1.0000 </r>
       <r>  -16.5888    1.0000 </r>
       <r>  -16.5877    1.0000 </r>
       <r>  -16.5779    1.0000 </r>
       <r>  -16.5690    1.0000 </r>
       <r>  -16.5465    1.0000 </r>
       <r>  -16.5319    1.0000 </r>
       <r>  -16.4989    1.0000 </r>
       <r>  -16.4588    1.0000 </r>
       <r>  -16.4485    1.0000 </r>
       <r>  -16.4306    1.0000 </r>
       <r>  -16.4281    1.0000 </r>
       <r>  -16.4180    1.0000 </r>
       <r>  -16.4172    1.0000 </r>
       <r>  -16.4031    1.0000 </r>
       <r>  -16.3971    1.0000 </r>
       <r>  -16.3880    1.0000 </r>
       <r>  -16.3711    1.0000 </r>
       <r>  -16.3504    1.0000 </r>
       <r>  -16.3381    1.0000 </r>
       <r>  -16.3286    1.0000 </r>
       <r>  -16.3196    1.0000 </r>
       <r>  -16.3181    1.0000 </r>
       <r>  -16.3065    1.0000 </r>
       <r>  -16.2934    1.0000 </r>
       <r>  -16.2892    1.0000 </r>
       <r>  -16.2859    1.0000 </r>
       <r>  -16.2803    1.0000 </r>
       <r>  -16.2767    1.0000 </r>
       <r>  -16.2720    1.0000 </r>
       <r>  -16.2718    1.0000 </r>
       <r>  -16.2698    1.0000 </r>
       <r>  -16.2609    1.0000 </r>
       <r>  -16.2455    1.0000 </r>
       <r>  -16.2399    1.0000 </r>
       <r>  -16.2323    1.0000 </r>
       <r>  -14.4677    1.0000 </r>
       <r>  -14.3690    1.0000 </r>
       <r>  -14.3177    1.0000 </r>
       <r>  -14.2908    1.0000 </r>
       <r>  -14.2404    1.0000 </r>
       <r>  -14.1694    1.0000 </r>
       <r>  -14.1208    1.0000 </r>
       <r>  -14.1063    1.0000 </r>
       <r>  -14.0754    1.0000 </r>
       <r>  -14.0601    1.0000 </r>
       <r>  -14.0588    1.0000 </r>
       <r>  -14.0018    1.0000 </r>
       <r>  -13.9996    1.0000 </r>
       <r>  -13.9236    1.0000 </r>
       <r>  -13.9011    1.0000 </r>
       <r>  -13.8876    1.0000 </r>
       <r>  -13.8789    1.0000 </r>
       <r>  -13.8783    1.0000 </r>
       <r>  -13.8354    1.0000 </r>
       <r>  -13.8307    1.0000 </r>
       <r>  -13.8232    1.0000 </r>
       <r>  -13.8002    1.0000 </r>
       <r>  -13.7707    1.0000 </r>
       <r>   -7.8883    1.0000 </r>
       <r>   -7.7722    1.0000 </r>
       <r>   -7.7544    1.0000 </r>
       <r>   -7.7044    1.0000 </r>
       <r>   -7.4722    1.0000 </r>
       <r>   -7.3351    1.0000 </r>
       <r>   -7.2879    1.0000 </r>
       <r>   -7.2714    1.0000 </r>
       <r>   -7.2510    1.0000 </r>
       <r>   -7.2471    1.0000 </r>
       <r>   -7.2340    1.0000 </r>
       <r>   -7.2166    1.0000 </r>
       <r>   -7.2104    1.0000 </r>
       <r>   -7.2023    1.0000 </r>
       <r>   -7.1982    1.0000 </r>
       <r>   -7.1885    1.0000 </r>
       <r>   -7.1830    1.0000 </r>
       <r>   -7.1603    1.0000 </r>
       <r>   -7.1583    1.0000 </r>
       <r>   -7.1506    1.0000 </r>
[...]
        <r>  0.0002  0.0013  0.0009 </r>
        <r>  0.0010  0.0058  0.0004 </r>
        <r>  0.0014  0.0017  0.0013 </r>
        <r>  0.0002  0.0018  0.0004 </r>
        <r>  0.0001  0.0008  0.0006 </r>
        <r>  0.0023  0.0017  0.0017 </r>
        <r>  0.0002  0.0028  0.0002 </r>
        <r>  0.0001  0.0025  0.0010 </r>
        <r>  0.0000  0.0003  0.0018 </r>
       </set>
       <set comment="band 199">
        <r>  0.0095  0.0021  0.0140 </r>
        <r>  0.0005  0.0004  0.0104 </r>
        <r>  0.0013  0.0003  0.0066 </r>
        <r>  0.0017  0.0002  0.0069 </r>
        <r>  0.0006  0.0011  0.0055 </r>
        <r>  0.0044  0.0005  0.0078 </r>
        <r>  0.0001  0.0003  0.0005 </r>
        <r>  0.0000  0.0009  0.0041 </r>
        <r>  0.0000  0.0007  0.0003 </r>
        <r>  0.0000  0.0020  0.0002 </r>
        <r>  0.0000  0.0069  0.0001 </r>
        <r>  0.0000  0.0086  0.0002 </r>
        <r>  0.0000  0.0034  0.0001 </r>
        <r>  0.0002  0.0076  0.0004 </r>
        <r>  0.0000  0.0022  0.0001 </r>
        <r>  0.0002  0.0075  0.0010 </r>
        <r>  0.0003  0.0006  0.0006 </r>
        <r>  0.0002  0.0031  0.0008 </r>
        <r>  0.0011  0.0003  0.0005 </r>
        <r>  0.0010  0.0031  0.0038 </r>
        <r>  0.0000  0.0017  0.0003 </r>
        <r>  0.0000  0.0027  0.0011 </r>
        <r>  0.0014  0.0046  0.0023 </r>
        <r>  0.0001  0.0018  0.0006 </r>
        <r>  0.0005  0.0042  0.0003 </r>
        <r>  0.0002  0.0037  0.0006 </r>
        <r>  0.0000  0.0013  0.0004 </r>
        <r>  0.0011  0.0026  0.0014 </r>
        <r>  0.0001  0.0010  0.0005 </r>
        <r>  0.0006  0.0027  0.0004 </r>
        <r>  0.0009  0.0009  0.0011 </r>
        <r>  0.0000  0.0001  0.0003 </r>
        <r>  0.0001  0.0007  0.0014 </r>
        <r>  0.0004  0.0020  0.0005 </r>
        <r>  0.0003  0.0052  0.0006 </r>
        <r>  0.0029  0.0016  0.0016 </r>
        <r>  0.0001  0.0011  0.0010 </r>
        <r>  0.0025  0.0022  0.0027 </r>
        <r>  0.0001  0.0023  0.0009 </r>
       </set>
       <set comment="band 200">
        <r>  0.0040  0.0003  0.0106 </r>
        <r>  0.0036  0.0008  0.0117 </r>
        <r>  0.0053  0.0003  0.0051 </r>
        <r>  0.0021  0.0006  0.0022 </r>
        <r>  0.0034  0.0010  0.0112 </r>
        <r>  0.0027  0.0010  0.0099 </r>
        <r>  0.0004  0.0006  0.0062 </r>
        <r>  0.0003  0.0005  0.0005 </r>
        <r>  0.0000  0.0011  0.0001 </r>
        <r>  0.0000  0.0001  0.0003 </r>
        <r>  0.0000  0.0059  0.0001 </r>
        <r>  0.0000  0.0004  0.0001 </r>
        <r>  0.0000  0.0004  0.0004 </r>
        <r>  0.0002  0.0037  0.0003 </r>
        <r>  0.0000  0.0045  0.0001 </r>
        <r>  0.0000  0.0197  0.0001 </r>
        <r>  0.0008  0.0039  0.0008 </r>
        <r>  0.0003  0.0004  0.0008 </r>
        <r>  0.0000  0.0056  0.0013 </r>
        <r>  0.0001  0.0024  0.0010 </r>
        <r>  0.0000  0.0017  0.0002 </r>
        <r>  0.0026  0.0024  0.0024 </r>
        <r>  0.0000  0.0021  0.0033 </r>
        <r>  0.0015  0.0025  0.0011 </r>
        <r>  0.0009  0.0038  0.0021 </r>
        <r>  0.0008  0.0025  0.0006 </r>
        <r>  0.0003  0.0021  0.0007 </r>
        <r>  0.0004  0.0010  0.0011 </r>
        <r>  0.0002  0.0033  0.0005 </r>
        <r>  0.0002  0.0003  0.0010 </r>
        <r>  0.0003  0.0010  0.0002 </r>
        <r>  0.0004  0.0004  0.0010 </r>
        <r>  0.0002  0.0025  0.0007 </r>
        <r>  0.0000  0.0007  0.0012 </r>
        <r>  0.0028  0.0021  0.0014 </r>
        <r>  0.0003  0.0040  0.0005 </r>
        <r>  0.0015  0.0058  0.0017 </r>
        <r>  0.0000  0.0015  0.0002 </r>
        <r>  0.0001  0.0007  0.0003 </r>
       </set>
       <set comment="band 201">
        <r>  0.0006  0.0003  0.0015 </r>
        <r>  0.0013  0.0000  0.0022 </r>
        <r>  0.0018  0.0017  0.0190 </r>
        <r>  0.0006  0.0008  0.0090 </r>
        <r>  0.0002  0.0003  0.0077 </r>
        <r>  0.0001  0.0000  0.0072 </r>
        <r>  0.0091  0.0004  0.0171 </r>
        <r>  0.0046  0.0011  0.0091 </r>
        <r>  0.0001  0.0028  0.0005 </r>
        <r>  0.0000  0.0115  0.0010 </r>
        <r>  0.0000  0.0005  0.0001 </r>
        <r>  0.0000  0.0007  0.0003 </r>
        <r>  0.0000  0.0060  0.0001 </r>
        <r>  0.0000  0.0011  0.0003 </r>
        <r>  0.0000  0.0028  0.0002 </r>
        <r>  0.0000  0.0025  0.0005 </r>
        <r>  0.0045  0.0008  0.0037 </r>
        <r>  0.0004  0.0006  0.0013 </r>
        <r>  0.0001  0.0002  0.0002 </r>
        <r>  0.0004  0.0008  0.0010 </r>
        <r>  0.0003  0.0078  0.0005 </r>
        <r>  0.0001  0.0035  0.0004 </r>
        <r>  0.0002  0.0004  0.0008 </r>
        <r>  0.0004  0.0011  0.0007 </r>
        <r>  0.0002  0.0045  0.0009 </r>
        <r>  0.0002  0.0009  0.0006 </r>
        <r>  0.0002  0.0031  0.0017 </r>
        <r>  0.0000  0.0009  0.0002 </r>
        <r>  0.0010  0.0010  0.0023 </r>
        <r>  0.0004  0.0001  0.0014 </r>
        <r>  0.0003  0.0018  0.0003 </r>
        <r>  0.0006  0.0009  0.0008 </r>
        <r>  0.0004  0.0056  0.0016 </r>
        <r>  0.0009  0.0021  0.0014 </r>
        <r>  0.0004  0.0042  0.0025 </r>
        <r>  0.0002  0.0006  0.0013 </r>
        <r>  0.0000  0.0015  0.0002 </r>
        <r>  0.0001  0.0008  0.0001 </r>
        <r>  0.0002  0.0035  0.0026 </r>
       </set>
       <set comment="band 202">
        <r>  0.0002  0.0009  0.0070 </r>
        <r>  0.0086  0.0008  0.0056 </r>
        <r>  0.0003  0.0003  0.0055 </r>
        <r>  0.0004  0.0007  0.0018 </r>
        <r>  0.0104  0.0005  0.0104 </r>
        <r>  0.0023  0.0013  0.0059 </r>
        <r>  0.0037  0.0000  0.0070 </r>
        <r>  0.0003  0.0003  0.0064 </r>
        <r>  0.0000  0.0072  0.0000 </r>
        <r>  0.0000  0.0015  0.0003 </r>
        <r>  0.0000  0.0029  0.0001 </r>
        <r>  0.0000  0.0031  0.0003 </r>
        <r>  0.0000  0.0138  0.0000 </r>
        <r>  0.0001  0.0100  0.0001 </r>
        <r>  0.0000  0.0037  0.0004 </r>
        <r>  0.0000  0.0047  0.0002 </r>
        <r>  0.0000  0.0018  0.0002 </r>
        <r>  0.0000  0.0028  0.0006 </r>
        <r>  0.0034  0.0028  0.0032 </r>
        <r>  0.0009  0.0007  0.0023 </r>
        <r>  0.0003  0.0055  0.0006 </r>
        <r>  0.0003  0.0025  0.0017 </r>
        <r>  0.0017  0.0025  0.0023 </r>
        <r>  0.0021  0.0056  0.0028 </r>
        <r>  0.0000  0.0014  0.0004 </r>
        <r>  0.0020  0.0013  0.0016 </r>
        <r>  0.0002  0.0007  0.0021 </r>
        <r>  0.0000  0.0003  0.0002 </r>
        <r>  0.0001  0.0038  0.0004 </r>
        <r>  0.0001  0.0004  0.0012 </r>
        <r>  0.0004  0.0027  0.0009 </r>
        <r>  0.0000  0.0018  0.0014 </r>
        <r>  0.0001  0.0004  0.0002 </r>
        <r>  0.0000  0.0012  0.0003 </r>
        <r>  0.0025  0.0033  0.0023 </r>
        <r>  0.0003  0.0017  0.0006 </r>
        <r>  0.0001  0.0017  0.0006 </r>
        <r>  0.0000  0.0047  0.0006 </r>
        <r>  0.0000  0.0020  0.0009 </r>
       </set>
       <set comment="band 203">
        <r>  0.0004  0.0009  0.0065 </r>
        <r>  0.0000  0.0008  0.0113 </r>
        <r>  0.0075  0.0006  0.0096 </r>
        <r>  0.0000  0.0002  0.0140 </r>
        <r>  0.0051  0.0006  0.0046 </r>
        <r>  0.0035  0.0005  0.0063 </r>
        <r>  0.0018  0.0009  0.0055 </r>
        <r>  0.0010  0.0011  0.0054 </r>
        <r>  0.0000  0.0073  0.0000 </r>
        <r>  0.0002  0.0128  0.0005 </r>
        <r>  0.0000  0.0049  0.0001 </r>
        <r>  0.0000  0.0026  0.0003 </r>
        <r>  0.0000  0.0097  0.0001 </r>
        <r>  0.0000  0.0081  0.0002 </r>
        <r>  0.0000  0.0003  0.0002 </r>
        <r>  0.0001  0.0013  0.0005 </r>
        <r>  0.0000  0.0029  0.0013 </r>
        <r>  0.0003  0.0042  0.0005 </r>
        <r>  0.0001  0.0018  0.0003 </r>
        <r>  0.0007  0.0051  0.0004 </r>
        <r>  0.0000  0.0010  0.0013 </r>
        <r>  0.0008  0.0005  0.0011 </r>
        <r>  0.0004  0.0018  0.0015 </r>
        <r>  0.0005  0.0003  0.0007 </r>
        <r>  0.0005  0.0047  0.0017 </r>
        <r>  0.0003  0.0012  0.0013 </r>
        <r>  0.0007  0.0066  0.0007 </r>
        <r>  0.0004  0.0015  0.0005 </r>
        <r>  0.0009  0.0024  0.0016 </r>
        <r>  0.0000  0.0025  0.0013 </r>
        <r>  0.0004  0.0044  0.0006 </r>
        <r>  0.0023  0.0009  0.0020 </r>
        <r>  0.0022  0.0006  0.0026 </r>
        <r>  0.0013  0.0009  0.0014 </r>
        <r>  0.0000  0.0012  0.0010 </r>
        <r>  0.0009  0.0001  0.0013 </r>
        <r>  0.0003  0.0023  0.0012 </r>
        <r>  0.0003  0.0005  0.0013 </r>
        <r>  0.0021  0.0006  0.0012 </r>
       </set>
       <set comment="band 204">
        <r>  0.0010  0.0006  0.0051 </r>
        <r>  0.0003  0.0009  0.0108 </r>
        <r>  0.0005  0.0004  0.0101 </r>
        <r>  0.0102  0.0002  0.0066 </r>
        <r>  0.0045  0.0003  0.0044 </r>
        <r>  0.0011  0.0003  0.0069 </r>
        <r>  0.0000  0.0016  0.0093 </r>
        <r>  0.0015  0.0021  0.0059 </r>
        <r>  0.0000  0.0044  0.0002 </r>
        <r>  0.0000  0.0129  0.0002 </r>
        <r>  0.0000  0.0058  0.0003 </r>
        <r>  0.0000  0.0055  0.0004 </r>
        <r>  0.0000  0.0076  0.0000 </r>
        <r>  0.0000  0.0061  0.0003 </r>
        <r>  0.0000  0.0011  0.0004 </r>
        <r>  0.0000  0.0111  0.0002 </r>
        <r>  0.0016  0.0049  0.0022 </r>
        <r>  0.0003  0.0034  0.0009 </r>
        <r>  0.0002  0.0044  0.0011 </r>
        <r>  0.0015  0.0077  0.0006 </r>
        <r>  0.0017  0.0021  0.0031 </r>
        <r>  0.0005  0.0029  0.0006 </r>
        <r>  0.0013  0.0005  0.0021 </r>
        <r>  0.0004  0.0029  0.0010 </r>
        <r>  0.0000  0.0004  0.0002 </r>
        <r>  0.0000  0.0006  0.0009 </r>
        <r>  0.0015  0.0007  0.0021 </r>
        <r>  0.0000  0.0033  0.0004 </r>
        <r>  0.0002  0.0047  0.0005 </r>
        <r>  0.0009  0.0017  0.0027 </r>
        <r>  0.0009  0.0004  0.0015 </r>
        <r>  0.0000  0.0049  0.0007 </r>
        <r>  0.0000  0.0048  0.0004 </r>
        <r>  0.0004  0.0007  0.0006 </r>
        <r>  0.0008  0.0009  0.0014 </r>
        <r>  0.0001  0.0026  0.0012 </r>
        <r>  0.0000  0.0016  0.0002 </r>
        <r>  0.0003  0.0005  0.0007 </r>
        <r>  0.0000  0.0007  0.0019 </r>
       </set>
       <set comment="band 205">
        <r>  0.0001  0.0004  0.0061 </r>
        <r>  0.0011  0.0012  0.0031 </r>
        <r>  0.0054  0.0017  0.0086 </r>
        <r>  0.0004  0.0007  0.0081 </r>
        <r>  0.0006  0.0010  0.0142 </r>
        <r>  0.0003  0.0005  0.0221 </r>
        <r>  0.0000  0.0019  0.0122 </r>
        <r>  0.0052  0.0001  0.0070 </r>
        <r>  0.0000  0.0014  0.0003 </r>
        <r>  0.0000  0.0003  0.0005 </r>
        <r>  0.0000  0.0023  0.0004 </r>
        <r>  0.0000  0.0047  0.0002 </r>
        <r>  0.0001  0.0028  0.0003 </r>
        <r>  0.0001  0.0077  0.0011 </r>
        <r>  0.0000  0.0088  0.0001 </r>
        <r>  0.0000  0.0065  0.0011 </r>
        <r>  0.0001  0.0033  0.0008 </r>
        <r>  0.0007  0.0023  0.0015 </r>
        <r>  0.0010  0.0031  0.0014 </r>
        <r>  0.0001  0.0011  0.0007 </r>
        <r>  0.0024  0.0020  0.0031 </r>
        <r>  0.0009  0.0009  0.0010 </r>
        <r>  0.0005  0.0040  0.0018 </r>
        <r>  0.0000  0.0001  0.0007 </r>
        <r>  0.0000  0.0029  0.0006 </r>
        <r>  0.0004  0.0012  0.0006 </r>
        <r>  0.0001  0.0021  0.0005 </r>
        <r>  0.0003  0.0001  0.0004 </r>
        <r>  0.0006  0.0007  0.0023 </r>
        <r>  0.0005  0.0001  0.0017 </r>
        <r>  0.0001  0.0007  0.0007 </r>
        <r>  0.0000  0.0013  0.0012 </r>
        <r>  0.0001  0.0024  0.0006 </r>
        <r>  0.0002  0.0002  0.0004 </r>
        <r>  0.0012  0.0062  0.0013 </r>
        <r>  0.0003  0.0010  0.0018 </r>
        <r>  0.0014  0.0014  0.0024 </r>
        <r>  0.0006  0.0020  0.0012 </r>
        <r>  0.0005  0.0011  0.0016 </r>
       </set>
       <set comment="band 206">
        <r>  0.0018  0.0002  0.0078 </r>
        <r>  0.0019  0.0003  0.0069 </r>
        <r>  0.0009  0.0004  0.0111 </r>
        <r>  0.0000  0.0001  0.0203 </r>
        <r>  0.0002  0.0003  0.0220 </r>
        <r>  0.0007  0.0001  0.0185 </r>
        <r>  0.0004  0.0004  0.0135 </r>
        <r>  0.0012  0.0004  0.0112 </r>
        <r>  0.0000  0.0143  0.0002 </r>
        <r>  0.0000  0.0117  0.0001 </r>
        <r>  0.0001  0.0004  0.0008 </r>
        <r>  0.0001  0.0010  0.0010 </r>
        <r>  0.0000  0.0031  0.0001 </r>
        <r>  0.0002  0.0088  0.0002 </r>
        <r>  0.0000  0.0009  0.0009 </r>
        <r>  0.0000  0.0002  0.0001 </r>
        <r>  0.0003  0.0008  0.0005 </r>
        <r>  0.0003  0.0033  0.0003 </r>
        <r>  0.0004  0.0010  0.0015 </r>
        <r>  0.0004  0.0001  0.0008 </r>
        <r>  0.0007  0.0005  0.0017 </r>
        <r>  0.0001  0.0005  0.0009 </r>
        <r>  0.0004  0.0014  0.0010 </r>
        <r>  0.0004  0.0008  0.0022 </r>
        <r>  0.0002  0.0007  0.0012 </r>
        <r>  0.0005  0.0007  0.0016 </r>
        <r>  0.0014  0.0004  0.0031 </r>
        <r>  0.0017  0.0011  0.0035 </r>
        <r>  0.0001  0.0014  0.0005 </r>
        <r>  0.0002  0.0037  0.0006 </r>
        <r>  0.0000  0.0009  0.0018 </r>
        <r>  0.0002  0.0037  0.0011 </r>
        <r>  0.0005  0.0020  0.0017 </r>
        <r>  0.0006  0.0036  0.0026 </r>
        <r>  0.0003  0.0004  0.0019 </r>
        <r>  0.0008  0.0014  0.0022 </r>
        <r>  0.0000  0.0002  0.0007 </r>
        <r>  0.0002  0.0005  0.0009 </r>
        <r>  0.0002  0.0003  0.0003 </r>
       </set>
       <set comment="band 207">
        <r>  0.0003  0.0002  0.0158 </r>
        <r>  0.0003  0.0014  0.0049 </r>
        <r>  0.0002  0.0004  0.0033 </r>
        <r>  0.0006  0.0003  0.0163 </r>
        <r>  0.0006  0.0004  0.0156 </r>
        <r>  0.0004  0.0001  0.0397 </r>
        <r>  0.0019  0.0001  0.0042 </r>
        <r>  0.0023  0.0002  0.0119 </r>
        <r>  0.0001  0.0014  0.0006 </r>
        <r>  0.0000  0.0015  0.0002 </r>
        <r>  0.0000  0.0087  0.0004 </r>
        <r>  0.0000  0.0050  0.0002 </r>
        <r>  0.0000  0.0014  0.0007 </r>
        <r>  0.0000  0.0036  0.0009 </r>
        <r>  0.0001  0.0061  0.0000 </r>
        <r>  0.0002  0.0094  0.0004 </r>
        <r>  0.0000  0.0006  0.0007 </r>
        <r>  0.0002  0.0008  0.0009 </r>
        <r>  0.0001  0.0010  0.0024 </r>
        <r>  0.0000  0.0015  0.0002 </r>
        <r>  0.0000  0.0004  0.0011 </r>
        <r>  0.0004  0.0029  0.0019 </r>
        <r>  0.0004  0.0012  0.0011 </r>
        <r>  0.0002  0.0008  0.0006 </r>
        <r>  0.0014  0.0019  0.0024 </r>
        <r>  0.0003  0.0004  0.0023 </r>
        <r>  0.0000  0.0014  0.0003 </r>
        <r>  0.0019  0.0014  0.0019 </r>
        <r>  0.0011  0.0011  0.0023 </r>
        <r>  0.0009  0.0004  0.0021 </r>
        <r>  0.0015  0.0020  0.0036 </r>
        <r>  0.0001  0.0012  0.0008 </r>
        <r>  0.0000  0.0007  0.0004 </r>
        <r>  0.0000  0.0001  0.0009 </r>
        <r>  0.0000  0.0017  0.0008 </r>
        <r>  0.0006  0.0039  0.0006 </r>
        <r>  0.0010  0.0004  0.0022 </r>
        <r>  0.0005  0.0036  0.0015 </r>
        <r>  0.0000  0.0014  0.0008 </r>
       </set>
       <set comment="band 208">
        <r>  0.0000  0.0002  0.0071 </r>
        <r>  0.0010  0.0006  0.0136 </r>
        <r>  0.0003  0.0005  0.0199 </r>
        <r>  0.0003  0.0003  0.0089 </r>
        <r>  0.0002  0.0018  0.0173 </r>
        <r>  0.0015  0.0005  0.0168 </r>
        <r>  0.0040  0.0010  0.0077 </r>
        <r>  0.0004  0.0002  0.0121 </r>
        <r>  0.0000  0.0006  0.0007 </r>
        <r>  0.0003  0.0055  0.0009 </r>
        <r>  0.0000  0.0064  0.0001 </r>
        <r>  0.0000  0.0116  0.0001 </r>
        <r>  0.0000  0.0019  0.0003 </r>
        <r>  0.0000  0.0032  0.0002 </r>
        <r>  0.0000  0.0064  0.0000 </r>
        <r>  0.0002  0.0056  0.0004 </r>
        <r>  0.0000  0.0014  0.0005 </r>
        <r>  0.0000  0.0020  0.0006 </r>
        <r>  0.0000  0.0015  0.0010 </r>
        <r>  0.0000  0.0032  0.0008 </r>
        <r>  0.0000  0.0018  0.0006 </r>
        <r>  0.0005  0.0003  0.0015 </r>
        <r>  0.0003  0.0002  0.0010 </r>
        <r>  0.0001  0.0014  0.0005 </r>
        <r>  0.0000  0.0009  0.0005 </r>
        <r>  0.0007  0.0017  0.0014 </r>
        <r>  0.0013  0.0015  0.0023 </r>
        <r>  0.0014  0.0040  0.0014 </r>
        <r>  0.0010  0.0009  0.0034 </r>
        <r>  0.0000  0.0003  0.0011 </r>
        <r>  0.0002  0.0028  0.0018 </r>
        <r>  0.0000  0.0027  0.0024 </r>
        <r>  0.0001  0.0010  0.0008 </r>
        <r>  0.0018  0.0021  0.0024 </r>
        <r>  0.0001  0.0004  0.0010 </r>
        <r>  0.0017  0.0006  0.0016 </r>
        <r>  0.0000  0.0010  0.0017 </r>
        <r>  0.0001  0.0007  0.0014 </r>
        <r>  0.0008  0.0008  0.0015 </r>
       </set>
      </set>
     </set>
    </set>
   </array>
  </projected>
 </calculation>
 <structure name="finalpos" >
  <crystal>
   <varray name="basis" >
    <v>       8.45648900       0.00000000       8.04030100 </v>
    <v>       0.00000000      11.72984700       0.00000000 </v>
    <v>      -8.45648900       0.00000000       8.04030100 </v>
   </varray>
   <i name="volume">   1595.08833419 </i>
   <varray name="rec_basis" >
    <v>       0.05912619      -0.00000000       0.06218673 </v>
    <v>       0.00000000       0.08525260      -0.00000000 </v>
    <v>      -0.05912619       0.00000000       0.06218673 </v>
   </varray>
  </crystal>
  <varray name="positions" >
   <v>       0.26921000       0.24964000       0.20247400 </v>
   <v>       0.77229600       0.23886000       0.73002500 </v>
   <v>       0.71861100       0.76218400       0.24817900 </v>
   <v>       0.20185700       0.75521400       0.78262300 </v>
   <v>       0.28233300       0.24481300       0.72932000 </v>
   <v>       0.79720700       0.24749000       0.22639500 </v>
   <v>       0.73546700       0.75023600       0.80486700 </v>
   <v>       0.22227600       0.75149800       0.27496100 </v>
   <v>       0.00106800       0.00149700       0.99994900 </v>
   <v>       0.50412800       0.99946900       0.49817200 </v>
   <v>       0.49864500       0.99989500       0.99953900 </v>
   <v>       0.00350600       0.00255700       0.49981600 </v>
   <v>       0.49879200       0.49718500       0.00052900 </v>
   <v>       0.99874500       0.50891400       0.50064400 </v>
   <v>       0.00015900       0.49945700       0.00041600 </v>
   <v>       0.48479000       0.49350700       0.50342700 </v>
   <v>       0.47324600       0.74842900       0.96449700 </v>
   <v>       0.97082100       0.75498300       0.45240000 </v>
   <v>       0.97605300       0.25085000       0.97264600 </v>
   <v>       0.47052700       0.24139700       0.46815900 </v>
   <v>       0.01502700       0.75070600       0.03181300 </v>
   <v>       0.52945700       0.24865300       0.04071500 </v>
   <v>       0.01689300       0.25730300       0.53670400 </v>
   <v>       0.24731700       0.46970800       0.94773100 </v>
   <v>       0.45207300       0.53399800       0.25279900 </v>
   <v>       0.94756000       0.53352400       0.74633800 </v>
   <v>       0.54731500       0.02652800       0.74987800 </v>
   <v>       0.05083200       0.03596100       0.25233700 </v>
   <v>       0.75297300       0.98365700       0.04155100 </v>
   <v>       0.25825300       0.95844700       0.54692400 </v>
   <v>       0.24868400       0.03085200       0.94951900 </v>
   <v>       0.75087400       0.03296300       0.44817100 </v>
   <v>       0.45343500       0.95887500       0.24873700 </v>
   <v>       0.95193900       0.96558000       0.74710600 </v>
   <v>       0.75202300       0.52382600       0.05212800 </v>
   <v>       0.24096300       0.54707600       0.55160000 </v>
   <v>       0.54292500       0.45527100       0.75172600 </v>
   <v>       0.04937700       0.46569000       0.25389700 </v>
   <v>       0.65969000       0.62895500       0.50357200 </v>
  </varray>
 </structure>
</modeling>
