  39  39   1   0
  0.4089970E+02  0.1166870E-08  0.1172985E-08  0.1166870E-08  0.5000000E-15
   1.0000000000000000E-004
  CAR 
 CsPbBr3 cubic bulk                      
      8.05335940    -22.30640923  301      0.48871705      1.00000000
    -22.306  0.0000E+00  0.0000E+00
    -22.205  0.0000E+00  0.0000E+00
    -22.104  0.0000E+00  0.0000E+00
    -22.003  0.0000E+00  0.0000E+00
    -21.902  0.0000E+00  0.0000E+00
    -21.800  0.0000E+00  0.0000E+00
    -21.699  0.0000E+00  0.0000E+00
    -21.598  0.0000E+00  0.0000E+00
    -21.497  0.0000E+00  0.0000E+00
    -21.396  0.0000E+00  0.0000E+00
    -21.294  0.0000E+00  0.0000E+00
    -21.193  0.0000E+00  0.0000E+00
    -21.092  0.0000E+00  0.0000E+00
    -20.991  0.0000E+00  0.0000E+00
    -20.890  0.2066E+02  0.2091E+01
    -20.788  0.1977E+02  0.6000E+01
    -20.687  0.8323E+02  0.1442E+02
    -20.586  0.0000E+00  0.1600E+02
    -20.485  0.0000E+00  0.1600E+02
    -20.384  0.0000E+00  0.1600E+02
    -20.282  0.0000E+00  0.1600E+02
    -20.181  0.0000E+00  0.1600E+02
    -20.080  0.0000E+00  0.1600E+02
    -19.979  0.0000E+00  0.1600E+02
    -19.878  0.0000E+00  0.1600E+02
    -19.776  0.0000E+00  0.1600E+02
    -19.675  0.0000E+00  0.1600E+02
    -19.574  0.0000E+00  0.1600E+02
    -19.473  0.0000E+00  0.1600E+02
    -19.372  0.0000E+00  0.1600E+02
    -19.270  0.0000E+00  0.1600E+02
    -19.169  0.0000E+00  0.1600E+02
    -19.068  0.0000E+00  0.1600E+02
    -18.967  0.0000E+00  0.1600E+02
    -18.866  0.0000E+00  0.1600E+02
    -18.764  0.0000E+00  0.1600E+02
    -18.663  0.0000E+00  0.1600E+02
    -18.562  0.0000E+00  0.1600E+02
    -18.461  0.0000E+00  0.1600E+02
    -18.360  0.0000E+00  0.1600E+02
    -18.258  0.0000E+00  0.1600E+02
    -18.157  0.0000E+00  0.1600E+02
    -18.056  0.0000E+00  0.1600E+02
    -17.955  0.0000E+00  0.1600E+02
    -17.854  0.0000E+00  0.1600E+02
    -17.752  0.0000E+00  0.1600E+02
    -17.651  0.0000E+00  0.1600E+02
    -17.550  0.0000E+00  0.1600E+02
    -17.449  0.0000E+00  0.1600E+02
    -17.348  0.0000E+00  0.1600E+02
    -17.246  0.0000E+00  0.1600E+02
    -17.145  0.0000E+00  0.1600E+02
    -17.044  0.0000E+00  0.1600E+02
    -16.943  0.0000E+00  0.1600E+02
    -16.842  0.0000E+00  0.1600E+02
    -16.740  0.7054E-05  0.1600E+02
    -16.639  0.9880E+02  0.2600E+02
    -16.538  0.1153E+03  0.3766E+02
    -16.437  0.3404E+02  0.4145E+02
    -16.336  0.1436E+03  0.6054E+02
    -16.234  0.1849E+03  0.8871E+02
    -16.133  0.1976E+02  0.9600E+02
    -16.032  0.0000E+00  0.9600E+02
    -15.931  0.0000E+00  0.9600E+02
    -15.830  0.0000E+00  0.9600E+02
    -15.728  0.0000E+00  0.9600E+02
    -15.627  0.0000E+00  0.9600E+02
    -15.526  0.0000E+00  0.9600E+02
    -15.425  0.0000E+00  0.9600E+02
    -15.324  0.0000E+00  0.9600E+02
    -15.222  0.0000E+00  0.9600E+02
    -15.121  0.0000E+00  0.9600E+02
    -15.020  0.0000E+00  0.9600E+02
    -14.919  0.0000E+00  0.9600E+02
    -14.818  0.0000E+00  0.9600E+02
    -14.716  0.0000E+00  0.9600E+02
    -14.615  0.0000E+00  0.9600E+02
    -14.514  0.1590E+00  0.9602E+02
    -14.413  0.1235E+02  0.9800E+02
    -14.312  0.4037E+02  0.1021E+03
    -14.210  0.2925E+02  0.1052E+03
    -14.109  0.3207E+02  0.1095E+03
    -14.008  0.8317E+02  0.1194E+03
    -13.907  0.4521E+02  0.1273E+03
    -13.806  0.6626E+02  0.1367E+03
    -13.704  0.3535E+02  0.1411E+03
    -13.603  0.0000E+00  0.1420E+03
    -13.502  0.0000E+00  0.1420E+03
    -13.401  0.0000E+00  0.1420E+03
    -13.300  0.0000E+00  0.1420E+03
    -13.198  0.0000E+00  0.1420E+03
    -13.097  0.0000E+00  0.1420E+03
    -12.996  0.0000E+00  0.1420E+03
    -12.895  0.0000E+00  0.1420E+03
    -12.794  0.0000E+00  0.1420E+03
    -12.692  0.0000E+00  0.1420E+03
    -12.591  0.0000E+00  0.1420E+03
    -12.490  0.0000E+00  0.1420E+03
    -12.389  0.0000E+00  0.1420E+03
    -12.288  0.0000E+00  0.1420E+03
    -12.186  0.0000E+00  0.1420E+03
    -12.085  0.0000E+00  0.1420E+03
    -11.984  0.0000E+00  0.1420E+03
    -11.883  0.0000E+00  0.1420E+03
    -11.782  0.0000E+00  0.1420E+03
    -11.680  0.0000E+00  0.1420E+03
    -11.579  0.0000E+00  0.1420E+03
    -11.478  0.0000E+00  0.1420E+03
    -11.377  0.0000E+00  0.1420E+03
    -11.276  0.0000E+00  0.1420E+03
    -11.174  0.0000E+00  0.1420E+03
    -11.073  0.0000E+00  0.1420E+03
    -10.972  0.0000E+00  0.1420E+03
    -10.871  0.0000E+00  0.1420E+03
    -10.770  0.0000E+00  0.1420E+03
    -10.668  0.0000E+00  0.1420E+03
    -10.567  0.0000E+00  0.1420E+03
    -10.466  0.0000E+00  0.1420E+03
    -10.365  0.0000E+00  0.1420E+03
    -10.264  0.0000E+00  0.1420E+03
    -10.163  0.0000E+00  0.1420E+03
    -10.061  0.0000E+00  0.1420E+03
     -9.960  0.0000E+00  0.1420E+03
     -9.859  0.0000E+00  0.1420E+03
     -9.758  0.0000E+00  0.1420E+03
     -9.657  0.0000E+00  0.1420E+03
     -9.555  0.0000E+00  0.1420E+03
     -9.454  0.0000E+00  0.1420E+03
     -9.353  0.0000E+00  0.1420E+03
     -9.252  0.0000E+00  0.1420E+03
     -9.151  0.0000E+00  0.1420E+03
     -9.049  0.0000E+00  0.1420E+03
     -8.948  0.0000E+00  0.1420E+03
     -8.847  0.0000E+00  0.1420E+03
     -8.746  0.0000E+00  0.1420E+03
     -8.645  0.0000E+00  0.1420E+03
     -8.543  0.0000E+00  0.1420E+03
     -8.442  0.0000E+00  0.1420E+03
     -8.341  0.0000E+00  0.1420E+03
     -8.240  0.6320E-10  0.1420E+03
     -8.139  0.2470E+01  0.1422E+03
     -8.037  0.1950E+01  0.1424E+03
     -7.936  0.9201E+01  0.1437E+03
     -7.835  0.5341E+01  0.1445E+03
     -7.734  0.1481E+02  0.1462E+03
     -7.633  0.1503E+02  0.1483E+03
     -7.531  0.2501E+01  0.1490E+03
     -7.430  0.2965E+02  0.1525E+03
     -7.329  0.2864E+02  0.1559E+03
     -7.228  0.1149E+03  0.1694E+03
     -7.127  0.1233E+03  0.1850E+03
     -7.025  0.1316E+03  0.2041E+03
     -6.924  0.3661E+01  0.2049E+03
     -6.823  0.4982E+01  0.2055E+03
     -6.722  0.0000E+00  0.2058E+03
     -6.621  0.3306E-06  0.2058E+03
     -6.519  0.2470E+01  0.2060E+03
     -6.418  0.0000E+00  0.2060E+03
     -6.317  0.0000E+00  0.2060E+03
     -6.216  0.0000E+00  0.2060E+03
     -6.115  0.0000E+00  0.2060E+03
     -6.013  0.0000E+00  0.2060E+03
     -5.912  0.0000E+00  0.2060E+03
     -5.811  0.0000E+00  0.2060E+03
     -5.710  0.0000E+00  0.2060E+03
     -5.609  0.0000E+00  0.2060E+03
     -5.507  0.0000E+00  0.2060E+03
     -5.406  0.0000E+00  0.2060E+03
     -5.305  0.0000E+00  0.2060E+03
     -5.204  0.0000E+00  0.2060E+03
     -5.103  0.0000E+00  0.2060E+03
     -5.001  0.0000E+00  0.2060E+03
     -4.900  0.0000E+00  0.2060E+03
     -4.799  0.0000E+00  0.2060E+03
     -4.698  0.0000E+00  0.2060E+03
     -4.597  0.0000E+00  0.2060E+03
     -4.495  0.0000E+00  0.2060E+03
     -4.394  0.0000E+00  0.2060E+03
     -4.293  0.0000E+00  0.2060E+03
     -4.192  0.0000E+00  0.2060E+03
     -4.091  0.0000E+00  0.2060E+03
     -3.989  0.0000E+00  0.2060E+03
     -3.888  0.0000E+00  0.2060E+03
     -3.787  0.0000E+00  0.2060E+03
     -3.686  0.0000E+00  0.2060E+03
     -3.585  0.0000E+00  0.2060E+03
     -3.483  0.0000E+00  0.2060E+03
     -3.382  0.1448E+01  0.2061E+03
     -3.281  0.1671E+02  0.2079E+03
     -3.180  0.4653E+02  0.2137E+03
     -3.079  0.3014E+02  0.2176E+03
     -2.977  0.9042E+01  0.2187E+03
     -2.876  0.7630E+01  0.2198E+03
     -2.775  0.6745E-06  0.2200E+03
     -2.674  0.1391E+02  0.2214E+03
     -2.573  0.3464E+02  0.2255E+03
     -2.471  0.2866E+02  0.2294E+03
     -2.370  0.3188E+02  0.2332E+03
     -2.269  0.3785E+02  0.2381E+03
     -2.168  0.2392E+02  0.2409E+03
     -2.067  0.2359E+02  0.2436E+03
     -1.965  0.4595E+02  0.2494E+03
     -1.864  0.3015E+02  0.2526E+03
     -1.763  0.4759E+02  0.2583E+03
     -1.662  0.3577E+02  0.2629E+03
     -1.561  0.6242E+02  0.2711E+03
     -1.459  0.7204E+02  0.2798E+03
     -1.358  0.9966E+02  0.2916E+03
     -1.257  0.9105E+02  0.3040E+03
     -1.156  0.6942E+02  0.3135E+03
     -1.055  0.7689E+02  0.3248E+03
     -0.953  0.2719E+02  0.3285E+03
     -0.852  0.3117E+02  0.3327E+03
     -0.751  0.1587E+02  0.3349E+03
     -0.650  0.7587E+01  0.3358E+03
     -0.549  0.1213E+02  0.3372E+03
     -0.447  0.7466E+01  0.3388E+03
     -0.346  0.1041E+02  0.3401E+03
     -0.245  0.9991E+01  0.3415E+03
     -0.144  0.2024E-09  0.3420E+03
     -0.043  0.7411E+01  0.3427E+03
      0.059  0.2800E+01  0.3430E+03
      0.160  0.0000E+00  0.3438E+03
      0.261  0.0000E+00  0.3438E+03
      0.362  0.1339E-05  0.3438E+03
      0.463  0.2470E+01  0.3440E+03
      0.565  0.0000E+00  0.3440E+03
      0.666  0.0000E+00  0.3440E+03
      0.767  0.0000E+00  0.3440E+03
      0.868  0.0000E+00  0.3440E+03
      0.969  0.0000E+00  0.3440E+03
      1.071  0.0000E+00  0.3440E+03
      1.172  0.0000E+00  0.3440E+03
      1.273  0.0000E+00  0.3440E+03
      1.374  0.0000E+00  0.3440E+03
      1.475  0.0000E+00  0.3440E+03
      1.577  0.0000E+00  0.3440E+03
      1.678  0.0000E+00  0.3440E+03
      1.779  0.0000E+00  0.3440E+03
      1.880  0.0000E+00  0.3440E+03
      1.981  0.0000E+00  0.3440E+03
      2.083  0.0000E+00  0.3440E+03
      2.184  0.0000E+00  0.3440E+03
      2.285  0.0000E+00  0.3440E+03
      2.386  0.0000E+00  0.3440E+03
      2.487  0.0000E+00  0.3440E+03
      2.589  0.2926E+01  0.3443E+03
      2.690  0.9662E+01  0.3455E+03
      2.791  0.7319E+01  0.3462E+03
      2.892  0.4012E+01  0.3469E+03
      2.993  0.1556E+02  0.3486E+03
      3.095  0.1215E+02  0.3502E+03
      3.196  0.1531E+02  0.3523E+03
      3.297  0.1506E+02  0.3543E+03
      3.398  0.1181E+02  0.3564E+03
      3.499  0.9845E+01  0.3575E+03
      3.601  0.4940E+01  0.3580E+03
      3.702  0.0000E+00  0.3580E+03
      3.803  0.0000E+00  0.3580E+03
      3.904  0.0000E+00  0.3580E+03
      4.005  0.4941E+01  0.3585E+03
      4.107  0.9982E+01  0.3595E+03
      4.208  0.4941E+01  0.3602E+03
      4.309  0.1420E+02  0.3617E+03
      4.410  0.2287E+02  0.3648E+03
      4.511  0.2420E+02  0.3677E+03
      4.613  0.2880E+02  0.3717E+03
      4.714  0.2838E+02  0.3749E+03
      4.815  0.2059E+02  0.3771E+03
      4.916  0.2339E+02  0.3801E+03
      5.017  0.0000E+00  0.3802E+03
      5.119  0.0000E+00  0.3802E+03
      5.220  0.7401E+01  0.3810E+03
      5.321  0.4913E+01  0.3817E+03
      5.422  0.2147E+01  0.3822E+03
      5.523  0.9880E+01  0.3832E+03
      5.625  0.7401E+01  0.3840E+03
      5.726  0.1687E+02  0.3860E+03
      5.827  0.1072E+02  0.3873E+03
      5.928  0.2413E+02  0.3902E+03
      6.029  0.2225E+02  0.3930E+03
      6.131  0.3391E+02  0.3967E+03
      6.232  0.2141E+02  0.3999E+03
      6.333  0.2999E+02  0.4035E+03
      6.434  0.3671E+02  0.4085E+03
      6.535  0.2987E+02  0.4115E+03
      6.637  0.2751E+02  0.4153E+03
      6.738  0.2470E+01  0.4160E+03
      6.839  0.0000E+00  0.4160E+03
      6.940  0.0000E+00  0.4160E+03
      7.041  0.0000E+00  0.4160E+03
      7.143  0.0000E+00  0.4160E+03
      7.244  0.0000E+00  0.4160E+03
      7.345  0.0000E+00  0.4160E+03
      7.446  0.0000E+00  0.4160E+03
      7.547  0.0000E+00  0.4160E+03
      7.649  0.0000E+00  0.4160E+03
      7.750  0.0000E+00  0.4160E+03
      7.851  0.0000E+00  0.4160E+03
      7.952  0.0000E+00  0.4160E+03
      8.053  0.0000E+00  0.4160E+03
      8.05335940    -22.30640923  301      0.48871705      1.00000000
    -22.306  0.0000E+00  0.0000E+00  0.0000E+00
    -22.205  0.0000E+00  0.0000E+00  0.0000E+00
    -22.104  0.0000E+00  0.0000E+00  0.0000E+00
    -22.003  0.0000E+00  0.0000E+00  0.0000E+00
    -21.902  0.0000E+00  0.0000E+00  0.0000E+00
    -21.800  0.0000E+00  0.0000E+00  0.0000E+00
    -21.699  0.0000E+00  0.0000E+00  0.0000E+00
    -21.598  0.0000E+00  0.0000E+00  0.0000E+00
    -21.497  0.0000E+00  0.0000E+00  0.0000E+00
    -21.396  0.0000E+00  0.0000E+00  0.0000E+00
    -21.294  0.0000E+00  0.0000E+00  0.0000E+00
    -21.193  0.0000E+00  0.0000E+00  0.0000E+00
    -21.092  0.0000E+00  0.0000E+00  0.0000E+00
    -20.991  0.0000E+00  0.0000E+00  0.0000E+00
    -20.890  0.5423E-06  0.2903E-08  0.1440E-09
    -20.788  0.1578E-02  0.2622E-06  0.4127E-07
    -20.687  0.1752E+02  0.1743E-05  0.4177E-05
    -20.586  0.0000E+00  0.0000E+00  0.0000E+00
    -20.485  0.0000E+00  0.0000E+00  0.0000E+00
    -20.384  0.0000E+00  0.0000E+00  0.0000E+00
    -20.282  0.0000E+00  0.0000E+00  0.0000E+00
    -20.181  0.0000E+00  0.0000E+00  0.0000E+00
    -20.080  0.0000E+00  0.0000E+00  0.0000E+00
    -19.979  0.0000E+00  0.0000E+00  0.0000E+00
    -19.878  0.0000E+00  0.0000E+00  0.0000E+00
    -19.776  0.0000E+00  0.0000E+00  0.0000E+00
    -19.675  0.0000E+00  0.0000E+00  0.0000E+00
    -19.574  0.0000E+00  0.0000E+00  0.0000E+00
    -19.473  0.0000E+00  0.0000E+00  0.0000E+00
    -19.372  0.0000E+00  0.0000E+00  0.0000E+00
    -19.270  0.0000E+00  0.0000E+00  0.0000E+00
    -19.169  0.0000E+00  0.0000E+00  0.0000E+00
    -19.068  0.0000E+00  0.0000E+00  0.0000E+00
    -18.967  0.0000E+00  0.0000E+00  0.0000E+00
    -18.866  0.0000E+00  0.0000E+00  0.0000E+00
    -18.764  0.0000E+00  0.0000E+00  0.0000E+00
    -18.663  0.0000E+00  0.0000E+00  0.0000E+00
    -18.562  0.0000E+00  0.0000E+00  0.0000E+00
    -18.461  0.0000E+00  0.0000E+00  0.0000E+00
    -18.360  0.0000E+00  0.0000E+00  0.0000E+00
    -18.258  0.0000E+00  0.0000E+00  0.0000E+00
    -18.157  0.0000E+00  0.0000E+00  0.0000E+00
    -18.056  0.0000E+00  0.0000E+00  0.0000E+00
    -17.955  0.0000E+00  0.0000E+00  0.0000E+00
    -17.854  0.0000E+00  0.0000E+00  0.0000E+00
    -17.752  0.0000E+00  0.0000E+00  0.0000E+00
    -17.651  0.0000E+00  0.0000E+00  0.0000E+00
    -17.550  0.0000E+00  0.0000E+00  0.0000E+00
    -17.449  0.0000E+00  0.0000E+00  0.0000E+00
    -17.348  0.0000E+00  0.0000E+00  0.0000E+00
    -17.246  0.0000E+00  0.0000E+00  0.0000E+00
    -17.145  0.0000E+00  0.0000E+00  0.0000E+00
    -17.044  0.0000E+00  0.0000E+00  0.0000E+00
    -16.943  0.0000E+00  0.0000E+00  0.0000E+00
    -16.842  0.0000E+00  0.0000E+00  0.0000E+00
    -16.740  0.1000E-10  0.5364E-11  0.9503E-12
    -16.639  0.5928E-04  0.2851E-04  0.4433E-05
    -16.538  0.3693E-05  0.1466E-05  0.1634E-06
    -16.437  0.2591E-04  0.1333E-04  0.3167E-05
    -16.336  0.5632E-04  0.8049E-04  0.1360E-04
    -16.234  0.6738E-04  0.3681E-04  0.4538E-05
    -16.133  0.6591E-07  0.8454E-07  0.1578E-07
    -16.032  0.0000E+00  0.0000E+00  0.0000E+00
    -15.931  0.0000E+00  0.0000E+00  0.0000E+00
    -15.830  0.0000E+00  0.0000E+00  0.0000E+00
    -15.728  0.0000E+00  0.0000E+00  0.0000E+00
    -15.627  0.0000E+00  0.0000E+00  0.0000E+00
    -15.526  0.0000E+00  0.0000E+00  0.0000E+00
    -15.425  0.0000E+00  0.0000E+00  0.0000E+00
    -15.324  0.0000E+00  0.0000E+00  0.0000E+00
    -15.222  0.0000E+00  0.0000E+00  0.0000E+00
    -15.121  0.0000E+00  0.0000E+00  0.0000E+00
    -15.020  0.0000E+00  0.0000E+00  0.0000E+00
    -14.919  0.0000E+00  0.0000E+00  0.0000E+00
    -14.818  0.0000E+00  0.0000E+00  0.0000E+00
    -14.716  0.0000E+00  0.0000E+00  0.0000E+00
    -14.615  0.0000E+00  0.0000E+00  0.0000E+00
    -14.514  0.1547E-04  0.5998E-05  0.3079E-06
    -14.413  0.6489E-03  0.6202E-03  0.3592E-04
    -14.312  0.2476E-02  0.2158E-02  0.1431E-03
    -14.210  0.2466E-02  0.2593E-02  0.7991E-04
    -14.109  0.6176E-03  0.2438E-02  0.1047E-03
    -14.008  0.1643E-02  0.5434E-02  0.3506E-03
    -13.907  0.8704E-03  0.2130E-02  0.2772E-03
    -13.806  0.1327E-02  0.3789E-02  0.4547E-03
    -13.704  0.4620E-03  0.1280E-02  0.1947E-03
    -13.603  0.0000E+00  0.0000E+00  0.0000E+00
    -13.502  0.0000E+00  0.0000E+00  0.0000E+00
    -13.401  0.0000E+00  0.0000E+00  0.0000E+00
    -13.300  0.0000E+00  0.0000E+00  0.0000E+00
    -13.198  0.0000E+00  0.0000E+00  0.0000E+00
    -13.097  0.0000E+00  0.0000E+00  0.0000E+00
    -12.996  0.0000E+00  0.0000E+00  0.0000E+00
    -12.895  0.0000E+00  0.0000E+00  0.0000E+00
    -12.794  0.0000E+00  0.0000E+00  0.0000E+00
    -12.692  0.0000E+00  0.0000E+00  0.0000E+00
    -12.591  0.0000E+00  0.0000E+00  0.0000E+00
    -12.490  0.0000E+00  0.0000E+00  0.0000E+00
    -12.389  0.0000E+00  0.0000E+00  0.0000E+00
    -12.288  0.0000E+00  0.0000E+00  0.0000E+00
    -12.186  0.0000E+00  0.0000E+00  0.0000E+00
    -12.085  0.0000E+00  0.0000E+00  0.0000E+00
    -11.984  0.0000E+00  0.0000E+00  0.0000E+00
    -11.883  0.0000E+00  0.0000E+00  0.0000E+00
    -11.782  0.0000E+00  0.0000E+00  0.0000E+00
    -11.680  0.0000E+00  0.0000E+00  0.0000E+00
    -11.579  0.0000E+00  0.0000E+00  0.0000E+00
    -11.478  0.0000E+00  0.0000E+00  0.0000E+00
    -11.377  0.0000E+00  0.0000E+00  0.0000E+00
    -11.276  0.0000E+00  0.0000E+00  0.0000E+00
    -11.174  0.0000E+00  0.0000E+00  0.0000E+00
    -11.073  0.0000E+00  0.0000E+00  0.0000E+00
    -10.972  0.0000E+00  0.0000E+00  0.0000E+00
    -10.871  0.0000E+00  0.0000E+00  0.0000E+00
    -10.770  0.0000E+00  0.0000E+00  0.0000E+00
    -10.668  0.0000E+00  0.0000E+00  0.0000E+00
    -10.567  0.0000E+00  0.0000E+00  0.0000E+00
    -10.466  0.0000E+00  0.0000E+00  0.0000E+00
    -10.365  0.0000E+00  0.0000E+00  0.0000E+00
    -10.264  0.0000E+00  0.0000E+00  0.0000E+00
    -10.163  0.0000E+00  0.0000E+00  0.0000E+00
    -10.061  0.0000E+00  0.0000E+00  0.0000E+00
     -9.960  0.0000E+00  0.0000E+00  0.0000E+00
     -9.859  0.0000E+00  0.0000E+00  0.0000E+00
     -9.758  0.0000E+00  0.0000E+00  0.0000E+00
     -9.657  0.0000E+00  0.0000E+00  0.0000E+00
     -9.555  0.0000E+00  0.0000E+00  0.0000E+00
     -9.454  0.0000E+00  0.0000E+00  0.0000E+00
     -9.353  0.0000E+00  0.0000E+00  0.0000E+00
     -9.252  0.0000E+00  0.0000E+00  0.0000E+00
     -9.151  0.0000E+00  0.0000E+00  0.0000E+00
     -9.049  0.0000E+00  0.0000E+00  0.0000E+00
     -8.948  0.0000E+00  0.0000E+00  0.0000E+00
     -8.847  0.0000E+00  0.0000E+00  0.0000E+00
     -8.746  0.0000E+00  0.0000E+00  0.0000E+00
     -8.645  0.0000E+00  0.0000E+00  0.0000E+00
     -8.543  0.0000E+00  0.0000E+00  0.0000E+00
     -8.442  0.0000E+00  0.0000E+00  0.0000E+00
     -8.341  0.0000E+00  0.0000E+00  0.0000E+00
     -8.240  0.3223E-17  0.2392E-14  0.2664E-15
     -8.139  0.1260E-06  0.9349E-04  0.1041E-04
     -8.037  0.4691E-06  0.9593E-03  0.5143E-05
     -7.936  0.6321E-06  0.5027E-02  0.2744E-04
     -7.835  0.2009E-05  0.3985E-02  0.1113E-04
     -7.734  0.8111E-05  0.1667E-01  0.3589E-04
     -7.633  0.1962E-04  0.2192E-01  0.4391E-04
     -7.531  0.8887E-06  0.1056E-01  0.4156E-05
     -7.430  0.5293E-04  0.1399E+00  0.7683E-04
     -7.329  0.1159E-04  0.2126E-01  0.1475E-04
     -7.228  0.6082E-04  0.6603E+00  0.6461E-04
     -7.127  0.3301E-04  0.8800E+01  0.6127E-04
     -7.025  0.2914E-04  0.2207E+02  0.4244E-04
     -6.924  0.4300E-05  0.3649E-01  0.1218E-04
     -6.823  0.2155E-04  0.3242E-01  0.1730E-04
     -6.722  0.0000E+00  0.0000E+00  0.0000E+00
     -6.621  0.1036E-11  0.7966E-09  0.1810E-12
     -6.519  0.7745E-05  0.5952E-02  0.1352E-05
     -6.418  0.0000E+00  0.0000E+00  0.0000E+00
     -6.317  0.0000E+00  0.0000E+00  0.0000E+00
     -6.216  0.0000E+00  0.0000E+00  0.0000E+00
     -6.115  0.0000E+00  0.0000E+00  0.0000E+00
     -6.013  0.0000E+00  0.0000E+00  0.0000E+00
     -5.912  0.0000E+00  0.0000E+00  0.0000E+00
     -5.811  0.0000E+00  0.0000E+00  0.0000E+00
     -5.710  0.0000E+00  0.0000E+00  0.0000E+00
     -5.609  0.0000E+00  0.0000E+00  0.0000E+00
     -5.507  0.0000E+00  0.0000E+00  0.0000E+00
     -5.406  0.0000E+00  0.0000E+00  0.0000E+00
     -5.305  0.0000E+00  0.0000E+00  0.0000E+00
     -5.204  0.0000E+00  0.0000E+00  0.0000E+00
     -5.103  0.0000E+00  0.0000E+00  0.0000E+00
     -5.001  0.0000E+00  0.0000E+00  0.0000E+00
     -4.900  0.0000E+00  0.0000E+00  0.0000E+00
     -4.799  0.0000E+00  0.0000E+00  0.0000E+00
     -4.698  0.0000E+00  0.0000E+00  0.0000E+00
     -4.597  0.0000E+00  0.0000E+00  0.0000E+00
     -4.495  0.0000E+00  0.0000E+00  0.0000E+00
     -4.394  0.0000E+00  0.0000E+00  0.0000E+00
     -4.293  0.0000E+00  0.0000E+00  0.0000E+00
     -4.192  0.0000E+00  0.0000E+00  0.0000E+00
     -4.091  0.0000E+00  0.0000E+00  0.0000E+00
     -3.989  0.0000E+00  0.0000E+00  0.0000E+00
     -3.888  0.0000E+00  0.0000E+00  0.0000E+00
     -3.787  0.0000E+00  0.0000E+00  0.0000E+00
     -3.686  0.0000E+00  0.0000E+00  0.0000E+00
     -3.585  0.0000E+00  0.0000E+00  0.0000E+00
     -3.483  0.0000E+00  0.0000E+00  0.0000E+00
     -3.382  0.1005E-06  0.9492E-03  0.4733E-04
     -3.281  0.6892E-04  0.1006E-01  0.5268E-03
     -3.180  0.5301E-03  0.2636E-01  0.2231E-02
     -3.079  0.2872E-03  0.1374E-01  0.1738E-02
     -2.977  0.1013E-04  0.6293E-02  0.4972E-03
     -2.876  0.1018E-04  0.4483E-02  0.3098E-03
     -2.775  0.2912E-10  0.5402E-09  0.1659E-10
     -2.674  0.7005E-03  0.1065E-01  0.6477E-03
     -2.573  0.1201E-02  0.2741E-01  0.1609E-02
     -2.471  0.2109E-02  0.2491E-01  0.1332E-02
     -2.370  0.2703E-02  0.1649E-01  0.2714E-02
     -2.269  0.2466E-02  0.2099E-01  0.3449E-02
     -2.168  0.3759E-02  0.8408E-02  0.3004E-02
     -2.067  0.9104E-02  0.1518E-01  0.2452E-02
     -1.965  0.1831E-01  0.6249E-01  0.4176E-02
     -1.864  0.6371E-02  0.4339E-01  0.2519E-02
     -1.763  0.2463E-02  0.1056E+00  0.6255E-02
     -1.662  0.2095E-02  0.7984E-01  0.5615E-02
     -1.561  0.3366E-02  0.1008E+00  0.1310E-01
     -1.459  0.3259E-02  0.8116E-01  0.1535E-01
     -1.358  0.4151E-02  0.8000E-01  0.1977E-01
     -1.257  0.6888E-02  0.8054E-01  0.1565E-01
     -1.156  0.1999E-02  0.4131E-01  0.1053E-01
     -1.055  0.1162E-02  0.7997E-01  0.1144E-01
     -0.953  0.7646E-03  0.2548E-01  0.4925E-02
     -0.852  0.1006E-02  0.2665E-01  0.5961E-02
     -0.751  0.6738E-03  0.6323E-02  0.8938E-03
     -0.650  0.1162E-03  0.4048E-02  0.3822E-03
     -0.549  0.7987E-04  0.2527E-02  0.8942E-03
     -0.447  0.1529E-03  0.1440E-02  0.5454E-03
     -0.346  0.9800E-04  0.1305E-02  0.6511E-03
     -0.245  0.4665E-04  0.1438E-02  0.2312E-03
     -0.144  0.1594E-14  0.2843E-14  0.9038E-14
     -0.043  0.2596E-04  0.1053E-02  0.4953E-03
      0.059  0.2608E-05  0.2301E-04  0.1542E-03
      0.160  0.0000E+00  0.0000E+00  0.0000E+00
      0.261  0.0000E+00  0.0000E+00  0.0000E+00
      0.362  0.1469E-11  0.5547E-11  0.1026E-09
      0.463  0.2711E-05  0.1023E-04  0.1893E-03
      0.565  0.0000E+00  0.0000E+00  0.0000E+00
      0.666  0.0000E+00  0.0000E+00  0.0000E+00
      0.767  0.0000E+00  0.0000E+00  0.0000E+00
      0.868  0.0000E+00  0.0000E+00  0.0000E+00
      0.969  0.0000E+00  0.0000E+00  0.0000E+00
      1.071  0.0000E+00  0.0000E+00  0.0000E+00
      1.172  0.0000E+00  0.0000E+00  0.0000E+00
      1.273  0.0000E+00  0.0000E+00  0.0000E+00
      1.374  0.0000E+00  0.0000E+00  0.0000E+00
      1.475  0.0000E+00  0.0000E+00  0.0000E+00
      1.577  0.0000E+00  0.0000E+00  0.0000E+00
      1.678  0.0000E+00  0.0000E+00  0.0000E+00
      1.779  0.0000E+00  0.0000E+00  0.0000E+00
      1.880  0.0000E+00  0.0000E+00  0.0000E+00
      1.981  0.0000E+00  0.0000E+00  0.0000E+00
      2.083  0.0000E+00  0.0000E+00  0.0000E+00
      2.184  0.0000E+00  0.0000E+00  0.0000E+00
      2.285  0.0000E+00  0.0000E+00  0.0000E+00
      2.386  0.0000E+00  0.0000E+00  0.0000E+00
      2.487  0.0000E+00  0.0000E+00  0.0000E+00
      2.589  0.1115E-04  0.3932E-03  0.5650E-03
      2.690  0.1375E-03  0.1337E-02  0.1556E-02
      2.791  0.8822E-04  0.5940E-03  0.1780E-02
      2.892  0.1969E-03  0.5912E-03  0.8142E-03
      2.993  0.4565E-03  0.1604E-02  0.4642E-02
      3.095  0.6837E-03  0.2066E-02  0.2470E-02
      3.196  0.3897E-03  0.2157E-02  0.2940E-02
      3.297  0.2840E-03  0.1202E-02  0.2865E-02
      3.398  0.2340E-03  0.1707E-02  0.2215E-02
      3.499  0.1971E-03  0.1437E-02  0.1530E-02
      3.601  0.1218E-03  0.6066E-03  0.5358E-03
      3.702  0.0000E+00  0.0000E+00  0.0000E+00
      3.803  0.0000E+00  0.0000E+00  0.0000E+00
      3.904  0.0000E+00  0.0000E+00  0.0000E+00
      4.005  0.1203E-04  0.8236E-03  0.1695E-02
      4.107  0.1800E-03  0.1669E-02  0.2089E-02
      4.208  0.4403E-05  0.1760E-03  0.2698E-02
      4.309  0.2930E-03  0.2168E-02  0.1104E-01
      4.410  0.1627E-02  0.2157E-02  0.8040E-02
      4.511  0.1361E-02  0.5961E-02  0.1157E-01
      4.613  0.2457E-02  0.5211E-02  0.1041E-01
      4.714  0.3659E-02  0.5768E-02  0.1050E-01
      4.815  0.3078E-02  0.5025E-02  0.9812E-02
      4.916  0.6733E-02  0.4208E-02  0.6938E-02
      5.017  0.0000E+00  0.0000E+00  0.0000E+00
      5.119  0.0000E+00  0.0000E+00  0.0000E+00
      5.220  0.2346E-02  0.1323E-02  0.4750E-02
      5.321  0.6997E-02  0.3602E-02  0.2877E-02
      5.422  0.1025E-02  0.1010E-02  0.1958E-02
      5.523  0.1714E-01  0.1699E-02  0.7355E-02
      5.625  0.9440E-02  0.3920E-02  0.3566E-02
      5.726  0.1481E-01  0.1550E-02  0.2056E-01
      5.827  0.4851E-02  0.1559E-02  0.1720E-01
      5.928  0.1076E-01  0.2573E-02  0.5253E-01
      6.029  0.2561E-02  0.1257E-01  0.5319E-01
      6.131  0.4855E-01  0.2534E-01  0.1604E+00
      6.232  0.1424E-01  0.9689E-02  0.1156E+00
      6.333  0.5068E-01  0.1337E-01  0.4192E+00
      6.434  0.2448E-01  0.2472E-01  0.3495E+00
      6.535  0.1409E-01  0.2580E-01  0.3926E+00
      6.637  0.3000E-01  0.1959E-01  0.4194E+00
      6.738  0.1216E-02  0.6355E-03  0.2089E-01
      6.839  0.0000E+00  0.0000E+00  0.0000E+00
      6.940  0.0000E+00  0.0000E+00  0.0000E+00
      7.041  0.0000E+00  0.0000E+00  0.0000E+00
      7.143  0.0000E+00  0.0000E+00  0.0000E+00
      7.244  0.0000E+00  0.0000E+00  0.0000E+00
      7.345  0.0000E+00  0.0000E+00  0.0000E+00
      7.446  0.0000E+00  0.0000E+00  0.0000E+00
      7.547  0.0000E+00  0.0000E+00  0.0000E+00
      7.649  0.0000E+00  0.0000E+00  0.0000E+00
      7.750  0.0000E+00  0.0000E+00  0.0000E+00
      7.851  0.0000E+00  0.0000E+00  0.0000E+00
      7.952  0.0000E+00  0.0000E+00  0.0000E+00
      8.053  0.0000E+00  0.0000E+00  0.0000E+00
      8.05335940    -22.30640923  301      0.48871705      1.00000000
    -22.306  0.0000E+00  0.0000E+00  0.0000E+00
    -22.205  0.0000E+00  0.0000E+00  0.0000E+00
    -22.104  0.0000E+00  0.0000E+00  0.0000E+00
    -22.003  0.0000E+00  0.0000E+00  0.0000E+00
    -21.902  0.0000E+00  0.0000E+00  0.0000E+00
    -21.800  0.0000E+00  0.0000E+00  0.0000E+00
    -21.699  0.0000E+00  0.0000E+00  0.0000E+00
    -21.598  0.0000E+00  0.0000E+00  0.0000E+00
    -21.497  0.0000E+00  0.0000E+00  0.0000E+00
    -21.396  0.0000E+00  0.0000E+00  0.0000E+00
    -21.294  0.0000E+00  0.0000E+00  0.0000E+00
    -21.193  0.0000E+00  0.0000E+00  0.0000E+00
    -21.092  0.0000E+00  0.0000E+00  0.0000E+00
    -20.991  0.0000E+00  0.0000E+00  0.0000E+00
    -20.890  0.8365E-05  0.3803E-08  0.3632E-09
    -20.788  0.4665E-03  0.7397E-07  0.1000E-07
    -20.687  0.1754E+02  0.2346E-04  0.6725E-05
    -20.586  0.0000E+00  0.0000E+00  0.0000E+00
    -20.485  0.0000E+00  0.0000E+00  0.0000E+00
    -20.384  0.0000E+00  0.0000E+00  0.0000E+00
    -20.282  0.0000E+00  0.0000E+00  0.0000E+00
    -20.181  0.0000E+00  0.0000E+00  0.0000E+00
    -20.080  0.0000E+00  0.0000E+00  0.0000E+00
    -19.979  0.0000E+00  0.0000E+00  0.0000E+00
    -19.878  0.0000E+00  0.0000E+00  0.0000E+00
    -19.776  0.0000E+00  0.0000E+00  0.0000E+00
    -19.675  0.0000E+00  0.0000E+00  0.0000E+00
    -19.574  0.0000E+00  0.0000E+00  0.0000E+00
    -19.473  0.0000E+00  0.0000E+00  0.0000E+00
    -19.372  0.0000E+00  0.0000E+00  0.0000E+00
    -19.270  0.0000E+00  0.0000E+00  0.0000E+00
    -19.169  0.0000E+00  0.0000E+00  0.0000E+00
    -19.068  0.0000E+00  0.0000E+00  0.0000E+00
    -18.967  0.0000E+00  0.0000E+00  0.0000E+00
    -18.866  0.0000E+00  0.0000E+00  0.0000E+00
    -18.764  0.0000E+00  0.0000E+00  0.0000E+00
    -18.663  0.0000E+00  0.0000E+00  0.0000E+00
    -18.562  0.0000E+00  0.0000E+00  0.0000E+00
    -18.461  0.0000E+00  0.0000E+00  0.0000E+00
    -18.360  0.0000E+00  0.0000E+00  0.0000E+00
    -18.258  0.0000E+00  0.0000E+00  0.0000E+00
    -18.157  0.0000E+00  0.0000E+00  0.0000E+00
    -18.056  0.0000E+00  0.0000E+00  0.0000E+00
    -17.955  0.0000E+00  0.0000E+00  0.0000E+00
    -17.854  0.0000E+00  0.0000E+00  0.0000E+00
    -17.752  0.0000E+00  0.0000E+00  0.0000E+00
    -17.651  0.0000E+00  0.0000E+00  0.0000E+00
    -17.550  0.0000E+00  0.0000E+00  0.0000E+00
    -17.449  0.0000E+00  0.0000E+00  0.0000E+00
    -17.348  0.0000E+00  0.0000E+00  0.0000E+00
    -17.246  0.0000E+00  0.0000E+00  0.0000E+00
    -17.145  0.0000E+00  0.0000E+00  0.0000E+00
    -17.044  0.0000E+00  0.0000E+00  0.0000E+00
    -16.943  0.0000E+00  0.0000E+00  0.0000E+00
    -16.842  0.0000E+00  0.0000E+00  0.0000E+00
    -16.740  0.6284E-11  0.2348E-11  0.2766E-12
    -16.639  0.2929E-04  0.2867E-04  0.6894E-05
    -16.538  0.2412E-04  0.1182E-04  0.1633E-05
    -16.437  0.3181E-04  0.2847E-04  0.5726E-05
    -16.336  0.6274E-04  0.4900E-04  0.7204E-05
    -16.234  0.1078E-04  0.6400E-05  0.7686E-06
    -16.133  0.5781E-05  0.3897E-05  0.5582E-06
    -16.032  0.0000E+00  0.0000E+00  0.0000E+00
    -15.931  0.0000E+00  0.0000E+00  0.0000E+00
    -15.830  0.0000E+00  0.0000E+00  0.0000E+00
    -15.728  0.0000E+00  0.0000E+00  0.0000E+00
    -15.627  0.0000E+00  0.0000E+00  0.0000E+00
    -15.526  0.0000E+00  0.0000E+00  0.0000E+00
    -15.425  0.0000E+00  0.0000E+00  0.0000E+00
    -15.324  0.0000E+00  0.0000E+00  0.0000E+00
    -15.222  0.0000E+00  0.0000E+00  0.0000E+00
    -15.121  0.0000E+00  0.0000E+00  0.0000E+00
    -15.020  0.0000E+00  0.0000E+00  0.0000E+00
    -14.919  0.0000E+00  0.0000E+00  0.0000E+00
    -14.818  0.0000E+00  0.0000E+00  0.0000E+00
    -14.716  0.0000E+00  0.0000E+00  0.0000E+00
    -14.615  0.0000E+00  0.0000E+00  0.0000E+00
    -14.514  0.1409E-04  0.2500E-05  0.6520E-07
    -14.413  0.8165E-03  0.2928E-03  0.5981E-05
    -14.312  0.1522E-02  0.2073E-02  0.6051E-04
    -14.210  0.2044E-02  0.2170E-02  0.7596E-04
    -14.109  0.9280E-03  0.2863E-02  0.1302E-03
    -14.008  0.2382E-02  0.6017E-02  0.4720E-03
    -13.907  0.6801E-03  0.2563E-02  0.3334E-03
    -13.806  0.7741E-03  0.2137E-02  0.3355E-03
    -13.704  0.9180E-03  0.1772E-02  0.1791E-03
    -13.603  0.0000E+00  0.0000E+00  0.0000E+00
    -13.502  0.0000E+00  0.0000E+00  0.0000E+00
    -13.401  0.0000E+00  0.0000E+00  0.0000E+00
    -13.300  0.0000E+00  0.0000E+00  0.0000E+00