 running on   64 total cores
 distrk:  each k-point on   64 cores,    1 groups
 distr:  one band on    8 cores,    8 groups
 using from now: INCAR     
 vasp.5.4.4.18Apr17-6-g9f103f2a35 (build Jun 22 2020 09:27:21) complex           
 POSCAR found type information on POSCAR  Cs Pb Br
 POSCAR found :  3 types and      39 ions
 scaLAPACK will be used
 LDA part: xc-table for Pade appr. of Perdew
 POSCAR found type information on POSCAR  Cs Pb Br
 POSCAR found :  3 types and      39 ions
 POSCAR, INCAR and KPOINTS ok, starting setup
 FFT: planning ...
 WAVECAR not read
 entering main loop
       N       E                     dE             d eps       ncg     rms          rms(c)
DAV:   1     0.133847356956E+04    0.13385E+04   -0.11058E+05  3488   0.973E+02
DAV:   2    -0.111144125726E+04   -0.24499E+04   -0.23655E+04  4088   0.300E+02
DAV:   3    -0.147366128218E+04   -0.36222E+03   -0.36030E+03  4448   0.137E+02
DAV:   4    -0.148546261558E+04   -0.11801E+02   -0.11768E+02  3920   0.327E+01
DAV:   5    -0.148599827487E+04   -0.53566E+00   -0.53538E+00  4448   0.544E+00BRMIX: very serious problems
 the old and the new charge density differ
 old charge density:   345.00000 new  344.00000
    0.113E+01
DAV:   6    -0.140834509934E+04    0.77653E+02   -0.23373E+01  4320   0.312E+01    0.792E+00
DAV:   7    -0.140783099383E+04    0.51411E+00   -0.89422E+00  4200   0.577E+00    0.384E+00
DAV:   8    -0.140799738539E+04   -0.16639E+00   -0.47283E-01  4112   0.213E+00    0.219E+00
DAV:   9    -0.140805590798E+04   -0.58523E-01   -0.14594E-01  3840   0.125E+00    0.429E-01
DAV:  10    -0.140805892509E+04   -0.30171E-02   -0.19456E-02  4760   0.433E-01    0.313E-01
DAV:  11    -0.140806155949E+04   -0.26344E-02   -0.33585E-03  4080   0.176E-01    0.125E-01
DAV:  12    -0.140806383279E+04   -0.22733E-02   -0.43766E-03  3712   0.179E-01    0.106E-01
DAV:  13    -0.140806340691E+04    0.42588E-03   -0.17731E-03  4608   0.119E-01    0.482E-02
DAV:  14    -0.140806341633E+04   -0.94165E-05   -0.40267E-04  3888   0.393E-02    0.307E-02
DAV:  15    -0.140806341823E+04   -0.19006E-05   -0.44229E-05  3664   0.160E-02    0.166E-02
DAV:  16    -0.140806348066E+04   -0.62437E-04   -0.38277E-05  4048   0.188E-02    0.775E-03
DAV:  17    -0.140806347750E+04    0.31654E-05   -0.72539E-06  4000   0.740E-03    0.475E-03
DAV:  18    -0.140806347439E+04    0.31031E-05   -0.23994E-06  2912   0.309E-03    0.236E-03
DAV:  19    -0.140806347220E+04    0.21947E-05   -0.12739E-06  2312   0.210E-03    0.181E-03
DAV:  20    -0.140806347004E+04    0.21552E-05   -0.11280E-06  2232   0.156E-03    0.116E-03
DAV:  21    -0.140806346979E+04    0.25382E-06   -0.12380E-07  2000   0.101E-03
   1 F= -.14080635E+04 E0= -.14080635E+04  d E =-.555269E-46
Application 1923469 resources: utime ~32093s, stime ~129s, Rss ~78040, inblocks ~1328, outblocks ~111448
