CsPbBr3 cubic bulk                      
           1
     8.456489    0.000000    8.040301
     0.000000   11.729847    0.000000
    -8.456489    0.000000    8.040301
   Cs   Pb   Br
   8   8  23
Direct configuration=     1
   0.27330100  0.24652500  0.20162700
   0.77367200  0.23535700  0.72877700
   0.70941800  0.76317900  0.26076300
   0.20685800  0.75475800  0.77924500
   0.27008500  0.23833000  0.72856000
   0.79866600  0.24524900  0.22555300
   0.73625900  0.76008400  0.78571100
   0.22335300  0.75547800  0.29177400
   0.00343600  0.99962800  0.00273200
   0.49693200  0.99953100  0.49823500
   0.50082600  0.99964300  0.99827200
   0.99706700  0.99834900  0.49934900
   0.50157800  0.50102100  0.00395500
   0.00335700  0.50100700  0.50315000
   0.00284300  0.50075600  0.00251400
   0.48758700  0.50169600  0.49387500
   0.47965500  0.74791800  0.95631300
   0.96114600  0.74746300  0.46350100
   0.97751300  0.25061700  0.97309200
   0.45435900  0.25280200  0.47597300
   0.03263300  0.74998300  0.03395800
   0.54153500  0.74701400  0.52482300
   0.53444700  0.25150900  0.03007800
   0.01294300  0.25114000  0.53417900
   0.25343000  0.46773700  0.94529700
   0.45434400  0.53675600  0.24525500
   0.94752100  0.53262000  0.74957600
   0.54486700  0.03139200  0.75048400
   0.05210100  0.03513900  0.25349400
   0.75481100  0.97656500  0.04440600
   0.24958300  0.96035800  0.54905600
   0.25032300  0.03042000  0.95175300
   0.74455700  0.03459500  0.44946000
   0.44883800  0.96543400  0.24600500
   0.95651500  0.97030400  0.74817000
   0.75506100  0.52954200  0.05330000
   0.24839100  0.53548300  0.55992700
   0.05569600  0.46533300  0.25724300
   0.65280900  0.46678700  0.60388700
