  40  40   1   0
  0.4040437E+02  0.1173535E-08  0.1173535E-08  0.1173535E-08  0.5000000E-15
   1.0000000000000000E-004
  CAR 
 CsPbBr3 cubic bulk                      
      8.19219271    -22.13817147  301      0.43267454      1.00000000
    -22.138  0.0000E+00  0.0000E+00
    -22.037  0.0000E+00  0.0000E+00
    -21.936  0.0000E+00  0.0000E+00
    -21.835  0.0000E+00  0.0000E+00
    -21.734  0.0000E+00  0.0000E+00
    -21.633  0.0000E+00  0.0000E+00
    -21.532  0.0000E+00  0.0000E+00
    -21.430  0.0000E+00  0.0000E+00
    -21.329  0.0000E+00  0.0000E+00
    -21.228  0.0000E+00  0.0000E+00
    -21.127  0.0000E+00  0.0000E+00
    -21.026  0.0000E+00  0.0000E+00
    -20.925  0.0000E+00  0.0000E+00
    -20.824  0.0000E+00  0.0000E+00
    -20.723  0.1583E+03  0.1600E+02
    -20.622  0.0000E+00  0.1600E+02
    -20.521  0.0000E+00  0.1600E+02
    -20.419  0.0000E+00  0.1600E+02
    -20.318  0.0000E+00  0.1600E+02
    -20.217  0.0000E+00  0.1600E+02
    -20.116  0.0000E+00  0.1600E+02
    -20.015  0.0000E+00  0.1600E+02
    -19.914  0.0000E+00  0.1600E+02
    -19.813  0.0000E+00  0.1600E+02
    -19.712  0.0000E+00  0.1600E+02
    -19.611  0.0000E+00  0.1600E+02
    -19.510  0.0000E+00  0.1600E+02
    -19.408  0.0000E+00  0.1600E+02
    -19.307  0.0000E+00  0.1600E+02
    -19.206  0.0000E+00  0.1600E+02
    -19.105  0.0000E+00  0.1600E+02
    -19.004  0.0000E+00  0.1600E+02
    -18.903  0.0000E+00  0.1600E+02
    -18.802  0.0000E+00  0.1600E+02
    -18.701  0.0000E+00  0.1600E+02
    -18.600  0.0000E+00  0.1600E+02
    -18.499  0.0000E+00  0.1600E+02
    -18.397  0.0000E+00  0.1600E+02
    -18.296  0.0000E+00  0.1600E+02
    -18.195  0.0000E+00  0.1600E+02
    -18.094  0.0000E+00  0.1600E+02
    -17.993  0.0000E+00  0.1600E+02
    -17.892  0.0000E+00  0.1600E+02
    -17.791  0.0000E+00  0.1600E+02
    -17.690  0.0000E+00  0.1600E+02
    -17.589  0.0000E+00  0.1600E+02
    -17.488  0.0000E+00  0.1600E+02
    -17.386  0.0000E+00  0.1600E+02
    -17.285  0.0000E+00  0.1600E+02
    -17.184  0.0000E+00  0.1600E+02
    -17.083  0.0000E+00  0.1600E+02
    -16.982  0.0000E+00  0.1600E+02
    -16.881  0.0000E+00  0.1600E+02
    -16.780  0.0000E+00  0.1600E+02
    -16.679  0.0000E+00  0.1600E+02
    -16.578  0.1041E+02  0.1705E+02
    -16.477  0.2118E+03  0.4142E+02
    -16.375  0.4844E+03  0.9597E+02
    -16.274  0.0000E+00  0.9600E+02
    -16.173  0.0000E+00  0.9600E+02
    -16.072  0.0000E+00  0.9600E+02
    -15.971  0.0000E+00  0.9600E+02
    -15.870  0.0000E+00  0.9600E+02
    -15.769  0.0000E+00  0.9600E+02
    -15.668  0.0000E+00  0.9600E+02
    -15.567  0.0000E+00  0.9600E+02
    -15.465  0.0000E+00  0.9600E+02
    -15.364  0.0000E+00  0.9600E+02
    -15.263  0.0000E+00  0.9600E+02
    -15.162  0.0000E+00  0.9600E+02
    -15.061  0.0000E+00  0.9600E+02
    -14.960  0.0000E+00  0.9600E+02
    -14.859  0.0000E+00  0.9600E+02
    -14.758  0.0000E+00  0.9600E+02
    -14.657  0.0000E+00  0.9600E+02
    -14.556  0.0000E+00  0.9600E+02
    -14.454  0.0000E+00  0.9600E+02
    -14.353  0.1800E-04  0.9600E+02
    -14.252  0.1794E+02  0.9781E+02
    -14.151  0.9799E+02  0.1097E+03
    -14.050  0.9924E+01  0.1123E+03
    -13.949  0.1591E+02  0.1149E+03
    -13.848  0.1161E+03  0.1280E+03
    -13.747  0.1158E+03  0.1420E+03
    -13.646  0.4944E+01  0.1440E+03
    -13.545  0.0000E+00  0.1440E+03
    -13.443  0.0000E+00  0.1440E+03
    -13.342  0.0000E+00  0.1440E+03
    -13.241  0.0000E+00  0.1440E+03
    -13.140  0.0000E+00  0.1440E+03
    -13.039  0.0000E+00  0.1440E+03
    -12.938  0.0000E+00  0.1440E+03
    -12.837  0.0000E+00  0.1440E+03
    -12.736  0.0000E+00  0.1440E+03
    -12.635  0.0000E+00  0.1440E+03
    -12.534  0.0000E+00  0.1440E+03
    -12.432  0.0000E+00  0.1440E+03
    -12.331  0.0000E+00  0.1440E+03
    -12.230  0.0000E+00  0.1440E+03
    -12.129  0.0000E+00  0.1440E+03
    -12.028  0.0000E+00  0.1440E+03
    -11.927  0.0000E+00  0.1440E+03
    -11.826  0.0000E+00  0.1440E+03
    -11.725  0.0000E+00  0.1440E+03
    -11.624  0.0000E+00  0.1440E+03
    -11.523  0.0000E+00  0.1440E+03
    -11.421  0.0000E+00  0.1440E+03
    -11.320  0.0000E+00  0.1440E+03
    -11.219  0.0000E+00  0.1440E+03
    -11.118  0.0000E+00  0.1440E+03
    -11.017  0.0000E+00  0.1440E+03
    -10.916  0.0000E+00  0.1440E+03
    -10.815  0.0000E+00  0.1440E+03
    -10.714  0.0000E+00  0.1440E+03
    -10.613  0.0000E+00  0.1440E+03
    -10.512  0.0000E+00  0.1440E+03
    -10.410  0.0000E+00  0.1440E+03
    -10.309  0.0000E+00  0.1440E+03
    -10.208  0.0000E+00  0.1440E+03
    -10.107  0.0000E+00  0.1440E+03
    -10.006  0.0000E+00  0.1440E+03
     -9.905  0.0000E+00  0.1440E+03
     -9.804  0.0000E+00  0.1440E+03
     -9.703  0.0000E+00  0.1440E+03
     -9.602  0.0000E+00  0.1440E+03
     -9.501  0.0000E+00  0.1440E+03
     -9.399  0.0000E+00  0.1440E+03
     -9.298  0.0000E+00  0.1440E+03
     -9.197  0.0000E+00  0.1440E+03
     -9.096  0.0000E+00  0.1440E+03
     -8.995  0.0000E+00  0.1440E+03
     -8.894  0.0000E+00  0.1440E+03
     -8.793  0.0000E+00  0.1440E+03
     -8.692  0.0000E+00  0.1440E+03
     -8.591  0.0000E+00  0.1440E+03
     -8.490  0.0000E+00  0.1440E+03
     -8.388  0.0000E+00  0.1440E+03
     -8.287  0.0000E+00  0.1440E+03
     -8.186  0.3057E-06  0.1440E+03
     -8.085  0.2473E+01  0.1442E+03
     -7.984  0.3332E+01  0.1446E+03
     -7.883  0.9664E-05  0.1453E+03
     -7.782  0.1923E+02  0.1472E+03
     -7.681  0.1275E+02  0.1485E+03
     -7.580  0.9891E+01  0.1502E+03
     -7.478  0.2975E+02  0.1533E+03
     -7.377  0.2473E+01  0.1538E+03
     -7.276  0.2967E+02  0.1567E+03
     -7.175  0.2125E+03  0.1782E+03
     -7.074  0.1945E+03  0.2039E+03
     -6.973  0.2225E+02  0.2067E+03
     -6.872  0.4018E+00  0.2068E+03
     -6.771  0.0000E+00  0.2078E+03
     -6.670  0.3898E-05  0.2078E+03
     -6.569  0.2473E+01  0.2080E+03
     -6.467  0.0000E+00  0.2080E+03
     -6.366  0.0000E+00  0.2080E+03
     -6.265  0.0000E+00  0.2080E+03
     -6.164  0.0000E+00  0.2080E+03
     -6.063  0.0000E+00  0.2080E+03
     -5.962  0.0000E+00  0.2080E+03
     -5.861  0.0000E+00  0.2080E+03
     -5.760  0.0000E+00  0.2080E+03
     -5.659  0.0000E+00  0.2080E+03
     -5.558  0.0000E+00  0.2080E+03
     -5.456  0.0000E+00  0.2080E+03
     -5.355  0.0000E+00  0.2080E+03
     -5.254  0.0000E+00  0.2080E+03
     -5.153  0.0000E+00  0.2080E+03
     -5.052  0.0000E+00  0.2080E+03
     -4.951  0.0000E+00  0.2080E+03
     -4.850  0.0000E+00  0.2080E+03
     -4.749  0.0000E+00  0.2080E+03
     -4.648  0.0000E+00  0.2080E+03
     -4.547  0.0000E+00  0.2080E+03
     -4.445  0.0000E+00  0.2080E+03
     -4.344  0.0000E+00  0.2080E+03
     -4.243  0.0000E+00  0.2080E+03
     -4.142  0.0000E+00  0.2080E+03
     -4.041  0.0000E+00  0.2080E+03
     -3.940  0.0000E+00  0.2080E+03
     -3.839  0.0000E+00  0.2080E+03
     -3.738  0.0000E+00  0.2080E+03
     -3.637  0.0000E+00  0.2080E+03
     -3.536  0.1557E-08  0.2080E+03
     -3.434  0.2657E+02  0.2107E+03
     -3.333  0.1235E+02  0.2120E+03
     -3.232  0.0000E+00  0.2120E+03
     -3.131  0.2745E-15  0.2120E+03
     -3.030  0.6905E+01  0.2127E+03
     -2.929  0.2964E+02  0.2175E+03
     -2.828  0.1978E+02  0.2195E+03
     -2.727  0.4945E+01  0.2200E+03
     -2.626  0.1796E+01  0.2202E+03
     -2.525  0.2968E+02  0.2260E+03
     -2.423  0.5663E+02  0.2317E+03
     -2.322  0.3439E+02  0.2360E+03
     -2.221  0.1978E+02  0.2400E+03
     -2.120  0.4766E+02  0.2448E+03
     -2.019  0.2474E+02  0.2478E+03
     -1.918  0.0000E+00  0.2528E+03
     -1.817  0.1963E+02  0.2547E+03
     -1.716  0.6487E+02  0.2613E+03
     -1.615  0.4841E+02  0.2666E+03
     -1.514  0.5351E+02  0.2737E+03
     -1.412  0.1290E+03  0.2903E+03
     -1.311  0.7774E+02  0.2986E+03
     -1.210  0.4371E+02  0.3047E+03
     -1.109  0.1158E+03  0.3170E+03
     -1.008  0.7602E+02  0.3282E+03
     -0.907  0.5912E+02  0.3367E+03
     -0.806  0.2284E+02  0.3391E+03
     -0.705  0.3952E+02  0.3452E+03
     -0.604  0.1974E+02  0.3472E+03
     -0.503  0.6958E-01  0.3473E+03
     -0.401  0.4237E-06  0.3475E+03
     -0.300  0.1236E+02  0.3488E+03
     -0.199  0.1523E+02  0.3503E+03
     -0.098  0.0000E+00  0.3508E+03
      0.003  0.9880E+01  0.3517E+03
      0.104  0.0000E+00  0.3518E+03
      0.205  0.0000E+00  0.3518E+03
      0.306  0.2955E-03  0.3518E+03
      0.407  0.2472E+01  0.3520E+03
      0.509  0.0000E+00  0.3520E+03
      0.610  0.0000E+00  0.3520E+03
      0.711  0.0000E+00  0.3520E+03
      0.812  0.0000E+00  0.3520E+03
      0.913  0.0000E+00  0.3520E+03
      1.014  0.0000E+00  0.3520E+03
      1.115  0.0000E+00  0.3520E+03
      1.216  0.0000E+00  0.3520E+03
      1.317  0.0000E+00  0.3520E+03
      1.418  0.0000E+00  0.3520E+03
      1.520  0.0000E+00  0.3520E+03
      1.621  0.0000E+00  0.3520E+03
      1.722  0.0000E+00  0.3520E+03
      1.823  0.0000E+00  0.3520E+03
      1.924  0.0000E+00  0.3520E+03
      2.025  0.0000E+00  0.3520E+03
      2.126  0.0000E+00  0.3520E+03
      2.227  0.0000E+00  0.3520E+03
      2.328  0.0000E+00  0.3520E+03
      2.429  0.0000E+00  0.3520E+03
      2.531  0.0000E+00  0.3520E+03
      2.632  0.0000E+00  0.3520E+03
      2.733  0.3976E-01  0.3520E+03
      2.834  0.2470E+01  0.3528E+03
      2.935  0.1718E+02  0.3545E+03
      3.036  0.1482E+02  0.3562E+03
      3.137  0.3462E+02  0.3597E+03
      3.238  0.1264E+02  0.3610E+03
      3.339  0.1468E+02  0.3632E+03
      3.440  0.7394E+01  0.3640E+03
      3.542  0.0000E+00  0.3640E+03
      3.643  0.0000E+00  0.3640E+03
      3.744  0.0000E+00  0.3640E+03
      3.845  0.0000E+00  0.3640E+03
      3.946  0.7240E+01  0.3647E+03
      4.047  0.9891E+01  0.3660E+03
      4.148  0.2231E+02  0.3683E+03
      4.249  0.2967E+02  0.3720E+03
      4.350  0.2372E+02  0.3744E+03
      4.451  0.1978E+02  0.3780E+03
      4.553  0.1083E+02  0.3791E+03
      4.654  0.1378E-09  0.3805E+03
      4.755  0.2225E+02  0.3827E+03
      4.856  0.2883E+02  0.3857E+03
      4.957  0.2230E+02  0.3880E+03
      5.058  0.2855E-13  0.3882E+03
      5.159  0.4946E+01  0.3887E+03
      5.260  0.9891E+01  0.3898E+03
      5.361  0.9892E+01  0.3908E+03
      5.462  0.3614E+02  0.3944E+03
      5.564  0.6762E+01  0.3954E+03
      5.665  0.1028E+02  0.3973E+03
      5.766  0.7409E+01  0.3985E+03
      5.867  0.5269E+01  0.3990E+03
      5.968  0.1490E-06  0.4020E+03
      6.069  0.1978E+02  0.4040E+03
      6.170  0.5369E+02  0.4094E+03
      6.271  0.3478E+02  0.4140E+03
      6.372  0.5164E+01  0.4148E+03
      6.473  0.1784E-14  0.4158E+03
      6.575  0.3017E+02  0.4188E+03
      6.676  0.6235E+02  0.4256E+03
      6.777  0.2967E+02  0.4318E+03
      6.878  0.2473E+01  0.4320E+03
      6.979  0.0000E+00  0.4320E+03
      7.080  0.0000E+00  0.4320E+03
      7.181  0.0000E+00  0.4320E+03
      7.282  0.0000E+00  0.4320E+03
      7.383  0.0000E+00  0.4320E+03
      7.484  0.0000E+00  0.4320E+03
      7.586  0.0000E+00  0.4320E+03
      7.687  0.0000E+00  0.4320E+03
      7.788  0.0000E+00  0.4320E+03
      7.889  0.0000E+00  0.4320E+03
      7.990  0.0000E+00  0.4320E+03
      8.091  0.0000E+00  0.4320E+03
      8.192  0.0000E+00  0.4320E+03
      8.19219271    -22.13817147  301      0.43267454      1.00000000
    -22.138  0.0000E+00  0.0000E+00  0.0000E+00
    -22.037  0.0000E+00  0.0000E+00  0.0000E+00
    -21.936  0.0000E+00  0.0000E+00  0.0000E+00
    -21.835  0.0000E+00  0.0000E+00  0.0000E+00
    -21.734  0.0000E+00  0.0000E+00  0.0000E+00
    -21.633  0.0000E+00  0.0000E+00  0.0000E+00
    -21.532  0.0000E+00  0.0000E+00  0.0000E+00
    -21.430  0.0000E+00  0.0000E+00  0.0000E+00
    -21.329  0.0000E+00  0.0000E+00  0.0000E+00
    -21.228  0.0000E+00  0.0000E+00  0.0000E+00
    -21.127  0.0000E+00  0.0000E+00  0.0000E+00
    -21.026  0.0000E+00  0.0000E+00  0.0000E+00
    -20.925  0.0000E+00  0.0000E+00  0.0000E+00
    -20.824  0.0000E+00  0.0000E+00  0.0000E+00
    -20.723  0.1756E+02  0.3190E-06  0.3890E-04
    -20.622  0.0000E+00  0.0000E+00  0.0000E+00
    -20.521  0.0000E+00  0.0000E+00  0.0000E+00
    -20.419  0.0000E+00  0.0000E+00  0.0000E+00
    -20.318  0.0000E+00  0.0000E+00  0.0000E+00
    -20.217  0.0000E+00  0.0000E+00  0.0000E+00
    -20.116  0.0000E+00  0.0000E+00  0.0000E+00
    -20.015  0.0000E+00  0.0000E+00  0.0000E+00
    -19.914  0.0000E+00  0.0000E+00  0.0000E+00
    -19.813  0.0000E+00  0.0000E+00  0.0000E+00
    -19.712  0.0000E+00  0.0000E+00  0.0000E+00
    -19.611  0.0000E+00  0.0000E+00  0.0000E+00
    -19.510  0.0000E+00  0.0000E+00  0.0000E+00
    -19.408  0.0000E+00  0.0000E+00  0.0000E+00
    -19.307  0.0000E+00  0.0000E+00  0.0000E+00
    -19.206  0.0000E+00  0.0000E+00  0.0000E+00
    -19.105  0.0000E+00  0.0000E+00  0.0000E+00
    -19.004  0.0000E+00  0.0000E+00  0.0000E+00
    -18.903  0.0000E+00  0.0000E+00  0.0000E+00
    -18.802  0.0000E+00  0.0000E+00  0.0000E+00
    -18.701  0.0000E+00  0.0000E+00  0.0000E+00
    -18.600  0.0000E+00  0.0000E+00  0.0000E+00
    -18.499  0.0000E+00  0.0000E+00  0.0000E+00
    -18.397  0.0000E+00  0.0000E+00  0.0000E+00
    -18.296  0.0000E+00  0.0000E+00  0.0000E+00
    -18.195  0.0000E+00  0.0000E+00  0.0000E+00
    -18.094  0.0000E+00  0.0000E+00  0.0000E+00
    -17.993  0.0000E+00  0.0000E+00  0.0000E+00
    -17.892  0.0000E+00  0.0000E+00  0.0000E+00
    -17.791  0.0000E+00  0.0000E+00  0.0000E+00
    -17.690  0.0000E+00  0.0000E+00  0.0000E+00
    -17.589  0.0000E+00  0.0000E+00  0.0000E+00
    -17.488  0.0000E+00  0.0000E+00  0.0000E+00
    -17.386  0.0000E+00  0.0000E+00  0.0000E+00
    -17.285  0.0000E+00  0.0000E+00  0.0000E+00
    -17.184  0.0000E+00  0.0000E+00  0.0000E+00
    -17.083  0.0000E+00  0.0000E+00  0.0000E+00
    -16.982  0.0000E+00  0.0000E+00  0.0000E+00
    -16.881  0.0000E+00  0.0000E+00  0.0000E+00
    -16.780  0.0000E+00  0.0000E+00  0.0000E+00
    -16.679  0.0000E+00  0.0000E+00  0.0000E+00
    -16.578  0.9859E-07  0.1241E-05  0.6486E-06
    -16.477  0.1696E-03  0.9437E-04  0.1369E-04
    -16.375  0.3263E-04  0.1668E-04  0.1846E-05
    -16.274  0.0000E+00  0.0000E+00  0.0000E+00
    -16.173  0.0000E+00  0.0000E+00  0.0000E+00
    -16.072  0.0000E+00  0.0000E+00  0.0000E+00
    -15.971  0.0000E+00  0.0000E+00  0.0000E+00
    -15.870  0.0000E+00  0.0000E+00  0.0000E+00
    -15.769  0.0000E+00  0.0000E+00  0.0000E+00
    -15.668  0.0000E+00  0.0000E+00  0.0000E+00
    -15.567  0.0000E+00  0.0000E+00  0.0000E+00
    -15.465  0.0000E+00  0.0000E+00  0.0000E+00
    -15.364  0.0000E+00  0.0000E+00  0.0000E+00
    -15.263  0.0000E+00  0.0000E+00  0.0000E+00
    -15.162  0.0000E+00  0.0000E+00  0.0000E+00
    -15.061  0.0000E+00  0.0000E+00  0.0000E+00
    -14.960  0.0000E+00  0.0000E+00  0.0000E+00
    -14.859  0.0000E+00  0.0000E+00  0.0000E+00
    -14.758  0.0000E+00  0.0000E+00  0.0000E+00
    -14.657  0.0000E+00  0.0000E+00  0.0000E+00
    -14.556  0.0000E+00  0.0000E+00  0.0000E+00
    -14.454  0.0000E+00  0.0000E+00  0.0000E+00
    -14.353  0.3891E-08  0.2989E-23  0.4734E-10
    -14.252  0.2750E-02  0.4478E-03  0.3465E-04
    -14.151  0.2076E-02  0.4457E-02  0.1845E-03
    -14.050  0.7623E-17  0.7856E-03  0.2728E-04
    -13.949  0.1995E-03  0.3899E-02  0.8122E-04
    -13.848  0.2933E-02  0.9113E-02  0.1170E-02
    -13.747  0.5867E-02  0.1062E-01  0.9677E-03
    -13.646  0.3476E-17  0.3996E-03  0.3088E-17
    -13.545  0.0000E+00  0.0000E+00  0.0000E+00
    -13.443  0.0000E+00  0.0000E+00  0.0000E+00
    -13.342  0.0000E+00  0.0000E+00  0.0000E+00
    -13.241  0.0000E+00  0.0000E+00  0.0000E+00
    -13.140  0.0000E+00  0.0000E+00  0.0000E+00
    -13.039  0.0000E+00  0.0000E+00  0.0000E+00
    -12.938  0.0000E+00  0.0000E+00  0.0000E+00
    -12.837  0.0000E+00  0.0000E+00  0.0000E+00
    -12.736  0.0000E+00  0.0000E+00  0.0000E+00
    -12.635  0.0000E+00  0.0000E+00  0.0000E+00
    -12.534  0.0000E+00  0.0000E+00  0.0000E+00
    -12.432  0.0000E+00  0.0000E+00  0.0000E+00
    -12.331  0.0000E+00  0.0000E+00  0.0000E+00
    -12.230  0.0000E+00  0.0000E+00  0.0000E+00
    -12.129  0.0000E+00  0.0000E+00  0.0000E+00
    -12.028  0.0000E+00  0.0000E+00  0.0000E+00
    -11.927  0.0000E+00  0.0000E+00  0.0000E+00
    -11.826  0.0000E+00  0.0000E+00  0.0000E+00
    -11.725  0.0000E+00  0.0000E+00  0.0000E+00
    -11.624  0.0000E+00  0.0000E+00  0.0000E+00
    -11.523  0.0000E+00  0.0000E+00  0.0000E+00
    -11.421  0.0000E+00  0.0000E+00  0.0000E+00
    -11.320  0.0000E+00  0.0000E+00  0.0000E+00
    -11.219  0.0000E+00  0.0000E+00  0.0000E+00
    -11.118  0.0000E+00  0.0000E+00  0.0000E+00
    -11.017  0.0000E+00  0.0000E+00  0.0000E+00
    -10.916  0.0000E+00  0.0000E+00  0.0000E+00
    -10.815  0.0000E+00  0.0000E+00  0.0000E+00
    -10.714  0.0000E+00  0.0000E+00  0.0000E+00
    -10.613  0.0000E+00  0.0000E+00  0.0000E+00
    -10.512  0.0000E+00  0.0000E+00  0.0000E+00
    -10.410  0.0000E+00  0.0000E+00  0.0000E+00
    -10.309  0.0000E+00  0.0000E+00  0.0000E+00
    -10.208  0.0000E+00  0.0000E+00  0.0000E+00
    -10.107  0.0000E+00  0.0000E+00  0.0000E+00
    -10.006  0.0000E+00  0.0000E+00  0.0000E+00
     -9.905  0.0000E+00  0.0000E+00  0.0000E+00
     -9.804  0.0000E+00  0.0000E+00  0.0000E+00
     -9.703  0.0000E+00  0.0000E+00  0.0000E+00
     -9.602  0.0000E+00  0.0000E+00  0.0000E+00
     -9.501  0.0000E+00  0.0000E+00  0.0000E+00
     -9.399  0.0000E+00  0.0000E+00  0.0000E+00
     -9.298  0.0000E+00  0.0000E+00  0.0000E+00
     -9.197  0.0000E+00  0.0000E+00  0.0000E+00
     -9.096  0.0000E+00  0.0000E+00  0.0000E+00
     -8.995  0.0000E+00  0.0000E+00  0.0000E+00
     -8.894  0.0000E+00  0.0000E+00  0.0000E+00
     -8.793  0.0000E+00  0.0000E+00  0.0000E+00
     -8.692  0.0000E+00  0.0000E+00  0.0000E+00
     -8.591  0.0000E+00  0.0000E+00  0.0000E+00
     -8.490  0.0000E+00  0.0000E+00  0.0000E+00
     -8.388  0.0000E+00  0.0000E+00  0.0000E+00
     -8.287  0.0000E+00  0.0000E+00  0.0000E+00
     -8.186  0.3114E-27  0.1506E-25  0.7131E-26
     -8.085  0.2519E-20  0.1218E-18  0.5768E-19
     -7.984  0.5423E-20  0.2053E-18  0.3879E-05
     -7.883  0.1759E-25  0.1492E-23  0.4130E-11
     -7.782  0.5721E-18  0.6285E-02  0.4365E-04
     -7.681  0.8182E-18  0.1280E-01  0.7877E-05
     -7.580  0.8541E-20  0.1809E-01  0.3930E-04
     -7.478  0.3183E-04  0.8900E-01  0.6064E-04
     -7.377  0.1109E-13  0.2042E-01  0.1342E-13
     -7.276  0.4854E-04  0.4006E+00  0.6695E-04
     -7.175  0.2307E-04  0.2004E+02  0.3040E-04
     -7.074  0.1192E-03  0.1765E+02  0.8585E-04
     -6.973  0.6250E-04  0.9297E+00  0.2482E-04
     -6.872  0.1914E-05  0.2115E-02  0.9276E-06
     -6.771  0.0000E+00  0.0000E+00  0.0000E+00
     -6.670  0.4397E-10  0.2816E-23  0.2389E-10
     -6.569  0.2789E-04  0.1786E-17  0.1515E-04
     -6.467  0.0000E+00  0.0000E+00  0.0000E+00
     -6.366  0.0000E+00  0.0000E+00  0.0000E+00
     -6.265  0.0000E+00  0.0000E+00  0.0000E+00
     -6.164  0.0000E+00  0.0000E+00  0.0000E+00
     -6.063  0.0000E+00  0.0000E+00  0.0000E+00
     -5.962  0.0000E+00  0.0000E+00  0.0000E+00
     -5.861  0.0000E+00  0.0000E+00  0.0000E+00
     -5.760  0.0000E+00  0.0000E+00  0.0000E+00
     -5.659  0.0000E+00  0.0000E+00  0.0000E+00
     -5.558  0.0000E+00  0.0000E+00  0.0000E+00
     -5.456  0.0000E+00  0.0000E+00  0.0000E+00
     -5.355  0.0000E+00  0.0000E+00  0.0000E+00
     -5.254  0.0000E+00  0.0000E+00  0.0000E+00
     -5.153  0.0000E+00  0.0000E+00  0.0000E+00
     -5.052  0.0000E+00  0.0000E+00  0.0000E+00
     -4.951  0.0000E+00  0.0000E+00  0.0000E+00
     -4.850  0.0000E+00  0.0000E+00  0.0000E+00
     -4.749  0.0000E+00  0.0000E+00  0.0000E+00
     -4.648  0.0000E+00  0.0000E+00  0.0000E+00
     -4.547  0.0000E+00  0.0000E+00  0.0000E+00
     -4.445  0.0000E+00  0.0000E+00  0.0000E+00
     -4.344  0.0000E+00  0.0000E+00  0.0000E+00
     -4.243  0.0000E+00  0.0000E+00  0.0000E+00
     -4.142  0.0000E+00  0.0000E+00  0.0000E+00
     -4.041  0.0000E+00  0.0000E+00  0.0000E+00
     -3.940  0.0000E+00  0.0000E+00  0.0000E+00
     -3.839  0.0000E+00  0.0000E+00  0.0000E+00
     -3.738  0.0000E+00  0.0000E+00  0.0000E+00
     -3.637  0.0000E+00  0.0000E+00  0.0000E+00
     -3.536  0.2405E-28  0.2048E-11  0.4579E-27
     -3.434  0.2690E-18  0.1331E-01  0.7171E-03
     -3.333  0.5765E-18  0.5830E-16  0.5779E-03
     -3.232  0.0000E+00  0.0000E+00  0.0000E+00
     -3.131  0.1154E-33  0.4054E-18  0.2253E-31
     -3.030  0.2581E-17  0.8035E-02  0.3886E-04
     -2.929  0.3833E-15  0.9843E-03  0.1298E-02
     -2.828  0.3869E-18  0.6417E-16  0.8211E-03
     -2.727  0.6533E-19  0.3518E-17  0.5582E-17
     -2.626  0.3064E-04  0.1398E-02  0.1119E-03
     -2.525  0.5291E-04  0.3573E-01  0.2084E-02
     -2.423  0.7842E-03  0.2327E-01  0.4231E-02
     -2.322  0.6562E-03  0.2608E-01  0.4259E-02
     -2.221  0.7055E-14  0.1490E-01  0.4084E-02
     -2.120  0.9221E-02  0.6954E-02  0.6184E-02
     -2.019  0.7086E-02  0.1505E-01  0.2821E-02
     -1.918  0.0000E+00  0.0000E+00  0.0000E+00
     -1.817  0.2156E-02  0.6195E-01  0.2113E-02
     -1.716  0.1577E-01  0.1051E+00  0.9220E-02
     -1.615  0.7422E-02  0.1019E+00  0.8964E-02
     -1.514  0.1634E-02  0.7151E-01  0.1252E-01
     -1.412  0.1903E-02  0.4194E-01  0.3592E-01
     -1.311  0.6108E-02  0.5529E-01  0.8215E-02
     -1.210  0.2881E-02  0.4320E-01  0.3614E-02
     -1.109  0.5298E-02  0.2290E+00  0.3670E-01
     -1.008  0.9540E-03  0.9335E-01  0.8161E-02
     -0.907  0.1389E-03  0.5708E-01  0.2437E-02
     -0.806  0.2540E-03  0.1001E-01  0.2046E-02
     -0.705  0.5909E-04  0.1052E-01  0.2883E-02
     -0.604  0.5870E-15  0.5511E-04  0.1101E-02
     -0.503  0.6139E-20  0.2035E-04  0.9392E-19
     -0.401  0.3322E-23  0.3592E-10  0.3721E-10
     -0.300  0.9478E-16  0.1580E-02  0.1051E-02
     -0.199  0.4575E-16  0.6418E-04  0.8775E-03
     -0.098  0.0000E+00  0.0000E+00  0.0000E+00
      0.003  0.1188E-14  0.3652E-14  0.3998E-04
      0.104  0.0000E+00  0.0000E+00  0.0000E+00
      0.205  0.0000E+00  0.0000E+00  0.0000E+00
      0.306  0.3169E-21  0.8250E-21  0.2165E-20
      0.407  0.2651E-17  0.6902E-17  0.1811E-16
      0.509  0.0000E+00  0.0000E+00  0.0000E+00
      0.610  0.0000E+00  0.0000E+00  0.0000E+00
      0.711  0.0000E+00  0.0000E+00  0.0000E+00
      0.812  0.0000E+00  0.0000E+00  0.0000E+00
      0.913  0.0000E+00  0.0000E+00  0.0000E+00
      1.014  0.0000E+00  0.0000E+00  0.0000E+00
      1.115  0.0000E+00  0.0000E+00  0.0000E+00
      1.216  0.0000E+00  0.0000E+00  0.0000E+00
      1.317  0.0000E+00  0.0000E+00  0.0000E+00
      1.418  0.0000E+00  0.0000E+00  0.0000E+00
      1.520  0.0000E+00  0.0000E+00  0.0000E+00
      1.621  0.0000E+00  0.0000E+00  0.0000E+00
      1.722  0.0000E+00  0.0000E+00  0.0000E+00
      1.823  0.0000E+00  0.0000E+00  0.0000E+00
      1.924  0.0000E+00  0.0000E+00  0.0000E+00
      2.025  0.0000E+00  0.0000E+00  0.0000E+00
      2.126  0.0000E+00  0.0000E+00  0.0000E+00
      2.227  0.0000E+00  0.0000E+00  0.0000E+00
      2.328  0.0000E+00  0.0000E+00  0.0000E+00
      2.429  0.0000E+00  0.0000E+00  0.0000E+00
      2.531  0.0000E+00  0.0000E+00  0.0000E+00
      2.632  0.0000E+00  0.0000E+00  0.0000E+00
      2.733  0.1233E-15  0.6725E-18  0.1500E-04
      2.834  0.4135E-14  0.8419E-07  0.7891E-03
      2.935  0.1516E-15  0.1759E-02  0.2892E-02
      3.036  0.2234E-14  0.2662E-02  0.1559E-02
      3.137  0.7941E-03  0.3637E-02  0.5773E-02
      3.238  0.6751E-03  0.2150E-02  0.1951E-02
      3.339  0.8572E-03  0.8809E-03  0.1504E-02
      3.440  0.5507E-03  0.4660E-17  0.2234E-02
      3.542  0.0000E+00  0.0000E+00  0.0000E+00
      3.643  0.0000E+00  0.0000E+00  0.0000E+00
      3.744  0.0000E+00  0.0000E+00  0.0000E+00
      3.845  0.0000E+00  0.0000E+00  0.0000E+00
      3.946  0.1988E-14  0.8122E-14  0.3657E-02
      4.047  0.6797E-14  0.1530E-02  0.6923E-03
      4.148  0.1886E-07  0.2672E-02  0.9285E-02
      4.249  0.1772E-02  0.6513E-02  0.5272E-02
      4.350  0.1757E-02  0.4983E-02  0.5964E-02
      4.451  0.1977E-02  0.8586E-03  0.5599E-02
      4.553  0.1401E-02  0.2900E-02  0.5564E-03
      4.654  0.2533E-24  0.7022E-14  0.1063E-12
      4.755  0.1290E-01  0.1008E-02  0.1816E-01
      4.856  0.1466E-02  0.9286E-02  0.1974E-01
      4.957  0.9260E-02  0.1271E-01  0.2029E-01
      5.058  0.1340E-26  0.1877E-27  0.1294E-25
      5.159  0.2321E-12  0.3251E-13  0.2241E-11
      5.260  0.2045E-12  0.1309E-11  0.1738E-03
      5.361  0.2063E-12  0.1551E-12  0.1616E-02
      5.462  0.4298E-01  0.1046E-01  0.1991E-01
      5.564  0.1576E-13  0.1083E-03  0.1689E-02
      5.665  0.5685E-02  0.2915E-04  0.6277E-01
      5.766  0.1033E-01  0.2093E-02  0.8441E-01
      5.867  0.1966E-02  0.7868E-03  0.1963E-02
      5.968  0.9737E-11  0.1590E-09  0.1911E-08
      6.069  0.1182E-01  0.1368E-01  0.2354E+00
      6.170  0.7512E-01  0.3218E-01  0.4493E+00
      6.271  0.6231E-01  0.1812E-01  0.4205E+00
      6.372  0.1508E-01  0.3027E-03  0.5469E-01
      6.473  0.6196E-18  0.2493E-17  0.2496E-16
      6.575  0.2782E-01  0.2785E-01  0.3638E+00
      6.676  0.1129E-01  0.9269E-01  0.1132E+01
      6.777  0.7816E-03  0.2555E-02  0.1376E+00
      6.878  0.3261E-02  0.2394E-06  0.3189E-01
      6.979  0.0000E+00  0.0000E+00  0.0000E+00
      7.080  0.0000E+00  0.0000E+00  0.0000E+00
      7.181  0.0000E+00  0.0000E+00  0.0000E+00
      7.282  0.0000E+00  0.0000E+00  0.0000E+00
      7.383  0.0000E+00  0.0000E+00  0.0000E+00
      7.484  0.0000E+00  0.0000E+00  0.0000E+00
      7.586  0.0000E+00  0.0000E+00  0.0000E+00
      7.687  0.0000E+00  0.0000E+00  0.0000E+00
      7.788  0.0000E+00  0.0000E+00  0.0000E+00
      7.889  0.0000E+00  0.0000E+00  0.0000E+00
      7.990  0.0000E+00  0.0000E+00  0.0000E+00
      8.091  0.0000E+00  0.0000E+00  0.0000E+00
      8.192  0.0000E+00  0.0000E+00  0.0000E+00
      8.19219271    -22.13817147  301      0.43267454      1.00000000
    -22.138  0.0000E+00  0.0000E+00  0.0000E+00
    -22.037  0.0000E+00  0.0000E+00  0.0000E+00
    -21.936  0.0000E+00  0.0000E+00  0.0000E+00
    -21.835  0.0000E+00  0.0000E+00  0.0000E+00
    -21.734  0.0000E+00  0.0000E+00  0.0000E+00
    -21.633  0.0000E+00  0.0000E+00  0.0000E+00
    -21.532  0.0000E+00  0.0000E+00  0.0000E+00
    -21.430  0.0000E+00  0.0000E+00  0.0000E+00
    -21.329  0.0000E+00  0.0000E+00  0.0000E+00
    -21.228  0.0000E+00  0.0000E+00  0.0000E+00
    -21.127  0.0000E+00  0.0000E+00  0.0000E+00
    -21.026  0.0000E+00  0.0000E+00  0.0000E+00
    -20.925  0.0000E+00  0.0000E+00  0.0000E+00
    -20.824  0.0000E+00  0.0000E+00  0.0000E+00
    -20.723  0.1756E+02  0.3190E-06  0.3890E-04
    -20.622  0.0000E+00  0.0000E+00  0.0000E+00
    -20.521  0.0000E+00  0.0000E+00  0.0000E+00
    -20.419  0.0000E+00  0.0000E+00  0.0000E+00
    -20.318  0.0000E+00  0.0000E+00  0.0000E+00
    -20.217  0.0000E+00  0.0000E+00  0.0000E+00
    -20.116  0.0000E+00  0.0000E+00  0.0000E+00
    -20.015  0.0000E+00  0.0000E+00  0.0000E+00
    -19.914  0.0000E+00  0.0000E+00  0.0000E+00
    -19.813  0.0000E+00  0.0000E+00  0.0000E+00
    -19.712  0.0000E+00  0.0000E+00  0.0000E+00
    -19.611  0.0000E+00  0.0000E+00  0.0000E+00
    -19.510  0.0000E+00  0.0000E+00  0.0000E+00
    -19.408  0.0000E+00  0.0000E+00  0.0000E+00
    -19.307  0.0000E+00  0.0000E+00  0.0000E+00
    -19.206  0.0000E+00  0.0000E+00  0.0000E+00
    -19.105  0.0000E+00  0.0000E+00  0.0000E+00
    -19.004  0.0000E+00  0.0000E+00  0.0000E+00
    -18.903  0.0000E+00  0.0000E+00  0.0000E+00
    -18.802  0.0000E+00  0.0000E+00  0.0000E+00
    -18.701  0.0000E+00  0.0000E+00  0.0000E+00
    -18.600  0.0000E+00  0.0000E+00  0.0000E+00
    -18.499  0.0000E+00  0.0000E+00  0.0000E+00
    -18.397  0.0000E+00  0.0000E+00  0.0000E+00
    -18.296  0.0000E+00  0.0000E+00  0.0000E+00
    -18.195  0.0000E+00  0.0000E+00  0.0000E+00
    -18.094  0.0000E+00  0.0000E+00  0.0000E+00
    -17.993  0.0000E+00  0.0000E+00  0.0000E+00
    -17.892  0.0000E+00  0.0000E+00  0.0000E+00
    -17.791  0.0000E+00  0.0000E+00  0.0000E+00
    -17.690  0.0000E+00  0.0000E+00  0.0000E+00
    -17.589  0.0000E+00  0.0000E+00  0.0000E+00
    -17.488  0.0000E+00  0.0000E+00  0.0000E+00
    -17.386  0.0000E+00  0.0000E+00  0.0000E+00
    -17.285  0.0000E+00  0.0000E+00  0.0000E+00
    -17.184  0.0000E+00  0.0000E+00  0.0000E+00
    -17.083  0.0000E+00  0.0000E+00  0.0000E+00
    -16.982  0.0000E+00  0.0000E+00  0.0000E+00
    -16.881  0.0000E+00  0.0000E+00  0.0000E+00
    -16.780  0.0000E+00  0.0000E+00  0.0000E+00
    -16.679  0.0000E+00  0.0000E+00  0.0000E+00
    -16.578  0.9859E-07  0.1241E-05  0.6486E-06
    -16.477  0.1696E-03  0.9437E-04  0.1369E-04
    -16.375  0.3263E-04  0.1668E-04  0.1846E-05
    -16.274  0.0000E+00  0.0000E+00  0.0000E+00
    -16.173  0.0000E+00  0.0000E+00  0.0000E+00
    -16.072  0.0000E+00  0.0000E+00  0.0000E+00
    -15.971  0.0000E+00  0.0000E+00  0.0000E+00
    -15.870  0.0000E+00  0.0000E+00  0.0000E+00
    -15.769  0.0000E+00  0.0000E+00  0.0000E+00
    -15.668  0.0000E+00  0.0000E+00  0.0000E+00
    -15.567  0.0000E+00  0.0000E+00  0.0000E+00
    -15.465  0.0000E+00  0.0000E+00  0.0000E+00
    -15.364  0.0000E+00  0.0000E+00  0.0000E+00
    -15.263  0.0000E+00  0.0000E+00  0.0000E+00
    -15.162  0.0000E+00  0.0000E+00  0.0000E+00
    -15.061  0.0000E+00  0.0000E+00  0.0000E+00
    -14.960  0.0000E+00  0.0000E+00  0.0000E+00
    -14.859  0.0000E+00  0.0000E+00  0.0000E+00
    -14.758  0.0000E+00  0.0000E+00  0.0000E+00
    -14.657  0.0000E+00  0.0000E+00  0.0000E+00
    -14.556  0.0000E+00  0.0000E+00  0.0000E+00
    -14.454  0.0000E+00  0.0000E+00  0.0000E+00
    -14.353  0.3891E-08  0.3734E-23  0.4734E-10
    -14.252  0.2750E-02  0.4478E-03  0.3465E-04
    -14.151  0.2076E-02  0.4457E-02  0.1845E-03
    -14.050  0.7758E-17  0.7856E-03  0.2728E-04
    -13.949  0.1995E-03  0.3899E-02  0.8122E-04
    -13.848  0.2933E-02  0.9113E-02  0.1170E-02
    -13.747  0.5867E-02  0.1062E-01  0.9677E-03
    -13.646  0.3534E-17  0.3996E-03  0.3077E-17
    -13.545  0.0000E+00  0.0000E+00  0.0000E+00
    -13.443  0.0000E+00  0.0000E+00  0.0000E+00
    -13.342  0.0000E+00  0.0000E+00  0.0000E+00
    -13.241  0.0000E+00  0.0000E+00  0.0000E+00
    -13.140  0.0000E+00  0.0000E+00  0.0000E+00