<?xml version="1.0" encoding="ISO-8859-1"?>
<modeling>
 <generator>
  <i name="program" type="string">vasp </i>
  <i name="version" type="string">5.4.4.18Apr17-6-g9f103f2a35  </i>
  <i name="subversion" type="string">(build Jun 22 2020 09:27:21) complex            parallel </i>
  <i name="platform" type="string">tx2_gcc-7.3_libsci-18.07_cray-fftw-3.3.8 </i>
  <i name="date" type="string">2021 09 22 </i>
  <i name="time" type="string">08:24:43 </i>
 </generator>
 <incar>
  <i type="string" name="SYSTEM"> CsPbBr3 cubic bulk</i>
  <i type="string" name="PREC">accurate</i>
  <i type="string" name="ALGO"> Normal   ! Electronic minimisation algo</i>
  <i type="logical" name="ADDGRID"> T  </i>
  <i type="int" name="NELM">   200</i>
  <i type="int" name="IBRION">     2</i>
  <i name="EDIFF">      0.00000100</i>
  <i name="EDIFFG">     -0.01000000</i>
  <i type="int" name="NSW">     0</i>
  <i type="int" name="ISIF">     3</i>
  <i type="int" name="ISYM">     2</i>
  <i name="ENCUT">    300.00000000</i>
  <i name="POTIM">      0.50000000</i>
  <i type="string" name="LREAL"> AUTO</i>
  <i type="int" name="ISMEAR">     0</i>
  <i name="SIGMA">      0.01000000</i>
  <i name="PSTRESS">      0.00000000</i>
  <i type="logical" name="LWAVE"> F  </i>
  <i type="logical" name="LCHARG"> T  </i>
  <i type="logical" name="LVHAR"> T  </i>
  <i type="int" name="LORBIT">    10</i>
  <i type="logical" name="LASPH"> T  </i>
  <v type="int" name="KPOINT_BSE">    -1     0     0     0</v>
  <i type="int" name="NELM">   200</i>
  <i type="string" name="METAGGA"> SCAN       ! PBE exchange-correlation</i>
  <i type="logical" name="LASPH"> T  </i>
 </incar>
 <structure name="primitive_cell" >
  <crystal>
   <varray name="basis" >
    <v>       5.86767600      -5.86767600       0.00000000 </v>
    <v>      -5.86767600      -5.86767600       0.00000000 </v>
    <v>       0.00000000       0.00000000      -5.86767600 </v>
   </varray>
   <i name="volume">    404.04372918 </i>
   <varray name="rec_basis" >
    <v>       0.08521261      -0.08521261       0.00000000 </v>
    <v>      -0.08521261      -0.08521261      -0.00000000 </v>
    <v>       0.00000000      -0.00000000      -0.17042522 </v>
   </varray>
  </crystal>
  <varray name="positions" >
   <v>       0.00000000      -0.50000000      -0.50000000 </v>
   <v>       0.17125000      -0.32875000       0.00000000 </v>
   <v>      -0.17125000       0.32875000       0.00000000 </v>
   <v>       0.00000000       0.00000000      -0.50000000 </v>
   <v>      -0.50000000      -0.50000000      -0.50000000 </v>
   <v>      -0.32875000      -0.17125000       0.00000000 </v>
   <v>       0.32875000       0.17125000       0.00000000 </v>
   <v>       0.00000000       0.00000000       0.00000000 </v>
   <v>      -0.50000000      -0.50000000       0.00000000 </v>
   <v>      -0.50000000       0.00000000      -0.50000000 </v>
  </varray>
 </structure>
 <varray name="primitive_index" >
  <v type="int" >        1 </v>
  <v type="int" >       33 </v>
  <v type="int" >       35 </v>
  <v type="int" >       25 </v>
  <v type="int" >       27 </v>
  <v type="int" >       17 </v>
  <v type="int" >       21 </v>
  <v type="int" >        9 </v>
  <v type="int" >       11 </v>
  <v type="int" >        3 </v>
 </varray>
 <kpoints>
  <generation param="Gamma">
   <v type="int" name="divisions">       2        2        2 </v>
   <v name="usershift">      0.00000000       0.00000000       0.00000000 </v>
   <v name="genvec1">      0.50000000       0.00000000       0.00000000 </v>
   <v name="genvec2">      0.00000000       0.50000000       0.00000000 </v>
   <v name="genvec3">      0.00000000       0.00000000       0.50000000 </v>
   <v name="shift">      0.00000000       0.00000000       0.00000000 </v>
  </generation>
  <varray name="kpointlist" >
   <v>       0.00000000       0.00000000       0.00000000 </v>
   <v>       0.50000000       0.00000000       0.00000000 </v>
   <v>       0.50000000       0.50000000       0.00000000 </v>
   <v>       0.00000000       0.00000000       0.50000000 </v>
   <v>       0.50000000       0.00000000       0.50000000 </v>
   <v>       0.50000000       0.50000000       0.50000000 </v>
  </varray>
  <varray name="weights" >
   <v>       0.12500000 </v>
   <v>       0.25000000 </v>
   <v>       0.12500000 </v>
   <v>       0.12500000 </v>
   <v>       0.25000000 </v>
   <v>       0.12500000 </v>
  </varray>
 </kpoints>
 <parameters>
  <separator name="general" >
   <i type="string" name="SYSTEM">CsPbBr3 cubic bulk</i>
   <i type="logical" name="LCOMPAT"> F  </i>
  </separator>
  <separator name="electronic" >
   <i type="string" name="PREC">accura</i>
   <i name="ENMAX">    300.00000000</i>
   <i name="ENAUG">    503.85200000</i>
   <i name="EDIFF">      0.00000100</i>
   <i type="int" name="IALGO">    38</i>
   <i type="int" name="IWAVPR">    10</i>
   <i type="int" name="NBANDS">   216</i>
   <i name="NELECT">    352.00000000</i>
   <i type="int" name="TURBO">     0</i>
   <i type="int" name="IRESTART">     0</i>
   <i type="int" name="NREBOOT">     0</i>
   <i type="int" name="NMIN">     0</i>
   <i name="EREF">      0.00000000</i>
   <separator name="electronic smearing" >
    <i type="int" name="ISMEAR">     0</i>
    <i name="SIGMA">      0.01000000</i>
    <i name="KSPACING">      0.50000000</i>
    <i type="logical" name="KGAMMA"> T  </i>
   </separator>
   <separator name="electronic projectors" >
    <i type="logical" name="LREAL"> T  </i>
    <v name="ROPT">     -0.00025000     -0.00025000     -0.00025000</v>
    <i type="int" name="LMAXPAW">  -100</i>
    <i type="int" name="LMAXMIX">     2</i>
    <i type="logical" name="NLSPLINE"> F  </i>
   </separator>
   <separator name="electronic startup" >
    <i type="int" name="ISTART">     0</i>
    <i type="int" name="ICHARG">     2</i>
    <i type="int" name="INIWAV">     1</i>
   </separator>
   <separator name="electronic spin" >
    <i type="int" name="ISPIN">     1</i>
    <i type="logical" name="LNONCOLLINEAR"> F  </i>
    <v name="MAGMOM">      1.00000000      1.00000000      1.00000000      1.00000000      1.00000000      1.00000000      1.00000000      1.00000000      1.00000000      1.00000000      1.00000000      1.00000000      1.00000000      1.00000000      1.00000000      1.00000000      1.00000000      1.00000000      1.00000000      1.00000000
      1.00000000      1.00000000      1.00000000      1.00000000      1.00000000      1.00000000      1.00000000      1.00000000      1.00000000      1.00000000      1.00000000      1.00000000      1.00000000      1.00000000      1.00000000      1.00000000      1.00000000      1.00000000      1.00000000      1.00000000
</v>
    <i name="NUPDOWN">     -1.00000000</i>
    <i type="logical" name="LSORBIT"> F  </i>
    <v name="SAXIS">      0.00000000      0.00000000      1.00000000</v>
    <i type="logical" name="LSPIRAL"> F  </i>
    <v name="QSPIRAL">      0.00000000      0.00000000      0.00000000</v>
    <i type="logical" name="LZEROZ"> F  </i>
   </separator>
   <separator name="electronic exchange-correlation" >
    <i type="logical" name="LASPH"> T  </i>
    <i type="logical" name="LMETAGGA"> F  </i>
   </separator>
   <separator name="electronic convergence" >
    <i type="int" name="NELM">   200</i>
    <i type="int" name="NELMDL">    -5</i>
    <i type="int" name="NELMIN">     2</i>
    <i name="ENINI">    300.00000000</i>
    <separator name="electronic convergence detail" >
     <i type="logical" name="LDIAG"> T  </i>
     <i type="logical" name="LSUBROT"> F  </i>
     <i name="WEIMIN">      0.00000000</i>
     <i name="EBREAK">      0.00000000</i>
     <i name="DEPER">      0.30000000</i>
     <i type="int" name="NRMM">     4</i>
     <i name="TIME">      0.40000000</i>
    </separator>
   </separator>
   <separator name="electronic mixer" >
    <i name="AMIX">      0.40000000</i>
    <i name="BMIX">      1.00000000</i>
    <i name="AMIN">      0.10000000</i>
    <i name="AMIX_MAG">      1.60000000</i>
    <i name="BMIX_MAG">      1.00000000</i>
    <separator name="electronic mixer details" >
     <i type="int" name="IMIX">     4</i>
     <i type="logical" name="MIXFIRST"> F  </i>
     <i type="int" name="MAXMIX">   -45</i>
     <i name="WC">    100.00000000</i>
     <i type="int" name="INIMIX">     1</i>
     <i type="int" name="MIXPRE">     1</i>
     <i type="int" name="MREMOVE">     5</i>
    </separator>
   </separator>
   <separator name="electronic dipolcorrection" >
    <i type="logical" name="LDIPOL"> F  </i>
    <i type="logical" name="LMONO"> F  </i>
    <i type="int" name="IDIPOL">     0</i>
    <i name="EPSILON">      1.00000000</i>
    <v name="DIPOL">   -100.00000000   -100.00000000   -100.00000000</v>
    <i name="EFIELD">      0.00000000</i>
   </separator>
  </separator>
  <separator name="grids" >
   <i type="int" name="NGX">    70</i>
   <i type="int" name="NGY">    70</i>
   <i type="int" name="NGZ">    70</i>
   <i type="int" name="NGXF">   140</i>
   <i type="int" name="NGYF">   140</i>
   <i type="int" name="NGZF">   140</i>
   <i type="logical" name="ADDGRID"> T  </i>
  </separator>
  <separator name="ionic" >
   <i type="int" name="NSW">     0</i>
   <i type="int" name="IBRION">    -1</i>
   <i type="int" name="MDALGO">     0</i>
   <i type="int" name="ISIF">     3</i>
   <i name="PSTRESS">      0.00000000</i>
   <i name="EDIFFG">     -0.01000000</i>
   <i type="int" name="NFREE">     1</i>
   <i name="POTIM">      0.50000000</i>
   <i name="SMASS">     -3.00000000</i>
   <i name="SCALEE">      1.00000000</i>
  </separator>
  <separator name="ionic md" >
   <i name="TEBEG">      0.00010000</i>
   <i name="TEEND">      0.00010000</i>
   <i type="int" name="NBLOCK">     1</i>
   <i type="int" name="KBLOCK">     1</i>
   <i type="int" name="NPACO">   256</i>
   <i name="APACO">     16.00000000</i>
  </separator>
  <separator name="symmetry" >
   <i type="int" name="ISYM">     2</i>
   <i name="SYMPREC">      0.00001000</i>
  </separator>
  <separator name="dos" >
   <i type="int" name="LORBIT">    10</i>
   <v name="RWIGS">     -1.00000000     -1.00000000     -1.00000000</v>
   <i type="int" name="NEDOS">   301</i>
   <i name="EMIN">     10.00000000</i>
   <i name="EMAX">    -10.00000000</i>
   <i name="EFERMI">      0.00000000</i>
  </separator>
  <separator name="writing" >
   <i type="int" name="NWRITE">     2</i>
   <i type="logical" name="LWAVE"> F  </i>
   <i type="logical" name="LDOWNSAMPLE"> F  </i>
   <i type="logical" name="LCHARG"> T  </i>
   <i type="logical" name="LPARD"> F  </i>
   <i type="logical" name="LVTOT"> F  </i>
   <i type="logical" name="LVHAR"> T  </i>
   <i type="logical" name="LELF"> F  </i>
   <i type="logical" name="LOPTICS"> F  </i>
   <v name="STM">      0.00000000      0.00000000      0.00000000      0.00000000      0.00000000      0.00000000      0.00000000</v>
  </separator>
  <separator name="performance" >
   <i type="int" name="NPAR">     8</i>
   <i type="int" name="NSIM">     4</i>
   <i type="int" name="NBLK">    -1</i>
   <i type="logical" name="LPLANE"> T  </i>
   <i type="logical" name="LSCALAPACK"> T  </i>
   <i type="logical" name="LSCAAWARE"> F  </i>
   <i type="logical" name="LSCALU"> F  </i>
   <i type="logical" name="LASYNC"> F  </i>
   <i type="logical" name="LORBITALREAL"> F  </i>
  </separator>
  <separator name="miscellaneous" >
   <i type="int" name="IDIOT">     3</i>
   <i type="int" name="ISPECIAL">     0</i>
   <i type="logical" name="LMUSIC"> F  </i>
   <v name="POMASS">    132.90000000    207.20000000     79.90400000</v>
   <v name="DARWINR">      0.00000000      0.00000000      0.00000000</v>
   <v name="DARWINV">      1.00000000      1.00000000      1.00000000</v>
   <i type="logical" name="LCORR"> T  </i>
  </separator>
  <i type="logical" name="GGA_COMPAT"> T  </i>
  <i type="logical" name="LBERRY"> F  </i>
  <i type="int" name="ICORELEVEL">     0</i>
  <i type="logical" name="LDAU"> F  </i>
  <i type="int" name="I_CONSTRAINED_M">     0</i>
  <separator name="electronic exchange-correlation" >
   <i type="string" name="GGA">--</i>
   <i type="int" name="VOSKOWN">     0</i>
   <i type="logical" name="LHFCALC"> F  </i>
   <i type="string" name="PRECFOCK"></i>
   <i type="logical" name="LSYMGRAD"> F  </i>
   <i type="logical" name="LHFONE"> F  </i>
   <i type="logical" name="LRHFCALC"> F  </i>
   <i type="logical" name="LTHOMAS"> F  </i>
   <i type="logical" name="LMODELHF"> F  </i>
   <i name="ENCUT4O">     -1.00000000</i>
   <i type="int" name="EXXOEP">     0</i>
   <i type="int" name="FOURORBIT">     0</i>
   <i name="AEXX">      0.00000000</i>
   <i name="HFALPHA">      0.00000000</i>
   <i name="MCALPHA">      0.00000000</i>
   <i name="ALDAX">      1.00000000</i>
   <i name="AGGAX">      1.00000000</i>
   <i name="ALDAC">      1.00000000</i>
   <i name="AGGAC">      1.00000000</i>
   <i type="int" name="NKREDX">     1</i>
   <i type="int" name="NKREDY">     1</i>
   <i type="int" name="NKREDZ">     1</i>
   <i type="logical" name="SHIFTRED"> F  </i>
   <i type="logical" name="ODDONLY"> F  </i>
   <i type="logical" name="EVENONLY"> F  </i>
   <i type="int" name="LMAXFOCK">     0</i>
   <i type="int" name="NMAXFOCKAE">     0</i>
   <i type="logical" name="LFOCKAEDFT"> F  </i>
   <i name="HFSCREEN">      0.00000000</i>
   <i name="HFSCREENC">      0.00000000</i>
   <i type="int" name="NBANDSGWLOW">     0</i>
  </separator>
  <separator name="vdW DFT" >
   <i type="logical" name="LUSE_VDW"> F  </i>
   <i name="Zab_VDW">     -0.84910000</i>
   <i name="PARAM1">      0.12340000</i>
   <i name="PARAM2">      1.00000000</i>
   <i name="PARAM3">      0.00000000</i>
  </separator>
  <separator name="model GW" >
   <i type="int" name="MODEL_GW">     0</i>
   <i name="MODEL_EPS0">     24.24262375</i>
   <i name="MODEL_ALPHA">      1.00000000</i>
  </separator>
  <separator name="linear response parameters" >
   <i type="logical" name="LEPSILON"> F  </i>
   <i type="logical" name="LRPA"> F  </i>
   <i type="logical" name="LNABLA"> F  </i>
   <i type="logical" name="LVEL"> F  </i>
   <i type="int" name="KINTER">     0</i>
   <i name="CSHIFT">      0.10000000</i>
   <i name="OMEGAMAX">     -1.00000000</i>
   <i name="DEG_THRESHOLD">      0.00200000</i>
   <i name="RTIME">     -0.10000000</i>
   <i name="WPLASMAI">      0.00000000</i>
   <v name="DFIELD">      0.00000000      0.00000000      0.00000000</v>
   <v name="WPLASMA">      0.00000000      0.00000000      0.00000000      0.00000000      0.00000000      0.00000000      0.00000000      0.00000000      0.00000000</v>
  </separator>
  <separator name="orbital magnetization" >
   <i type="logical" name="NUCIND"> F  </i>
   <v name="MAGPOS">      0.00000000      0.00000000      0.00000000</v>
   <i type="logical" name="LNICSALL"> T  </i>
   <i type="logical" name="ORBITALMAG"> F  </i>
   <i type="logical" name="LMAGBLOCH"> F  </i>
   <i type="logical" name="LCHIMAG"> F  </i>
   <i type="logical" name="LGAUGE"> T  </i>
   <i type="int" name="MAGATOM">     0</i>
   <v name="MAGDIPOL">      0.00000000      0.00000000      0.00000000</v>
   <v name="AVECCONST">      0.00000000      0.00000000      0.00000000</v>
  </separator>
  <separator name="response functions" >
   <i type="logical" name="LADDER"> F  </i>
   <i type="logical" name="LRPAFORCE"> F  </i>
   <i type="logical" name="LFXC"> F  </i>
   <i type="logical" name="LHARTREE"> T  </i>
   <i type="int" name="IBSE">     0</i>
   <v type="int" name="KPOINT">    -1     0     0     0</v>
   <i type="logical" name="LTCTE"> F  </i>
   <i type="logical" name="LTETE"> F  </i>
   <i type="logical" name="LTRIPLET"> F  </i>
   <i type="logical" name="LFXCEPS"> F  </i>
   <i type="logical" name="LFXHEG"> F  </i>
   <i type="int" name="NATURALO">     2</i>
   <i type="logical" name="L2ORDER"> F  </i>
   <i type="logical" name="LMP2LT"> F  </i>
   <i type="logical" name="LUSEW"> F  </i>
   <i name="ENCUTGW">     -2.00000000</i>
   <i name="ENCUTGWSOFT">     -2.00000000</i>
   <i name="ENCUTLF">     -1.00000000</i>
   <i type="int" name="LMAXMP2">    -1</i>
   <i name="SCISSOR">      0.00000000</i>
   <i type="int" name="NOMEGA">     0</i>
   <i type="int" name="NOMEGAR">     0</i>
   <i type="int" name="NBANDSGW">    -1</i>
   <i type="int" name="NBANDSO">    -1</i>
   <i type="int" name="NBANDSV">    -1</i>
   <i type="int" name="NELM">   200</i>
   <i type="int" name="NELMHF">     1</i>
   <i type="int" name="DIM">     3</i>
   <i type="int" name="ANTIRES">     0</i>
   <i name="OMEGAMAX">    -30.00000000</i>
   <i name="OMEGAMIN">    -30.00000000</i>
   <i name="OMEGATL">   -200.00000000</i>
   <i type="int" name="OMEGAGRID">   140</i>
   <i name="CSHIFT">     -0.10000000</i>
   <i type="logical" name="SELFENERGY"> F  </i>
   <i type="logical" name="LSPECTRAL"> F  </i>
   <i type="logical" name="LSPECTRALGW"> F  </i>
   <i type="logical" name="LSINGLES"> F  </i>
   <i type="logical" name="LFERMIGW"> F  </i>
   <i type="logical" name="ODDONLYGW"> F  </i>
   <i type="logical" name="EVENONLYGW"> F  </i>
   <i type="int" name="NKREDLFX">     1</i>
   <i type="int" name="NKREDLFY">     1</i>
   <i type="int" name="NKREDLFZ">     1</i>
   <i type="int" name="MAXMEM">  2800</i>
   <i type="int" name="TELESCOPE">     0</i>
   <i type="int" name="TAUPAR">     1</i>
   <i type="int" name="OMEGAPAR">    -1</i>
   <i name="LAMBDA">      1.00000000</i>
  </separator>
  <separator name="External order field" >
   <i name="OFIELD_KAPPA">      0.00000000</i>
   <v name="OFIELD_K">      0.00000000      0.00000000      0.00000000</v>
   <i name="OFIELD_Q6_NEAR">      0.00000000</i>
   <i name="OFIELD_Q6_FAR">      0.00000000</i>
   <i name="OFIELD_A">      0.00000000</i>
  </separator>
 </parameters>
 <atominfo>
  <atoms>      40 </atoms>
  <types>       3 </types>
  <array name="atoms" >
   <dimension dim="1">ion</dimension>
   <field type="string">element</field>
   <field type="int">atomtype</field>
   <set>
    <rc><c>Cs</c><c>   1</c></rc>
    <rc><c>Cs</c><c>   1</c></rc>
    <rc><c>Cs</c><c>   1</c></rc>
    <rc><c>Cs</c><c>   1</c></rc>
    <rc><c>Cs</c><c>   1</c></rc>
    <rc><c>Cs</c><c>   1</c></rc>
    <rc><c>Cs</c><c>   1</c></rc>
    <rc><c>Cs</c><c>   1</c></rc>
    <rc><c>Pb</c><c>   2</c></rc>
    <rc><c>Pb</c><c>   2</c></rc>
    <rc><c>Pb</c><c>   2</c></rc>
    <rc><c>Pb</c><c>   2</c></rc>
    <rc><c>Pb</c><c>   2</c></rc>
    <rc><c>Pb</c><c>   2</c></rc>
    <rc><c>Pb</c><c>   2</c></rc>
    <rc><c>Pb</c><c>   2</c></rc>
    <rc><c>Br</c><c>   3</c></rc>
    <rc><c>Br</c><c>   3</c></rc>
    <rc><c>Br</c><c>   3</c></rc>
    <rc><c>Br</c><c>   3</c></rc>
    <rc><c>Br</c><c>   3</c></rc>
    <rc><c>Br</c><c>   3</c></rc>
    <rc><c>Br</c><c>   3</c></rc>
    <rc><c>Br</c><c>   3</c></rc>
    <rc><c>Br</c><c>   3</c></rc>
    <rc><c>Br</c><c>   3</c></rc>
    <rc><c>Br</c><c>   3</c></rc>
    <rc><c>Br</c><c>   3</c></rc>
    <rc><c>Br</c><c>   3</c></rc>
    <rc><c>Br</c><c>   3</c></rc>
    <rc><c>Br</c><c>   3</c></rc>
    <rc><c>Br</c><c>   3</c></rc>
    <rc><c>Br</c><c>   3</c></rc>
    <rc><c>Br</c><c>   3</c></rc>
    <rc><c>Br</c><c>   3</c></rc>
    <rc><c>Br</c><c>   3</c></rc>
    <rc><c>Br</c><c>   3</c></rc>
    <rc><c>Br</c><c>   3</c></rc>
    <rc><c>Br</c><c>   3</c></rc>
    <rc><c>Br</c><c>   3</c></rc>
   </set>
  </array>
  <array name="atomtypes" >
   <dimension dim="1">type</dimension>
   <field type="int">atomspertype</field>
   <field type="string">element</field>
   <field>mass</field>
   <field>valence</field>
   <field type="string">pseudopotential</field>
   <set>
    <rc><c>   8</c><c>Cs</c><c>    132.90000000</c><c>      9.00000000</c><c>  PAW_PBE Cs_sv 08Apr2002               </c></rc>
    <rc><c>   8</c><c>Pb</c><c>    207.20000000</c><c>     14.00000000</c><c>  PAW_PBE Pb_d 06Sep2000                </c></rc>
    <rc><c>  24</c><c>Br</c><c>     79.90400000</c><c>      7.00000000</c><c>  PAW_PBE Br 06Sep2000                  </c></rc>
   </set>
  </array>
 </atominfo>
 <structure name="initialpos" >
  <crystal>
   <varray name="basis" >
    <v>      11.73535200       0.00000000       0.00000000 </v>
    <v>       0.00000000      11.73535200       0.00000000 </v>
    <v>       0.00000000       0.00000000      11.73535200 </v>
   </varray>
   <i name="volume">   1616.17491673 </i>
   <varray name="rec_basis" >
    <v>       0.08521261       0.00000000       0.00000000 </v>
    <v>       0.00000000       0.08521261       0.00000000 </v>
    <v>       0.00000000       0.00000000       0.08521261 </v>
   </varray>
  </crystal>
  <varray name="positions" >
   <v>       0.25000000       0.25000000       0.25000000 </v>
   <v>       0.25000000       0.25000000       0.75000000 </v>
   <v>       0.25000000       0.75000000       0.25000000 </v>
   <v>       0.25000000       0.75000000       0.75000000 </v>
   <v>       0.75000000       0.25000000       0.25000000 </v>
   <v>       0.75000000       0.25000000       0.75000000 </v>
   <v>       0.75000000       0.75000000       0.25000000 </v>
   <v>       0.75000000       0.75000000       0.75000000 </v>
   <v>       0.00000000       0.00000000       0.00000000 </v>
   <v>       0.00000000       0.00000000       0.50000000 </v>
   <v>       0.00000000       0.50000000       0.00000000 </v>
   <v>       0.00000000       0.50000000       0.50000000 </v>
   <v>       0.50000000       0.00000000       0.00000000 </v>
   <v>       0.50000000       0.00000000       0.50000000 </v>
   <v>       0.50000000       0.50000000       0.00000000 </v>
   <v>       0.50000000       0.50000000       0.50000000 </v>
   <v>       0.92125000       0.25000000       0.00000000 </v>
   <v>       0.92125000       0.25000000       0.50000000 </v>
   <v>       0.07875000       0.75000000       0.00000000 </v>
   <v>       0.07875000       0.75000000       0.50000000 </v>
   <v>       0.57875000       0.25000000       0.00000000 </v>
   <v>       0.57875000       0.25000000       0.50000000 </v>
   <v>       0.42125000       0.75000000       0.00000000 </v>
   <v>       0.42125000       0.75000000       0.50000000 </v>
   <v>       0.00000000       0.00000000       0.25000000 </v>
   <v>       0.00000000       0.00000000       0.75000000 </v>
   <v>       0.00000000       0.50000000       0.25000000 </v>
   <v>       0.00000000       0.50000000       0.75000000 </v>
   <v>       0.50000000       0.00000000       0.25000000 </v>
   <v>       0.50000000       0.00000000       0.75000000 </v>
   <v>       0.50000000       0.50000000       0.25000000 </v>
   <v>       0.50000000       0.50000000       0.75000000 </v>
   <v>       0.25000000       0.07875000       0.00000000 </v>
   <v>       0.25000000       0.07875000       0.50000000 </v>
   <v>       0.25000000       0.42125000       0.00000000 </v>
   <v>       0.25000000       0.42125000       0.50000000 </v>
   <v>       0.75000000       0.92125000       0.00000000 </v>
   <v>       0.75000000       0.92125000       0.50000000 </v>
   <v>       0.75000000       0.57875000       0.00000000 </v>
   <v>       0.75000000       0.57875000       0.50000000 </v>
  </varray>
 </structure>
 <calculation>
  <scstep>
   <time name="dav">   12.87   12.88</time>
   <time name="total">   14.34   14.36</time>
   <energy>
    <i name="alphaZ">    892.99476195 </i>
    <i name="ewald"> -18494.98667533 </i>
    <i name="hartreedc">  -7253.37639778 </i>
    <i name="XCdc">    923.26292929 </i>
    <i name="pawpsdc">  21633.96174531 </i>
    <i name="pawaedc"> -22707.92185401 </i>
    <i name="eentropy">     -0.00000002 </i>
    <i name="bandstr">   -226.75277308 </i>
    <i name="atom">  26580.56019858 </i>
    <i name="e_fr_energy">   1347.74193492 </i>
    <i name="e_wo_entrp">   1347.74193493 </i>
    <i name="e_0_energy">   1347.74193493 </i>
   </energy>
  </scstep>
  <scstep>
   <time name="dav">   14.24   14.25</time>
   <time name="total">   14.24   14.25</time>
   <energy>
    <i name="e_fr_energy">  -1127.68259419 </i>
    <i name="e_wo_entrp">  -1127.68259419 </i>
    <i name="e_0_energy">  -1127.68259419 </i>
   </energy>
  </scstep>
  <scstep>
   <time name="dav">   15.13   15.17</time>
   <time name="total">   15.13   15.17</time>
   <energy>
    <i name="e_fr_energy">  -1496.61295388 </i>
    <i name="e_wo_entrp">  -1496.61295388 </i>
    <i name="e_0_energy">  -1496.61295388 </i>
   </energy>
  </scstep>
  <scstep>
   <time name="dav">   13.96   13.99</time>
   <time name="total">   13.96   13.99</time>
   <energy>
    <i name="e_fr_energy">  -1508.82035545 </i>
    <i name="e_wo_entrp">  -1508.82035545 </i>
    <i name="e_0_energy">  -1508.82035545 </i>
   </energy>
  </scstep>
  <scstep>
   <time name="dav">   14.93   14.98</time>
   <time name="total">   18.01   18.06</time>
   <energy>
    <i name="e_fr_energy">  -1509.40082243 </i>
    <i name="e_wo_entrp">  -1509.40082243 </i>
    <i name="e_0_energy">  -1509.40082243 </i>
   </energy>
  </scstep>
  <scstep>
   <time name="dav">   14.85   14.85</time>
   <time name="total">   19.42   19.46</time>
   <energy>
    <i name="e_fr_energy">  -1429.09262529 </i>
    <i name="e_wo_entrp">  -1429.09262529 </i>
    <i name="e_0_energy">  -1429.09262529 </i>
   </energy>
  </scstep>
  <scstep>
   <time name="dav">   14.34   14.35</time>
   <time name="total">   18.94   18.96</time>
   <energy>
    <i name="e_fr_energy">  -1428.55533057 </i>
    <i name="e_wo_entrp">  -1428.55533057 </i>
    <i name="e_0_energy">  -1428.55533057 </i>
   </energy>
  </scstep>
  <scstep>
   <time name="dav">   13.90   13.90</time>
   <time name="total">   18.47   18.52</time>
   <energy>
    <i name="e_fr_energy">  -1428.75847654 </i>
    <i name="e_wo_entrp">  -1428.75847654 </i>
    <i name="e_0_energy">  -1428.75847654 </i>
   </energy>
  </scstep>
  <scstep>
   <time name="dav">   13.36   13.36</time>
   <time name="total">   17.98   17.99</time>
   <energy>
    <i name="e_fr_energy">  -1428.84157016 </i>
    <i name="e_wo_entrp">  -1428.84157016 </i>
    <i name="e_0_energy">  -1428.84157016 </i>
   </energy>
  </scstep>
  <scstep>
   <time name="dav">   15.48   15.48</time>
   <time name="total">   20.06   20.10</time>
   <energy>
    <i name="e_fr_energy">  -1428.84407672 </i>
    <i name="e_wo_entrp">  -1428.84407672 </i>
    <i name="e_0_energy">  -1428.84407672 </i>
   </energy>
  </scstep>
  <scstep>
   <time name="dav">   13.31   13.31</time>
   <time name="total">   17.90   17.94</time>
   <energy>
    <i name="e_fr_energy">  -1428.84807343 </i>
    <i name="e_wo_entrp">  -1428.84807343 </i>
    <i name="e_0_energy">  -1428.84807343 </i>
   </energy>
  </scstep>
  <scstep>
   <time name="dav">   13.56   13.56</time>
   <time name="total">   18.14   18.16</time>
   <energy>
    <i name="e_fr_energy">  -1428.84808617 </i>
    <i name="e_wo_entrp">  -1428.84808617 </i>
    <i name="e_0_energy">  -1428.84808617 </i>
   </energy>
  </scstep>
  <scstep>
   <time name="dav">   13.93   13.93</time>
   <time name="total">   18.54   18.56</time>
   <energy>
    <i name="e_fr_energy">  -1428.84804784 </i>
    <i name="e_wo_entrp">  -1428.84804784 </i>
    <i name="e_0_energy">  -1428.84804784 </i>
   </energy>
  </scstep>
  <scstep>
   <time name="dav">   13.31   13.32</time>
   <time name="total">   17.92   17.95</time>
   <energy>
    <i name="e_fr_energy">  -1428.84805970 </i>
    <i name="e_wo_entrp">  -1428.84805970 </i>
    <i name="e_0_energy">  -1428.84805970 </i>
   </energy>
  </scstep>
  <scstep>
   <time name="dav">   10.18   10.18</time>
   <time name="total">   14.76   14.82</time>
   <energy>
    <i name="e_fr_energy">  -1428.84806336 </i>
    <i name="e_wo_entrp">  -1428.84806336 </i>
    <i name="e_0_energy">  -1428.84806336 </i>
   </energy>
  </scstep>
  <scstep>
   <time name="dav">    9.90    9.90</time>
   <time name="total">   14.49   14.53</time>
   <energy>
    <i name="e_fr_energy">  -1428.84805357 </i>
    <i name="e_wo_entrp">  -1428.84805357 </i>
    <i name="e_0_energy">  -1428.84805357 </i>
   </energy>
  </scstep>
  <scstep>
   <time name="dav">    9.76    9.76</time>
   <time name="total">   14.38   14.40</time>
   <energy>
    <i name="e_fr_energy">  -1428.84805191 </i>
    <i name="e_wo_entrp">  -1428.84805191 </i>
    <i name="e_0_energy">  -1428.84805191 </i>
   </energy>
  </scstep>
  <scstep>
   <time name="dav">    9.71    9.71</time>
   <time name="total">   14.32   14.34</time>
   <energy>
    <i name="e_fr_energy">  -1428.84805304 </i>
    <i name="e_wo_entrp">  -1428.84805304 </i>
    <i name="e_0_energy">  -1428.84805304 </i>
   </energy>
  </scstep>
  <scstep>
   <time name="dav">    9.62    9.62</time>
   <time name="total">   11.07   11.12</time>
   <energy>
    <i name="alphaZ">    892.99476195 </i>
    <i name="ewald"> -18494.98667533 </i>
    <i name="hartreedc">  -7283.48160106 </i>
    <i name="XCdc">    962.80072828 </i>
    <i name="pawpsdc">  23031.87309596 </i>
    <i name="pawaedc"> -24103.02556277 </i>
    <i name="eentropy">     -0.00000000 </i>
    <i name="bandstr">  -3015.58299838 </i>
    <i name="atom">  26580.56019858 </i>
    <i name="e_fr_energy">  -1428.84805278 </i>
    <i name="e_wo_entrp">  -1428.84805278 </i>
    <i name="e_0_energy">  -1428.84805278 </i>
   </energy>
  </scstep>
  <structure>
   <crystal>
    <varray name="basis" >
     <v>      11.73535200       0.00000000       0.00000000 </v>
     <v>       0.00000000      11.73535200       0.00000000 </v>
     <v>       0.00000000       0.00000000      11.73535200 </v>
    </varray>
    <i name="volume">   1616.17491673 </i>
    <varray name="rec_basis" >
     <v>       0.08521261       0.00000000       0.00000000 </v>
     <v>       0.00000000       0.08521261       0.00000000 </v>
     <v>       0.00000000       0.00000000       0.08521261 </v>
    </varray>
   </crystal>
   <varray name="positions" >
    <v>       0.25000000       0.25000000       0.25000000 </v>
    <v>       0.25000000       0.25000000       0.75000000 </v>
    <v>       0.25000000       0.75000000       0.25000000 </v>
    <v>       0.25000000       0.75000000       0.75000000 </v>
    <v>       0.75000000       0.25000000       0.25000000 </v>
    <v>       0.75000000       0.25000000       0.75000000 </v>
    <v>       0.75000000       0.75000000       0.25000000 </v>
    <v>       0.75000000       0.75000000       0.75000000 </v>
    <v>       0.00000000       0.00000000       0.00000000 </v>
    <v>       0.00000000       0.00000000       0.50000000 </v>
    <v>       0.00000000       0.50000000       0.00000000 </v>
    <v>       0.00000000       0.50000000       0.50000000 </v>
    <v>       0.50000000       0.00000000       0.00000000 </v>
    <v>       0.50000000       0.00000000       0.50000000 </v>
    <v>       0.50000000       0.50000000       0.00000000 </v>
    <v>       0.50000000       0.50000000       0.50000000 </v>
    <v>       0.92125000       0.25000000       0.00000000 </v>
    <v>       0.92125000       0.25000000       0.50000000 </v>
    <v>       0.07875000       0.75000000       0.00000000 </v>
    <v>       0.07875000       0.75000000       0.50000000 </v>
    <v>       0.57875000       0.25000000       0.00000000 </v>
    <v>       0.57875000       0.25000000       0.50000000 </v>
    <v>       0.42125000       0.75000000       0.00000000 </v>
    <v>       0.42125000       0.75000000       0.50000000 </v>
    <v>       0.00000000       0.00000000       0.25000000 </v>
    <v>       0.00000000       0.00000000       0.75000000 </v>
    <v>       0.00000000       0.50000000       0.25000000 </v>
    <v>       0.00000000       0.50000000       0.75000000 </v>
    <v>       0.50000000       0.00000000       0.25000000 </v>
    <v>       0.50000000       0.00000000       0.75000000 </v>
    <v>       0.50000000       0.50000000       0.25000000 </v>
    <v>       0.50000000       0.50000000       0.75000000 </v>
    <v>       0.25000000       0.07875000       0.00000000 </v>
    <v>       0.25000000       0.07875000       0.50000000 </v>
    <v>       0.25000000       0.42125000       0.00000000 </v>
    <v>       0.25000000       0.42125000       0.50000000 </v>
    <v>       0.75000000       0.92125000       0.00000000 </v>
    <v>       0.75000000       0.92125000       0.50000000 </v>
    <v>       0.75000000       0.57875000       0.00000000 </v>
    <v>       0.75000000       0.57875000       0.50000000 </v>
   </varray>
  </structure>
  <varray name="forces" >
   <v>      -0.00000000      -0.00000000      -0.00000000 </v>
   <v>      -0.00000000      -0.00000000      -0.00000000 </v>
   <v>       0.00000000      -0.00000000      -0.00000000 </v>
   <v>       0.00000000      -0.00000000      -0.00000000 </v>
   <v>      -0.00000000      -0.00000000      -0.00000000 </v>
   <v>      -0.00000000      -0.00000000      -0.00000000 </v>
   <v>       0.00000000      -0.00000000      -0.00000000 </v>
   <v>       0.00000000      -0.00000000      -0.00000000 </v>
   <v>      -0.00000000      -0.00000000      -0.00000000 </v>
   <v>      -0.00000000      -0.00000000      -0.00000000 </v>
   <v>      -0.00000000      -0.00000000      -0.00000000 </v>
   <v>      -0.00000000      -0.00000000      -0.00000000 </v>
   <v>       0.00000000      -0.00000000      -0.00000000 </v>
   <v>       0.00000000      -0.00000000      -0.00000000 </v>
   <v>       0.00000000      -0.00000000      -0.00000000 </v>
   <v>      -0.00000000      -0.00000000      -0.00000000 </v>
   <v>       0.29127222      -0.00000000       0.00000000 </v>
   <v>       0.29127222      -0.00000000       0.00000000 </v>
   <v>      -0.29127222      -0.00000000      -0.00000000 </v>
   <v>      -0.29127222      -0.00000000       0.00000000 </v>
   <v>      -0.29127222      -0.00000000      -0.00000000 </v>
   <v>      -0.29127222      -0.00000000       0.00000000 </v>
   <v>       0.29127222      -0.00000000       0.00000000 </v>
   <v>       0.29127222      -0.00000000      -0.00000000 </v>
   <v>       0.00000000      -0.00000000      -0.00000000 </v>
   <v>      -0.00000000      -0.00000000      -0.00000000 </v>
   <v>       0.00000000      -0.00000000      -0.00000000 </v>
   <v>       0.00000000      -0.00000000      -0.00000000 </v>
   <v>       0.00000000      -0.00000000      -0.00000000 </v>
   <v>       0.00000000      -0.00000000      -0.00000000 </v>
   <v>       0.00000000      -0.00000000      -0.00000000 </v>
   <v>      -0.00000000      -0.00000000      -0.00000000 </v>
   <v>       0.00000000      -0.29127222       0.00000000 </v>
   <v>       0.00000000      -0.29127222       0.00000000 </v>
   <v>      -0.00000000       0.29127222      -0.00000000 </v>
   <v>      -0.00000000       0.29127222       0.00000000 </v>
   <v>      -0.00000000       0.29127222       0.00000000 </v>
   <v>      -0.00000000       0.29127222       0.00000000 </v>
   <v>       0.00000000      -0.29127222      -0.00000000 </v>
   <v>       0.00000000      -0.29127222       0.00000000 </v>
  </varray>
  <varray name="stress" >
   <v>     -10.82325993       0.00000000      -0.00000000 </v>
   <v>       0.00000000     -10.82325993       0.00000000 </v>
   <v>       0.00000000      -0.00000000      16.31837833 </v>
  </varray>
  <energy>
   <i name="e_fr_energy">  -1428.84805278 </i>
   <i name="e_wo_entrp">  -1428.84805278 </i>
   <i name="e_0_energy">     -0.00000000 </i>
  </energy>
  <time name="totalsc">  362.00  363.05</time>
  <eigenvalues>
   <array>
    <dimension dim="1">band</dimension>
    <dimension dim="2">kpoint</dimension>
    <dimension dim="3">spin</dimension>
    <field>eigene</field>
    <field>occ</field>
    <set>
     <set comment="spin 1">
      <set comment="kpoint 1">
       <r>  -20.7595    1.0000 </r>
       <r>  -20.7584    1.0000 </r>
       <r>  -20.7584    1.0000 </r>
       <r>  -20.7575    1.0000 </r>
       <r>  -20.7560    1.0000 </r>
       <r>  -20.7550    1.0000 </r>
       <r>  -20.7550    1.0000 </r>
       <r>  -20.7538    1.0000 </r>
       <r>  -16.5795    1.0000 </r>
       <r>  -16.5740    1.0000 </r>
       <r>  -16.5740    1.0000 </r>
       <r>  -16.5645    1.0000 </r>
       <r>  -16.5122    1.0000 </r>
       <r>  -16.5118    1.0000 </r>
       <r>  -16.5030    1.0000 </r>
       <r>  -16.5030    1.0000 </r>
       <r>  -16.4993    1.0000 </r>
       <r>  -16.4810    1.0000 </r>
       <r>  -16.4810    1.0000 </r>
       <r>  -16.4786    1.0000 </r>
       <r>  -16.4688    1.0000 </r>
       <r>  -16.4688    1.0000 </r>
       <r>  -16.4531    1.0000 </r>
       <r>  -16.4528    1.0000 </r>
       <r>  -16.4063    1.0000 </r>
       <r>  -16.4061    1.0000 </r>
       <r>  -16.4057    1.0000 </r>
       <r>  -16.4057    1.0000 </r>
       <r>  -16.4056    1.0000 </r>
       <r>  -16.4056    1.0000 </r>
       <r>  -16.4048    1.0000 </r>
       <r>  -16.4047    1.0000 </r>
       <r>  -16.3984    1.0000 </r>
       <r>  -16.3984    1.0000 </r>
       <r>  -16.3981    1.0000 </r>
       <r>  -16.3981    1.0000 </r>
       <r>  -16.3980    1.0000 </r>
       <r>  -16.3980    1.0000 </r>
       <r>  -16.3978    1.0000 </r>
       <r>  -16.3978    1.0000 </r>
       <r>  -16.3975    1.0000 </r>
       <r>  -16.3975    1.0000 </r>
       <r>  -16.3973    1.0000 </r>
       <r>  -16.3973    1.0000 </r>
       <r>  -16.3967    1.0000 </r>
       <r>  -16.3967    1.0000 </r>
       <r>  -16.3966    1.0000 </r>
       <r>  -16.3966    1.0000 </r>
       <r>  -14.3227    1.0000 </r>
       <r>  -14.1925    1.0000 </r>
       <r>  -14.1925    1.0000 </r>
       <r>  -14.1645    1.0000 </r>
       <r>  -14.1645    1.0000 </r>
       <r>  -14.1631    1.0000 </r>
       <r>  -14.1605    1.0000 </r>
       <r>  -14.0760    1.0000 </r>
       <r>  -14.0733    1.0000 </r>
       <r>  -13.9564    1.0000 </r>
       <r>  -13.9564    1.0000 </r>
       <r>  -13.9287    1.0000 </r>
       <r>  -13.9287    1.0000 </r>
       <r>  -13.8895    1.0000 </r>
       <r>  -13.8895    1.0000 </r>
       <r>  -13.8803    1.0000 </r>
       <r>  -13.8803    1.0000 </r>
       <r>  -13.8476    1.0000 </r>
       <r>  -13.8476    1.0000 </r>
       <r>  -13.7702    1.0000 </r>
       <r>  -13.7573    1.0000 </r>
       <r>  -13.7312    1.0000 </r>
       <r>  -13.7230    1.0000 </r>
       <r>  -13.7230    1.0000 </r>
       <r>   -8.1497    1.0000 </r>
       <r>   -7.7904    1.0000 </r>
       <r>   -7.7904    1.0000 </r>
       <r>   -7.4671    1.0000 </r>
       <r>   -7.4496    1.0000 </r>
       <r>   -7.2322    1.0000 </r>
       <r>   -7.2322    1.0000 </r>
       <r>   -7.2283    1.0000 </r>
       <r>   -7.2283    1.0000 </r>
       <r>   -7.2183    1.0000 </r>
       <r>   -7.2183    1.0000 </r>
       <r>   -7.2040    1.0000 </r>
       <r>   -7.2040    1.0000 </r>
       <r>   -7.1879    1.0000 </r>
       <r>   -7.1840    1.0000 </r>
       <r>   -7.1840    1.0000 </r>
       <r>   -7.1731    1.0000 </r>
       <r>   -7.1731    1.0000 </r>
       <r>   -7.1726    1.0000 </r>
       <r>   -7.1726    1.0000 </r>
       <r>   -7.1633    1.0000 </r>
       <r>   -7.1429    1.0000 </r>
       <r>   -7.1429    1.0000 </r>
       <r>   -7.1209    1.0000 </r>
       <r>   -7.1209    1.0000 </r>
       <r>   -7.1116    1.0000 </r>
       <r>   -7.0957    1.0000 </r>
       <r>   -7.0957    1.0000 </r>
       <r>   -7.0401    1.0000 </r>
       <r>   -6.9979    1.0000 </r>
       <r>   -6.9979    1.0000 </r>
       <r>   -6.6367    1.0000 </r>
       <r>   -3.4926    1.0000 </r>
       <r>   -3.4596    1.0000 </r>
       <r>   -3.4596    1.0000 </r>
       <r>   -3.3623    1.0000 </r>
       <r>   -3.0724    1.0000 </r>
       <r>   -3.0724    1.0000 </r>
       <r>   -2.9680    1.0000 </r>
       <r>   -2.9680    1.0000 </r>
       <r>   -2.9600    1.0000 </r>
       <r>   -2.9600    1.0000 </r>
       <r>   -2.7542    1.0000 </r>
       <r>   -2.7542    1.0000 </r>
       <r>   -2.1734    1.0000 </r>
       <r>   -2.1734    1.0000 </r>
       <r>   -2.1559    1.0000 </r>
       <r>   -2.1559    1.0000 </r>
       <r>   -2.1297    1.0000 </r>
       <r>   -1.8534    1.0000 </r>
       <r>   -1.8534    1.0000 </r>
       <r>   -1.8343    1.0000 </r>
       <r>   -1.8281    1.0000 </r>
       <r>   -1.7699    1.0000 </r>
       <r>   -1.7699    1.0000 </r>
       <r>   -1.7073    1.0000 </r>
       <r>   -1.7073    1.0000 </r>
       <r>   -1.5960    1.0000 </r>
       <r>   -1.5960    1.0000 </r>
       <r>   -1.5313    1.0000 </r>
       <r>   -1.5313    1.0000 </r>
       <r>   -1.5303    1.0000 </r>
       <r>   -1.5303    1.0000 </r>
       <r>   -1.5223    1.0000 </r>
       <r>   -1.5223    1.0000 </r>
       <r>   -1.5220    1.0000 </r>
       <r>   -1.5220    1.0000 </r>
       <r>   -1.4806    1.0000 </r>
       <r>   -1.4292    1.0000 </r>
       <r>   -1.4267    1.0000 </r>
       <r>   -1.4166    1.0000 </r>
       <r>   -1.3798    1.0000 </r>
       <r>   -1.3798    1.0000 </r>
       <r>   -1.3327    1.0000 </r>
       <r>   -1.3327    1.0000 </r>
       <r>   -1.3243    1.0000 </r>
       <r>   -1.3243    1.0000 </r>
       <r>   -1.3191    1.0000 </r>
       <r>   -1.3191    1.0000 </r>
       <r>   -1.2249    1.0000 </r>
       <r>   -1.2249    1.0000 </r>
       <r>   -1.1792    1.0000 </r>
       <r>   -1.1261    1.0000 </r>
       <r>   -1.1232    1.0000 </r>
       <r>   -1.1189    1.0000 </r>
       <r>   -1.1189    1.0000 </r>
       <r>   -1.0842    1.0000 </r>
       <r>   -1.0264    1.0000 </r>
       <r>   -1.0264    1.0000 </r>
       <r>   -1.0013    1.0000 </r>
       <r>   -1.0013    1.0000 </r>
       <r>   -0.9802    1.0000 </r>
       <r>   -0.9802    1.0000 </r>
       <r>   -0.9536    1.0000 </r>
       <r>   -0.9536    1.0000 </r>
       <r>   -0.9360    1.0000 </r>
       <r>   -0.9360    1.0000 </r>
       <r>   -0.8696    1.0000 </r>
       <r>   -0.8696    1.0000 </r>
       <r>   -0.4890    1.0000 </r>
       <r>   -0.3644    1.0000 </r>
       <r>   -0.1893    1.0000 </r>
       <r>   -0.1893    1.0000 </r>
       <r>    0.3323    1.0000 </r>
       <r>    2.7500    0.0000 </r>
       <r>    2.7500    0.0000 </r>
       <r>    2.7541    0.0000 </r>
       <r>    2.9998    0.0000 </r>
       <r>    2.9998    0.0000 </r>
       <r>    3.1015    0.0000 </r>
       <r>    3.1015    0.0000 </r>
       <r>    3.2790    0.0000 </r>
       <r>    3.2790    0.0000 </r>
       <r>    3.3869    0.0000 </r>
       <r>    3.4222    0.0000 </r>
       <r>    3.4222    0.0000 </r>
       <r>    4.7344    0.0000 </r>
       <r>    5.1126    0.0000 </r>
       <r>    5.1126    0.0000 </r>
       <r>    5.3854    0.0000 </r>
       <r>    5.3854    0.0000 </r>
       <r>    5.5327    0.0000 </r>
       <r>    5.5327    0.0000 </r>
       <r>    5.6165    0.0000 </r>
       <r>    5.6224    0.0000 </r>
       <r>    5.7140    0.0000 </r>
       <r>    5.8552    0.0000 </r>
       <r>    5.8552    0.0000 </r>
       <r>    6.1815    0.0000 </r>
       <r>    6.1815    0.0000 </r>
       <r>    6.2121    0.0000 </r>
       <r>    6.2286    0.0000 </r>
       <r>    6.2286    0.0000 </r>
       <r>    6.3239    0.0000 </r>
       <r>    6.3239    0.0000 </r>
       <r>    6.5805    0.0000 </r>
       <r>    6.5805    0.0000 </r>
       <r>    6.5958    0.0000 </r>
       <r>    6.5958    0.0000 </r>
       <r>    6.6419    0.0000 </r>
       <r>    6.6422    0.0000 </r>
       <r>    6.7058    0.0000 </r>
       <r>    6.7343    0.0000 </r>
       <r>    6.8135    0.0000 </r>
      </set>
      <set comment="kpoint 2">
       <r>  -20.7591    1.0000 </r>
       <r>  -20.7591    1.0000 </r>
       <r>  -20.7578    1.0000 </r>
       <r>  -20.7578    1.0000 </r>
       <r>  -20.7553    1.0000 </r>
       <r>  -20.7553    1.0000 </r>
       <r>  -20.7546    1.0000 </r>
       <r>  -20.7546    1.0000 </r>
       <r>  -16.5764    1.0000 </r>
       <r>  -16.5764    1.0000 </r>
       <r>  -16.5685    1.0000 </r>
       <r>  -16.5685    1.0000 </r>
       <r>  -16.5044    1.0000 </r>
       <r>  -16.5044    1.0000 </r>
       <r>  -16.4970    1.0000 </r>
       <r>  -16.4970    1.0000 </r>
       <r>  -16.4875    1.0000 </r>
       <r>  -16.4875    1.0000 </r>
       <r>  -16.4872    1.0000 </r>
       <r>  -16.4872    1.0000 </r>
       <r>  -16.4678    1.0000 </r>
       <r>  -16.4678    1.0000 </r>
       <r>  -16.4644    1.0000 </r>
       <r>  -16.4644    1.0000 </r>
       <r>  -16.4059    1.0000 </r>
       <r>  -16.4059    1.0000 </r>
       <r>  -16.4059    1.0000 </r>
       <r>  -16.4059    1.0000 </r>
       <r>  -16.4052    1.0000 </r>
       <r>  -16.4052    1.0000 </r>
       <r>  -16.4051    1.0000 </r>
       <r>  -16.4051    1.0000 </r>
       <r>  -16.3985    1.0000 </r>
       <r>  -16.3985    1.0000 </r>
       <r>  -16.3981    1.0000 </r>
       <r>  -16.3981    1.0000 </r>
       <r>  -16.3980    1.0000 </r>
       <r>  -16.3980    1.0000 </r>
       <r>  -16.3977    1.0000 </r>
       <r>  -16.3977    1.0000 </r>
       <r>  -16.3972    1.0000 </r>
       <r>  -16.3972    1.0000 </r>
       <r>  -16.3971    1.0000 </r>
       <r>  -16.3971    1.0000 </r>
       <r>  -16.3969    1.0000 </r>
       <r>  -16.3969    1.0000 </r>
       <r>  -16.3968    1.0000 </r>
       <r>  -16.3968    1.0000 </r>
       <r>  -14.2718    1.0000 </r>
       <r>  -14.2718    1.0000 </r>
       <r>  -14.1638    1.0000 </r>
       <r>  -14.1638    1.0000 </r>
       <r>  -14.1625    1.0000 </r>
       <r>  -14.1625    1.0000 </r>
       <r>  -14.1479    1.0000 </r>
       <r>  -14.1479    1.0000 </r>
       <r>  -14.0310    1.0000 </r>
       <r>  -14.0310    1.0000 </r>
       <r>  -13.9205    1.0000 </r>
       <r>  -13.9205    1.0000 </r>
       <r>  -13.9109    1.0000 </r>
       <r>  -13.9109    1.0000 </r>
       <r>  -13.8637    1.0000 </r>
       <r>  -13.8637    1.0000 </r>
       <r>  -13.8256    1.0000 </r>
       <r>  -13.8256    1.0000 </r>
       <r>  -13.7909    1.0000 </r>
       <r>  -13.7909    1.0000 </r>
       <r>  -13.7850    1.0000 </r>
       <r>  -13.7850    1.0000 </r>
       <r>  -13.7346    1.0000 </r>
       <r>  -13.7346    1.0000 </r>
       <r>   -7.9810    1.0000 </r>
       <r>   -7.9810    1.0000 </r>
       <r>   -7.6292    1.0000 </r>
       <r>   -7.6292    1.0000 </r>
       <r>   -7.3136    1.0000 </r>
       <r>   -7.3136    1.0000 </r>
       <r>   -7.2182    1.0000 </r>
       <r>   -7.2182    1.0000 </r>
       <r>   -7.2150    1.0000 </r>
       <r>   -7.2150    1.0000 </r>
       <r>   -7.2030    1.0000 </r>
       <r>   -7.2030    1.0000 </r>
       <r>   -7.1946    1.0000 </r>
       <r>   -7.1946    1.0000 </r>
       <r>   -7.1938    1.0000 </r>
       <r>   -7.1938    1.0000 </r>
       <r>   -7.1806    1.0000 </r>
       <r>   -7.1806    1.0000 </r>
       <r>   -7.1782    1.0000 </r>
       <r>   -7.1782    1.0000 </r>
       <r>   -7.1681    1.0000 </r>
       <r>   -7.1681    1.0000 </r>
       <r>   -7.1203    1.0000 </r>
       <r>   -7.1203    1.0000 </r>
       <r>   -7.1039    1.0000 </r>
       <r>   -7.1039    1.0000 </r>
       <r>   -7.0960    1.0000 </r>
       <r>   -7.0960    1.0000 </r>
       <r>   -7.0729    1.0000 </r>
       <r>   -7.0729    1.0000 </r>
       <r>   -6.8596    1.0000 </r>
       <r>   -6.8596    1.0000 </r>
       <r>   -3.4763    1.0000 </r>
       <r>   -3.4763    1.0000 </r>
       <r>   -3.4127    1.0000 </r>
       <r>   -3.4127    1.0000 </r>
       <r>   -3.0219    1.0000 </r>
       <r>   -3.0219    1.0000 </r>
       <r>   -2.8651    1.0000 </r>
       <r>   -2.8651    1.0000 </r>
       <r>   -2.5563    1.0000 </r>
       <r>   -2.5563    1.0000 </r>
       <r>   -2.3906    1.0000 </r>
       <r>   -2.3906    1.0000 </r>
       <r>   -2.3904    1.0000 </r>
       <r>   -2.3904    1.0000 </r>
       <r>   -2.1608    1.0000 </r>
       <r>   -2.1608    1.0000 </r>
       <r>   -2.0437    1.0000 </r>
       <r>   -2.0437    1.0000 </r>
       <r>   -2.0173    1.0000 </r>
       <r>   -2.0173    1.0000 </r>
       <r>   -2.0050    1.0000 </r>
       <r>   -2.0050    1.0000 </r>
       <r>   -1.7737    1.0000 </r>
       <r>   -1.7737    1.0000 </r>
       <r>   -1.7673    1.0000 </r>
       <r>   -1.7673    1.0000 </r>
       <r>   -1.6553    1.0000 </r>
       <r>   -1.6553    1.0000 </r>
       <r>   -1.5594    1.0000 </r>
       <r>   -1.5594    1.0000 </r>
       <r>   -1.4716    1.0000 </r>
       <r>   -1.4716    1.0000 </r>
       <r>   -1.4696    1.0000 </r>
       <r>   -1.4696    1.0000 </r>
       <r>   -1.4693    1.0000 </r>
       <r>   -1.4693    1.0000 </r>
       <r>   -1.4535    1.0000 </r>
       <r>   -1.4535    1.0000 </r>
       <r>   -1.4207    1.0000 </r>
       <r>   -1.4207    1.0000 </r>
       <r>   -1.4195    1.0000 </r>
       <r>   -1.4195    1.0000 </r>
       <r>   -1.3657    1.0000 </r>
       <r>   -1.3657    1.0000 </r>
       <r>   -1.3169    1.0000 </r>
       <r>   -1.3169    1.0000 </r>
       <r>   -1.3129    1.0000 </r>
       <r>   -1.3129    1.0000 </r>
       <r>   -1.1750    1.0000 </r>
       <r>   -1.1750    1.0000 </r>
       <r>   -1.1626    1.0000 </r>
       <r>   -1.1626    1.0000 </r>
       <r>   -1.1411    1.0000 </r>
       <r>   -1.1411    1.0000 </r>
       <r>   -1.0861    1.0000 </r>
       <r>   -1.0861    1.0000 </r>
       <r>   -1.0623    1.0000 </r>
       <r>   -1.0623    1.0000 </r>
       <r>   -1.0116    1.0000 </r>
       <r>   -1.0116    1.0000 </r>
       <r>   -0.9529    1.0000 </r>
       <r>   -0.9529    1.0000 </r>
       <r>   -0.9224    1.0000 </r>
       <r>   -0.9224    1.0000 </r>
       <r>   -0.8344    1.0000 </r>
       <r>   -0.8344    1.0000 </r>
       <r>   -0.7234    1.0000 </r>
       <r>   -0.7234    1.0000 </r>
       <r>   -0.3627    1.0000 </r>
       <r>   -0.3627    1.0000 </r>
       <r>   -0.0186    1.0000 </r>
       <r>   -0.0186    1.0000 </r>
       <r>    2.8613    0.0000 </r>
       <r>    2.8613    0.0000 </r>
       <r>    2.9305    0.0000 </r>
       <r>    2.9305    0.0000 </r>
       <r>    3.2424    0.0000 </r>
       <r>    3.2424    0.0000 </r>
       <r>    3.3241    0.0000 </r>
       <r>    3.3241    0.0000 </r>
       <r>    3.9416    0.0000 </r>
       <r>    3.9416    0.0000 </r>
       <r>    4.1839    0.0000 </r>
       <r>    4.1839    0.0000 </r>
       <r>    4.3862    0.0000 </r>
       <r>    4.3862    0.0000 </r>
       <r>    4.5620    0.0000 </r>
       <r>    4.5620    0.0000 </r>
       <r>    5.2315    0.0000 </r>
       <r>    5.2315    0.0000 </r>
       <r>    5.4248    0.0000 </r>
       <r>    5.4248    0.0000 </r>
       <r>    5.6640    0.0000 </r>
       <r>    5.6640    0.0000 </r>
       <r>    6.0071    0.0000 </r>
       <r>    6.0071    0.0000 </r>
       <r>    6.0332    0.0000 </r>
       <r>    6.0332    0.0000 </r>
       <r>    6.1292    0.0000 </r>
       <r>    6.1292    0.0000 </r>
       <r>    6.1986    0.0000 </r>
       <r>    6.1986    0.0000 </r>
       <r>    6.2287    0.0000 </r>
       <r>    6.2287    0.0000 </r>
       <r>    6.6821    0.0000 </r>
       <r>    6.6826    0.0000 </r>
       <r>    6.6840    0.0000 </r>
       <r>    6.6844    0.0000 </r>
       <r>    6.7018    0.0000 </r>
       <r>    6.7048    0.0000 </r>
       <r>    6.7352    0.0000 </r>
       <r>    6.7371    0.0000 </r>
      </set>
      <set comment="kpoint 3">
       <r>  -20.7584    1.0000 </r>
       <r>  -20.7584    1.0000 </r>
       <r>  -20.7584    1.0000 </r>
       <r>  -20.7584    1.0000 </r>
       <r>  -20.7550    1.0000 </r>
       <r>  -20.7550    1.0000 </r>
       <r>  -20.7550    1.0000 </r>
       <r>  -20.7550    1.0000 </r>
       <r>  -16.5719    1.0000 </r>
       <r>  -16.5719    1.0000 </r>
       <r>  -16.5719    1.0000 </r>
       <r>  -16.5719    1.0000 </r>
       <r>  -16.4889    1.0000 </r>
       <r>  -16.4889    1.0000 </r>
       <r>  -16.4889    1.0000 </r>
       <r>  -16.4889    1.0000 </r>
       <r>  -16.4831    1.0000 </r>
       <r>  -16.4831    1.0000 </r>
       <r>  -16.4831    1.0000 </r>
       <r>  -16.4831    1.0000 </r>
       <r>  -16.4830    1.0000 </r>
       <r>  -16.4830    1.0000 </r>
       <r>  -16.4830    1.0000 </r>
       <r>  -16.4830    1.0000 </r>
       <r>  -16.4056    1.0000 </r>
       <r>  -16.4056    1.0000 </r>
       <r>  -16.4056    1.0000 </r>
       <r>  -16.4056    1.0000 </r>
       <r>  -16.4055    1.0000 </r>
       <r>  -16.4055    1.0000 </r>
       <r>  -16.4055    1.0000 </r>
       <r>  -16.4055    1.0000 </r>
       <r>  -16.3981    1.0000 </r>
       <r>  -16.3981    1.0000 </r>
       <r>  -16.3981    1.0000 </r>
       <r>  -16.3981    1.0000 </r>
       <r>  -16.3981    1.0000 </r>
       <r>  -16.3981    1.0000 </r>
       <r>  -16.3981    1.0000 </r>
       <r>  -16.3981    1.0000 </r>
       <r>  -16.3970    1.0000 </r>
       <r>  -16.3970    1.0000 </r>
       <r>  -16.3970    1.0000 </r>
       <r>  -16.3970    1.0000 </r>
       <r>  -16.3969    1.0000 </r>
       <r>  -16.3969    1.0000 </r>
       <r>  -16.3969    1.0000 </r>
       <r>  -16.3969    1.0000 </r>
       <r>  -14.2237    1.0000 </r>
       <r>  -14.2237    1.0000 </r>
       <r>  -14.2237    1.0000 </r>
       <r>  -14.2237    1.0000 </r>
       <r>  -14.1631    1.0000 </r>
       <r>  -14.1631    1.0000 </r>
       <r>  -14.1631    1.0000 </r>
       <r>  -14.1631    1.0000 </r>
       <r>  -13.9898    1.0000 </r>
       <r>  -13.9898    1.0000 </r>
       <r>  -13.9898    1.0000 </r>
       <r>  -13.9898    1.0000 </r>
       <r>  -13.8257    1.0000 </r>
       <r>  -13.8257    1.0000 </r>
       <r>  -13.8257    1.0000 </r>
       <r>  -13.8257    1.0000 </r>
       <r>  -13.8100    1.0000 </r>
       <r>  -13.8100    1.0000 </r>
       <r>  -13.8100    1.0000 </r>
       <r>  -13.8100    1.0000 </r>
       <r>  -13.7911    1.0000 </r>
       <r>  -13.7911    1.0000 </r>
       <r>  -13.7911    1.0000 </r>
       <r>  -13.7911    1.0000 </r>
       <r>   -7.8159    1.0000 </r>
       <r>   -7.8159    1.0000 </r>
       <r>   -7.8159    1.0000 </r>
       <r>   -7.8159    1.0000 </r>
       <r>   -7.2307    1.0000 </r>
       <r>   -7.2307    1.0000 </r>
       <r>   -7.2307    1.0000 </r>
       <r>   -7.2307    1.0000 </r>
       <r>   -7.2082    1.0000 </r>
       <r>   -7.2082    1.0000 </r>
       <r>   -7.2082    1.0000 </r>
       <r>   -7.2082    1.0000 </r>
       <r>   -7.1886    1.0000 </r>
       <r>   -7.1886    1.0000 </r>
       <r>   -7.1886    1.0000 </r>
       <r>   -7.1886    1.0000 </r>
       <r>   -7.1744    1.0000 </r>
       <r>   -7.1744    1.0000 </r>
       <r>   -7.1744    1.0000 </r>
       <r>   -7.1744    1.0000 </r>
       <r>   -7.1355    1.0000 </r>
       <r>   -7.1355    1.0000 </r>
       <r>   -7.1355    1.0000 </r>
       <r>   -7.1355    1.0000 </r>
       <r>   -7.0899    1.0000 </r>
       <r>   -7.0899    1.0000 </r>
       <r>   -7.0899    1.0000 </r>
       <r>   -7.0899    1.0000 </r>
       <r>   -7.0517    1.0000 </r>
       <r>   -7.0517    1.0000 </r>
       <r>   -7.0517    1.0000 </r>
       <r>   -7.0517    1.0000 </r>
       <r>   -3.4452    1.0000 </r>
       <r>   -3.4452    1.0000 </r>
       <r>   -3.4452    1.0000 </r>
       <r>   -3.4452    1.0000 </r>
       <r>   -2.6122    1.0000 </r>
       <r>   -2.6122    1.0000 </r>
       <r>   -2.6122    1.0000 </r>
       <r>   -2.6122    1.0000 </r>
       <r>   -2.4181    1.0000 </r>
       <r>   -2.4181    1.0000 </r>
       <r>   -2.4181    1.0000 </r>
       <r>   -2.4181    1.0000 </r>
       <r>   -2.3034    1.0000 </r>
       <r>   -2.3034    1.0000 </r>
       <r>   -2.3034    1.0000 </r>
       <r>   -2.3034    1.0000 </r>
       <r>   -2.1217    1.0000 </r>
       <r>   -2.1217    1.0000 </r>
       <r>   -2.1217    1.0000 </r>
       <r>   -2.1217    1.0000 </r>
       <r>   -2.0079    1.0000 </r>
       <r>   -2.0079    1.0000 </r>
       <r>   -2.0079    1.0000 </r>
       <r>   -2.0079    1.0000 </r>
       <r>   -1.7485    1.0000 </r>
       <r>   -1.7485    1.0000 </r>
       <r>   -1.7485    1.0000 </r>
       <r>   -1.7485    1.0000 </r>
       <r>   -1.6365    1.0000 </r>
       <r>   -1.6365    1.0000 </r>
       <r>   -1.6365    1.0000 </r>
       <r>   -1.6365    1.0000 </r>
       <r>   -1.4545    1.0000 </r>
       <r>   -1.4545    1.0000 </r>
       <r>   -1.4545    1.0000 </r>
       <r>   -1.4545    1.0000 </r>
       <r>   -1.4243    1.0000 </r>
       <r>   -1.4243    1.0000 </r>
       <r>   -1.4243    1.0000 </r>
       <r>   -1.4243    1.0000 </r>
       <r>   -1.3499    1.0000 </r>
       <r>   -1.3499    1.0000 </r>
       <r>   -1.3499    1.0000 </r>
       <r>   -1.3499    1.0000 </r>
       <r>   -1.2179    1.0000 </r>
       <r>   -1.2179    1.0000 </r>
       <r>   -1.2179    1.0000 </r>
       <r>   -1.2179    1.0000 </r>
       <r>   -1.2151    1.0000 </r>
       <r>   -1.2151    1.0000 </r>
       <r>   -1.2151    1.0000 </r>
       <r>   -1.2151    1.0000 </r>
       <r>   -1.1648    1.0000 </r>
       <r>   -1.1648    1.0000 </r>
       <r>   -1.1648    1.0000 </r>
       <r>   -1.1648    1.0000 </r>
       <r>   -1.0960    1.0000 </r>
       <r>   -1.0960    1.0000 </r>
       <r>   -1.0960    1.0000 </r>
       <r>   -1.0960    1.0000 </r>
       <r>   -1.0274    1.0000 </r>
       <r>   -1.0274    1.0000 </r>
       <r>   -1.0274    1.0000 </r>
       <r>   -1.0274    1.0000 </r>
       <r>   -0.7803    1.0000 </r>
       <r>   -0.7803    1.0000 </r>
       <r>   -0.7803    1.0000 </r>
       <r>   -0.7803    1.0000 </r>
       <r>   -0.2468    1.0000 </r>
       <r>   -0.2468    1.0000 </r>
       <r>   -0.2468    1.0000 </r>
       <r>   -0.2468    1.0000 </r>
       <r>    3.0863    0.0000 </r>
       <r>    3.0863    0.0000 </r>
       <r>    3.0863    0.0000 </r>
       <r>    3.0863    0.0000 </r>
       <r>    4.0073    0.0000 </r>
       <r>    4.0073    0.0000 </r>
       <r>    4.0073    0.0000 </r>
       <r>    4.0073    0.0000 </r>
       <r>    4.0835    0.0000 </r>
       <r>    4.0835    0.0000 </r>
       <r>    4.0835    0.0000 </r>
       <r>    4.0835    0.0000 </r>
       <r>    4.3867    0.0000 </r>
       <r>    4.3867    0.0000 </r>
       <r>    4.3867    0.0000 </r>
       <r>    4.3867    0.0000 </r>
       <r>    4.5172    0.0000 </r>
       <r>    4.5172    0.0000 </r>
       <r>    4.5172    0.0000 </r>
       <r>    4.5172    0.0000 </r>
       <r>    5.8816    0.0000 </r>
       <r>    5.8816    0.0000 </r>
       <r>    5.8816    0.0000 </r>
       <r>    5.8816    0.0000 </r>
       <r>    6.1719    0.0000 </r>
       <r>    6.1719    0.0000 </r>
       <r>    6.1719    0.0000 </r>
       <r>    6.1719    0.0000 </r>
       <r>    6.2661    0.0000 </r>
       <r>    6.2661    0.0000 </r>
       <r>    6.2661    0.0000 </r>
       <r>    6.2661    0.0000 </r>
       <r>    6.3866    0.0000 </r>
       <r>    6.3866    0.0000 </r>
       <r>    6.3866    0.0000 </r>
       <r>    6.3866    0.0000 </r>
       <r>    6.6337    0.0000 </r>
       <r>    6.6340    0.0000 </r>
       <r>    6.6355    0.0000 </r>
       <r>    6.6382    0.0000 </r>
      </set>
      <set comment="kpoint 4">
       <r>  -20.7579    1.0000 </r>
       <r>  -20.7579    1.0000 </r>
       <r>  -20.7565    1.0000 </r>
       <r>  -20.7565    1.0000 </r>
       <r>  -20.7565    1.0000 </r>
       <r>  -20.7565    1.0000 </r>
       <r>  -20.7558    1.0000 </r>
       <r>  -20.7558    1.0000 </r>
       <r>  -16.5401    1.0000 </r>
       <r>  -16.5401    1.0000 </r>
       <r>  -16.5355    1.0000 </r>
       <r>  -16.5355    1.0000 </r>
       <r>  -16.5355    1.0000 </r>
       <r>  -16.5355    1.0000 </r>
       <r>  -16.5228    1.0000 </r>
       <r>  -16.5228    1.0000 </r>
       <r>  -16.5122    1.0000 </r>
       <r>  -16.5122    1.0000 </r>
       <r>  -16.4785    1.0000 </r>
       <r>  -16.4785    1.0000 </r>
       <r>  -16.4785    1.0000 </r>
       <r>  -16.4785    1.0000 </r>
       <r>  -16.4531    1.0000 </r>
       <r>  -16.4531    1.0000 </r>
       <r>  -16.4064    1.0000 </r>
       <r>  -16.4064    1.0000 </r>
       <r>  -16.4055    1.0000 </r>
       <r>  -16.4055    1.0000 </r>
       <r>  -16.4055    1.0000 </r>
       <r>  -16.4055    1.0000 </r>
       <r>  -16.4049    1.0000 </r>
       <r>  -16.4049    1.0000 </r>
       <r>  -16.3979    1.0000 </r>
       <r>  -16.3979    1.0000 </r>
       <r>  -16.3979    1.0000 </r>
       <r>  -16.3979    1.0000 </r>
       <r>  -16.3978    1.0000 </r>
       <r>  -16.3978    1.0000 </r>
       <r>  -16.3978    1.0000 </r>
       <r>  -16.3978    1.0000 </r>
       <r>  -16.3973    1.0000 </r>
       <r>  -16.3973    1.0000 </r>
       <r>  -16.3973    1.0000 </r>
       <r>  -16.3973    1.0000 </r>
       <r>  -16.3970    1.0000 </r>
       <r>  -16.3970    1.0000 </r>
       <r>  -16.3970    1.0000 </r>
       <r>  -16.3970    1.0000 </r>
       <r>  -14.2803    1.0000 </r>
       <r>  -14.2803    1.0000 </r>
       <r>  -14.1805    1.0000 </r>
       <r>  -14.1805    1.0000 </r>
       <r>  -14.1805    1.0000 </r>
       <r>  -14.1805    1.0000 </r>
       <r>  -14.1157    1.0000 </r>
       <r>  -14.1157    1.0000 </r>
       <r>  -13.9425    1.0000 </r>
       <r>  -13.9425    1.0000 </r>
       <r>  -13.9425    1.0000 </r>
       <r>  -13.9425    1.0000 </r>
       <r>  -13.8849    1.0000 </r>
       <r>  -13.8849    1.0000 </r>
       <r>  -13.8849    1.0000 </r>
       <r>  -13.8849    1.0000 </r>
       <r>  -13.8849    1.0000 </r>
       <r>  -13.8849    1.0000 </r>
       <r>  -13.7819    1.0000 </r>
       <r>  -13.7819    1.0000 </r>
       <r>  -13.7819    1.0000 </r>
       <r>  -13.7819    1.0000 </r>
       <r>  -13.7443    1.0000 </r>
       <r>  -13.7443    1.0000 </r>
       <r>   -7.8503    1.0000 </r>
       <r>   -7.8503    1.0000 </r>
       <r>   -7.4966    1.0000 </r>
       <r>   -7.4966    1.0000 </r>
       <r>   -7.4966    1.0000 </r>
       <r>   -7.4966    1.0000 </r>
       <r>   -7.2174    1.0000 </r>
       <r>   -7.2174    1.0000 </r>
       <r>   -7.2174    1.0000 </r>
       <r>   -7.2174    1.0000 </r>
       <r>   -7.1906    1.0000 </r>
       <r>   -7.1906    1.0000 </r>
       <r>   -7.1906    1.0000 </r>
       <r>   -7.1906    1.0000 </r>
       <r>   -7.1810    1.0000 </r>
       <r>   -7.1810    1.0000 </r>
       <r>   -7.1610    1.0000 </r>
       <r>   -7.1610    1.0000 </r>
       <r>   -7.1610    1.0000 </r>
       <r>   -7.1610    1.0000 </r>
       <r>   -7.1376    1.0000 </r>
       <r>   -7.1376    1.0000 </r>
       <r>   -7.1346    1.0000 </r>
       <r>   -7.1346    1.0000 </r>
       <r>   -7.1346    1.0000 </r>
       <r>   -7.1346    1.0000 </r>
       <r>   -7.1327    1.0000 </r>
       <r>   -7.1327    1.0000 </r>
       <r>   -7.1327    1.0000 </r>
       <r>   -7.1327    1.0000 </r>
       <r>   -7.0434    1.0000 </r>
       <r>   -7.0434    1.0000 </r>
       <r>   -3.0197    1.0000 </r>
       <r>   -3.0197    1.0000 </r>
       <r>   -3.0197    1.0000 </r>
       <r>   -3.0197    1.0000 </r>
       <r>   -2.8712    1.0000 </r>
       <r>   -2.8712    1.0000 </r>
       <r>   -2.8712    1.0000 </r>
       <r>   -2.8712    1.0000 </r>
       <r>   -2.4728    1.0000 </r>
       <r>   -2.4728    1.0000 </r>
       <r>   -2.4728    1.0000 </r>
       <r>   -2.4728    1.0000 </r>
       <r>   -2.4471    1.0000 </r>
       <r>   -2.4471    1.0000 </r>
       <r>   -2.3912    1.0000 </r>
       <r>   -2.3912    1.0000 </r>
       <r>   -2.0809    1.0000 </r>
       <r>   -2.0809    1.0000 </r>
       <r>   -2.0809    1.0000 </r>
       <r>   -2.0809    1.0000 </r>
       <r>   -2.0042    1.0000 </r>
       <r>   -2.0042    1.0000 </r>
       <r>   -1.8556    1.0000 </r>
       <r>   -1.8556    1.0000 </r>
       <r>   -1.8556    1.0000 </r>
       <r>   -1.8556    1.0000 </r>
       <r>   -1.7810    1.0000 </r>
       <r>   -1.7810    1.0000 </r>
       <r>   -1.7810    1.0000 </r>
       <r>   -1.7810    1.0000 </r>
       <r>   -1.4499    1.0000 </r>
       <r>   -1.4499    1.0000 </r>
       <r>   -1.4499    1.0000 </r>
       <r>   -1.4499    1.0000 </r>
       <r>   -1.4314    1.0000 </r>
       <r>   -1.4314    1.0000 </r>
       <r>   -1.4314    1.0000 </r>
       <r>   -1.4314    1.0000 </r>
       <r>   -1.4229    1.0000 </r>
       <r>   -1.4229    1.0000 </r>
       <r>   -1.3576    1.0000 </r>
       <r>   -1.3576    1.0000 </r>
       <r>   -1.3011    1.0000 </r>
       <r>   -1.3011    1.0000 </r>
       <r>   -1.3011    1.0000 </r>
       <r>   -1.3011    1.0000 </r>
       <r>   -1.2832    1.0000 </r>
       <r>   -1.2832    1.0000 </r>
       <r>   -1.1793    1.0000 </r>
       <r>   -1.1793    1.0000 </r>
       <r>   -1.1793    1.0000 </r>
       <r>   -1.1793    1.0000 </r>
       <r>   -1.0295    1.0000 </r>
       <r>   -1.0295    1.0000 </r>
       <r>   -1.0295    1.0000 </r>
       <r>   -1.0295    1.0000 </r>
       <r>   -0.9992    1.0000 </r>
       <r>   -0.9992    1.0000 </r>
       <r>   -0.9992    1.0000 </r>
       <r>   -0.9992    1.0000 </r>
       <r>   -0.9967    1.0000 </r>
       <r>   -0.9967    1.0000 </r>
       <r>   -0.9967    1.0000 </r>
       <r>   -0.9967    1.0000 </r>
       <r>   -0.9219    1.0000 </r>
       <r>   -0.9219    1.0000 </r>
       <r>   -0.8115    1.0000 </r>
       <r>   -0.8115    1.0000 </r>
       <r>   -0.8115    1.0000 </r>
       <r>   -0.8115    1.0000 </r>
       <r>   -0.2297    1.0000 </r>
       <r>   -0.2297    1.0000 </r>
       <r>    3.0149    0.0000 </r>
       <r>    3.0149    0.0000 </r>
       <r>    3.0149    0.0000 </r>
       <r>    3.0149    0.0000 </r>
       <r>    3.2001    0.0000 </r>
       <r>    3.2001    0.0000 </r>
       <r>    3.2001    0.0000 </r>
       <r>    3.2001    0.0000 </r>
       <r>    4.5690    0.0000 </r>
       <r>    4.5690    0.0000 </r>
       <r>    4.8461    0.0000 </r>
       <r>    4.8461    0.0000 </r>
       <r>    4.8461    0.0000 </r>
       <r>    4.8461    0.0000 </r>
       <r>    4.9565    0.0000 </r>
       <r>    4.9565    0.0000 </r>
       <r>    5.2875    0.0000 </r>
       <r>    5.2875    0.0000 </r>
       <r>    5.2875    0.0000 </r>
       <r>    5.2875    0.0000 </r>
       <r>    5.4660    0.0000 </r>
       <r>    5.4660    0.0000 </r>
       <r>    5.5699    0.0000 </r>
       <r>    5.5699    0.0000 </r>
       <r>    5.5699    0.0000 </r>
       <r>    5.5699    0.0000 </r>
       <r>    5.7453    0.0000 </r>
       <r>    5.7453    0.0000 </r>
       <r>    6.5559    0.0000 </r>
       <r>    6.5559    0.0000 </r>
       <r>    6.5559    0.0000 </r>
       <r>    6.5559    0.0000 </r>
       <r>    6.6431    0.0000 </r>
       <r>    6.6431    0.0000 </r>
       <r>    6.6431    0.0000 </r>
       <r>    6.6439    0.0000 </r>
       <r>    6.6451    0.0000 </r>
       <r>    6.6451    0.0000 </r>
       <r>    6.6451    0.0000 </r>
       <r>    6.6453    0.0000 </r>
      </set>
      <set comment="kpoint 5">
       <r>  -20.7572    1.0000 </r>
       <r>  -20.7572    1.0000 </r>
       <r>  -20.7572    1.0000 </r>
       <r>  -20.7572    1.0000 </r>
       <r>  -20.7562    1.0000 </r>
       <r>  -20.7562    1.0000 </r>
       <r>  -20.7562    1.0000 </r>
       <r>  -20.7562    1.0000 </r>
       <r>  -16.5370    1.0000 </r>
       <r>  -16.5370    1.0000 </r>
       <r>  -16.5370    1.0000 </r>
       <r>  -16.5370    1.0000 </r>
       <r>  -16.5279    1.0000 </r>
       <r>  -16.5279    1.0000 </r>
       <r>  -16.5279    1.0000 </r>
       <r>  -16.5279    1.0000 </r>
       <r>  -16.4962    1.0000 </r>
       <r>  -16.4962    1.0000 </r>
       <r>  -16.4962    1.0000 </r>
       <r>  -16.4962    1.0000 </r>
       <r>  -16.4672    1.0000 </r>
       <r>  -16.4672    1.0000 </r>
       <r>  -16.4672    1.0000 </r>
       <r>  -16.4672    1.0000 </r>
       <r>  -16.4060    1.0000 </r>
       <r>  -16.4060    1.0000 </r>
       <r>  -16.4060    1.0000 </r>
       <r>  -16.4060    1.0000 </r>
       <r>  -16.4051    1.0000 </r>
       <r>  -16.4051    1.0000 </r>
       <r>  -16.4051    1.0000 </r>
       <r>  -16.4051    1.0000 </r>
       <r>  -16.3979    1.0000 </r>
       <r>  -16.3979    1.0000 </r>
       <r>  -16.3979    1.0000 </r>
       <r>  -16.3979    1.0000 </r>
       <r>  -16.3976    1.0000 </r>
       <r>  -16.3976    1.0000 </r>
       <r>  -16.3976    1.0000 </r>
       <r>  -16.3976    1.0000 </r>
       <r>  -16.3976    1.0000 </r>
       <r>  -16.3976    1.0000 </r>
       <r>  -16.3976    1.0000 </r>
       <r>  -16.3976    1.0000 </r>
       <r>  -16.3972    1.0000 </r>
       <r>  -16.3972    1.0000 </r>
       <r>  -16.3972    1.0000 </r>
       <r>  -16.3972    1.0000 </r>
       <r>  -14.2393    1.0000 </r>
       <r>  -14.2393    1.0000 </r>
       <r>  -14.2393    1.0000 </r>
       <r>  -14.2393    1.0000 </r>
       <r>  -14.1536    1.0000 </r>
       <r>  -14.1536    1.0000 </r>
       <r>  -14.1536    1.0000 </r>
       <r>  -14.1536    1.0000 </r>
       <r>  -13.9212    1.0000 </r>
       <r>  -13.9212    1.0000 </r>
       <r>  -13.9212    1.0000 </r>
       <r>  -13.9212    1.0000 </r>
       <r>  -13.8916    1.0000 </r>
       <r>  -13.8916    1.0000 </r>
       <r>  -13.8916    1.0000 </r>
       <r>  -13.8916    1.0000 </r>
       <r>  -13.8276    1.0000 </r>
       <r>  -13.8276    1.0000 </r>
       <r>  -13.8276    1.0000 </r>
       <r>  -13.8276    1.0000 </r>
       <r>  -13.7685    1.0000 </r>
       <r>  -13.7685    1.0000 </r>
       <r>  -13.7685    1.0000 </r>
       <r>  -13.7685    1.0000 </r>
       <r>   -7.6833    1.0000 </r>
       <r>   -7.6833    1.0000 </r>
       <r>   -7.6833    1.0000 </r>
       <r>   -7.6833    1.0000 </r>
       <r>   -7.3333    1.0000 </r>
       <r>   -7.3333    1.0000 </r>
       <r>   -7.3333    1.0000 </r>
       <r>   -7.3333    1.0000 </r>
       <r>   -7.2046    1.0000 </r>
       <r>   -7.2046    1.0000 </r>
       <r>   -7.2046    1.0000 </r>
       <r>   -7.2046    1.0000 </r>
       <r>   -7.1932    1.0000 </r>
       <r>   -7.1932    1.0000 </r>
       <r>   -7.1932    1.0000 </r>
       <r>   -7.1932    1.0000 </r>
       <r>   -7.1536    1.0000 </r>
       <r>   -7.1536    1.0000 </r>
       <r>   -7.1536    1.0000 </r>
       <r>   -7.1536    1.0000 </r>
       <r>   -7.1492    1.0000 </r>
       <r>   -7.1492    1.0000 </r>
       <r>   -7.1492    1.0000 </r>
       <r>   -7.1492    1.0000 </r>
       <r>   -7.1347    1.0000 </r>
       <r>   -7.1347    1.0000 </r>
       <r>   -7.1347    1.0000 </r>
       <r>   -7.1347    1.0000 </r>
       <r>   -7.1165    1.0000 </r>
       <r>   -7.1165    1.0000 </r>
       <r>   -7.1165    1.0000 </r>
       <r>   -7.1165    1.0000 </r>
       <r>   -2.9495    1.0000 </r>
       <r>   -2.9495    1.0000 </r>
       <r>   -2.9495    1.0000 </r>
       <r>   -2.9495    1.0000 </r>
       <r>   -2.6155    1.0000 </r>
       <r>   -2.6155    1.0000 </r>
       <r>   -2.6155    1.0000 </r>
       <r>   -2.6155    1.0000 </r>
       <r>   -2.4889    1.0000 </r>
       <r>   -2.4889    1.0000 </r>
       <r>   -2.4889    1.0000 </r>
       <r>   -2.4889    1.0000 </r>
       <r>   -2.3221    1.0000 </r>
       <r>   -2.3221    1.0000 </r>
       <r>   -2.3221    1.0000 </r>
       <r>   -2.3221    1.0000 </r>
       <r>   -2.2495    1.0000 </r>
       <r>   -2.2495    1.0000 </r>
       <r>   -2.2495    1.0000 </r>
       <r>   -2.2495    1.0000 </r>
       <r>   -2.0003    1.0000 </r>
       <r>   -2.0003    1.0000 </r>
       <r>   -2.0003    1.0000 </r>
       <r>   -2.0003    1.0000 </r>
       <r>   -1.7741    1.0000 </r>
       <r>   -1.7741    1.0000 </r>
       <r>   -1.7741    1.0000 </r>
       <r>   -1.7741    1.0000 </r>
       <r>   -1.6137    1.0000 </r>
       <r>   -1.6137    1.0000 </r>
       <r>   -1.6137    1.0000 </r>
       <r>   -1.6137    1.0000 </r>
       <r>   -1.5812    1.0000 </r>
       <r>   -1.5812    1.0000 </r>
       <r>   -1.5812    1.0000 </r>
       <r>   -1.5812    1.0000 </r>
       <r>   -1.5008    1.0000 </r>
       <r>   -1.5008    1.0000 </r>
       <r>   -1.5008    1.0000 </r>
       <r>   -1.5008    1.0000 </r>
       <r>   -1.4288    1.0000 </r>
       <r>   -1.4288    1.0000 </r>
       <r>   -1.4288    1.0000 </r>
       <r>   -1.4288    1.0000 </r>
       <r>   -1.2196    1.0000 </r>
       <r>   -1.2196    1.0000 </r>
       <r>   -1.2196    1.0000 </r>
       <r>   -1.2196    1.0000 </r>
       <r>   -1.1563    1.0000 </r>
       <r>   -1.1563    1.0000 </r>
       <r>   -1.1563    1.0000 </r>
       <r>   -1.1563    1.0000 </r>
       <r>   -1.1125    1.0000 </r>
       <r>   -1.1125    1.0000 </r>
       <r>   -1.1125    1.0000 </r>
       <r>   -1.1125    1.0000 </r>
       <r>   -1.0465    1.0000 </r>
       <r>   -1.0465    1.0000 </r>
       <r>   -1.0465    1.0000 </r>
       <r>   -1.0465    1.0000 </r>
       <r>   -0.9786    1.0000 </r>
       <r>   -0.9786    1.0000 </r>
       <r>   -0.9786    1.0000 </r>
       <r>   -0.9786    1.0000 </r>
       <r>   -0.7893    1.0000 </r>
       <r>   -0.7893    1.0000 </r>
       <r>   -0.7893    1.0000 </r>
       <r>   -0.7893    1.0000 </r>
       <r>   -0.6236    1.0000 </r>
       <r>   -0.6236    1.0000 </r>
       <r>   -0.6236    1.0000 </r>
       <r>   -0.6236    1.0000 </r>
       <r>    3.0868    0.0000 </r>
       <r>    3.0868    0.0000 </r>
       <r>    3.0868    0.0000 </r>
       <r>    3.0868    0.0000 </r>
       <r>    4.1458    0.0000 </r>
       <r>    4.1458    0.0000 </r>
       <r>    4.1458    0.0000 </r>
       <r>    4.1458    0.0000 </r>
       <r>    4.3563    0.0000 </r>
       <r>    4.3563    0.0000 </r>
       <r>    4.3563    0.0000 </r>
       <r>    4.3563    0.0000 </r>
       <r>    4.7014    0.0000 </r>
       <r>    4.7014    0.0000 </r>
       <r>    4.7014    0.0000 </r>
       <r>    4.7014    0.0000 </r>
       <r>    4.9385    0.0000 </r>
       <r>    4.9385    0.0000 </r>
       <r>    4.9385    0.0000 </r>
       <r>    4.9385    0.0000 </r>
       <r>    5.4111    0.0000 </r>
       <r>    5.4111    0.0000 </r>
       <r>    5.4111    0.0000 </r>
       <r>    5.4111    0.0000 </r>
       <r>    5.8815    0.0000 </r>
       <r>    5.8815    0.0000 </r>
       <r>    5.8815    0.0000 </r>
       <r>    5.8815    0.0000 </r>
       <r>    6.0970    0.0000 </r>
       <r>    6.0970    0.0000 </r>
       <r>    6.0970    0.0000 </r>
       <r>    6.0970    0.0000 </r>
       <r>    6.6092    0.0000 </r>
       <r>    6.6092    0.0000 </r>
       <r>    6.6093    0.0000 </r>
       <r>    6.6095    0.0000 </r>
       <r>    6.6914    0.0000 </r>
       <r>    6.6916    0.0000 </r>
       <r>    6.6923    0.0000 </r>
       <r>    6.6976    0.0000 </r>
      </set>
      <set comment="kpoint 6">
       <r>  -20.7567    1.0000 </r>
       <r>  -20.7567    1.0000 </r>
       <r>  -20.7567    1.0000 </r>
       <r>  -20.7567    1.0000 </r>
       <r>  -20.7567    1.0000 </r>
       <r>  -20.7567    1.0000 </r>
       <r>  -20.7567    1.0000 </r>
       <r>  -20.7567    1.0000 </r>
       <r>  -16.5312    1.0000 </r>
       <r>  -16.5312    1.0000 </r>
       <r>  -16.5312    1.0000 </r>
       <r>  -16.5312    1.0000 </r>
       <r>  -16.5312    1.0000 </r>
       <r>  -16.5312    1.0000 </r>
       <r>  -16.5312    1.0000 </r>
       <r>  -16.5312    1.0000 </r>
       <r>  -16.4831    1.0000 </r>
       <r>  -16.4831    1.0000 </r>
       <r>  -16.4831    1.0000 </r>
       <r>  -16.4831    1.0000 </r>
       <r>  -16.4831    1.0000 </r>
       <r>  -16.4831    1.0000 </r>
       <r>  -16.4831    1.0000 </r>
       <r>  -16.4831    1.0000 </r>
       <r>  -16.4055    1.0000 </r>
       <r>  -16.4055    1.0000 </r>
       <r>  -16.4055    1.0000 </r>
       <r>  -16.4055    1.0000 </r>
       <r>  -16.4055    1.0000 </r>
       <r>  -16.4055    1.0000 </r>
       <r>  -16.4055    1.0000 </r>
       <r>  -16.4055    1.0000 </r>
       <r>  -16.3976    1.0000 </r>
       <r>  -16.3976    1.0000 </r>
       <r>  -16.3976    1.0000 </r>
       <r>  -16.3976    1.0000 </r>
       <r>  -16.3976    1.0000 </r>
       <r>  -16.3976    1.0000 </r>
       <r>  -16.3976    1.0000 </r>
       <r>  -16.3976    1.0000 </r>
       <r>  -16.3975    1.0000 </r>
       <r>  -16.3975    1.0000 </r>
       <r>  -16.3975    1.0000 </r>
       <r>  -16.3975    1.0000 </r>
       <r>  -16.3975    1.0000 </r>
       <r>  -16.3975    1.0000 </r>
       <r>  -16.3975    1.0000 </r>
       <r>  -16.3975    1.0000 </r>
       <r>  -14.2037    1.0000 </r>
       <r>  -14.2037    1.0000 </r>
       <r>  -14.2037    1.0000 </r>
       <r>  -14.2037    1.0000 </r>
       <r>  -14.2037    1.0000 </r>
       <r>  -14.2037    1.0000 </r>
       <r>  -14.2037    1.0000 </r>
       <r>  -14.2037    1.0000 </r>
       <r>  -13.8915    1.0000 </r>
       <r>  -13.8915    1.0000 </r>
       <r>  -13.8915    1.0000 </r>
       <r>  -13.8915    1.0000 </r>
       <r>  -13.8915    1.0000 </r>
       <r>  -13.8915    1.0000 </r>
       <r>  -13.8915    1.0000 </r>
       <r>  -13.8915    1.0000 </r>
       <r>  -13.8054    1.0000 </r>
       <r>  -13.8054    1.0000 </r>
       <r>  -13.8054    1.0000 </r>
       <r>  -13.8054    1.0000 </r>
       <r>  -13.8054    1.0000 </r>
       <r>  -13.8054    1.0000 </r>
       <r>  -13.8054    1.0000 </r>
       <r>  -13.8054    1.0000 </r>
       <r>   -7.5160    1.0000 </r>
       <r>   -7.5160    1.0000 </r>
       <r>   -7.5160    1.0000 </r>
       <r>   -7.5160    1.0000 </r>
       <r>   -7.5160    1.0000 </r>
       <r>   -7.5160    1.0000 </r>
       <r>   -7.5160    1.0000 </r>
       <r>   -7.5160    1.0000 </r>
       <r>   -7.1993    1.0000 </r>
       <r>   -7.1993    1.0000 </r>
       <r>   -7.1993    1.0000 </r>
       <r>   -7.1993    1.0000 </r>
       <r>   -7.1993    1.0000 </r>
       <r>   -7.1993    1.0000 </r>
       <r>   -7.1993    1.0000 </r>
       <r>   -7.1993    1.0000 </r>
       <r>   -7.1551    1.0000 </r>
       <r>   -7.1551    1.0000 </r>
       <r>   -7.1551    1.0000 </r>
       <r>   -7.1551    1.0000 </r>
       <r>   -7.1551    1.0000 </r>
       <r>   -7.1551    1.0000 </r>
       <r>   -7.1551    1.0000 </r>
       <r>   -7.1551    1.0000 </r>
       <r>   -7.1280    1.0000 </r>
       <r>   -7.1280    1.0000 </r>
       <r>   -7.1280    1.0000 </r>
       <r>   -7.1280    1.0000 </r>
       <r>   -7.1280    1.0000 </r>
       <r>   -7.1280    1.0000 </r>
       <r>   -7.1280    1.0000 </r>
       <r>   -7.1280    1.0000 </r>
       <r>   -2.5738    1.0000 </r>
       <r>   -2.5738    1.0000 </r>
       <r>   -2.5738    1.0000 </r>
       <r>   -2.5738    1.0000 </r>
       <r>   -2.5738    1.0000 </r>
       <r>   -2.5738    1.0000 </r>
       <r>   -2.5738    1.0000 </r>
       <r>   -2.5738    1.0000 </r>
       <r>   -2.4987    1.0000 </r>
       <r>   -2.4987    1.0000 </r>
       <r>   -2.4987    1.0000 </r>
       <r>   -2.4987    1.0000 </r>
       <r>   -2.4987    1.0000 </r>
       <r>   -2.4987    1.0000 </r>
       <r>   -2.4987    1.0000 </r>
       <r>   -2.4987    1.0000 </r>
       <r>   -2.1674    1.0000 </r>
       <r>   -2.1674    1.0000 </r>
       <r>   -2.1674    1.0000 </r>
       <r>   -2.1674    1.0000 </r>
       <r>   -2.1674    1.0000 </r>
       <r>   -2.1674    1.0000 </r>
       <r>   -2.1674    1.0000 </r>
       <r>   -2.1674    1.0000 </r>
       <r>   -1.6830    1.0000 </r>
       <r>   -1.6830    1.0000 </r>
       <r>   -1.6830    1.0000 </r>
       <r>   -1.6830    1.0000 </r>
       <r>   -1.6830    1.0000 </r>
       <r>   -1.6830    1.0000 </r>
       <r>   -1.6830    1.0000 </r>
       <r>   -1.6830    1.0000 </r>
       <r>   -1.5082    1.0000 </r>
       <r>   -1.5082    1.0000 </r>
       <r>   -1.5082    1.0000 </r>
       <r>   -1.5082    1.0000 </r>
       <r>   -1.5082    1.0000 </r>
       <r>   -1.5082    1.0000 </r>
       <r>   -1.5082    1.0000 </r>
       <r>   -1.5082    1.0000 </r>
[...]
        <r>  0.0042  0.0017  0.0074 </r>
        <r>  0.0009  0.0003  0.0053 </r>
        <r>  0.0040  0.0006  0.0069 </r>
        <r>  0.0026  0.0000  0.0047 </r>
        <r>  0.0097  0.0007  0.0139 </r>
        <r>  0.0016  0.0005  0.0032 </r>
        <r>  0.0000  0.0047  0.0001 </r>
        <r>  0.0000  0.0066  0.0001 </r>
        <r>  0.0000  0.0115  0.0001 </r>
        <r>  0.0000  0.0035  0.0002 </r>
        <r>  0.0000  0.0042  0.0001 </r>
        <r>  0.0000  0.0050  0.0002 </r>
        <r>  0.0000  0.0068  0.0001 </r>
        <r>  0.0000  0.0063  0.0001 </r>
        <r>  0.0001  0.0009  0.0004 </r>
        <r>  0.0000  0.0026  0.0002 </r>
        <r>  0.0004  0.0014  0.0004 </r>
        <r>  0.0011  0.0012  0.0009 </r>
        <r>  0.0001  0.0015  0.0002 </r>
        <r>  0.0005  0.0003  0.0005 </r>
        <r>  0.0005  0.0004  0.0009 </r>
        <r>  0.0002  0.0031  0.0004 </r>
        <r>  0.0013  0.0025  0.0035 </r>
        <r>  0.0001  0.0046  0.0003 </r>
        <r>  0.0016  0.0046  0.0031 </r>
        <r>  0.0004  0.0044  0.0013 </r>
        <r>  0.0004  0.0047  0.0019 </r>
        <r>  0.0005  0.0014  0.0013 </r>
        <r>  0.0015  0.0028  0.0037 </r>
        <r>  0.0002  0.0052  0.0004 </r>
        <r>  0.0003  0.0013  0.0003 </r>
        <r>  0.0005  0.0008  0.0004 </r>
        <r>  0.0001  0.0013  0.0004 </r>
        <r>  0.0001  0.0033  0.0003 </r>
        <r>  0.0001  0.0010  0.0008 </r>
        <r>  0.0002  0.0023  0.0002 </r>
        <r>  0.0002  0.0017  0.0003 </r>
        <r>  0.0013  0.0005  0.0009 </r>
       </set>
       <set comment="band 208">
        <r>  0.0012  0.0007  0.0030 </r>
        <r>  0.0042  0.0001  0.0073 </r>
        <r>  0.0036  0.0005  0.0079 </r>
        <r>  0.0004  0.0004  0.0039 </r>
        <r>  0.0061  0.0003  0.0104 </r>
        <r>  0.0056  0.0008  0.0075 </r>
        <r>  0.0026  0.0011  0.0053 </r>
        <r>  0.0020  0.0010  0.0062 </r>
        <r>  0.0000  0.0146  0.0001 </r>
        <r>  0.0000  0.0042  0.0003 </r>
        <r>  0.0000  0.0052  0.0001 </r>
        <r>  0.0000  0.0090  0.0001 </r>
        <r>  0.0000  0.0017  0.0001 </r>
        <r>  0.0000  0.0054  0.0001 </r>
        <r>  0.0000  0.0049  0.0001 </r>
        <r>  0.0000  0.0036  0.0002 </r>
        <r>  0.0002  0.0021  0.0003 </r>
        <r>  0.0011  0.0011  0.0008 </r>
        <r>  0.0005  0.0012  0.0004 </r>
        <r>  0.0001  0.0035  0.0003 </r>
        <r>  0.0001  0.0007  0.0007 </r>
        <r>  0.0001  0.0019  0.0002 </r>
        <r>  0.0003  0.0011  0.0002 </r>
        <r>  0.0001  0.0011  0.0004 </r>
        <r>  0.0023  0.0021  0.0047 </r>
        <r>  0.0008  0.0081  0.0016 </r>
        <r>  0.0000  0.0078  0.0001 </r>
        <r>  0.0016  0.0014  0.0030 </r>
        <r>  0.0001  0.0042  0.0001 </r>
        <r>  0.0002  0.0015  0.0016 </r>
        <r>  0.0008  0.0009  0.0032 </r>
        <r>  0.0003  0.0042  0.0012 </r>
        <r>  0.0001  0.0016  0.0002 </r>
        <r>  0.0006  0.0007  0.0005 </r>
        <r>  0.0001  0.0016  0.0005 </r>
        <r>  0.0002  0.0011  0.0003 </r>
        <r>  0.0003  0.0010  0.0006 </r>
        <r>  0.0007  0.0023  0.0007 </r>
        <r>  0.0005  0.0008  0.0008 </r>
        <r>  0.0007  0.0016  0.0006 </r>
       </set>
       <set comment="band 209">
        <r>  0.0002  0.0007  0.0082 </r>
        <r>  0.0004  0.0003  0.0144 </r>
        <r>  0.0003  0.0008  0.0130 </r>
        <r>  0.0001  0.0015  0.0062 </r>
        <r>  0.0001  0.0027  0.0100 </r>
        <r>  0.0000  0.0019  0.0093 </r>
        <r>  0.0008  0.0013  0.0285 </r>
        <r>  0.0005  0.0010  0.0213 </r>
        <r>  0.0000  0.0016  0.0005 </r>
        <r>  0.0000  0.0006  0.0002 </r>
        <r>  0.0000  0.0023  0.0002 </r>
        <r>  0.0000  0.0007  0.0003 </r>
        <r>  0.0000  0.0023  0.0003 </r>
        <r>  0.0000  0.0004  0.0003 </r>
        <r>  0.0000  0.0017  0.0002 </r>
        <r>  0.0000  0.0010  0.0002 </r>
        <r>  0.0000  0.0011  0.0008 </r>
        <r>  0.0001  0.0004  0.0007 </r>
        <r>  0.0009  0.0026  0.0015 </r>
        <r>  0.0002  0.0011  0.0006 </r>
        <r>  0.0003  0.0028  0.0008 </r>
        <r>  0.0001  0.0010  0.0006 </r>
        <r>  0.0003  0.0010  0.0008 </r>
        <r>  0.0000  0.0004  0.0003 </r>
        <r>  0.0001  0.0011  0.0026 </r>
        <r>  0.0002  0.0011  0.0011 </r>
        <r>  0.0003  0.0018  0.0011 </r>
        <r>  0.0005  0.0010  0.0011 </r>
        <r>  0.0003  0.0017  0.0012 </r>
        <r>  0.0002  0.0010  0.0016 </r>
        <r>  0.0009  0.0012  0.0009 </r>
        <r>  0.0003  0.0017  0.0008 </r>
        <r>  0.0011  0.0025  0.0018 </r>
        <r>  0.0000  0.0013  0.0004 </r>
        <r>  0.0003  0.0015  0.0007 </r>
        <r>  0.0001  0.0010  0.0003 </r>
        <r>  0.0014  0.0026  0.0025 </r>
        <r>  0.0004  0.0022  0.0010 </r>
        <r>  0.0012  0.0039  0.0019 </r>
        <r>  0.0004  0.0020  0.0006 </r>
       </set>
       <set comment="band 210">
        <r>  0.0007  0.0018  0.0248 </r>
        <r>  0.0001  0.0013  0.0106 </r>
        <r>  0.0001  0.0023  0.0047 </r>
        <r>  0.0002  0.0005  0.0115 </r>
        <r>  0.0006  0.0004  0.0235 </r>
        <r>  0.0002  0.0025  0.0081 </r>
        <r>  0.0001  0.0008  0.0050 </r>
        <r>  0.0006  0.0006  0.0227 </r>
        <r>  0.0000  0.0010  0.0001 </r>
        <r>  0.0000  0.0004  0.0009 </r>
        <r>  0.0000  0.0003  0.0005 </r>
        <r>  0.0000  0.0031  0.0001 </r>
        <r>  0.0000  0.0003  0.0003 </r>
        <r>  0.0000  0.0034  0.0001 </r>
        <r>  0.0000  0.0016  0.0001 </r>
        <r>  0.0000  0.0004  0.0002 </r>
        <r>  0.0004  0.0018  0.0010 </r>
        <r>  0.0012  0.0024  0.0021 </r>
        <r>  0.0003  0.0008  0.0009 </r>
        <r>  0.0005  0.0014  0.0013 </r>
        <r>  0.0001  0.0012  0.0004 </r>
        <r>  0.0004  0.0020  0.0008 </r>
        <r>  0.0001  0.0007  0.0003 </r>
        <r>  0.0000  0.0020  0.0002 </r>
        <r>  0.0000  0.0007  0.0033 </r>
        <r>  0.0002  0.0007  0.0019 </r>
        <r>  0.0000  0.0018  0.0011 </r>
        <r>  0.0001  0.0013  0.0011 </r>
        <r>  0.0003  0.0020  0.0004 </r>
        <r>  0.0003  0.0015  0.0008 </r>
        <r>  0.0011  0.0011  0.0007 </r>
        <r>  0.0006  0.0015  0.0010 </r>
        <r>  0.0002  0.0021  0.0007 </r>
        <r>  0.0011  0.0023  0.0020 </r>
        <r>  0.0002  0.0011  0.0005 </r>
        <r>  0.0005  0.0027  0.0011 </r>
        <r>  0.0001  0.0012  0.0007 </r>
        <r>  0.0010  0.0019  0.0017 </r>
        <r>  0.0004  0.0015  0.0008 </r>
        <r>  0.0004  0.0022  0.0007 </r>
       </set>
       <set comment="band 211">
        <r>  0.0003  0.0018  0.0122 </r>
        <r>  0.0003  0.0012  0.0123 </r>
        <r>  0.0001  0.0017  0.0072 </r>
        <r>  0.0009  0.0009  0.0334 </r>
        <r>  0.0005  0.0003  0.0190 </r>
        <r>  0.0002  0.0010  0.0107 </r>
        <r>  0.0000  0.0004  0.0100 </r>
        <r>  0.0002  0.0030  0.0065 </r>
        <r>  0.0000  0.0005  0.0003 </r>
        <r>  0.0000  0.0027  0.0002 </r>
        <r>  0.0000  0.0015  0.0001 </r>
        <r>  0.0000  0.0009  0.0002 </r>
        <r>  0.0000  0.0008  0.0002 </r>
        <r>  0.0000  0.0009  0.0006 </r>
        <r>  0.0000  0.0005  0.0004 </r>
        <r>  0.0000  0.0026  0.0001 </r>
        <r>  0.0000  0.0016  0.0002 </r>
        <r>  0.0007  0.0021  0.0011 </r>
        <r>  0.0002  0.0013  0.0005 </r>
        <r>  0.0007  0.0028  0.0013 </r>
        <r>  0.0000  0.0013  0.0006 </r>
        <r>  0.0011  0.0021  0.0019 </r>
        <r>  0.0005  0.0019  0.0010 </r>
        <r>  0.0011  0.0029  0.0020 </r>
        <r>  0.0002  0.0011  0.0010 </r>
        <r>  0.0001  0.0025  0.0008 </r>
        <r>  0.0004  0.0017  0.0008 </r>
        <r>  0.0013  0.0009  0.0014 </r>
        <r>  0.0001  0.0009  0.0013 </r>
        <r>  0.0002  0.0007  0.0038 </r>
        <r>  0.0002  0.0011  0.0011 </r>
        <r>  0.0002  0.0025  0.0005 </r>
        <r>  0.0001  0.0013  0.0005 </r>
        <r>  0.0014  0.0030  0.0022 </r>
        <r>  0.0000  0.0006  0.0002 </r>
        <r>  0.0002  0.0010  0.0007 </r>
        <r>  0.0001  0.0007  0.0008 </r>
        <r>  0.0002  0.0005  0.0009 </r>
        <r>  0.0001  0.0008  0.0005 </r>
        <r>  0.0003  0.0028  0.0005 </r>
       </set>
       <set comment="band 212">
        <r>  0.0001  0.0017  0.0047 </r>
        <r>  0.0011  0.0011  0.0444 </r>
        <r>  0.0003  0.0006  0.0204 </r>
        <r>  0.0003  0.0043  0.0130 </r>
        <r>  0.0002  0.0005  0.0080 </r>
        <r>  0.0002  0.0003  0.0115 </r>
        <r>  0.0001  0.0012  0.0047 </r>
        <r>  0.0000  0.0011  0.0049 </r>
        <r>  0.0000  0.0024  0.0001 </r>
        <r>  0.0000  0.0009  0.0002 </r>
        <r>  0.0000  0.0011  0.0006 </r>
        <r>  0.0000  0.0005  0.0001 </r>
        <r>  0.0000  0.0011  0.0000 </r>
        <r>  0.0000  0.0013  0.0001 </r>
        <r>  0.0000  0.0024  0.0002 </r>
        <r>  0.0000  0.0003  0.0003 </r>
        <r>  0.0008  0.0018  0.0014 </r>
        <r>  0.0001  0.0009  0.0005 </r>
        <r>  0.0008  0.0021  0.0018 </r>
        <r>  0.0000  0.0015  0.0004 </r>
        <r>  0.0003  0.0013  0.0006 </r>
        <r>  0.0003  0.0010  0.0006 </r>
        <r>  0.0007  0.0030  0.0014 </r>
        <r>  0.0000  0.0011  0.0002 </r>
        <r>  0.0001  0.0018  0.0003 </r>
        <r>  0.0008  0.0017  0.0014 </r>
        <r>  0.0001  0.0003  0.0019 </r>
        <r>  0.0001  0.0020  0.0026 </r>
        <r>  0.0006  0.0009  0.0007 </r>
        <r>  0.0009  0.0023  0.0009 </r>
        <r>  0.0000  0.0013  0.0003 </r>
        <r>  0.0002  0.0017  0.0027 </r>
        <r>  0.0005  0.0016  0.0011 </r>
        <r>  0.0004  0.0018  0.0007 </r>
        <r>  0.0020  0.0040  0.0030 </r>
        <r>  0.0003  0.0026  0.0011 </r>
        <r>  0.0001  0.0028  0.0002 </r>
        <r>  0.0000  0.0003  0.0001 </r>
        <r>  0.0001  0.0002  0.0007 </r>
        <r>  0.0001  0.0004  0.0007 </r>
       </set>
       <set comment="band 213">
        <r>  0.0002  0.0006  0.0099 </r>
        <r>  0.0002  0.0019  0.0063 </r>
        <r>  0.0001  0.0007  0.0100 </r>
        <r>  0.0002  0.0007  0.0084 </r>
        <r>  0.0001  0.0015  0.0150 </r>
        <r>  0.0005  0.0026  0.0214 </r>
        <r>  0.0003  0.0011  0.0133 </r>
        <r>  0.0008  0.0009  0.0274 </r>
        <r>  0.0000  0.0008  0.0004 </r>
        <r>  0.0000  0.0029  0.0001 </r>
        <r>  0.0000  0.0014  0.0001 </r>
        <r>  0.0000  0.0003  0.0008 </r>
        <r>  0.0000  0.0023  0.0001 </r>
        <r>  0.0000  0.0003  0.0002 </r>
        <r>  0.0000  0.0004  0.0005 </r>
        <r>  0.0000  0.0029  0.0001 </r>
        <r>  0.0001  0.0023  0.0008 </r>
        <r>  0.0009  0.0026  0.0019 </r>
        <r>  0.0000  0.0006  0.0006 </r>
        <r>  0.0006  0.0010  0.0013 </r>
        <r>  0.0002  0.0013  0.0007 </r>
        <r>  0.0003  0.0019  0.0010 </r>
        <r>  0.0003  0.0011  0.0006 </r>
        <r>  0.0003  0.0022  0.0006 </r>
        <r>  0.0000  0.0018  0.0004 </r>
        <r>  0.0006  0.0016  0.0009 </r>
        <r>  0.0000  0.0002  0.0023 </r>
        <r>  0.0003  0.0013  0.0025 </r>
        <r>  0.0007  0.0007  0.0007 </r>
        <r>  0.0009  0.0018  0.0012 </r>
        <r>  0.0000  0.0015  0.0003 </r>
        <r>  0.0002  0.0016  0.0019 </r>
        <r>  0.0001  0.0007  0.0003 </r>
        <r>  0.0002  0.0019  0.0005 </r>
        <r>  0.0001  0.0012  0.0006 </r>
        <r>  0.0006  0.0012  0.0013 </r>
        <r>  0.0005  0.0018  0.0009 </r>
        <r>  0.0005  0.0021  0.0010 </r>
        <r>  0.0005  0.0023  0.0013 </r>
        <r>  0.0015  0.0028  0.0023 </r>
       </set>
       <set comment="band 214">
        <r>  0.0000  0.0005  0.0047 </r>
        <r>  0.0003  0.0015  0.0114 </r>
        <r>  0.0006  0.0002  0.0204 </r>
        <r>  0.0001  0.0014  0.0041 </r>
        <r>  0.0000  0.0036  0.0044 </r>
        <r>  0.0003  0.0002  0.0208 </r>
        <r>  0.0008  0.0019  0.0354 </r>
        <r>  0.0000  0.0011  0.0114 </r>
        <r>  0.0000  0.0023  0.0001 </r>
        <r>  0.0000  0.0006  0.0002 </r>
        <r>  0.0000  0.0019  0.0002 </r>
        <r>  0.0000  0.0013  0.0001 </r>
        <r>  0.0000  0.0008  0.0005 </r>
        <r>  0.0000  0.0014  0.0001 </r>
        <r>  0.0000  0.0020  0.0002 </r>
        <r>  0.0000  0.0006  0.0004 </r>
        <r>  0.0004  0.0023  0.0008 </r>
        <r>  0.0001  0.0014  0.0003 </r>
        <r>  0.0001  0.0009  0.0004 </r>
        <r>  0.0004  0.0010  0.0008 </r>
        <r>  0.0005  0.0013  0.0014 </r>
        <r>  0.0002  0.0012  0.0007 </r>
        <r>  0.0007  0.0022  0.0013 </r>
        <r>  0.0009  0.0019  0.0014 </r>
        <r>  0.0006  0.0025  0.0005 </r>
        <r>  0.0004  0.0010  0.0013 </r>
        <r>  0.0009  0.0012  0.0015 </r>
        <r>  0.0002  0.0020  0.0005 </r>
        <r>  0.0003  0.0010  0.0029 </r>
        <r>  0.0001  0.0015  0.0008 </r>
        <r>  0.0000  0.0024  0.0018 </r>
        <r>  0.0003  0.0006  0.0014 </r>
        <r>  0.0003  0.0014  0.0008 </r>
        <r>  0.0000  0.0005  0.0003 </r>
        <r>  0.0000  0.0010  0.0004 </r>
        <r>  0.0005  0.0014  0.0007 </r>
        <r>  0.0005  0.0023  0.0014 </r>
        <r>  0.0007  0.0029  0.0016 </r>
        <r>  0.0006  0.0027  0.0013 </r>
        <r>  0.0004  0.0016  0.0014 </r>
       </set>
       <set comment="band 215">
        <r>  0.0001  0.0017  0.0044 </r>
        <r>  0.0000  0.0020  0.0057 </r>
        <r>  0.0008  0.0003  0.0234 </r>
        <r>  0.0001  0.0006  0.0144 </r>
        <r>  0.0004  0.0007  0.0248 </r>
        <r>  0.0005  0.0005  0.0243 </r>
        <r>  0.0001  0.0022  0.0053 </r>
        <r>  0.0001  0.0008  0.0134 </r>
        <r>  0.0000  0.0019  0.0003 </r>
        <r>  0.0000  0.0014  0.0003 </r>
        <r>  0.0000  0.0020  0.0005 </r>
        <r>  0.0000  0.0011  0.0002 </r>
        <r>  0.0000  0.0016  0.0003 </r>
        <r>  0.0000  0.0014  0.0003 </r>
        <r>  0.0000  0.0035  0.0003 </r>
        <r>  0.0000  0.0014  0.0004 </r>
        <r>  0.0011  0.0024  0.0022 </r>
        <r>  0.0000  0.0028  0.0005 </r>
        <r>  0.0006  0.0023  0.0015 </r>
        <r>  0.0003  0.0013  0.0011 </r>
        <r>  0.0011  0.0026  0.0022 </r>
        <r>  0.0000  0.0019  0.0008 </r>
        <r>  0.0007  0.0023  0.0014 </r>
        <r>  0.0005  0.0018  0.0013 </r>
        <r>  0.0008  0.0009  0.0012 </r>
        <r>  0.0003  0.0008  0.0020 </r>
        <r>  0.0001  0.0017  0.0009 </r>
        <r>  0.0001  0.0020  0.0003 </r>
        <r>  0.0003  0.0017  0.0007 </r>
        <r>  0.0000  0.0021  0.0005 </r>
        <r>  0.0002  0.0012  0.0025 </r>
        <r>  0.0005  0.0004  0.0019 </r>
        <r>  0.0000  0.0015  0.0007 </r>
        <r>  0.0000  0.0003  0.0003 </r>
        <r>  0.0002  0.0012  0.0008 </r>
        <r>  0.0003  0.0004  0.0006 </r>
        <r>  0.0001  0.0018  0.0007 </r>
        <r>  0.0002  0.0007  0.0010 </r>
        <r>  0.0003  0.0013  0.0010 </r>
        <r>  0.0003  0.0007  0.0011 </r>
       </set>
       <set comment="band 216">
        <r>  0.0006  0.0011  0.0248 </r>
        <r>  0.0000  0.0005  0.0036 </r>
        <r>  0.0000  0.0018  0.0063 </r>
        <r>  0.0003  0.0001  0.0354 </r>
        <r>  0.0002  0.0008  0.0162 </r>
        <r>  0.0001  0.0009  0.0117 </r>
        <r>  0.0001  0.0002  0.0139 </r>
        <r>  0.0001  0.0014  0.0105 </r>
        <r>  0.0000  0.0011  0.0007 </r>
        <r>  0.0000  0.0009  0.0003 </r>
        <r>  0.0000  0.0034  0.0003 </r>
        <r>  0.0000  0.0052  0.0004 </r>
        <r>  0.0000  0.0038  0.0002 </r>
        <r>  0.0000  0.0034  0.0004 </r>
        <r>  0.0000  0.0005  0.0004 </r>
        <r>  0.0000  0.0014  0.0006 </r>
        <r>  0.0001  0.0007  0.0009 </r>
        <r>  0.0001  0.0008  0.0008 </r>
        <r>  0.0002  0.0027  0.0015 </r>
        <r>  0.0003  0.0016  0.0011 </r>
        <r>  0.0002  0.0022  0.0010 </r>
        <r>  0.0005  0.0013  0.0014 </r>
        <r>  0.0002  0.0023  0.0010 </r>
        <r>  0.0001  0.0014  0.0013 </r>
        <r>  0.0003  0.0023  0.0004 </r>
        <r>  0.0001  0.0013  0.0010 </r>
        <r>  0.0006  0.0007  0.0016 </r>
        <r>  0.0002  0.0013  0.0013 </r>
        <r>  0.0001  0.0007  0.0023 </r>
        <r>  0.0002  0.0006  0.0016 </r>
        <r>  0.0001  0.0022  0.0011 </r>
        <r>  0.0002  0.0013  0.0005 </r>
        <r>  0.0009  0.0011  0.0019 </r>
        <r>  0.0002  0.0011  0.0009 </r>
        <r>  0.0003  0.0014  0.0014 </r>
        <r>  0.0005  0.0015  0.0016 </r>
        <r>  0.0002  0.0010  0.0015 </r>
        <r>  0.0001  0.0021  0.0013 </r>
        <r>  0.0002  0.0010  0.0012 </r>
        <r>  0.0000  0.0006  0.0007 </r>
       </set>
      </set>
     </set>
    </set>
   </array>
  </projected>
 </calculation>
 <structure name="finalpos" >
  <crystal>
   <varray name="basis" >
    <v>      11.73535200       0.00000000       0.00000000 </v>
    <v>       0.00000000      11.73535200       0.00000000 </v>
    <v>       0.00000000       0.00000000      11.73535200 </v>
   </varray>
   <i name="volume">   1616.17491673 </i>
   <varray name="rec_basis" >
    <v>       0.08521261       0.00000000       0.00000000 </v>
    <v>       0.00000000       0.08521261       0.00000000 </v>
    <v>       0.00000000       0.00000000       0.08521261 </v>
   </varray>
  </crystal>
  <varray name="positions" >
   <v>       0.25000000       0.25000000       0.25000000 </v>
   <v>       0.25000000       0.25000000       0.75000000 </v>
   <v>       0.25000000       0.75000000       0.25000000 </v>
   <v>       0.25000000       0.75000000       0.75000000 </v>
   <v>       0.75000000       0.25000000       0.25000000 </v>
   <v>       0.75000000       0.25000000       0.75000000 </v>
   <v>       0.75000000       0.75000000       0.25000000 </v>
   <v>       0.75000000       0.75000000       0.75000000 </v>
   <v>       0.00000000       0.00000000       0.00000000 </v>
   <v>       0.00000000       0.00000000       0.50000000 </v>
   <v>       0.00000000       0.50000000       0.00000000 </v>
   <v>       0.00000000       0.50000000       0.50000000 </v>
   <v>       0.50000000       0.00000000       0.00000000 </v>
   <v>       0.50000000       0.00000000       0.50000000 </v>
   <v>       0.50000000       0.50000000       0.00000000 </v>
   <v>       0.50000000       0.50000000       0.50000000 </v>
   <v>       0.92125000       0.25000000       0.00000000 </v>
   <v>       0.92125000       0.25000000       0.50000000 </v>
   <v>       0.07875000       0.75000000       0.00000000 </v>
   <v>       0.07875000       0.75000000       0.50000000 </v>
   <v>       0.57875000       0.25000000       0.00000000 </v>
   <v>       0.57875000       0.25000000       0.50000000 </v>
   <v>       0.42125000       0.75000000       0.00000000 </v>
   <v>       0.42125000       0.75000000       0.50000000 </v>
   <v>       0.00000000       0.00000000       0.25000000 </v>
   <v>       0.00000000       0.00000000       0.75000000 </v>
   <v>       0.00000000       0.50000000       0.25000000 </v>
   <v>       0.00000000       0.50000000       0.75000000 </v>
   <v>       0.50000000       0.00000000       0.25000000 </v>
   <v>       0.50000000       0.00000000       0.75000000 </v>
   <v>       0.50000000       0.50000000       0.25000000 </v>
   <v>       0.50000000       0.50000000       0.75000000 </v>
   <v>       0.25000000       0.07875000       0.00000000 </v>
   <v>       0.25000000       0.07875000       0.50000000 </v>
   <v>       0.25000000       0.42125000       0.00000000 </v>
   <v>       0.25000000       0.42125000       0.50000000 </v>
   <v>       0.75000000       0.92125000       0.00000000 </v>
   <v>       0.75000000       0.92125000       0.50000000 </v>
   <v>       0.75000000       0.57875000       0.00000000 </v>
   <v>       0.75000000       0.57875000       0.50000000 </v>
  </varray>
 </structure>
</modeling>
