  40  40   1   0
  0.4040437E+02  0.1173535E-08  0.1173535E-08  0.1173535E-08  0.5000000E-15
   1.0000000000000000E-004
  CAR 
 CsPbBr3 cubic bulk                      
      8.28063320    -22.04388784  301      0.21936469      1.00000000
    -22.044  0.0000E+00  0.0000E+00
    -21.943  0.0000E+00  0.0000E+00
    -21.842  0.0000E+00  0.0000E+00
    -21.741  0.0000E+00  0.0000E+00
    -21.640  0.0000E+00  0.0000E+00
    -21.538  0.0000E+00  0.0000E+00
    -21.437  0.0000E+00  0.0000E+00
    -21.336  0.0000E+00  0.0000E+00
    -21.235  0.0000E+00  0.0000E+00
    -21.134  0.0000E+00  0.0000E+00
    -21.033  0.0000E+00  0.0000E+00
    -20.932  0.0000E+00  0.0000E+00
    -20.831  0.0000E+00  0.0000E+00
    -20.730  0.0000E+00  0.0000E+00
    -20.629  0.1583E+03  0.1600E+02
    -20.528  0.0000E+00  0.1600E+02
    -20.427  0.0000E+00  0.1600E+02
    -20.325  0.0000E+00  0.1600E+02
    -20.224  0.0000E+00  0.1600E+02
    -20.123  0.0000E+00  0.1600E+02
    -20.022  0.0000E+00  0.1600E+02
    -19.921  0.0000E+00  0.1600E+02
    -19.820  0.0000E+00  0.1600E+02
    -19.719  0.0000E+00  0.1600E+02
    -19.618  0.0000E+00  0.1600E+02
    -19.517  0.0000E+00  0.1600E+02
    -19.416  0.0000E+00  0.1600E+02
    -19.315  0.0000E+00  0.1600E+02
    -19.214  0.0000E+00  0.1600E+02
    -19.113  0.0000E+00  0.1600E+02
    -19.011  0.0000E+00  0.1600E+02
    -18.910  0.0000E+00  0.1600E+02
    -18.809  0.0000E+00  0.1600E+02
    -18.708  0.0000E+00  0.1600E+02
    -18.607  0.0000E+00  0.1600E+02
    -18.506  0.0000E+00  0.1600E+02
    -18.405  0.0000E+00  0.1600E+02
    -18.304  0.0000E+00  0.1600E+02
    -18.203  0.0000E+00  0.1600E+02
    -18.102  0.0000E+00  0.1600E+02
    -18.001  0.0000E+00  0.1600E+02
    -17.900  0.0000E+00  0.1600E+02
    -17.798  0.0000E+00  0.1600E+02
    -17.697  0.0000E+00  0.1600E+02
    -17.596  0.0000E+00  0.1600E+02
    -17.495  0.0000E+00  0.1600E+02
    -17.394  0.0000E+00  0.1600E+02
    -17.293  0.0000E+00  0.1600E+02
    -17.192  0.0000E+00  0.1600E+02
    -17.091  0.0000E+00  0.1600E+02
    -16.990  0.0000E+00  0.1600E+02
    -16.889  0.0000E+00  0.1600E+02
    -16.788  0.0000E+00  0.1600E+02
    -16.687  0.0000E+00  0.1600E+02
    -16.585  0.9990E+02  0.2610E+02
    -16.484  0.2703E+03  0.6432E+02
    -16.383  0.0000E+00  0.9600E+02
    -16.282  0.0000E+00  0.9600E+02
    -16.181  0.0000E+00  0.9600E+02
    -16.080  0.0000E+00  0.9600E+02
    -15.979  0.0000E+00  0.9600E+02
    -15.878  0.0000E+00  0.9600E+02
    -15.777  0.0000E+00  0.9600E+02
    -15.676  0.0000E+00  0.9600E+02
    -15.575  0.0000E+00  0.9600E+02
    -15.474  0.0000E+00  0.9600E+02
    -15.372  0.0000E+00  0.9600E+02
    -15.271  0.0000E+00  0.9600E+02
    -15.170  0.0000E+00  0.9600E+02
    -15.069  0.0000E+00  0.9600E+02
    -14.968  0.0000E+00  0.9600E+02
    -14.867  0.0000E+00  0.9600E+02
    -14.766  0.0000E+00  0.9600E+02
    -14.665  0.0000E+00  0.9600E+02
    -14.564  0.0000E+00  0.9600E+02
    -14.463  0.0000E+00  0.9600E+02
    -14.362  0.4461E-09  0.9600E+02
    -14.261  0.1636E+02  0.9765E+02
    -14.160  0.5189E+02  0.1035E+03
    -14.058  0.6512E+02  0.1101E+03
    -13.957  0.6928E+02  0.1238E+03
    -13.856  0.1474E+03  0.1396E+03
    -13.755  0.2721E+02  0.1440E+03
    -13.654  0.0000E+00  0.1440E+03
    -13.553  0.0000E+00  0.1440E+03
    -13.452  0.0000E+00  0.1440E+03
    -13.351  0.0000E+00  0.1440E+03
    -13.250  0.0000E+00  0.1440E+03
    -13.149  0.0000E+00  0.1440E+03
    -13.048  0.0000E+00  0.1440E+03
    -12.947  0.0000E+00  0.1440E+03
    -12.845  0.0000E+00  0.1440E+03
    -12.744  0.0000E+00  0.1440E+03
    -12.643  0.0000E+00  0.1440E+03
    -12.542  0.0000E+00  0.1440E+03
    -12.441  0.0000E+00  0.1440E+03
    -12.340  0.0000E+00  0.1440E+03
    -12.239  0.0000E+00  0.1440E+03
    -12.138  0.0000E+00  0.1440E+03
    -12.037  0.0000E+00  0.1440E+03
    -11.936  0.0000E+00  0.1440E+03
    -11.835  0.0000E+00  0.1440E+03
    -11.734  0.0000E+00  0.1440E+03
    -11.632  0.0000E+00  0.1440E+03
    -11.531  0.0000E+00  0.1440E+03
    -11.430  0.0000E+00  0.1440E+03
    -11.329  0.0000E+00  0.1440E+03
    -11.228  0.0000E+00  0.1440E+03
    -11.127  0.0000E+00  0.1440E+03
    -11.026  0.0000E+00  0.1440E+03
    -10.925  0.0000E+00  0.1440E+03
    -10.824  0.0000E+00  0.1440E+03
    -10.723  0.0000E+00  0.1440E+03
    -10.622  0.0000E+00  0.1440E+03
    -10.521  0.0000E+00  0.1440E+03
    -10.419  0.0000E+00  0.1440E+03
    -10.318  0.0000E+00  0.1440E+03
    -10.217  0.0000E+00  0.1440E+03
    -10.116  0.0000E+00  0.1440E+03
    -10.015  0.0000E+00  0.1440E+03
     -9.914  0.0000E+00  0.1440E+03
     -9.813  0.0000E+00  0.1440E+03
     -9.712  0.0000E+00  0.1440E+03
     -9.611  0.0000E+00  0.1440E+03
     -9.510  0.0000E+00  0.1440E+03
     -9.409  0.0000E+00  0.1440E+03
     -9.308  0.0000E+00  0.1440E+03
     -9.207  0.0000E+00  0.1440E+03
     -9.105  0.0000E+00  0.1440E+03
     -9.004  0.0000E+00  0.1440E+03
     -8.903  0.0000E+00  0.1440E+03
     -8.802  0.0000E+00  0.1440E+03
     -8.701  0.0000E+00  0.1440E+03
     -8.600  0.0000E+00  0.1440E+03
     -8.499  0.0000E+00  0.1440E+03
     -8.398  0.0000E+00  0.1440E+03
     -8.297  0.0000E+00  0.1440E+03
     -8.196  0.0000E+00  0.1440E+03
     -8.095  0.2473E+01  0.1442E+03
     -7.994  0.1822E-07  0.1443E+03
     -7.892  0.1484E+02  0.1457E+03
     -7.791  0.3269E-04  0.1458E+03
     -7.690  0.3710E+02  0.1495E+03
     -7.589  0.2330E+00  0.1495E+03
     -7.488  0.4452E+02  0.1545E+03
     -7.387  0.5595E-01  0.1545E+03
     -7.286  0.2969E+02  0.1580E+03
     -7.185  0.5169E+01  0.1588E+03
     -7.084  0.3037E+03  0.1899E+03
     -6.983  0.8131E+02  0.2062E+03
     -6.882  0.9893E+01  0.2078E+03
     -6.781  0.0000E+00  0.2078E+03
     -6.679  0.2473E+01  0.2080E+03
     -6.578  0.0000E+00  0.2080E+03
     -6.477  0.0000E+00  0.2080E+03
     -6.376  0.0000E+00  0.2080E+03
     -6.275  0.0000E+00  0.2080E+03
     -6.174  0.0000E+00  0.2080E+03
     -6.073  0.0000E+00  0.2080E+03
     -5.972  0.0000E+00  0.2080E+03
     -5.871  0.0000E+00  0.2080E+03
     -5.770  0.0000E+00  0.2080E+03
     -5.669  0.0000E+00  0.2080E+03
     -5.568  0.0000E+00  0.2080E+03
     -5.466  0.0000E+00  0.2080E+03
     -5.365  0.0000E+00  0.2080E+03
     -5.264  0.0000E+00  0.2080E+03
     -5.163  0.0000E+00  0.2080E+03
     -5.062  0.0000E+00  0.2080E+03
     -4.961  0.0000E+00  0.2080E+03
     -4.860  0.0000E+00  0.2080E+03
     -4.759  0.0000E+00  0.2080E+03
     -4.658  0.0000E+00  0.2080E+03
     -4.557  0.0000E+00  0.2080E+03
     -4.456  0.0000E+00  0.2080E+03
     -4.355  0.0000E+00  0.2080E+03
     -4.254  0.0000E+00  0.2080E+03
     -4.152  0.0000E+00  0.2080E+03
     -4.051  0.0000E+00  0.2080E+03
     -3.950  0.0000E+00  0.2080E+03
     -3.849  0.0000E+00  0.2080E+03
     -3.748  0.0000E+00  0.2080E+03
     -3.647  0.0000E+00  0.2080E+03
     -3.546  0.0000E+00  0.2080E+03
     -3.445  0.0000E+00  0.2080E+03
     -3.344  0.0000E+00  0.2080E+03
     -3.243  0.1947E+01  0.2082E+03
     -3.142  0.3078E+02  0.2114E+03
     -3.041  0.5032E+02  0.2173E+03
     -2.939  0.1771E+02  0.2198E+03
     -2.838  0.0000E+00  0.2200E+03
     -2.737  0.0000E+00  0.2200E+03
     -2.636  0.2190E+01  0.2202E+03
     -2.535  0.5101E+02  0.2257E+03
     -2.434  0.7038E+02  0.2336E+03
     -2.333  0.2345E+02  0.2369E+03
     -2.232  0.3600E+02  0.2426E+03
     -2.131  0.9995E+01  0.2440E+03
     -2.030  0.1494E+02  0.2463E+03
     -1.929  0.5214E+02  0.2525E+03
     -1.828  0.8644E+01  0.2539E+03
     -1.726  0.3284E+02  0.2576E+03
     -1.625  0.6647E+02  0.2647E+03
     -1.524  0.8883E+02  0.2762E+03
     -1.423  0.6407E+02  0.2840E+03
     -1.322  0.1194E+03  0.2978E+03
     -1.221  0.9629E+02  0.3105E+03
     -1.120  0.1758E+03  0.3308E+03
     -1.019  0.3710E+02  0.3360E+03
     -0.918  0.6872E+01  0.3367E+03
     -0.817  0.3868E+02  0.3427E+03
     -0.716  0.1417E+02  0.3444E+03
     -0.615  0.2263E+02  0.3468E+03
     -0.513  0.1979E+02  0.3495E+03
     -0.412  0.1695E+01  0.3497E+03
     -0.311  0.2473E+01  0.3502E+03
     -0.210  0.1484E+02  0.3517E+03
     -0.109  0.0000E+00  0.3518E+03
     -0.008  0.0000E+00  0.3518E+03
      0.093  0.2085E-09  0.3518E+03
      0.194  0.2473E+01  0.3520E+03
      0.295  0.0000E+00  0.3520E+03
      0.396  0.0000E+00  0.3520E+03
      0.497  0.0000E+00  0.3520E+03
      0.598  0.0000E+00  0.3520E+03
      0.700  0.0000E+00  0.3520E+03
      0.801  0.0000E+00  0.3520E+03
      0.902  0.0000E+00  0.3520E+03
      1.003  0.0000E+00  0.3520E+03
      1.104  0.0000E+00  0.3520E+03
      1.205  0.0000E+00  0.3520E+03
      1.306  0.0000E+00  0.3520E+03
      1.407  0.0000E+00  0.3520E+03
      1.508  0.0000E+00  0.3520E+03
      1.609  0.0000E+00  0.3520E+03
      1.710  0.0000E+00  0.3520E+03
      1.811  0.0000E+00  0.3520E+03
      1.912  0.0000E+00  0.3520E+03
      2.014  0.0000E+00  0.3520E+03
      2.115  0.0000E+00  0.3520E+03
      2.216  0.0000E+00  0.3520E+03
      2.317  0.0000E+00  0.3520E+03
      2.418  0.0000E+00  0.3520E+03
      2.519  0.0000E+00  0.3520E+03
      2.620  0.0000E+00  0.3520E+03
      2.721  0.2474E+01  0.3523E+03
      2.822  0.4975E+01  0.3528E+03
      2.923  0.1982E+02  0.3553E+03
      3.024  0.7662E+01  0.3565E+03
      3.125  0.1053E+02  0.3601E+03
      3.227  0.2958E+02  0.3632E+03
      3.328  0.0000E+00  0.3632E+03
      3.429  0.7419E+01  0.3640E+03
      3.530  0.0000E+00  0.3640E+03
      3.631  0.0000E+00  0.3640E+03
      3.732  0.0000E+00  0.3640E+03
      3.833  0.0000E+00  0.3640E+03
      3.934  0.0000E+00  0.3640E+03
      4.035  0.1790E+02  0.3658E+03
      4.136  0.5003E+01  0.3690E+03
      4.237  0.2641E+02  0.3727E+03
      4.338  0.5072E+02  0.3786E+03
      4.440  0.4266E+02  0.3833E+03
      4.541  0.2787E+02  0.3868E+03
      4.642  0.0000E+00  0.3880E+03
      4.743  0.0000E+00  0.3880E+03
      4.844  0.2883E-11  0.3880E+03
      4.945  0.2473E+01  0.3882E+03
      5.046  0.0000E+00  0.3882E+03
      5.147  0.1330E-03  0.3883E+03
      5.248  0.7420E+01  0.3890E+03
      5.349  0.8690E+01  0.3899E+03
      5.450  0.1068E+02  0.3913E+03
      5.551  0.1493E+02  0.3938E+03
      5.653  0.3178E+02  0.3980E+03
      5.754  0.1128E+01  0.3986E+03
      5.855  0.1235E+02  0.4007E+03
      5.956  0.7383E+01  0.4015E+03
      6.057  0.2220E+02  0.4040E+03
      6.158  0.4947E+01  0.4045E+03
      6.259  0.2286E+02  0.4068E+03
      6.360  0.2044E+01  0.4080E+03
      6.461  0.4467E+02  0.4130E+03
      6.562  0.2972E+02  0.4170E+03
      6.663  0.4564E+02  0.4234E+03
      6.764  0.5987E+02  0.4296E+03
      6.865  0.1314E+02  0.4316E+03
      6.967  0.2473E+01  0.4320E+03
      7.068  0.0000E+00  0.4320E+03
      7.169  0.0000E+00  0.4320E+03
      7.270  0.0000E+00  0.4320E+03
      7.371  0.0000E+00  0.4320E+03
      7.472  0.0000E+00  0.4320E+03
      7.573  0.0000E+00  0.4320E+03
      7.674  0.0000E+00  0.4320E+03
      7.775  0.0000E+00  0.4320E+03
      7.876  0.0000E+00  0.4320E+03
      7.977  0.0000E+00  0.4320E+03
      8.078  0.0000E+00  0.4320E+03
      8.180  0.0000E+00  0.4320E+03
      8.281  0.0000E+00  0.4320E+03
      8.28063320    -22.04388784  301      0.21936469      1.00000000
    -22.044  0.0000E+00  0.0000E+00  0.0000E+00
    -21.943  0.0000E+00  0.0000E+00  0.0000E+00
    -21.842  0.0000E+00  0.0000E+00  0.0000E+00
    -21.741  0.0000E+00  0.0000E+00  0.0000E+00
    -21.640  0.0000E+00  0.0000E+00  0.0000E+00
    -21.538  0.0000E+00  0.0000E+00  0.0000E+00
    -21.437  0.0000E+00  0.0000E+00  0.0000E+00
    -21.336  0.0000E+00  0.0000E+00  0.0000E+00
    -21.235  0.0000E+00  0.0000E+00  0.0000E+00
    -21.134  0.0000E+00  0.0000E+00  0.0000E+00
    -21.033  0.0000E+00  0.0000E+00  0.0000E+00
    -20.932  0.0000E+00  0.0000E+00  0.0000E+00
    -20.831  0.0000E+00  0.0000E+00  0.0000E+00
    -20.730  0.0000E+00  0.0000E+00  0.0000E+00
    -20.629  0.1755E+02  0.9707E-05  0.4917E-05
    -20.528  0.0000E+00  0.0000E+00  0.0000E+00
    -20.427  0.0000E+00  0.0000E+00  0.0000E+00
    -20.325  0.0000E+00  0.0000E+00  0.0000E+00
    -20.224  0.0000E+00  0.0000E+00  0.0000E+00
    -20.123  0.0000E+00  0.0000E+00  0.0000E+00
    -20.022  0.0000E+00  0.0000E+00  0.0000E+00
    -19.921  0.0000E+00  0.0000E+00  0.0000E+00
    -19.820  0.0000E+00  0.0000E+00  0.0000E+00
    -19.719  0.0000E+00  0.0000E+00  0.0000E+00
    -19.618  0.0000E+00  0.0000E+00  0.0000E+00
    -19.517  0.0000E+00  0.0000E+00  0.0000E+00
    -19.416  0.0000E+00  0.0000E+00  0.0000E+00
    -19.315  0.0000E+00  0.0000E+00  0.0000E+00
    -19.214  0.0000E+00  0.0000E+00  0.0000E+00
    -19.113  0.0000E+00  0.0000E+00  0.0000E+00
    -19.011  0.0000E+00  0.0000E+00  0.0000E+00
    -18.910  0.0000E+00  0.0000E+00  0.0000E+00
    -18.809  0.0000E+00  0.0000E+00  0.0000E+00
    -18.708  0.0000E+00  0.0000E+00  0.0000E+00
    -18.607  0.0000E+00  0.0000E+00  0.0000E+00
    -18.506  0.0000E+00  0.0000E+00  0.0000E+00
    -18.405  0.0000E+00  0.0000E+00  0.0000E+00
    -18.304  0.0000E+00  0.0000E+00  0.0000E+00
    -18.203  0.0000E+00  0.0000E+00  0.0000E+00
    -18.102  0.0000E+00  0.0000E+00  0.0000E+00
    -18.001  0.0000E+00  0.0000E+00  0.0000E+00
    -17.900  0.0000E+00  0.0000E+00  0.0000E+00
    -17.798  0.0000E+00  0.0000E+00  0.0000E+00
    -17.697  0.0000E+00  0.0000E+00  0.0000E+00
    -17.596  0.0000E+00  0.0000E+00  0.0000E+00
    -17.495  0.0000E+00  0.0000E+00  0.0000E+00
    -17.394  0.0000E+00  0.0000E+00  0.0000E+00
    -17.293  0.0000E+00  0.0000E+00  0.0000E+00
    -17.192  0.0000E+00  0.0000E+00  0.0000E+00
    -17.091  0.0000E+00  0.0000E+00  0.0000E+00
    -16.990  0.0000E+00  0.0000E+00  0.0000E+00
    -16.889  0.0000E+00  0.0000E+00  0.0000E+00
    -16.788  0.0000E+00  0.0000E+00  0.0000E+00
    -16.687  0.0000E+00  0.0000E+00  0.0000E+00
    -16.585  0.2721E-03  0.8967E-04  0.1430E-04
    -16.484  0.3879E-04  0.7049E-04  0.9394E-05
    -16.383  0.0000E+00  0.0000E+00  0.0000E+00
    -16.282  0.0000E+00  0.0000E+00  0.0000E+00
    -16.181  0.0000E+00  0.0000E+00  0.0000E+00
    -16.080  0.0000E+00  0.0000E+00  0.0000E+00
    -15.979  0.0000E+00  0.0000E+00  0.0000E+00
    -15.878  0.0000E+00  0.0000E+00  0.0000E+00
    -15.777  0.0000E+00  0.0000E+00  0.0000E+00
    -15.676  0.0000E+00  0.0000E+00  0.0000E+00
    -15.575  0.0000E+00  0.0000E+00  0.0000E+00
    -15.474  0.0000E+00  0.0000E+00  0.0000E+00
    -15.372  0.0000E+00  0.0000E+00  0.0000E+00
    -15.271  0.0000E+00  0.0000E+00  0.0000E+00
    -15.170  0.0000E+00  0.0000E+00  0.0000E+00
    -15.069  0.0000E+00  0.0000E+00  0.0000E+00
    -14.968  0.0000E+00  0.0000E+00  0.0000E+00
    -14.867  0.0000E+00  0.0000E+00  0.0000E+00
    -14.766  0.0000E+00  0.0000E+00  0.0000E+00
    -14.665  0.0000E+00  0.0000E+00  0.0000E+00
    -14.564  0.0000E+00  0.0000E+00  0.0000E+00
    -14.463  0.0000E+00  0.0000E+00  0.0000E+00
    -14.362  0.1616E-12  0.9485E-14  0.1697E-14
    -14.261  0.4449E-02  0.1047E-02  0.8801E-04
    -14.160  0.6610E-02  0.7688E-02  0.4749E-03
    -14.058  0.9521E-03  0.1731E-01  0.9925E-03
    -13.957  0.4656E-02  0.9193E-02  0.1237E-02
    -13.856  0.1222E-01  0.2192E-01  0.2166E-02
    -13.755  0.1964E-02  0.3123E-02  0.2698E-03
    -13.654  0.0000E+00  0.0000E+00  0.0000E+00
    -13.553  0.0000E+00  0.0000E+00  0.0000E+00
    -13.452  0.0000E+00  0.0000E+00  0.0000E+00
    -13.351  0.0000E+00  0.0000E+00  0.0000E+00
    -13.250  0.0000E+00  0.0000E+00  0.0000E+00
    -13.149  0.0000E+00  0.0000E+00  0.0000E+00
    -13.048  0.0000E+00  0.0000E+00  0.0000E+00
    -12.947  0.0000E+00  0.0000E+00  0.0000E+00
    -12.845  0.0000E+00  0.0000E+00  0.0000E+00
    -12.744  0.0000E+00  0.0000E+00  0.0000E+00
    -12.643  0.0000E+00  0.0000E+00  0.0000E+00
    -12.542  0.0000E+00  0.0000E+00  0.0000E+00
    -12.441  0.0000E+00  0.0000E+00  0.0000E+00
    -12.340  0.0000E+00  0.0000E+00  0.0000E+00
    -12.239  0.0000E+00  0.0000E+00  0.0000E+00
    -12.138  0.0000E+00  0.0000E+00  0.0000E+00
    -12.037  0.0000E+00  0.0000E+00  0.0000E+00
    -11.936  0.0000E+00  0.0000E+00  0.0000E+00
    -11.835  0.0000E+00  0.0000E+00  0.0000E+00
    -11.734  0.0000E+00  0.0000E+00  0.0000E+00
    -11.632  0.0000E+00  0.0000E+00  0.0000E+00
    -11.531  0.0000E+00  0.0000E+00  0.0000E+00
    -11.430  0.0000E+00  0.0000E+00  0.0000E+00
    -11.329  0.0000E+00  0.0000E+00  0.0000E+00
    -11.228  0.0000E+00  0.0000E+00  0.0000E+00
    -11.127  0.0000E+00  0.0000E+00  0.0000E+00
    -11.026  0.0000E+00  0.0000E+00  0.0000E+00
    -10.925  0.0000E+00  0.0000E+00  0.0000E+00
    -10.824  0.0000E+00  0.0000E+00  0.0000E+00
    -10.723  0.0000E+00  0.0000E+00  0.0000E+00
    -10.622  0.0000E+00  0.0000E+00  0.0000E+00
    -10.521  0.0000E+00  0.0000E+00  0.0000E+00
    -10.419  0.0000E+00  0.0000E+00  0.0000E+00
    -10.318  0.0000E+00  0.0000E+00  0.0000E+00
    -10.217  0.0000E+00  0.0000E+00  0.0000E+00
    -10.116  0.0000E+00  0.0000E+00  0.0000E+00
    -10.015  0.0000E+00  0.0000E+00  0.0000E+00
     -9.914  0.0000E+00  0.0000E+00  0.0000E+00
     -9.813  0.0000E+00  0.0000E+00  0.0000E+00
     -9.712  0.0000E+00  0.0000E+00  0.0000E+00
     -9.611  0.0000E+00  0.0000E+00  0.0000E+00
     -9.510  0.0000E+00  0.0000E+00  0.0000E+00
     -9.409  0.0000E+00  0.0000E+00  0.0000E+00
     -9.308  0.0000E+00  0.0000E+00  0.0000E+00
     -9.207  0.0000E+00  0.0000E+00  0.0000E+00
     -9.105  0.0000E+00  0.0000E+00  0.0000E+00
     -9.004  0.0000E+00  0.0000E+00  0.0000E+00
     -8.903  0.0000E+00  0.0000E+00  0.0000E+00
     -8.802  0.0000E+00  0.0000E+00  0.0000E+00
     -8.701  0.0000E+00  0.0000E+00  0.0000E+00
     -8.600  0.0000E+00  0.0000E+00  0.0000E+00
     -8.499  0.0000E+00  0.0000E+00  0.0000E+00
     -8.398  0.0000E+00  0.0000E+00  0.0000E+00
     -8.297  0.0000E+00  0.0000E+00  0.0000E+00
     -8.196  0.0000E+00  0.0000E+00  0.0000E+00
     -8.095  0.2846E-21  0.3224E-04  0.2056E-06
     -7.994  0.2676E-13  0.2067E-10  0.7089E-14
     -7.892  0.7266E-05  0.1944E-01  0.1290E-04
     -7.791  0.3960E-10  0.1290E-06  0.7979E-10
     -7.690  0.3204E-04  0.1182E+00  0.1138E-03
     -7.589  0.2725E-06  0.1697E-02  0.1085E-05
     -7.488  0.1122E-03  0.2482E+00  0.2494E-03
     -7.387  0.1018E-06  0.1008E-02  0.4354E-06
     -7.286  0.1762E-03  0.2998E+00  0.1655E-03
     -7.185  0.2245E-04  0.1440E+00  0.1240E-04
     -7.084  0.4553E-04  0.2909E+02  0.1482E-03
     -6.983  0.5115E-04  0.6370E+01  0.5277E-04
     -6.882  0.8669E-04  0.1728E+00  0.4254E-04
     -6.781  0.0000E+00  0.0000E+00  0.0000E+00
     -6.679  0.5524E-04  0.1734E-01  0.1223E-04
     -6.578  0.0000E+00  0.0000E+00  0.0000E+00
     -6.477  0.0000E+00  0.0000E+00  0.0000E+00
     -6.376  0.0000E+00  0.0000E+00  0.0000E+00
     -6.275  0.0000E+00  0.0000E+00  0.0000E+00
     -6.174  0.0000E+00  0.0000E+00  0.0000E+00
     -6.073  0.0000E+00  0.0000E+00  0.0000E+00
     -5.972  0.0000E+00  0.0000E+00  0.0000E+00
     -5.871  0.0000E+00  0.0000E+00  0.0000E+00
     -5.770  0.0000E+00  0.0000E+00  0.0000E+00
     -5.669  0.0000E+00  0.0000E+00  0.0000E+00
     -5.568  0.0000E+00  0.0000E+00  0.0000E+00
     -5.466  0.0000E+00  0.0000E+00  0.0000E+00
     -5.365  0.0000E+00  0.0000E+00  0.0000E+00
     -5.264  0.0000E+00  0.0000E+00  0.0000E+00
     -5.163  0.0000E+00  0.0000E+00  0.0000E+00
     -5.062  0.0000E+00  0.0000E+00  0.0000E+00
     -4.961  0.0000E+00  0.0000E+00  0.0000E+00
     -4.860  0.0000E+00  0.0000E+00  0.0000E+00
     -4.759  0.0000E+00  0.0000E+00  0.0000E+00
     -4.658  0.0000E+00  0.0000E+00  0.0000E+00
     -4.557  0.0000E+00  0.0000E+00  0.0000E+00
     -4.456  0.0000E+00  0.0000E+00  0.0000E+00
     -4.355  0.0000E+00  0.0000E+00  0.0000E+00
     -4.254  0.0000E+00  0.0000E+00  0.0000E+00
     -4.152  0.0000E+00  0.0000E+00  0.0000E+00
     -4.051  0.0000E+00  0.0000E+00  0.0000E+00
     -3.950  0.0000E+00  0.0000E+00  0.0000E+00
     -3.849  0.0000E+00  0.0000E+00  0.0000E+00
     -3.748  0.0000E+00  0.0000E+00  0.0000E+00
     -3.647  0.0000E+00  0.0000E+00  0.0000E+00
     -3.546  0.0000E+00  0.0000E+00  0.0000E+00
     -3.445  0.0000E+00  0.0000E+00  0.0000E+00
     -3.344  0.0000E+00  0.0000E+00  0.0000E+00
     -3.243  0.1315E-06  0.3766E-02  0.2963E-04
     -3.142  0.2389E-04  0.2368E-01  0.1317E-02
     -3.041  0.9457E-04  0.2083E-01  0.2797E-02
     -2.939  0.9388E-17  0.8136E-03  0.6465E-03
     -2.838  0.0000E+00  0.0000E+00  0.0000E+00
     -2.737  0.0000E+00  0.0000E+00  0.0000E+00
     -2.636  0.1625E-03  0.2901E-02  0.6993E-04
     -2.535  0.1954E-02  0.5969E-01  0.3779E-02
     -2.434  0.3750E-02  0.6182E-01  0.9115E-02
     -2.333  0.2871E-02  0.2715E-01  0.3296E-02
     -2.232  0.1752E-02  0.1548E-01  0.6130E-02
     -2.131  0.1153E-02  0.3086E-02  0.2127E-02
     -2.030  0.7892E-02  0.7136E-02  0.2240E-02
     -1.929  0.2536E-01  0.5317E-01  0.6718E-02
     -1.828  0.1273E-02  0.2824E-01  0.1185E-02
     -1.726  0.5437E-02  0.1239E+00  0.6825E-02
     -1.625  0.1019E-01  0.1000E+00  0.1558E-01
     -1.524  0.9169E-02  0.1437E+00  0.1782E-01
     -1.423  0.6516E-02  0.9662E-01  0.1467E-01
     -1.322  0.1274E-01  0.1123E+00  0.3107E-01
     -1.221  0.1934E-02  0.1261E+00  0.2587E-01
     -1.120  0.2435E-02  0.2487E+00  0.3580E-01
     -1.019  0.1290E-02  0.6803E-01  0.1102E-01
     -0.918  0.1446E-02  0.7197E-02  0.2401E-02
     -0.817  0.2664E-02  0.5570E-01  0.1058E-01
     -0.716  0.1261E-03  0.5807E-02  0.2938E-02
     -0.615  0.7010E-03  0.1092E-01  0.2393E-02
     -0.513  0.4110E-03  0.1120E-01  0.1312E-02
     -0.412  0.9645E-09  0.2319E-03  0.2394E-03
     -0.311  0.1767E-04  0.6766E-03  0.2185E-03
     -0.210  0.4089E-04  0.2949E-02  0.2558E-03
     -0.109  0.0000E+00  0.0000E+00  0.0000E+00
     -0.008  0.0000E+00  0.0000E+00  0.0000E+00
      0.093  0.4628E-27  0.1917E-14  0.1379E-14
      0.194  0.5489E-17  0.2273E-04  0.1636E-04
      0.295  0.0000E+00  0.0000E+00  0.0000E+00
      0.396  0.0000E+00  0.0000E+00  0.0000E+00
      0.497  0.0000E+00  0.0000E+00  0.0000E+00
      0.598  0.0000E+00  0.0000E+00  0.0000E+00
      0.700  0.0000E+00  0.0000E+00  0.0000E+00
      0.801  0.0000E+00  0.0000E+00  0.0000E+00
      0.902  0.0000E+00  0.0000E+00  0.0000E+00
      1.003  0.0000E+00  0.0000E+00  0.0000E+00
      1.104  0.0000E+00  0.0000E+00  0.0000E+00
      1.205  0.0000E+00  0.0000E+00  0.0000E+00
      1.306  0.0000E+00  0.0000E+00  0.0000E+00
      1.407  0.0000E+00  0.0000E+00  0.0000E+00
      1.508  0.0000E+00  0.0000E+00  0.0000E+00
      1.609  0.0000E+00  0.0000E+00  0.0000E+00
      1.710  0.0000E+00  0.0000E+00  0.0000E+00
      1.811  0.0000E+00  0.0000E+00  0.0000E+00
      1.912  0.0000E+00  0.0000E+00  0.0000E+00
      2.014  0.0000E+00  0.0000E+00  0.0000E+00
      2.115  0.0000E+00  0.0000E+00  0.0000E+00
      2.216  0.0000E+00  0.0000E+00  0.0000E+00
      2.317  0.0000E+00  0.0000E+00  0.0000E+00
      2.418  0.0000E+00  0.0000E+00  0.0000E+00
      2.519  0.0000E+00  0.0000E+00  0.0000E+00
      2.620  0.0000E+00  0.0000E+00  0.0000E+00
      2.721  0.5334E-07  0.5506E-05  0.8243E-03
      2.822  0.7134E-04  0.1034E-03  0.2424E-02
      2.923  0.1471E-02  0.6746E-03  0.6191E-02
      3.024  0.8748E-03  0.1057E-02  0.1382E-02
      3.125  0.1590E-03  0.2274E-02  0.2359E-02
      3.227  0.8479E-03  0.8877E-02  0.3828E-02
      3.328  0.0000E+00  0.0000E+00  0.0000E+00
      3.429  0.3622E-03  0.2277E-02  0.1060E-02
      3.530  0.0000E+00  0.0000E+00  0.0000E+00
      3.631  0.0000E+00  0.0000E+00  0.0000E+00
      3.732  0.0000E+00  0.0000E+00  0.0000E+00
      3.833  0.0000E+00  0.0000E+00  0.0000E+00
      3.934  0.0000E+00  0.0000E+00  0.0000E+00
      4.035  0.9543E-04  0.5678E-03  0.1368E-01
      4.136  0.9626E-05  0.7585E-03  0.3062E-02
      4.237  0.3273E-03  0.8430E-02  0.1085E-01
      4.338  0.3682E-02  0.1282E-01  0.1923E-01
      4.440  0.3046E-02  0.1080E-01  0.1257E-01
      4.541  0.6924E-02  0.7274E-02  0.4352E-02
      4.642  0.0000E+00  0.0000E+00  0.0000E+00
      4.743  0.0000E+00  0.0000E+00  0.0000E+00
      4.844  0.1418E-13  0.2759E-15  0.1500E-14
      4.945  0.1216E-01  0.2366E-03  0.1286E-02
      5.046  0.0000E+00  0.0000E+00  0.0000E+00
      5.147  0.9201E-17  0.3719E-08  0.1266E-06
      5.248  0.9908E-12  0.4240E-03  0.6188E-02
      5.349  0.4499E-14  0.3277E-03  0.7806E-03
      5.450  0.3081E-04  0.3055E-03  0.6860E-02
      5.551  0.1182E-01  0.2492E-02  0.1229E-01
      5.653  0.1067E-01  0.7838E-02  0.1335E-01
      5.754  0.2474E-03  0.2005E-03  0.8645E-03
      5.855  0.5207E-12  0.1509E-02  0.7282E-02
      5.956  0.8347E-02  0.4133E-02  0.1258E-01
      6.057  0.6202E-01  0.2358E-01  0.6511E-01
      6.158  0.5520E-05  0.3319E-03  0.4018E-01
      6.259  0.6695E-01  0.1296E-01  0.1599E+00
      6.360  0.4984E-02  0.1240E-03  0.1916E-01
      6.461  0.5509E-01  0.1835E-01  0.5671E+00
      6.562  0.4194E-02  0.1681E-01  0.4344E+00
      6.663  0.3375E-01  0.4137E-01  0.6221E+00
      6.764  0.4600E-01  0.7681E-01  0.6985E+00
      6.865  0.1216E-01  0.1246E-01  0.2261E+00
      6.967  0.2543E-03  0.1330E-02  0.1678E-01
      7.068  0.0000E+00  0.0000E+00  0.0000E+00
      7.169  0.0000E+00  0.0000E+00  0.0000E+00
      7.270  0.0000E+00  0.0000E+00  0.0000E+00
      7.371  0.0000E+00  0.0000E+00  0.0000E+00
      7.472  0.0000E+00  0.0000E+00  0.0000E+00
      7.573  0.0000E+00  0.0000E+00  0.0000E+00
      7.674  0.0000E+00  0.0000E+00  0.0000E+00
      7.775  0.0000E+00  0.0000E+00  0.0000E+00
      7.876  0.0000E+00  0.0000E+00  0.0000E+00
      7.977  0.0000E+00  0.0000E+00  0.0000E+00
      8.078  0.0000E+00  0.0000E+00  0.0000E+00
      8.180  0.0000E+00  0.0000E+00  0.0000E+00
      8.281  0.0000E+00  0.0000E+00  0.0000E+00
      8.28063320    -22.04388784  301      0.21936469      1.00000000
    -22.044  0.0000E+00  0.0000E+00  0.0000E+00
    -21.943  0.0000E+00  0.0000E+00  0.0000E+00
    -21.842  0.0000E+00  0.0000E+00  0.0000E+00
    -21.741  0.0000E+00  0.0000E+00  0.0000E+00
    -21.640  0.0000E+00  0.0000E+00  0.0000E+00
    -21.538  0.0000E+00  0.0000E+00  0.0000E+00
    -21.437  0.0000E+00  0.0000E+00  0.0000E+00
    -21.336  0.0000E+00  0.0000E+00  0.0000E+00
    -21.235  0.0000E+00  0.0000E+00  0.0000E+00
    -21.134  0.0000E+00  0.0000E+00  0.0000E+00
    -21.033  0.0000E+00  0.0000E+00  0.0000E+00
    -20.932  0.0000E+00  0.0000E+00  0.0000E+00
    -20.831  0.0000E+00  0.0000E+00  0.0000E+00
    -20.730  0.0000E+00  0.0000E+00  0.0000E+00
    -20.629  0.1755E+02  0.9708E-05  0.4917E-05
    -20.528  0.0000E+00  0.0000E+00  0.0000E+00
    -20.427  0.0000E+00  0.0000E+00  0.0000E+00
    -20.325  0.0000E+00  0.0000E+00  0.0000E+00
    -20.224  0.0000E+00  0.0000E+00  0.0000E+00
    -20.123  0.0000E+00  0.0000E+00  0.0000E+00
    -20.022  0.0000E+00  0.0000E+00  0.0000E+00
    -19.921  0.0000E+00  0.0000E+00  0.0000E+00
    -19.820  0.0000E+00  0.0000E+00  0.0000E+00
    -19.719  0.0000E+00  0.0000E+00  0.0000E+00
    -19.618  0.0000E+00  0.0000E+00  0.0000E+00
    -19.517  0.0000E+00  0.0000E+00  0.0000E+00
    -19.416  0.0000E+00  0.0000E+00  0.0000E+00
    -19.315  0.0000E+00  0.0000E+00  0.0000E+00
    -19.214  0.0000E+00  0.0000E+00  0.0000E+00
    -19.113  0.0000E+00  0.0000E+00  0.0000E+00
    -19.011  0.0000E+00  0.0000E+00  0.0000E+00
    -18.910  0.0000E+00  0.0000E+00  0.0000E+00
    -18.809  0.0000E+00  0.0000E+00  0.0000E+00
    -18.708  0.0000E+00  0.0000E+00  0.0000E+00
    -18.607  0.0000E+00  0.0000E+00  0.0000E+00
    -18.506  0.0000E+00  0.0000E+00  0.0000E+00
    -18.405  0.0000E+00  0.0000E+00  0.0000E+00
    -18.304  0.0000E+00  0.0000E+00  0.0000E+00
    -18.203  0.0000E+00  0.0000E+00  0.0000E+00
    -18.102  0.0000E+00  0.0000E+00  0.0000E+00
    -18.001  0.0000E+00  0.0000E+00  0.0000E+00
    -17.900  0.0000E+00  0.0000E+00  0.0000E+00
    -17.798  0.0000E+00  0.0000E+00  0.0000E+00
    -17.697  0.0000E+00  0.0000E+00  0.0000E+00
    -17.596  0.0000E+00  0.0000E+00  0.0000E+00
    -17.495  0.0000E+00  0.0000E+00  0.0000E+00
    -17.394  0.0000E+00  0.0000E+00  0.0000E+00
    -17.293  0.0000E+00  0.0000E+00  0.0000E+00
    -17.192  0.0000E+00  0.0000E+00  0.0000E+00
    -17.091  0.0000E+00  0.0000E+00  0.0000E+00
    -16.990  0.0000E+00  0.0000E+00  0.0000E+00
    -16.889  0.0000E+00  0.0000E+00  0.0000E+00
    -16.788  0.0000E+00  0.0000E+00  0.0000E+00
    -16.687  0.0000E+00  0.0000E+00  0.0000E+00
    -16.585  0.2721E-03  0.8967E-04  0.1430E-04
    -16.484  0.3879E-04  0.7049E-04  0.9394E-05
    -16.383  0.0000E+00  0.0000E+00  0.0000E+00
    -16.282  0.0000E+00  0.0000E+00  0.0000E+00
    -16.181  0.0000E+00  0.0000E+00  0.0000E+00
    -16.080  0.0000E+00  0.0000E+00  0.0000E+00
    -15.979  0.0000E+00  0.0000E+00  0.0000E+00
    -15.878  0.0000E+00  0.0000E+00  0.0000E+00
    -15.777  0.0000E+00  0.0000E+00  0.0000E+00
    -15.676  0.0000E+00  0.0000E+00  0.0000E+00
    -15.575  0.0000E+00  0.0000E+00  0.0000E+00
    -15.474  0.0000E+00  0.0000E+00  0.0000E+00
    -15.372  0.0000E+00  0.0000E+00  0.0000E+00
    -15.271  0.0000E+00  0.0000E+00  0.0000E+00
    -15.170  0.0000E+00  0.0000E+00  0.0000E+00
    -15.069  0.0000E+00  0.0000E+00  0.0000E+00
    -14.968  0.0000E+00  0.0000E+00  0.0000E+00
    -14.867  0.0000E+00  0.0000E+00  0.0000E+00
    -14.766  0.0000E+00  0.0000E+00  0.0000E+00
    -14.665  0.0000E+00  0.0000E+00  0.0000E+00
    -14.564  0.0000E+00  0.0000E+00  0.0000E+00
    -14.463  0.0000E+00  0.0000E+00  0.0000E+00
    -14.362  0.1616E-12  0.9485E-14  0.1697E-14
    -14.261  0.4449E-02  0.1047E-02  0.8801E-04
    -14.160  0.6610E-02  0.7688E-02  0.4749E-03
    -14.058  0.9522E-03  0.1731E-01  0.9925E-03
    -13.957  0.4656E-02  0.9193E-02  0.1237E-02
    -13.856  0.1222E-01  0.2192E-01  0.2166E-02
    -13.755  0.1964E-02  0.3123E-02  0.2698E-03
    -13.654  0.0000E+00  0.0000E+00  0.0000E+00
    -13.553  0.0000E+00  0.0000E+00  0.0000E+00
    -13.452  0.0000E+00  0.0000E+00  0.0000E+00
    -13.351  0.0000E+00  0.0000E+00  0.0000E+00
    -13.250  0.0000E+00  0.0000E+00  0.0000E+00
    -13.149  0.0000E+00  0.0000E+00  0.0000E+00
    -13.048  0.0000E+00  0.0000E+00  0.0000E+00