 vasp.5.4.4.18Apr17-6-g9f103f2a35 (build Jun 22 2020 09:27:21) complex           
 executed on tx2_gcc-7.3_libsci-1 date 2021.09.22  08:45:22
 running on   64 total cores
 distrk:  each k-point on   64 cores,    1 groups
 distr:  one band on NCORES_PER_BAND=   8 cores,    8 groups


--------------------------------------------------------------------------------------------------------


 INCAR:
 POTCAR:    PAW_PBE Cs_sv 08Apr2002               
 POTCAR:    PAW_PBE Pb_d 06Sep2000                
 POTCAR:    PAW_PBE Br 06Sep2000                  
 POTCAR:    PAW_PBE Cs_sv 08Apr2002               
   SHA256 =  c1463496f0f6037ed62c6012a8013a89ee9ad6ffb38599dcd6c079e7ed31779b Cs
   COPYR  = (c) Copyright 08Apr2002 Georg Kresse                                
   COPYR  = This file is part of the software VASP. Any use, copying, and all ot
   COPYR  = If you do not have a valid VASP license, you may not use, copy or di
   VRHFIN =Cs: 5s5p6s                                                           
   LEXCH  = PE                                                                  
   EATOM  =   555.6835 eV,   40.8416 Ry                                         
                                                                                
   TITEL  = PAW_PBE Cs_sv 08Apr2002                                             
   LULTRA =        F    use ultrasoft PP ?                                      
   IUNSCR =        1    unscreen: 0-lin 1-nonlin 2-no                           
   RPACOR =    2.200    partial core radius                                     
   POMASS =  132.900; ZVAL   =    9.000    mass and valenz                      
   RCORE  =    2.500    outmost cutoff radius                                   
   RWIGS  =    2.500; RWIGS  =    1.323    wigner-seitz radius (au A)           
   ENMAX  =  220.318; ENMIN  =  165.238 eV                                      
   RCLOC  =    2.207    cutoff for local pot                                    
   LCOR   =        T    correct aug charges                                     
   LPAW   =        T    paw PP                                                  
   EAUG   =  407.933                                                            
   DEXC   =    0.000                                                            
   RMAX   =    2.554    core radius for proj-oper                               
   RAUG   =    1.300    factor for augmentation sphere                          
   RDEP   =    2.590    radius for radial grids                                 
   RDEPT  =    2.117    core radius for aug-charge                              
                                                                                
   Atomic configuration                                                         
   13 entries                                                                   
     n  l   j            E        occ.                                          
     1  0  0.50    -35790.1377   2.0000                                         
     2  0  0.50     -5613.6201   2.0000                                         
     2  1  1.50     -5035.0101   6.0000                                         
     3  0  0.50     -1167.0767   2.0000                                         
     3  1  1.50      -980.9754   6.0000                                         
     3  2  2.50      -708.0703  10.0000                                         
     4  0  0.50      -220.2386   2.0000                                         
     4  1  1.50      -160.7596   6.0000                                         
     4  2  2.50       -74.2354  10.0000                                         
     5  0  0.50       -26.7287   2.0000                                         
     6  0  0.50        -2.0862   1.0000                                         
     5  1  1.50       -13.5159   6.0000                                         
     5  2  2.50        -0.4136   0.0000                                         
   Description                                                                  
     l       E           TYP  RCUT    TYP  RCUT                                 
     0    -26.7287425     23  1.900                                             
     0     -2.0862306     23  1.900                                             
     1    -13.5158719     23  2.500                                             
     1     -2.7211652     23  2.500                                             
     2     -0.4136171     23  2.500                                             
  local pseudopotential read in
  partial core-charges read in
  partial kinetic energy density read in
  atomic valenz-charges read in
  non local Contribution for L=           0  read in
    real space projection operators read in
  non local Contribution for L=           0  read in
    real space projection operators read in
  non local Contribution for L=           1  read in
    real space projection operators read in
  non local Contribution for L=           1  read in
    real space projection operators read in
  non local Contribution for L=           2  read in
    real space projection operators read in
    PAW grid and wavefunctions read in

   number of l-projection  operators is LMAX  =           5
   number of lm-projection operators is LMMAX =          13

 POTCAR:    PAW_PBE Pb_d 06Sep2000                
   SHA256 =  fb885b08f0fba73a15f6a6b0e39bd200c13ec96ef97cf3ecd8e63bade5137abd Pb
   COPYR  = (c) Copyright 06Sep2000 Georg Kresse                                
   COPYR  = This file is part of the software VASP. Any use, copying, and all ot
   COPYR  = If you do not have a valid VASP license, you may not use, copy or di
   VRHFIN =Pb:                                                                  
   LEXCH  = PE                                                                  
   EATOM  =  1661.6185 eV,  122.1255 Ry                                         
                                                                                
   TITEL  = PAW_PBE Pb_d 06Sep2000                                              
   LULTRA =        F    use ultrasoft PP ?                                      
   IUNSCR =        1    unscreen: 0-lin 1-nonlin 2-no                           
   RPACOR =    2.200    partial core radius                                     
   POMASS =  207.200; ZVAL   =   14.000    mass and valenz                      
   RCORE  =    2.500    outmost cutoff radius                                   
   RWIGS  =    3.260; RWIGS  =    1.725    wigner-seitz radius (au A)           
   ENMAX  =  237.835; ENMIN  =  178.376 eV                                      
   ICORE  =        3    local potential                                         
   LCOR   =        T    correct aug charges                                     
   LPAW   =        T    paw PP                                                  
   EAUG   =  391.914                                                            
   DEXC   =    0.000                                                            
   RMAX   =    2.565    core radius for proj-oper                               
   RAUG   =    1.300    factor for augmentation sphere                          
   RDEP   =    2.643    radius for radial grids                                 
   RDEPT  =    2.092    core radius for aug-charge                              
                                                                                
   Atomic configuration                                                         
   16 entries                                                                   
     n  l   j            E        occ.                                          
     1  0  0.50    -88091.8466   2.0000                                         
     2  0  0.50    -15753.4197   2.0000                                         
     2  1  1.50    -13508.1797   6.0000                                         
     3  0  0.50     -3781.7194   2.0000                                         
     3  1  1.50     -3138.2529   6.0000                                         
     3  2  2.50     -2483.2977  10.0000                                         
     4  0  0.50      -856.2895   2.0000                                         
     4  1  1.50      -645.4942   6.0000                                         
     4  2  2.50      -401.8768  10.0000                                         
     4  3  3.50      -132.9059  14.0000                                         
     5  0  0.50      -144.0950   2.0000                                         
     5  1  1.50       -85.7879   6.0000                                         
     5  2  2.50       -21.1769  10.0000                                         
     6  0  0.50       -12.0372   2.0000                                         
     6  1  1.50        -3.4971   2.0000                                         
     5  3  2.50        -2.7212   0.0000                                         
   Description                                                                  
     l       E           TYP  RCUT    TYP  RCUT                                 
     2    -21.1768523     23  2.500                                             
     2      1.3605826     23  2.500                                             
     0    -12.0371562     23  2.500                                             
     0     13.6058260     23  2.500                                             
     1     -3.4971339     23  2.500                                             
     1     13.6058260     23  2.500                                             
     3     -1.3605826      7  2.500                                             
  local pseudopotential read in
  partial core-charges read in
  partial kinetic energy density read in
  atomic valenz-charges read in
  non local Contribution for L=           2  read in
    real space projection operators read in
  non local Contribution for L=           2  read in
    real space projection operators read in
  non local Contribution for L=           0  read in
    real space projection operators read in
  non local Contribution for L=           0  read in
    real space projection operators read in
  non local Contribution for L=           1  read in
    real space projection operators read in
  non local Contribution for L=           1  read in
    real space projection operators read in
    PAW grid and wavefunctions read in

   number of l-projection  operators is LMAX  =           6
   number of lm-projection operators is LMMAX =          18

 POTCAR:    PAW_PBE Br 06Sep2000                  
   SHA256 =  96a73d2954943bbee26f4990d676cc6c3bf44b8dd2c75cd4b3b825d8403f0103 Br
   COPYR  = (c) Copyright 06Sep2000 Georg Kresse                                
   COPYR  = This file is part of the software VASP. Any use, copying, and all ot
   COPYR  = If you do not have a valid VASP license, you may not use, copy or di
   VRHFIN =Br: s2p5                                                             
   LEXCH  = PE                                                                  
   EATOM  =   368.4488 eV,   27.0802 Ry                                         
                                                                                
   TITEL  = PAW_PBE Br 06Sep2000                                                
   LULTRA =        F    use ultrasoft PP ?                                      
   IUNSCR =        1    unscreen: 0-lin 1-nonlin 2-no                           
   RPACOR =    1.900    partial core radius                                     
   POMASS =   79.904; ZVAL   =    7.000    mass and valenz                      
   RCORE  =    2.100    outmost cutoff radius                                   
   RWIGS  =    2.200; RWIGS  =    1.164    wigner-seitz radius (au A)           
   ENMAX  =  216.285; ENMIN  =  162.214 eV                                      
   ICORE  =        3    local potential                                         
   LCOR   =        T    correct aug charges                                     
   LPAW   =        T    paw PP                                                  
   EAUG   =  503.852                                                            
   DEXC   =    0.000                                                            
   RMAX   =    2.139    core radius for proj-oper                               
   RAUG   =    1.300    factor for augmentation sphere                          
   RDEP   =    2.186    radius for radial grids                                 
   RDEPT  =    1.890    core radius for aug-charge                              
                                                                                
   Atomic configuration                                                         
   10 entries                                                                   
     n  l   j            E        occ.                                          
     1  0  0.50    -13316.2796   2.0000                                         
     2  0  0.50     -1732.8239   2.0000                                         
     2  1  1.50     -1528.2193   6.0000                                         
     3  0  0.50      -238.0460   2.0000                                         
     3  1  1.50      -173.4609   6.0000                                         
     3  2  2.50       -66.7132  10.0000                                         
     4  0  0.50       -20.1334   2.0000                                         
     4  1  0.50        -7.8591   5.0000                                         
     4  2  2.50        -8.1635   0.0000                                         
     4  3  2.50        -8.1635   0.0000                                         
   Description                                                                  
     l       E           TYP  RCUT    TYP  RCUT                                 
     0    -20.1333652     23  2.100                                             
     0    -21.4939478     23  2.100                                             
     1     -7.8591052     23  2.100                                             
     1     -3.1608434     23  2.100                                             
     2     -8.1634956     23  2.100                                             
     3     -1.3605826      7  2.100                                             
  local pseudopotential read in
  partial core-charges read in
  partial kinetic energy density read in
  atomic valenz-charges read in
  non local Contribution for L=           0  read in
    real space projection operators read in
  non local Contribution for L=           0  read in
    real space projection operators read in
  non local Contribution for L=           1  read in
    real space projection operators read in
  non local Contribution for L=           1  read in
    real space projection operators read in
  non local Contribution for L=           2  read in
    real space projection operators read in
    PAW grid and wavefunctions read in

   number of l-projection  operators is LMAX  =           5
   number of lm-projection operators is LMMAX =          13

 Optimization of the real space projectors (new method)

 maximal supplied QI-value         = 15.12
 optimisation between [QCUT,QGAM] = [  8.77, 17.69] = [ 21.53, 87.61] Ry 
 Optimized for a Real-space Cutoff    1.85 Angstroem

   l    n(q)    QCUT    max X(q) W(low)/X(q) W(high)/X(q)  e(spline) 
   0     10     8.768    25.322    0.81E-04    0.51E-04    0.48E-06
   0     10     8.768    99.187    0.78E-04    0.50E-04    0.47E-06
   1      9     8.768    11.761    0.21E-03    0.20E-03    0.37E-06
   1      9     8.768     8.275    0.24E-03    0.22E-03    0.41E-06
   2      9     8.768     3.829    0.23E-04    0.15E-03    0.18E-06
 Optimization of the real space projectors (new method)

 maximal supplied QI-value         = 15.12
 optimisation between [QCUT,QGAM] = [  8.77, 17.69] = [ 21.53, 87.61] Ry 
 Optimized for a Real-space Cutoff    1.59 Angstroem

   l    n(q)    QCUT    max X(q) W(low)/X(q) W(high)/X(q)  e(spline) 
   2      7     8.768     3.846    0.48E-04    0.11E-03    0.11E-06
   2      7     8.768     8.593    0.20E-03    0.22E-04    0.24E-06
   0      8     8.768    20.082    0.68E-04    0.88E-04    0.41E-07
   0      8     8.768     8.597    0.89E-04    0.13E-03    0.59E-07
   1      8     8.768    33.223    0.15E-03    0.53E-04    0.87E-07
   1      8     8.768    15.899    0.14E-03    0.44E-04    0.78E-07
 Optimization of the real space projectors (new method)

 maximal supplied QI-value         = 17.95
 optimisation between [QCUT,QGAM] = [  8.80, 17.59] = [ 21.67, 86.68] Ry 
 Optimized for a Real-space Cutoff    1.59 Angstroem

   l    n(q)    QCUT    max X(q) W(low)/X(q) W(high)/X(q)  e(spline) 
   0      8     8.797   175.082    0.82E-04    0.14E-03    0.89E-07
   0      8     8.797   174.004    0.79E-04    0.14E-03    0.86E-07
   1      8     8.797    54.315    0.16E-03    0.14E-04    0.30E-06
   1      8     8.797    42.441    0.16E-03    0.14E-04    0.30E-06
   2      7     8.797     3.596    0.92E-04    0.15E-03    0.85E-07
  PAW_PBE Cs_sv 08Apr2002               :
 energy of atom  1       EATOM= -555.6835
 kinetic energy error for atom=    0.0069 (will be added to EATOM!!)
  PAW_PBE Pb_d 06Sep2000                :
 energy of atom  2       EATOM=-1661.6185
 kinetic energy error for atom=    0.0498 (will be added to EATOM!!)
  PAW_PBE Br 06Sep2000                  :
 energy of atom  3       EATOM= -368.4488
 kinetic energy error for atom=    0.0072 (will be added to EATOM!!)


 POSCAR: Cs8 Pb8 Br24                            
  positions in direct lattice
  No initial velocities read in

 METAGGA = SCAN     LMAXTAU =  6    LMIXTAU =  F

 exchange correlation table for  LEXCH =        8
   RHO(1)=    0.500       N(1)  =     2000
   RHO(2)=  100.500       N(2)  =     4000

 VTST: version 3.2, (02/03/18)

 CHAIN: initializing optimizer
 
 OPT: Using VASP Conjugate-Gradient optimizer
 CHAIN: Read ICHAIN            0

 POSCAR: Cs8 Pb8 Br24                            
  positions in direct lattice
  No initial velocities read in



--------------------------------------------------------------------------------------------------------


 ion  position               nearest neighbor table
   1  0.250  0.250  0.250-
   2  0.250  0.250  0.750-
   3  0.250  0.750  0.250-
   4  0.250  0.750  0.750-
   5  0.750  0.250  0.250-
   6  0.750  0.250  0.750-
   7  0.750  0.750  0.250-
   8  0.750  0.750  0.750-
   9  0.000  0.000  0.000-  17 3.04  19 3.04  33 3.04  37 3.04  25 3.05  26 3.05
  10  0.000  0.000  0.500-  18 3.04  20 3.04  34 3.04  38 3.04  25 3.05  26 3.05
  11  0.000  0.500  0.000-  17 3.04  19 3.04  35 3.04  39 3.04  27 3.05  28 3.05
  12  0.000  0.500  0.500-  18 3.04  20 3.04  36 3.04  40 3.04  27 3.05  28 3.05
  13  0.500  0.000  0.000-  21 3.04  23 3.04  33 3.04  37 3.04  29 3.05  30 3.05
  14  0.500  0.000  0.500-  22 3.04  24 3.04  34 3.04  38 3.04  29 3.05  30 3.05
  15  0.500  0.500  0.000-  21 3.04  23 3.04  35 3.04  39 3.04  31 3.05  32 3.05
  16  0.500  0.500  0.500-  22 3.04  24 3.04  36 3.04  40 3.04  31 3.05  32 3.05
  17  0.955  0.250  0.050-   9 3.04  11 3.04
  18  0.955  0.250  0.450-  10 3.04  12 3.04
  19  0.045  0.750  0.950-   9 3.04  11 3.04
  20  0.045  0.750  0.550-  10 3.04  12 3.04
  21  0.545  0.250  0.950-  13 3.04  15 3.04
  22  0.545  0.250  0.550-  14 3.04  16 3.04
  23  0.455  0.750  0.050-  13 3.04  15 3.04
  24  0.455  0.750  0.450-  14 3.04  16 3.04
  25  0.050  0.950  0.250-   9 3.05  10 3.05
  26  0.950  0.050  0.750-   9 3.05  10 3.05
  27  0.950  0.550  0.250-  11 3.05  12 3.05
  28  0.050  0.450  0.750-  11 3.05  12 3.05
  29  0.450  0.050  0.250-  13 3.05  14 3.05
  30  0.550  0.950  0.750-  13 3.05  14 3.05
  31  0.550  0.450  0.250-  15 3.05  16 3.05
  32  0.450  0.550  0.750-  15 3.05  16 3.05
  33  0.250  0.045  0.950-   9 3.04  13 3.04
  34  0.250  0.045  0.550-  10 3.04  14 3.04
  35  0.250  0.455  0.050-  11 3.04  15 3.04
  36  0.250  0.455  0.450-  12 3.04  16 3.04
  37  0.750  0.955  0.050-   9 3.04  13 3.04
  38  0.750  0.955  0.450-  10 3.04  14 3.04
  39  0.750  0.545  0.950-  11 3.04  15 3.04
  40  0.750  0.545  0.550-  12 3.04  16 3.04

  LATTYP: Found a simple cubic cell.
 ALAT       =    11.7353520000
  
  Lattice vectors:
  
 A1 = (  11.7353520000,   0.0000000000,   0.0000000000)
 A2 = (   0.0000000000,  11.7353520000,   0.0000000000)
 A3 = (   0.0000000000,   0.0000000000,  11.7353520000)


Analysis of symmetry for initial positions (statically):
=====================================================================
 Subroutine PRICEL returns following result:
 
  LATTYP: Found a simple tetragonal cell.
 ALAT       =     8.2981469788
 C/A-ratio  =     1.4142135624
  
  Lattice vectors:
  
 A1 = (   5.8676760000,  -5.8676760000,   0.0000000000)
 A2 = (  -5.8676760000,  -5.8676760000,   0.0000000000)
 A3 = (   0.0000000000,   0.0000000000, -11.7353520000)
 
   2 primitive cells build up your supercell.
 

 Routine SETGRP: Setting up the symmetry group for a 
 simple cubic supercell.


 Subroutine GETGRP returns: Found  8 space group operations
 (whereof  2 operations were pure point group operations)
 out of a pool of 48 trial point group operations.


The static configuration has the point symmetry S_2 .
 The point group associated with its full space group is D_2h.


Analysis of symmetry for dynamics (positions and initial velocities):
=====================================================================
 Subroutine PRICEL returns following result:
 
  LATTYP: Found a simple tetragonal cell.
 ALAT       =     8.2981469788
 C/A-ratio  =     1.4142135624
  
  Lattice vectors:
  
 A1 = (   5.8676760000,  -5.8676760000,   0.0000000000)
 A2 = (  -5.8676760000,  -5.8676760000,   0.0000000000)
 A3 = (   0.0000000000,   0.0000000000, -11.7353520000)
 
   2 primitive cells build up your supercell.
 

 Routine SETGRP: Setting up the symmetry group for a 
 simple cubic supercell.


 Subroutine GETGRP returns: Found  8 space group operations
 (whereof  2 operations were pure point group operations)
 out of a pool of 48 trial point group operations.


The dynamic configuration has the point symmetry S_2 .
 The point group associated with its full space group is D_2h.


 Subroutine INISYM returns: Found  8 space group operations
 (whereof  2 operations are pure point group operations),
 and found     2 'primitive' translations



 KPOINTS: 1x1x1                                   

Automatic generation of k-mesh.
Space group operators:
 irot       det(A)        alpha          n_x          n_y          n_z        tau_x        tau_y        tau_z
    1     1.000000     0.000000     1.000000     0.000000     0.000000    -0.000000    -0.000000    -0.000000
    2    -1.000000     0.000000     1.000000     0.000000     0.000000    -0.000000    -0.000000    -0.000000
    3     1.000000   180.000000     0.000000     0.000000     1.000000    -0.000000    -0.000000    -0.500000
    4    -1.000000   180.000000     0.000000     0.000000     1.000000    -0.000000    -0.000000    -0.500000
    5     1.000000   180.000000     0.707107     0.707107     0.000000     0.000000    -0.500000    -0.500000
    6    -1.000000   180.000000     0.707107     0.707107     0.000000     0.000000    -0.500000    -0.500000
    7     1.000000   180.000000     0.707107    -0.707107     0.000000     0.000000    -0.500000    -0.000000
    8    -1.000000   180.000000     0.707107    -0.707107     0.000000     0.000000    -0.500000    -0.000000
 
 Subroutine IBZKPT returns following result:
 ===========================================
 
 Found      6 irreducible k-points:
 
 Following reciprocal coordinates:
            Coordinates               Weight
  0.000000  0.000000  0.000000      1.000000
  0.500000  0.000000  0.000000      2.000000
  0.500000  0.500000  0.000000      1.000000
  0.000000  0.000000  0.500000      1.000000
  0.500000  0.000000  0.500000      2.000000
  0.500000  0.500000  0.500000      1.000000
 
 Following cartesian coordinates:
            Coordinates               Weight
  0.000000  0.000000  0.000000      1.000000
  0.042606  0.000000  0.000000      2.000000
  0.042606  0.042606  0.000000      1.000000
  0.000000  0.000000  0.042606      1.000000
  0.042606  0.000000  0.042606      2.000000
  0.042606  0.042606  0.042606      1.000000
 


--------------------------------------------------------------------------------------------------------




 Dimension of arrays:
   k-points           NKPTS =      6   k-points in BZ     NKDIM =      6   number of bands    NBANDS=    216
   number of dos      NEDOS =    301   number of ions     NIONS =     40
   non local maximal  LDIM  =      6   non local SUM 2l+1 LMDIM =     18
   total plane-waves  NPLWV = 343000
   max r-space proj   IRMAX =   5660   max aug-charges    IRDMAX=  90331
   dimension x,y,z NGX =    70 NGY =   70 NGZ =   70
   dimension x,y,z NGXF=   140 NGYF=  140 NGZF=  140
   support grid    NGXF=   280 NGYF=  280 NGZF=  280
   ions per type =               8   8  24
   NGX,Y,Z   is equivalent  to a cutoff of   9.92,  9.92,  9.92 a.u.
   NGXF,Y,Z  is equivalent  to a cutoff of  19.83, 19.83, 19.83 a.u.

 SYSTEM =  CsPbBr3 cubic bulk                      
 POSCAR =  Cs8 Pb8 Br24                            

 Startparameter for this run:
   NWRITE =      2    write-flag & timer
   PREC   = accura    normal or accurate (medium, high low for compatibility)
   ISTART =      0    job   : 0-new  1-cont  2-samecut
   ICHARG =      2    charge: 1-file 2-atom 10-const
   ISPIN  =      1    spin polarized calculation?
   LNONCOLLINEAR =      F non collinear calculations
   LSORBIT =      F    spin-orbit coupling
   INIWAV =      1    electr: 0-lowe 1-rand  2-diag
   LASPH  =      T    aspherical Exc in radial PAW
   METAGGA=      F    non-selfconsistent MetaGGA calc.

 Electronic Relaxation 1
   ENCUT  =  300.0 eV  22.05 Ry    4.70 a.u.  16.57 16.57 16.57*2*pi/ulx,y,z
   ENINI  =  300.0     initial cutoff
   ENAUG  =  503.9 eV  augmentation charge cutoff
   NELM   =    200;   NELMIN=  2; NELMDL= -5     # of ELM steps 
   EDIFF  = 0.1E-05   stopping-criterion for ELM
   LREAL  =      T    real-space projection
   NLSPLINE    = F    spline interpolate recip. space projectors
   LCOMPAT=      F    compatible to vasp.4.4
   GGA_COMPAT  = T    GGA compatible to vasp.4.4-vasp.4.6
   LMAXPAW     = -100 max onsite density
   LMAXMIX     =    2 max onsite mixed and CHGCAR
   VOSKOWN=      0    Vosko Wilk Nusair interpolation
   ROPT   =   -0.00025  -0.00025  -0.00025
 Ionic relaxation
   EDIFFG = -.1E-01   stopping-criterion for IOM
   NSW    =      0    number of steps for IOM
   NBLOCK =      1;   KBLOCK =      1    inner block; outer block 
   IBRION =     -1    ionic relax: 0-MD 1-quasi-New 2-CG
   NFREE  =      1    steps in history (QN), initial steepest desc. (CG)
   ISIF   =      3    stress and relaxation
   IWAVPR =     10    prediction:  0-non 1-charg 2-wave 3-comb
   ISYM   =      2    0-nonsym 1-usesym 2-fastsym
   LCORR  =      T    Harris-Foulkes like correction to forces

   POTIM  = 0.5000    time-step for ionic-motion
   TEIN   =    0.0    initial temperature
   TEBEG  =    0.0;   TEEND  =   0.0 temperature during run
   SMASS  =  -3.00    Nose mass-parameter (am)
   estimated Nose-frequenzy (Omega)   =  0.10E-29 period in steps =****** mass=  -0.315E-26a.u.
   SCALEE = 1.0000    scale energy and forces
   NPACO  =    256;   APACO  = 16.0  distance and # of slots for P.C.
   PSTRESS=    0.0 pullay stress

  Mass of Ions in am
   POMASS = 132.90207.20 79.90
  Ionic Valenz
   ZVAL   =   9.00 14.00  7.00
  Atomic Wigner-Seitz radii
   RWIGS  =  -1.00 -1.00 -1.00
  virtual crystal weights 
   VCA    =   1.00  1.00  1.00
   NELECT =     352.0000    total number of electrons
   NUPDOWN=      -1.0000    fix difference up-down

 DOS related values:
   EMIN   =  10.00;   EMAX   =-10.00  energy-range for DOS
   EFERMI =   0.00
   ISMEAR =     0;   SIGMA  =   0.01  broadening in eV -4-tet -1-fermi 0-gaus

 Electronic relaxation 2 (details)
   IALGO  =     38    algorithm
   LDIAG  =      T    sub-space diagonalisation (order eigenvalues)
   LSUBROT=      F    optimize rotation matrix (better conditioning)
   TURBO    =      0    0=normal 1=particle mesh
   IRESTART =      0    0=no restart 2=restart with 2 vectors
   NREBOOT  =      0    no. of reboots
   NMIN     =      0    reboot dimension
   EREF     =   0.00    reference energy to select bands
   IMIX   =      4    mixing-type and parameters
     AMIX     =   0.40;   BMIX     =  1.00
     AMIX_MAG =   1.60;   BMIX_MAG =  1.00
     AMIN     =   0.10
     WC   =   100.;   INIMIX=   1;  MIXPRE=   1;  MAXMIX= -45

 Intra band minimization:
   WEIMIN = 0.0000     energy-eigenvalue tresh-hold
   EBREAK =  0.12E-08  absolut break condition
   DEPER  =   0.30     relativ break condition  

   TIME   =   0.40     timestep for ELM

  volume/ion in A,a.u.               =      40.40       272.66
  Fermi-wavevector in a.u.,A,eV,Ry     =   0.984977  1.861337 13.200107  0.970180
  Thomas-Fermi vector in A             =   2.116250

 Write flags
   LWAVE        =      F    write WAVECAR
   LDOWNSAMPLE  =      F    k-point downsampling of WAVECAR
   LCHARG       =      T    write CHGCAR
   LVTOT        =      F    write LOCPOT, total local potential
   LVHAR        =      T    write LOCPOT, Hartree potential only
   LELF         =      F    write electronic localiz. function (ELF)
   LORBIT       =     10    0 simple, 1 ext, 2 COOP (PROOUT), +10 PAW based schemes


 Dipole corrections
   LMONO  =      F    monopole corrections only (constant potential shift)
   LDIPOL =      F    correct potential (dipole corrections)
   IDIPOL =      0    1-x, 2-y, 3-z, 4-all directions 
   EPSILON=  1.0000000 bulk dielectric constant

 Exchange correlation treatment:
   GGA     =    --    GGA type
   LEXCH   =     8    internal setting for exchange type
   VOSKOWN=      0    Vosko Wilk Nusair interpolation
   LHFCALC =     F    Hartree Fock is set to
   LHFONE  =     F    Hartree Fock one center treatment
   AEXX    =    0.0000 exact exchange contribution

 Linear response parameters
   LEPSILON=     F    determine dielectric tensor
   LRPA    =     F    only Hartree local field effects (RPA)
   LNABLA  =     F    use nabla operator in PAW spheres
   LVEL    =     F    velocity operator in full k-point grid
   LINTERFAST=   F  fast interpolation
   KINTER  =     0    interpolate to denser k-point grid
   CSHIFT  =0.1000    complex shift for real part using Kramers Kronig
   OMEGAMAX=  -1.0    maximum frequency
   DEG_THRESHOLD= 0.2000000E-02 threshold for treating states as degnerate
   RTIME   =   -0.100 relaxation time in fs
  (WPLASMAI=    0.000 imaginary part of plasma frequency in eV, 0.658/RTIME)
   DFIELD  = 0.0000000 0.0000000 0.0000000 field for delta impulse in time

 Orbital magnetization related:
   ORBITALMAG=     F  switch on orbital magnetization
   LCHIMAG   =     F  perturbation theory with respect to B field
   DQ        =  0.001000  dq finite difference perturbation B field
   LLRAUG    =     F  two centre corrections for induced B field



--------------------------------------------------------------------------------------------------------


 Static calculation
 charge density and potential will be updated during run
 non-spin polarized calculation
 Variant of blocked Davidson
 Davidson routine will perform the subspace rotation
 perform sub-space diagonalisation
    after iterative eigenvector-optimisation
 modified Broyden-mixing scheme, WC =      100.0
 initial mixing is a Kerker type mixing with AMIX =  0.4000 and BMIX =      1.0000
 Hartree-type preconditioning will be used
 using additional bands           40
 real space projection scheme for non local part
 use partial core corrections
 calculate Harris-corrections to forces   (improved forces if not selfconsistent)
 use gradient corrections 
 use of overlap-Matrix (Vanderbilt PP)
 Gauss-broadening in eV      SIGMA  =   0.01


--------------------------------------------------------------------------------------------------------


  energy-cutoff  :      300.00
  volume of cell :     1616.17
      direct lattice vectors                 reciprocal lattice vectors
    11.735352000  0.000000000  0.000000000     0.085212612  0.000000000  0.000000000
     0.000000000 11.735352000  0.000000000     0.000000000  0.085212612  0.000000000
     0.000000000  0.000000000 11.735352000     0.000000000  0.000000000  0.085212612

  length of vectors
    11.735352000 11.735352000 11.735352000     0.085212612  0.085212612  0.085212612



 k-points in units of 2pi/SCALE and weight: 1x1x1                                   
   0.00000000  0.00000000  0.00000000       0.125
   0.04260631  0.00000000  0.00000000       0.250
   0.04260631  0.04260631  0.00000000       0.125
   0.00000000  0.00000000  0.04260631       0.125
   0.04260631  0.00000000  0.04260631       0.250
   0.04260631  0.04260631  0.04260631       0.125

 k-points in reciprocal lattice and weights: 1x1x1                                   
   0.00000000  0.00000000  0.00000000       0.125
   0.50000000  0.00000000  0.00000000       0.250
   0.50000000  0.50000000  0.00000000       0.125
   0.00000000  0.00000000  0.50000000       0.125
   0.50000000  0.00000000  0.50000000       0.250
   0.50000000  0.50000000  0.50000000       0.125

 position of ions in fractional coordinates (direct lattice) 
   0.25000000  0.25000000  0.25000000
   0.25000000  0.25000000  0.75000000
   0.25000000  0.75000000  0.25000000
   0.25000000  0.75000000  0.75000000
   0.75000000  0.25000000  0.25000000
   0.75000000  0.25000000  0.75000000
   0.75000000  0.75000000  0.25000000
   0.75000000  0.75000000  0.75000000
   0.00000000  0.00000000  0.00000000
   0.00000000  0.00000000  0.50000000
   0.00000000  0.50000000  0.00000000
   0.00000000  0.50000000  0.50000000
   0.50000000  0.00000000  0.00000000
   0.50000000  0.00000000  0.50000000
   0.50000000  0.50000000  0.00000000
   0.50000000  0.50000000  0.50000000
   0.95500000  0.25000000  0.05000000
   0.95500000  0.25000000  0.45000000
   0.04500000  0.75000000  0.95000000
   0.04500000  0.75000000  0.55000000
   0.54500000  0.25000000  0.95000000
   0.54500000  0.25000000  0.55000000
   0.45500000  0.75000000  0.05000000
   0.45500000  0.75000000  0.45000000
   0.05000000  0.95000000  0.25000000
   0.95000000  0.05000000  0.75000000
   0.95000000  0.55000000  0.25000000
   0.05000000  0.45000000  0.75000000
   0.45000000  0.05000000  0.25000000
   0.55000000  0.95000000  0.75000000
   0.55000000  0.45000000  0.25000000
   0.45000000  0.55000000  0.75000000
   0.25000000  0.04500000  0.95000000
   0.25000000  0.04500000  0.55000000
   0.25000000  0.45500000  0.05000000
   0.25000000  0.45500000  0.45000000
   0.75000000  0.95500000  0.05000000
   0.75000000  0.95500000  0.45000000
   0.75000000  0.54500000  0.95000000
   0.75000000  0.54500000  0.55000000

 position of ions in cartesian coordinates  (Angst):
   2.93383800  2.93383800  2.93383800
   2.93383800  2.93383800  8.80151400
   2.93383800  8.80151400  2.93383800
   2.93383800  8.80151400  8.80151400
   8.80151400  2.93383800  2.93383800
   8.80151400  2.93383800  8.80151400
   8.80151400  8.80151400  2.93383800
   8.80151400  8.80151400  8.80151400
   0.00000000  0.00000000  0.00000000
   0.00000000  0.00000000  5.86767600
   0.00000000  5.86767600  0.00000000
   0.00000000  5.86767600  5.86767600
   5.86767600  0.00000000  0.00000000
   5.86767600  0.00000000  5.86767600
   5.86767600  5.86767600  0.00000000
   5.86767600  5.86767600  5.86767600
  11.20726116  2.93383800  0.58676760
  11.20726116  2.93383800  5.28090840
   0.52809084  8.80151400 11.14858440
   0.52809084  8.80151400  6.45444360
   6.39576684  2.93383800 11.14858440
   6.39576684  2.93383800  6.45444360
   5.33958516  8.80151400  0.58676760
   5.33958516  8.80151400  5.28090840
   0.58676760 11.14858440  2.93383800
  11.14858440  0.58676760  8.80151400
  11.14858440  6.45444360  2.93383800
   0.58676760  5.28090840  8.80151400
   5.28090840  0.58676760  2.93383800
   6.45444360 11.14858440  8.80151400
   6.45444360  5.28090840  2.93383800
   5.28090840  6.45444360  8.80151400
   2.93383800  0.52809084 11.14858440
   2.93383800  0.52809084  6.45444360
   2.93383800  5.33958516  0.58676760
   2.93383800  5.33958516  5.28090840
   8.80151400 11.20726116  0.58676760
   8.80151400 11.20726116  5.28090840
   8.80151400  6.39576684 11.14858440
   8.80151400  6.39576684  6.45444360



--------------------------------------------------------------------------------------------------------


 k-point  1 :   0.0000 0.0000 0.0000  plane waves:   19093
 k-point  2 :   0.5000 0.0000 0.0000  plane waves:   19066
 k-point  3 :   0.5000 0.5000 0.0000  plane waves:   19072
 k-point  4 :   0.0000 0.0000 0.5000  plane waves:   19066
 k-point  5 :   0.5000 0.0000 0.5000  plane waves:   19072
 k-point  6 :   0.5000 0.5000 0.5000  plane waves:   19064

 maximum and minimum number of plane-waves per node :      2417     2354

 maximum number of plane-waves:     19093
 maximum index in each direction: 
   IXMAX=   16   IYMAX=   16   IZMAX=   16
   IXMIN=  -17   IYMIN=  -17   IZMIN=  -17


 real space projection operators:
  total allocation   :      16814.38 KBytes
  max/ min on nodes  :       2215.69       1821.00


 parallel 3D FFT for wavefunctions:
    minimum data exchange during FFTs selected (reduces bandwidth)
 parallel 3D FFT for charge:
    minimum data exchange during FFTs selected (reduces bandwidth)


 total amount of memory used by VASP MPI-rank0    58934. kBytes
=======================================================================

   base      :      30000. kBytes
   nonlr-proj:       6562. kBytes
   fftplans  :       8423. kBytes
   grid      :       7465. kBytes
   one-center:         77. kBytes
   wavefun   :       6407. kBytes

     INWAV:  cpu time    0.0000: real time    0.0000
 Broyden mixing: mesh for mixing (old mesh)
   NGX = 33   NGY = 33   NGZ = 33
  (NGX  =140   NGY  =140   NGZ  =140)
  gives a total of  35937 points

 initial charge density was supplied:
 charge density of overlapping atoms calculated
 number of electron     352.0000000 magnetization 
 keeping initial charge density in first step


--------------------------------------------------------------------------------------------------------


 Maximum index for non-local projection operator          712
 Maximum index for augmentation-charges         2962 (set IRDMAX)


--------------------------------------------------------------------------------------------------------


 First call to EWALD:  gamma=   0.151
 Maximum number of real-space cells 3x 3x 3
 Maximum number of reciprocal cells 3x 3x 3

    FEWALD:  cpu time    0.0036: real time    0.0036


--------------------------------------- Iteration      1(   1)  ---------------------------------------


    POTLOK:  cpu time    0.2610: real time    0.3166
    SETDIJ:  cpu time    1.2034: real time    1.2035
     EDDAV:  cpu time   12.8320: real time   12.8374
       DOS:  cpu time    0.0007: real time    0.0007
    --------------------------------------------
      LOOP:  cpu time   14.2972: real time   14.3582

 eigenvalue-minimisations  :  2688
 total energy-change (2. order) : 0.1346953E+04  (-0.1128662E+05)
 number of electron     352.0000000 magnetization 
 augmentation part      352.0000000 magnetization 

 Free energy of the ion-electron system (eV)
  ---------------------------------------------------
  alpha Z        PSCENC =       892.99476195
  Ewald energy   TEWEN  =    -18544.06308536
  -Hartree energ DENC   =     -7200.63878325
  -exchange      EXHF   =         0.00000000
  -V(xc)+E(xc)   XCENC  =       923.41292805
  PAW double counting   =     21633.96174531   -22707.92185401
  entropy T*S    EENTRO =        -0.00120629
  eigenvalues    EBANDS =      -231.35178848
  atomic energy  EATOM  =     26580.56019858
  Solvation  Ediel_sol  =         0.00000000
  ---------------------------------------------------
  free energy    TOTEN  =      1346.95291649 eV

  energy without entropy =     1346.95412279  energy(sigma->0) =     1346.95351964


--------------------------------------------------------------------------------------------------------




--------------------------------------- Iteration      1(   2)  ---------------------------------------


     EDDAV:  cpu time   14.2605: real time   14.2958
       DOS:  cpu time    0.0004: real time    0.0004
    --------------------------------------------
      LOOP:  cpu time   14.2609: real time   14.2962

 eigenvalue-minimisations  :  3168
 total energy-change (2. order) :-0.2476672E+04  (-0.2384661E+04)
 number of electron     352.0000000 magnetization 
 augmentation part      352.0000000 magnetization 

 Free energy of the ion-electron system (eV)
  ---------------------------------------------------
  alpha Z        PSCENC =       892.99476195
  Ewald energy   TEWEN  =    -18544.06308536
  -Hartree energ DENC   =     -7200.63878325
  -exchange      EXHF   =         0.00000000
  -V(xc)+E(xc)   XCENC  =       923.41292805
  PAW double counting   =     21633.96174531   -22707.92185401
  entropy T*S    EENTRO =        -0.00000000
  eigenvalues    EBANDS =     -2708.02451707
  atomic energy  EATOM  =     26580.56019858
  Solvation  Ediel_sol  =         0.00000000
  ---------------------------------------------------
  free energy    TOTEN  =     -1129.71860580 eV

  energy without entropy =    -1129.71860580  energy(sigma->0) =    -1129.71860580


--------------------------------------------------------------------------------------------------------




--------------------------------------- Iteration      1(   3)  ---------------------------------------


     EDDAV:  cpu time   15.2066: real time   15.2256
       DOS:  cpu time    0.0004: real time    0.0004
    --------------------------------------------
      LOOP:  cpu time   15.2070: real time   15.2261

 eigenvalue-minimisations  :  3496
 total energy-change (2. order) :-0.3667702E+03  (-0.3645967E+03)
 number of electron     352.0000000 magnetization 
 augmentation part      352.0000000 magnetization 

 Free energy of the ion-electron system (eV)
  ---------------------------------------------------
  alpha Z        PSCENC =       892.99476195
  Ewald energy   TEWEN  =    -18544.06308536
  -Hartree energ DENC   =     -7200.63878325
  -exchange      EXHF   =         0.00000000
  -V(xc)+E(xc)   XCENC  =       923.41292805
  PAW double counting   =     21633.96174531   -22707.92185401
  entropy T*S    EENTRO =        -0.00000000
  eigenvalues    EBANDS =     -3074.79471657
  atomic energy  EATOM  =     26580.56019858
  Solvation  Ediel_sol  =         0.00000000
  ---------------------------------------------------
  free energy    TOTEN  =     -1496.48880529 eV

  energy without entropy =    -1496.48880529  energy(sigma->0) =    -1496.48880529


--------------------------------------------------------------------------------------------------------




--------------------------------------- Iteration      1(   4)  ---------------------------------------


     EDDAV:  cpu time   13.9159: real time   13.9184
       DOS:  cpu time    0.0004: real time    0.0004
    --------------------------------------------
      LOOP:  cpu time   13.9163: real time   13.9187

 eigenvalue-minimisations  :  3048
 total energy-change (2. order) :-0.1195876E+02  (-0.1192508E+02)
 number of electron     352.0000000 magnetization 
 augmentation part      352.0000000 magnetization 

 Free energy of the ion-electron system (eV)
  ---------------------------------------------------
  alpha Z        PSCENC =       892.99476195
  Ewald energy   TEWEN  =    -18544.06308536
  -Hartree energ DENC   =     -7200.63878325
  -exchange      EXHF   =         0.00000000
  -V(xc)+E(xc)   XCENC  =       923.41292805
  PAW double counting   =     21633.96174531   -22707.92185401
  entropy T*S    EENTRO =        -0.00000000
  eigenvalues    EBANDS =     -3086.75347205
  atomic energy  EATOM  =     26580.56019858
  Solvation  Ediel_sol  =         0.00000000
  ---------------------------------------------------
  free energy    TOTEN  =     -1508.44756077 eV

  energy without entropy =    -1508.44756077  energy(sigma->0) =    -1508.44756077


--------------------------------------------------------------------------------------------------------




--------------------------------------- Iteration      1(   5)  ---------------------------------------


     EDDAV:  cpu time   14.9952: real time   15.0111
       DOS:  cpu time    0.0004: real time    0.0004
    CHARGE:  cpu time    2.7986: real time    2.7987
    MIXING:  cpu time    0.0014: real time    0.0014
    --------------------------------------------
      LOOP:  cpu time   17.7957: real time   17.8116

 eigenvalue-minimisations  :  3432
 total energy-change (2. order) :-0.5610913E+00  (-0.5608023E+00)
 number of electron     351.9999990 magnetization 
 augmentation part       -6.5321285 magnetization 

 Broyden mixing:
  rms(total) = 0.99831E+00    rms(broyden)= 0.99795E+00
  rms(prec ) = 0.14316E+01
  weight for this iteration     100.00

 Free energy of the ion-electron system (eV)
  ---------------------------------------------------
  alpha Z        PSCENC =       892.99476195
  Ewald energy   TEWEN  =    -18544.06308536
  -Hartree energ DENC   =     -7200.63878325
  -exchange      EXHF   =         0.00000000
  -V(xc)+E(xc)   XCENC  =       923.41292805
  PAW double counting   =     21633.96174531   -22707.92185401
  entropy T*S    EENTRO =        -0.00000000
  eigenvalues    EBANDS =     -3087.31456331
  atomic energy  EATOM  =     26580.56019858
  Solvation  Ediel_sol  =         0.00000000
  ---------------------------------------------------
  free energy    TOTEN  =     -1509.00865204 eV

  energy without entropy =    -1509.00865204  energy(sigma->0) =    -1509.00865204


--------------------------------------------------------------------------------------------------------




--------------------------------------- Iteration      1(   6)  ---------------------------------------


    POTLOK:  cpu time    0.2726: real time    0.3043
    SETDIJ:  cpu time    1.1938: real time    1.1939
     EDDAV:  cpu time   14.8241: real time   14.8247
       DOS:  cpu time    0.0004: real time    0.0004
    CHARGE:  cpu time    2.8143: real time    2.8143
    MIXING:  cpu time    0.0015: real time    0.0015
    --------------------------------------------
      LOOP:  cpu time   19.1066: real time   19.1391

 eigenvalue-minimisations  :  3376
 total energy-change (2. order) : 0.8065734E+02  (-0.2478872E+01)
 number of electron     351.9999990 magnetization 
 augmentation part       -5.0364755 magnetization 

 Broyden mixing:
  rms(total) = 0.70751E+00    rms(broyden)= 0.70743E+00
  rms(prec ) = 0.89495E+00
  weight for this iteration     100.00

 eigenvalues of (default mixing * dielectric matrix)
  average eigenvalue GAMMA=   1.1258
  1.1258

 Free energy of the ion-electron system (eV)
  ---------------------------------------------------
  alpha Z        PSCENC =       892.99476195
  Ewald energy   TEWEN  =    -18544.06308536
  -Hartree energ DENC   =     -7182.17021162
  -exchange      EXHF   =         0.00000000
  -V(xc)+E(xc)   XCENC  =       954.70085669
  PAW double counting   =     21895.95864782   -22967.44117614
  entropy T*S    EENTRO =        -0.00000000
  eigenvalues    EBANDS =     -3058.89130329
  atomic energy  EATOM  =     26580.56019858
  Solvation  Ediel_sol  =         0.00000000
  ---------------------------------------------------
  free energy    TOTEN  =     -1428.35131137 eV

  energy without entropy =    -1428.35131137  energy(sigma->0) =    -1428.35131137


--------------------------------------------------------------------------------------------------------




--------------------------------------- Iteration      1(   7)  ---------------------------------------


    POTLOK:  cpu time    0.3070: real time    0.3086
    SETDIJ:  cpu time    1.2035: real time    1.2035
     EDDAV:  cpu time   14.1958: real time   14.1963
       DOS:  cpu time    0.0004: real time    0.0004
    CHARGE:  cpu time    2.8246: real time    2.8247
    MIXING:  cpu time    0.0017: real time    0.0017
    --------------------------------------------
      LOOP:  cpu time   18.5330: real time   18.5353

 eigenvalue-minimisations  :  3160
 total energy-change (2. order) : 0.4800046E+00  (-0.8501229E+00)
 number of electron     351.9999990 magnetization 
 augmentation part       -4.4932108 magnetization 

 Broyden mixing:
  rms(total) = 0.37032E+00    rms(broyden)= 0.37030E+00
  rms(prec ) = 0.40725E+00
  weight for this iteration     100.00

 eigenvalues of (default mixing * dielectric matrix)
  average eigenvalue GAMMA=   1.3118
  1.3118  1.3118

 Free energy of the ion-electron system (eV)
  ---------------------------------------------------
  alpha Z        PSCENC =       892.99476195
  Ewald energy   TEWEN  =    -18544.06308536
  -Hartree energ DENC   =     -7221.69959343
  -exchange      EXHF   =         0.00000000
  -V(xc)+E(xc)   XCENC  =       960.11224776
  PAW double counting   =     22495.65604595   -23564.71740936
  entropy T*S    EENTRO =        -0.00000000
  eigenvalues    EBANDS =     -3026.71447284
  atomic energy  EATOM  =     26580.56019858
  Solvation  Ediel_sol  =         0.00000000
  ---------------------------------------------------
  free energy    TOTEN  =     -1427.87130675 eV

  energy without entropy =    -1427.87130675  energy(sigma->0) =    -1427.87130675


--------------------------------------------------------------------------------------------------------




--------------------------------------- Iteration      1(   8)  ---------------------------------------


    POTLOK:  cpu time    0.2724: real time    0.3045
    SETDIJ:  cpu time    1.1953: real time    1.1953
     EDDAV:  cpu time   14.0133: real time   14.0140
       DOS:  cpu time    0.0004: real time    0.0004
    CHARGE:  cpu time    2.8285: real time    2.8285
    MIXING:  cpu time    0.0016: real time    0.0016
    --------------------------------------------
      LOOP:  cpu time   18.3115: real time   18.3443

 eigenvalue-minimisations  :  3096
 total energy-change (2. order) :-0.2112465E+00  (-0.4106364E-01)
 number of electron     351.9999990 magnetization 
 augmentation part       -4.5878010 magnetization 

 Broyden mixing:
  rms(total) = 0.21235E+00    rms(broyden)= 0.21235E+00
  rms(prec ) = 0.23715E+00
  weight for this iteration     100.00

 eigenvalues of (default mixing * dielectric matrix)
  average eigenvalue GAMMA=   1.6882
  1.1271  1.3045  2.6331

 Free energy of the ion-electron system (eV)
  ---------------------------------------------------
  alpha Z        PSCENC =       892.99476195
  Ewald energy   TEWEN  =    -18544.06308536
  -Hartree energ DENC   =     -7225.15392143
  -exchange      EXHF   =         0.00000000
  -V(xc)+E(xc)   XCENC  =       960.77965187
  PAW double counting   =     22724.69710064   -23793.98137646
  entropy T*S    EENTRO =        -0.00000000
  eigenvalues    EBANDS =     -3023.91588307
  atomic energy  EATOM  =     26580.56019858
  Solvation  Ediel_sol  =         0.00000000
  ---------------------------------------------------
  free energy    TOTEN  =     -1428.08255328 eV

  energy without entropy =    -1428.08255328  energy(sigma->0) =    -1428.08255328


--------------------------------------------------------------------------------------------------------




--------------------------------------- Iteration      1(   9)  ---------------------------------------


    POTLOK:  cpu time    0.2595: real time    0.3010
    SETDIJ:  cpu time    1.1992: real time    1.1992
     EDDAV:  cpu time   13.5088: real time   13.5095
       DOS:  cpu time    0.0005: real time    0.0005
    CHARGE:  cpu time    2.8313: real time    2.8314
    MIXING:  cpu time    0.0019: real time    0.0019
    --------------------------------------------
      LOOP:  cpu time   17.8013: real time   17.8435

 eigenvalue-minimisations  :  2928
 total energy-change (2. order) :-0.8132517E-01  (-0.1844987E-01)
 number of electron     351.9999990 magnetization 
 augmentation part       -4.6275232 magnetization 

 Broyden mixing:
  rms(total) = 0.44052E-01    rms(broyden)= 0.44049E-01
  rms(prec ) = 0.47597E-01
  weight for this iteration     100.00

 eigenvalues of (default mixing * dielectric matrix)
  average eigenvalue GAMMA=   1.4580
  2.5402  1.2399  1.2399  0.8121

 Free energy of the ion-electron system (eV)
  ---------------------------------------------------
  alpha Z        PSCENC =       892.99476195
  Ewald energy   TEWEN  =    -18544.06308536
  -Hartree energ DENC   =     -7229.90448245
  -exchange      EXHF   =         0.00000000
  -V(xc)+E(xc)   XCENC  =       962.87063491
  PAW double counting   =     23053.21100316   -24123.12607469
  entropy T*S    EENTRO =        -0.00000000
  eigenvalues    EBANDS =     -3020.70683455
  atomic energy  EATOM  =     26580.56019858
  Solvation  Ediel_sol  =         0.00000000
  ---------------------------------------------------
  free energy    TOTEN  =     -1428.16387845 eV

  energy without entropy =    -1428.16387845  energy(sigma->0) =    -1428.16387845


--------------------------------------------------------------------------------------------------------




--------------------------------------- Iteration      1(  10)  ---------------------------------------


    POTLOK:  cpu time    0.2552: real time    0.3065
    SETDIJ:  cpu time    1.1942: real time    1.1943
     EDDAV:  cpu time   15.3249: real time   15.3255
       DOS:  cpu time    0.0005: real time    0.0005
    CHARGE:  cpu time    2.8353: real time    2.8354
    MIXING:  cpu time    0.0020: real time    0.0020
    --------------------------------------------
      LOOP:  cpu time   19.6121: real time   19.6642

 eigenvalue-minimisations  :  3560
 total energy-change (2. order) :-0.2430821E-02  (-0.1278493E-02)
 number of electron     351.9999990 magnetization 
 augmentation part       -4.6158709 magnetization 

 Broyden mixing:
  rms(total) = 0.26465E-01    rms(broyden)= 0.26464E-01
  rms(prec ) = 0.29425E-01
  weight for this iteration     100.00

 eigenvalues of (default mixing * dielectric matrix)
  average eigenvalue GAMMA=   1.6807
  2.6166  2.6166  1.1540  1.1540  0.8623

 Free energy of the ion-electron system (eV)
  ---------------------------------------------------
  alpha Z        PSCENC =       892.99476195
  Ewald energy   TEWEN  =    -18544.06308536
  -Hartree energ DENC   =     -7228.09080287
  -exchange      EXHF   =         0.00000000
  -V(xc)+E(xc)   XCENC  =       962.69628293
  PAW double counting   =     23027.36397286   -24097.40410659
  entropy T*S    EENTRO =        -0.00000000
  eigenvalues    EBANDS =     -3022.22353078
  atomic energy  EATOM  =     26580.56019858
  Solvation  Ediel_sol  =         0.00000000
  ---------------------------------------------------
  free energy    TOTEN  =     -1428.16630927 eV

  energy without entropy =    -1428.16630927  energy(sigma->0) =    -1428.16630927


--------------------------------------------------------------------------------------------------------




--------------------------------------- Iteration      1(  11)  ---------------------------------------


    POTLOK:  cpu time    0.3002: real time    0.3060
    SETDIJ:  cpu time    1.2006: real time    1.2006
     EDDAV:  cpu time   13.3408: real time   13.3414
       DOS:  cpu time    0.0004: real time    0.0004
    CHARGE:  cpu time    2.8440: real time    2.8447
    MIXING:  cpu time    0.0019: real time    0.0019
    --------------------------------------------
      LOOP:  cpu time   17.6878: real time   17.6950

 eigenvalue-minimisations  :  2864
 total energy-change (2. order) :-0.3377242E-02  (-0.4241274E-03)
 number of electron     351.9999990 magnetization 
 augmentation part       -4.6164310 magnetization 

 Broyden mixing:
  rms(total) = 0.10336E-01    rms(broyden)= 0.10336E-01
  rms(prec ) = 0.12393E-01
  weight for this iteration     100.00

 eigenvalues of (default mixing * dielectric matrix)
  average eigenvalue GAMMA=   1.5812
  2.5948  2.5948  1.2135  1.2135  0.9353  0.9353

 Free energy of the ion-electron system (eV)
  ---------------------------------------------------
  alpha Z        PSCENC =       892.99476195
  Ewald energy   TEWEN  =    -18544.06308536
  -Hartree energ DENC   =     -7224.78881720
  -exchange      EXHF   =         0.00000000
  -V(xc)+E(xc)   XCENC  =       962.59398123
  PAW double counting   =     22997.90632991   -24068.42963938
  entropy T*S    EENTRO =        -0.00000000
  eigenvalues    EBANDS =     -3024.94341625
  atomic energy  EATOM  =     26580.56019858
  Solvation  Ediel_sol  =         0.00000000
  ---------------------------------------------------
  free energy    TOTEN  =     -1428.16968652 eV

  energy without entropy =    -1428.16968652  energy(sigma->0) =    -1428.16968652


--------------------------------------------------------------------------------------------------------




--------------------------------------- Iteration      1(  12)  ---------------------------------------


    POTLOK:  cpu time    0.2732: real time    0.2871
    SETDIJ:  cpu time    1.1968: real time    1.1968
     EDDAV:  cpu time   14.0282: real time   14.0288
       DOS:  cpu time    0.0004: real time    0.0004
    CHARGE:  cpu time    2.8424: real time    2.8425
    MIXING:  cpu time    0.0017: real time    0.0017
    --------------------------------------------
      LOOP:  cpu time   18.3425: real time   18.3572

 eigenvalue-minimisations  :  3104
 total energy-change (2. order) : 0.3633536E-03  (-0.9463154E-04)
 number of electron     351.9999990 magnetization 
 augmentation part       -4.6192321 magnetization 

 Broyden mixing:
  rms(total) = 0.32910E-02    rms(broyden)= 0.32906E-02
  rms(prec ) = 0.36638E-02
  weight for this iteration     100.00

 eigenvalues of (default mixing * dielectric matrix)
  average eigenvalue GAMMA=   1.5955
  3.0134  2.3152  1.6466  1.2929  1.0091  0.9457  0.9457

 Free energy of the ion-electron system (eV)
  ---------------------------------------------------
  alpha Z        PSCENC =       892.99476195
  Ewald energy   TEWEN  =    -18544.06308536
  -Hartree energ DENC   =     -7225.32912029
  -exchange      EXHF   =         0.00000000
  -V(xc)+E(xc)   XCENC  =       962.71646418
  PAW double counting   =     23009.55890697   -24080.12321042
  entropy T*S    EENTRO =        -0.00000000
  eigenvalues    EBANDS =     -3024.48423877
  atomic energy  EATOM  =     26580.56019858
  Solvation  Ediel_sol  =         0.00000000
  ---------------------------------------------------
  free energy    TOTEN  =     -1428.16932316 eV

  energy without entropy =    -1428.16932316  energy(sigma->0) =    -1428.16932316


--------------------------------------------------------------------------------------------------------




--------------------------------------- Iteration      1(  13)  ---------------------------------------


    POTLOK:  cpu time    0.2756: real time    0.2938
    SETDIJ:  cpu time    1.2022: real time    1.2023
     EDDAV:  cpu time   14.2537: real time   14.2543
       DOS:  cpu time    0.0004: real time    0.0004
    CHARGE:  cpu time    2.8482: real time    2.8483
    MIXING:  cpu time    0.0019: real time    0.0020
    --------------------------------------------
      LOOP:  cpu time   18.5821: real time   18.6010

 eigenvalue-minimisations  :  3184
 total energy-change (2. order) : 0.1504072E-04  (-0.8824266E-05)
 number of electron     351.9999990 magnetization 
 augmentation part       -4.6193457 magnetization 

 Broyden mixing:
  rms(total) = 0.14061E-02    rms(broyden)= 0.14060E-02
  rms(prec ) = 0.14940E-02
  weight for this iteration     100.00

 eigenvalues of (default mixing * dielectric matrix)
  average eigenvalue GAMMA=   1.6156
  2.9984  2.4086  2.1124  1.2366  1.2366  0.9432  0.9944  0.9944

 Free energy of the ion-electron system (eV)
  ---------------------------------------------------
  alpha Z        PSCENC =       892.99476195
  Ewald energy   TEWEN  =    -18544.06308536
  -Hartree energ DENC   =     -7225.56427549
  -exchange      EXHF   =         0.00000000
  -V(xc)+E(xc)   XCENC  =       962.74089294
  PAW double counting   =     23008.33053627   -24078.90455709
  entropy T*S    EENTRO =        -0.00000000
  eigenvalues    EBANDS =     -3024.26377992
  atomic energy  EATOM  =     26580.56019858
  Solvation  Ediel_sol  =         0.00000000
  ---------------------------------------------------
  free energy    TOTEN  =     -1428.16930812 eV

  energy without entropy =    -1428.16930812  energy(sigma->0) =    -1428.16930812


--------------------------------------------------------------------------------------------------------




--------------------------------------- Iteration      1(  14)  ---------------------------------------


    POTLOK:  cpu time    0.2751: real time    0.2981
    SETDIJ:  cpu time    1.1968: real time    1.1968
     EDDAV:  cpu time   12.9861: real time   12.9867
       DOS:  cpu time    0.0008: real time    0.0007
    CHARGE:  cpu time    2.8386: real time    2.8387
    MIXING:  cpu time    0.0022: real time    0.0022
    --------------------------------------------
      LOOP:  cpu time   17.2995: real time   17.3231

 eigenvalue-minimisations  :  2728
 total energy-change (2. order) :-0.4298817E-04  (-0.7473934E-06)
 number of electron     351.9999990 magnetization 
 augmentation part       -4.6188391 magnetization 

 Broyden mixing:
  rms(total) = 0.26391E-03    rms(broyden)= 0.26384E-03
  rms(prec ) = 0.30645E-03
  weight for this iteration     100.00

 eigenvalues of (default mixing * dielectric matrix)
  average eigenvalue GAMMA=   1.5973
  2.9310  2.5141  1.8733  1.8733  1.1455  1.1455  0.9566  0.9684  0.9684

 Free energy of the ion-electron system (eV)
  ---------------------------------------------------
  alpha Z        PSCENC =       892.99476195
  Ewald energy   TEWEN  =    -18544.06308536
  -Hartree energ DENC   =     -7225.61427815
  -exchange      EXHF   =         0.00000000
  -V(xc)+E(xc)   XCENC  =       962.74299467
  PAW double counting   =     23006.93577737   -24077.50724094
  entropy T*S    EENTRO =        -0.00000000
  eigenvalues    EBANDS =     -3024.21847923
  atomic energy  EATOM  =     26580.56019858
  Solvation  Ediel_sol  =         0.00000000
  ---------------------------------------------------
  free energy    TOTEN  =     -1428.16935111 eV

  energy without entropy =    -1428.16935111  energy(sigma->0) =    -1428.16935111


--------------------------------------------------------------------------------------------------------




--------------------------------------- Iteration      1(  15)  ---------------------------------------


    POTLOK:  cpu time    0.2598: real time    0.3072
    SETDIJ:  cpu time    1.1951: real time    1.1951
     EDDAV:  cpu time   10.0883: real time   10.0888
       DOS:  cpu time    0.0005: real time    0.0005
    CHARGE:  cpu time    2.8497: real time    2.8498
    MIXING:  cpu time    0.0018: real time    0.0018
    --------------------------------------------
      LOOP:  cpu time   14.3952: real time   14.4431

 eigenvalue-minimisations  :  1704
 total energy-change (2. order) :-0.9344953E-05  (-0.7834202E-07)
 number of electron     351.9999990 magnetization 
 augmentation part       -4.6188411 magnetization 

 Broyden mixing:
  rms(total) = 0.98735E-04    rms(broyden)= 0.98727E-04
  rms(prec ) = 0.11101E-03
  weight for this iteration     100.00

 eigenvalues of (default mixing * dielectric matrix)
  average eigenvalue GAMMA=   1.6337
  2.9660  2.8329  2.2405  2.0070  1.2008  1.2008  1.0185  1.0185  0.9258  0.9258

 Free energy of the ion-electron system (eV)
  ---------------------------------------------------
  alpha Z        PSCENC =       892.99476195
  Ewald energy   TEWEN  =    -18544.06308536
  -Hartree energ DENC   =     -7225.58189312
  -exchange      EXHF   =         0.00000000
  -V(xc)+E(xc)   XCENC  =       962.74079999
  PAW double counting   =     23006.90762941   -24077.47822639
  entropy T*S    EENTRO =        -0.00000000
  eigenvalues    EBANDS =     -3024.24954551
  atomic energy  EATOM  =     26580.56019858
  Solvation  Ediel_sol  =         0.00000000
  ---------------------------------------------------
  free energy    TOTEN  =     -1428.16936045 eV

  energy without entropy =    -1428.16936045  energy(sigma->0) =    -1428.16936045


--------------------------------------------------------------------------------------------------------




--------------------------------------- Iteration      1(  16)  ---------------------------------------


    POTLOK:  cpu time    0.2975: real time    0.3004
    SETDIJ:  cpu time    1.1963: real time    1.1964
     EDDAV:  cpu time    9.9608: real time    9.9613
       DOS:  cpu time    0.0004: real time    0.0004
    CHARGE:  cpu time    2.8461: real time    2.8472
    MIXING:  cpu time    0.0023: real time    0.0023
    --------------------------------------------
      LOOP:  cpu time   14.3034: real time   14.3079

 eigenvalue-minimisations  :  1656
 total energy-change (2. order) :-0.1087116E-05  (-0.1877978E-07)
 number of electron     351.9999990 magnetization 
 augmentation part       -4.6189196 magnetization 

 Broyden mixing:
  rms(total) = 0.43280E-04    rms(broyden)= 0.43275E-04
  rms(prec ) = 0.47713E-04
  weight for this iteration     100.00

 eigenvalues of (default mixing * dielectric matrix)
  average eigenvalue GAMMA=   1.6183
  2.9533  2.6800  2.4767  1.7428  1.7428  1.1842  1.1842  0.9717  0.9717  0.9468
  0.9468

 Free energy of the ion-electron system (eV)
  ---------------------------------------------------
  alpha Z        PSCENC =       892.99476195
  Ewald energy   TEWEN  =    -18544.06308536
  -Hartree energ DENC   =     -7225.58120623
  -exchange      EXHF   =         0.00000000
  -V(xc)+E(xc)   XCENC  =       962.74142866
  PAW double counting   =     23006.85055393   -24077.42053261
  entropy T*S    EENTRO =        -0.00000000
  eigenvalues    EBANDS =     -3024.25148047
  atomic energy  EATOM  =     26580.56019858
  Solvation  Ediel_sol  =         0.00000000
  ---------------------------------------------------
  free energy    TOTEN  =     -1428.16936154 eV

  energy without entropy =    -1428.16936154  energy(sigma->0) =    -1428.16936154


--------------------------------------------------------------------------------------------------------




--------------------------------------- Iteration      1(  17)  ---------------------------------------


    POTLOK:  cpu time    0.3028: real time    0.3043
    SETDIJ:  cpu time    1.1963: real time    1.1963
     EDDAV:  cpu time    9.9052: real time    9.9057
       DOS:  cpu time    0.0005: real time    0.0005
    CHARGE:  cpu time    2.8548: real time    2.8549
    MIXING:  cpu time    0.0023: real time    0.0023
    --------------------------------------------
      LOOP:  cpu time   14.2619: real time   14.2640

 eigenvalue-minimisations  :  1640
 total energy-change (2. order) : 0.1780991E-05  (-0.4971866E-08)
 number of electron     351.9999990 magnetization 
 augmentation part       -4.6188748 magnetization 

 Broyden mixing:
  rms(total) = 0.21208E-04    rms(broyden)= 0.21205E-04
  rms(prec ) = 0.23948E-04
  weight for this iteration     100.00

 eigenvalues of (default mixing * dielectric matrix)
  average eigenvalue GAMMA=   1.6838
  3.0672  3.0672  2.4951  2.2288  2.2288  1.1657  1.0995  1.0995  0.9900  0.9900
  0.9394  0.8350

 Free energy of the ion-electron system (eV)
  ---------------------------------------------------
  alpha Z        PSCENC =       892.99476195
  Ewald energy   TEWEN  =    -18544.06308536
  -Hartree energ DENC   =     -7225.58456140
  -exchange      EXHF   =         0.00000000
  -V(xc)+E(xc)   XCENC  =       962.74173551
  PAW double counting   =     23006.84348782   -24077.41326697
  entropy T*S    EENTRO =        -0.00000000
  eigenvalues    EBANDS =     -3024.24862989
  atomic energy  EATOM  =     26580.56019858
  Solvation  Ediel_sol  =         0.00000000
  ---------------------------------------------------
  free energy    TOTEN  =     -1428.16935976 eV

  energy without entropy =    -1428.16935976  energy(sigma->0) =    -1428.16935976


--------------------------------------------------------------------------------------------------------




--------------------------------------- Iteration      1(  18)  ---------------------------------------


    POTLOK:  cpu time    0.2771: real time    0.3049
    SETDIJ:  cpu time    1.1942: real time    1.1943
     EDDAV:  cpu time    9.8498: real time    9.8502
       DOS:  cpu time    0.0004: real time    0.0004
    CHARGE:  cpu time    2.8487: real time    2.8489
    MIXING:  cpu time    0.0022: real time    0.0022
    --------------------------------------------
      LOOP:  cpu time   14.1724: real time   14.2009

 eigenvalue-minimisations  :  1616
 total energy-change (2. order) : 0.1411554E-05  (-0.2552062E-08)
 number of electron     351.9999990 magnetization 
 augmentation part       -4.6189113 magnetization 

 Broyden mixing:
  rms(total) = 0.14244E-04    rms(broyden)= 0.14242E-04
  rms(prec ) = 0.16082E-04
  weight for this iteration     100.00

 eigenvalues of (default mixing * dielectric matrix)
  average eigenvalue GAMMA=   1.6826
  3.4087  3.0932  2.5373  2.5373  1.6799  1.6799  0.9653  0.9653  1.0999  1.0999
  1.0824  0.9090  0.8152

 Free energy of the ion-electron system (eV)
  ---------------------------------------------------
  alpha Z        PSCENC =       892.99476195
  Ewald energy   TEWEN  =    -18544.06308536
  -Hartree energ DENC   =     -7225.58763802
  -exchange      EXHF   =         0.00000000
  -V(xc)+E(xc)   XCENC  =       962.74184805
  PAW double counting   =     23006.81597753   -24077.38576394
  entropy T*S    EENTRO =        -0.00000000
  eigenvalues    EBANDS =     -3024.24565713
  atomic energy  EATOM  =     26580.56019858
  Solvation  Ediel_sol  =         0.00000000
  ---------------------------------------------------
  free energy    TOTEN  =     -1428.16935835 eV

  energy without entropy =    -1428.16935835  energy(sigma->0) =    -1428.16935835


--------------------------------------------------------------------------------------------------------




--------------------------------------- Iteration      1(  19)  ---------------------------------------


    POTLOK:  cpu time    0.2558: real time    0.3015
    SETDIJ:  cpu time    1.2057: real time    1.2057
     EDDAV:  cpu time    9.8165: real time    9.8169
       DOS:  cpu time    0.0004: real time    0.0004
    --------------------------------------------
      LOOP:  cpu time   11.2783: real time   11.3244

 eigenvalue-minimisations  :  1608
 total energy-change (2. order) :-0.2964812E-06  (-0.1336681E-08)
 number of electron     351.9999990 magnetization 
 augmentation part       -4.6189113 magnetization 

 Free energy of the ion-electron system (eV)
  ---------------------------------------------------
  alpha Z        PSCENC =       892.99476195
  Ewald energy   TEWEN  =    -18544.06308536
  -Hartree energ DENC   =     -7225.58533474
  -exchange      EXHF   =         0.00000000
  -V(xc)+E(xc)   XCENC  =       962.74177563
  PAW double counting   =     23006.81724690   -24077.38730770
  entropy T*S    EENTRO =        -0.00000000
  eigenvalues    EBANDS =     -3024.24761390
  atomic energy  EATOM  =     26580.56019858
  Solvation  Ediel_sol  =         0.00000000
  ---------------------------------------------------
  free energy    TOTEN  =     -1428.16935865 eV

  energy without entropy =    -1428.16935865  energy(sigma->0) =    -1428.16935865


--------------------------------------------------------------------------------------------------------




 average (electrostatic) potential at core
  the test charge radii are     1.1312  1.1541  1.0178
  (the norm of the test charge is              1.0000)
       1 -55.0915       2 -55.0914       3 -55.0914       4 -55.0914       5 -55.0914
       6 -55.0914       7 -55.0915       8 -55.0914       9-101.8350      10-101.8350
      11-101.8350      12-101.8350      13-101.8350      14-101.8350      15-101.8350
      16-101.8350      17 -69.0142      18 -69.0142      19 -69.0142      20 -69.0142
      21 -69.0142      22 -69.0142      23 -69.0142      24 -69.0142      25 -69.0040
      26 -69.0040      27 -69.0040      28 -69.0040      29 -69.0040      30 -69.0040
      31 -69.0040      32 -69.0040      33 -69.0142      34 -69.0142      35 -69.0142
      36 -69.0142      37 -69.0142      38 -69.0142      39 -69.0142      40 -69.0142



 E-fermi :   0.2194     XC(G=0):  -8.0509     alpha+bet : -7.0048


 k-point     1 :       0.0000    0.0000    0.0000
  band No.  band energies     occupation 
      1     -20.6655      2.00000
      2     -20.6637      2.00000
      3     -20.6636      2.00000
      4     -20.6636      2.00000
      5     -20.6620      2.00000
      6     -20.6620      2.00000
      7     -20.6619      2.00000
      8     -20.6600      2.00000
      9     -16.6094      2.00000
     10     -16.6093      2.00000
     11     -16.6068      2.00000
     12     -16.6068      2.00000
     13     -16.6065      2.00000
     14     -16.5878      2.00000
     15     -16.5878      2.00000
     16     -16.5846      2.00000
     17     -16.5642      2.00000
     18     -16.5641      2.00000
     19     -16.5641      2.00000
     20     -16.5397      2.00000
     21     -16.5393      2.00000
     22     -16.5390      2.00000
     23     -16.5390      2.00000
     24     -16.5384      2.00000
     25     -16.4862      2.00000
     26     -16.4862      2.00000
     27     -16.4862      2.00000
     28     -16.4860      2.00000
     29     -16.4857      2.00000
     30     -16.4856      2.00000
     31     -16.4856      2.00000
     32     -16.4851      2.00000
     33     -16.4796      2.00000
     34     -16.4796      2.00000
     35     -16.4796      2.00000
     36     -16.4795      2.00000
     37     -16.4792      2.00000
     38     -16.4792      2.00000
     39     -16.4791      2.00000
     40     -16.4791      2.00000
     41     -16.4790      2.00000
     42     -16.4789      2.00000
     43     -16.4789      2.00000
     44     -16.4784      2.00000
     45     -16.4784      2.00000
     46     -16.4782      2.00000
     47     -16.4781      2.00000
     48     -16.4780      2.00000
     49     -14.3173      2.00000
     50     -14.1767      2.00000
     51     -14.1765      2.00000
     52     -14.1765      2.00000
     53     -14.0646      2.00000
     54     -14.0524      2.00000
     55     -14.0517      2.00000
     56     -14.0517      2.00000
     57     -14.0471      2.00000
     58     -14.0445      2.00000
     59     -14.0445      2.00000
     60     -14.0301      2.00000
     61     -14.0252      2.00000
     62     -14.0252      2.00000
     63     -14.0173      2.00000
     64     -14.0013      2.00000
     65     -13.9881      2.00000
     66     -13.9881      2.00000
     67     -13.9822      2.00000
     68     -13.8300      2.00000
     69     -13.8132      2.00000
     70     -13.8094      2.00000
     71     -13.7999      2.00000
     72     -13.7999      2.00000
     73      -8.1333      2.00000
     74      -7.7528      2.00000
     75      -7.7217      2.00000
     76      -7.7217      2.00000
     77      -7.3442      2.00000
     78      -7.3442      2.00000
     79      -7.2671      2.00000
     80      -7.1362      2.00000
     81      -7.1318      2.00000
     82      -7.1313      2.00000
     83      -7.1232      2.00000
     84      -7.1121      2.00000
     85      -7.1102      2.00000
     86      -7.1069      2.00000
     87      -7.1069      2.00000
     88      -7.1028      2.00000
     89      -7.1028      2.00000
     90      -7.1001      2.00000
     91      -7.0981      2.00000
     92      -7.0924      2.00000
     93      -7.0924      2.00000
     94      -7.0884      2.00000
     95      -7.0865      2.00000
     96      -7.0865      2.00000
     97      -7.0815      2.00000
     98      -7.0703      2.00000
     99      -7.0702      2.00000
    100      -7.0678      2.00000
    101      -7.0436      2.00000
    102      -6.9933      2.00000
    103      -6.9933      2.00000
    104      -6.7204      2.00000
    105      -3.2483      2.00000
    106      -3.2072      2.00000
    107      -3.1900      2.00000
    108      -3.1348      2.00000
    109      -3.1348      2.00000
    110      -3.1311      2.00000
    111      -3.1311      2.00000
    112      -3.1153      2.00000
    113      -2.9893      2.00000
    114      -2.9447      2.00000
    115      -2.9447      2.00000
    116      -2.9417      2.00000
    117      -2.1182      2.00000
    118      -2.1104      2.00000
    119      -2.1104      2.00000
    120      -1.9597      2.00000
    121      -1.9591      2.00000
    122      -1.9591      2.00000
    123      -1.8989      2.00000
    124      -1.8391      2.00000
    125      -1.8232      2.00000
    126      -1.7720      2.00000
    127      -1.7582      2.00000
    128      -1.7582      2.00000
    129      -1.6823      2.00000
    130      -1.6511      2.00000
    131      -1.6511      2.00000
    132      -1.5968      2.00000
    133      -1.5968      2.00000
    134      -1.5833      2.00000
    135      -1.5543      2.00000
    136      -1.5234      2.00000
    137      -1.4962      2.00000
    138      -1.4642      2.00000
    139      -1.4311      2.00000
    140      -1.4176      2.00000
    141      -1.4176      2.00000
    142      -1.4052      2.00000
    143      -1.4052      2.00000
    144      -1.3980      2.00000
    145      -1.3932      2.00000
    146      -1.3932      2.00000
    147      -1.3859      2.00000
    148      -1.3554      2.00000
    149      -1.3554      2.00000
    150      -1.3166      2.00000
    151      -1.3131      2.00000
    152      -1.2885      2.00000
    153      -1.2608      2.00000
    154      -1.2608      2.00000
    155      -1.2550      2.00000
    156      -1.2545      2.00000
    157      -1.2545      2.00000
    158      -1.2345      2.00000
    159      -1.2119      2.00000
    160      -1.2119      2.00000
    161      -1.1654      2.00000
    162      -1.1310      2.00000
    163      -1.1107      2.00000
    164      -1.0909      2.00000
    165      -1.0881      2.00000
    166      -1.0746      2.00000
    167      -1.0746      2.00000
    168      -1.0635      2.00000
    169      -0.9290      2.00000
    170      -0.8187      2.00000
    171      -0.7576      2.00000
    172      -0.7576      2.00000
    173      -0.4095      2.00000
    174      -0.4095      2.00000
    175      -0.3850      2.00000
    176       0.1382      2.00000
    177       2.6981      0.00000
    178       2.7435      0.00000
    179       2.7741      0.00000
    180       2.9531      0.00000
    181       3.0104      0.00000
    182       3.0104      0.00000
    183       3.0497      0.00000
    184       3.0497      0.00000
    185       3.1301      0.00000
    186       3.3943      0.00000
    187       3.4012      0.00000
    188       3.4012      0.00000
    189       4.8934      0.00000
    190       5.1757      0.00000
    191       5.1757      0.00000
    192       5.2092      0.00000
    193       5.3022      0.00000
    194       5.6155      0.00000
    195       5.6155      0.00000
    196       5.6457      0.00000
[...]
 total charge-density along one line

 pseudopotential strength for first ion, spin component:           1
 17.897  -4.685  -0.002  -0.000  -0.002   0.003   0.000   0.002
 -4.685   1.235   0.001   0.000   0.000  -0.001  -0.000  -0.000
 -0.002   0.001   2.234   0.000   0.002  -2.665  -0.000  -0.002
 -0.000   0.000   0.000   2.236   0.000  -0.000  -2.668  -0.000
 -0.002   0.000   0.002   0.000   2.238  -0.002  -0.000  -2.671
  0.003  -0.001  -2.665  -0.000  -0.002   3.146   0.000   0.003
  0.000  -0.000  -0.000  -2.668  -0.000   0.000   3.150   0.000
  0.002  -0.000  -0.002  -0.000  -2.671   0.003   0.000   3.153
  0.002  -0.000  -0.003   0.000   0.002   0.004  -0.000  -0.002
  0.000  -0.000  -0.000  -0.004   0.000   0.000   0.006  -0.000
  0.000  -0.000  -0.002  -0.000   0.002   0.002   0.000  -0.002
  0.000  -0.000   0.000   0.000  -0.000  -0.000  -0.000   0.000
  0.002  -0.001   0.002  -0.000  -0.000  -0.003   0.000   0.000
 total augmentation occupancy for first ion, spin component:           1
  1.919  -0.127  -0.000   0.000   0.000  -0.002   0.000  -0.002   0.003   0.000   0.000   0.000   0.003
 -0.127   0.161  -0.008   0.000  -0.007   0.010   0.000   0.012  -0.015  -0.000  -0.002   0.000  -0.014
 -0.000  -0.008   2.016   0.000   0.005   0.004   0.000   0.003  -0.005  -0.000  -0.004   0.000   0.005
  0.000   0.000   0.000   2.023   0.000   0.000   0.008   0.000  -0.000  -0.008  -0.000   0.001  -0.000
  0.000  -0.007   0.005   0.000   2.027   0.003   0.000   0.011   0.004   0.000   0.003  -0.000   0.000
 -0.002   0.010   0.004   0.000   0.003   0.016   0.000  -0.004   0.006   0.000   0.006   0.000  -0.005
  0.000   0.000   0.000   0.008   0.000   0.000   0.011   0.000  -0.000   0.009  -0.000  -0.000  -0.000
 -0.002   0.012   0.003   0.000   0.011  -0.004   0.000   0.008  -0.005   0.000  -0.003   0.000   0.000
  0.003  -0.015  -0.005  -0.000   0.004   0.006  -0.000  -0.005   0.009   0.000   0.004   0.000  -0.000
  0.000  -0.000  -0.000  -0.008   0.000   0.000   0.009   0.000   0.000   0.014  -0.000  -0.000   0.000
  0.000  -0.002  -0.004  -0.000   0.003   0.006  -0.000  -0.003   0.004  -0.000   0.006   0.000  -0.001
  0.000   0.000   0.000   0.001  -0.000   0.000  -0.000   0.000   0.000  -0.000   0.000   0.002  -0.000
  0.003  -0.014   0.005  -0.000   0.000  -0.005  -0.000   0.000  -0.000   0.000  -0.001  -0.000   0.006


------------------------ aborting loop because EDIFF is reached ----------------------------------------





 total charge     

# of ion       s       p       d       tot
------------------------------------------
    1        1.791   4.721   0.028   6.540
    2        1.791   4.721   0.028   6.540
    3        1.791   4.721   0.028   6.540
    4        1.791   4.721   0.028   6.540
    5        1.791   4.721   0.028   6.540
    6        1.791   4.721   0.028   6.540
    7        1.791   4.721   0.028   6.540
    8        1.791   4.721   0.028   6.540
    9        1.554   0.398   9.830  11.782
   10        1.554   0.398   9.830  11.782
   11        1.554   0.398   9.830  11.782
   12        1.554   0.398   9.830  11.782
   13        1.554   0.398   9.830  11.782
   14        1.554   0.398   9.830  11.782
   15        1.554   0.398   9.830  11.782
   16        1.554   0.398   9.830  11.782
   17        1.613   3.300   0.005   4.919
   18        1.613   3.300   0.005   4.919
   19        1.613   3.300   0.005   4.919
   20        1.613   3.300   0.005   4.919
   21        1.613   3.300   0.005   4.919
   22        1.613   3.300   0.005   4.919
   23        1.613   3.300   0.005   4.919
   24        1.613   3.300   0.005   4.919
   25        1.614   3.287   0.006   4.906
   26        1.614   3.287   0.006   4.906
   27        1.614   3.286   0.006   4.906
   28        1.614   3.286   0.006   4.906
   29        1.614   3.286   0.006   4.906
   30        1.614   3.286   0.006   4.906
   31        1.614   3.287   0.006   4.906
   32        1.614   3.287   0.006   4.906
   33        1.615   3.271   0.006   4.892
   34        1.615   3.271   0.006   4.892
   35        1.615   3.271   0.006   4.892
   36        1.615   3.271   0.006   4.892
   37        1.615   3.271   0.006   4.892
   38        1.615   3.271   0.006   4.892
   39        1.615   3.271   0.006   4.892
   40        1.615   3.271   0.006   4.892
--------------------------------------------------
tot         65.498 119.807  78.998 264.303

    CHARGE:  cpu time    0.3878: real time    0.3879
    FORLOC:  cpu time    0.0112: real time    0.0112
    FORNL :  cpu time    1.5673: real time    1.5673
    STRESS:  cpu time   39.8740: real time   39.8764
    FORCOR:  cpu time    0.2407: real time    0.2407
    FORHAR:  cpu time    0.0274: real time    0.0274
    MIXING:  cpu time    0.0020: real time    0.0020
    OFIELD:  cpu time    0.0000: real time    0.0000

  FORCE on cell =-STRESS in cart. coord.  units (eV):
  Direction    XX          YY          ZZ          XY          YZ          ZX
  --------------------------------------------------------------------------------------
  Alpha Z   892.99476   892.99476   892.99476
  Ewald   -6170.12226 -6170.12226 -6203.90601  -318.77945     0.00000     0.00000
  Hartree  2408.25597  2408.25597  2409.07491  -169.68007    -0.00000    -0.00000
  E(xc)   -1477.76547 -1477.59019 -1477.71463    -0.50761     0.00000     0.00000
  Local   -2765.13177 -2765.13177 -2732.89384   486.16247    -0.00000     0.00000
  n-local  1796.00439  1795.72632  1794.91560    -1.50258     0.00000     0.00000
  augment   813.25533   813.25533   813.38165    -0.29455    -0.00004    -0.00004
  Kinetic  4498.71777  4507.17433  4502.47965    -1.71400    -0.00001    -0.00000
  Fock        0.00000     0.00000     0.00000     0.00000     0.00000     0.00000
  -------------------------------------------------------------------------------------
  Total       0.38561     0.38561    -1.66790    -6.31580     0.00000     0.00000
  in kB       0.38227     0.38227    -1.65346    -6.26110     0.00000     0.00000
  external pressure =       -0.30 kB  Pullay stress =        0.00 kB


 VOLUME and BASIS-vectors are now :
 -----------------------------------------------------------------------------
  energy-cutoff  :      300.00
  volume of cell :     1616.17
      direct lattice vectors                 reciprocal lattice vectors
    11.735352000  0.000000000  0.000000000     0.085212612  0.000000000  0.000000000
     0.000000000 11.735352000  0.000000000     0.000000000  0.085212612  0.000000000
     0.000000000  0.000000000 11.735352000     0.000000000  0.000000000  0.085212612

  length of vectors
    11.735352000 11.735352000 11.735352000     0.085212612  0.085212612  0.085212612


 FORCES acting on ions
    electron-ion (+dipol)            ewald-force                    non-local-force                 convergence-correction
 -----------------------------------------------------------------------------------------------
   0.135E+02 0.131E+02 -.227E-07   -.135E+02 -.130E+02 -.622E-14   -.450E+00 -.398E+00 -.251E-23   -.391E-05 -.775E-05 0.118E-12
   -.135E+02 -.131E+02 0.227E-07   0.135E+02 0.130E+02 0.000E+00   0.450E+00 0.398E+00 -.333E-24   0.391E-05 0.775E-05 -.727E-13
   0.131E+02 0.135E+02 -.227E-07   -.130E+02 -.135E+02 -.107E-13   -.398E+00 -.450E+00 0.683E-24   -.775E-05 -.391E-05 0.239E-12
   -.131E+02 -.135E+02 0.227E-07   0.130E+02 0.135E+02 0.711E-14   0.398E+00 0.450E+00 -.252E-24   0.775E-05 0.391E-05 -.192E-12
   0.131E+02 0.135E+02 -.227E-07   -.130E+02 -.135E+02 -.107E-13   -.398E+00 -.450E+00 -.283E-25   -.775E-05 -.391E-05 0.199E-12
   -.131E+02 -.135E+02 0.227E-07   0.130E+02 0.135E+02 0.711E-14   0.398E+00 0.450E+00 0.265E-25   0.775E-05 0.391E-05 -.166E-12
   0.135E+02 0.131E+02 -.227E-07   -.135E+02 -.130E+02 -.142E-13   -.450E+00 -.398E+00 0.798E-24   -.391E-05 -.775E-05 0.174E-12
   -.135E+02 -.131E+02 0.227E-07   0.135E+02 0.130E+02 -.711E-14   0.450E+00 0.398E+00 -.864E-25   0.391E-05 0.775E-05 -.147E-12
   0.294E-13 -.556E-13 0.629E-13   -.151E-13 0.533E-13 0.266E-14   0.000E+00 0.000E+00 0.129E-23   0.450E-13 0.843E-13 -.440E-12
   0.154E-12 0.960E-14 0.106E-11   0.533E-13 0.195E-13 -.622E-13   0.000E+00 0.000E+00 0.145E-23   0.134E-12 -.870E-13 0.612E-13
   0.223E-13 0.130E-11 0.903E-13   0.995E-13 0.320E-13 -.515E-13   0.993E-23 0.000E+00 -.623E-24   0.157E-13 -.806E-13 -.539E-12
   -.274E-13 0.119E-11 0.101E-11   0.568E-13 0.497E-13 -.711E-14   0.662E-23 0.000E+00 -.380E-24   -.124E-12 0.844E-13 0.152E-12
   0.176E-11 -.364E-12 0.654E-11   0.116E-12 0.933E-14 -.591E-13   0.132E-22 0.165E-23 -.727E-24   -.307E-13 0.177E-12 -.416E-12
   -.174E-11 0.257E-11 -.773E-11   0.355E-13 0.533E-13 -.622E-14   -.662E-23 0.000E+00 -.441E-24   -.113E-12 0.157E-12 0.376E-13
   0.257E-11 -.311E-11 -.276E-12   0.107E-13 0.786E-13 0.178E-14   0.000E+00 0.000E+00 0.140E-23   0.671E-14 -.228E-12 -.489E-12
   0.188E-11 -.213E-11 -.113E-11   0.568E-13 0.142E-13 -.639E-13   0.000E+00 0.000E+00 0.159E-23   0.123E-12 -.192E-12 0.103E-12
   0.172E+02 0.347E+00 -.192E+02   -.175E+02 -.347E+00 0.194E+02   0.502E+00 0.270E-02 -.512E+00   -.321E-05 -.645E-06 0.421E-05
   0.172E+02 0.347E+00 0.192E+02   -.175E+02 -.347E+00 -.194E+02   0.502E+00 0.270E-02 0.512E+00   -.321E-05 -.645E-06 -.421E-05
   -.172E+02 -.347E+00 0.192E+02   0.175E+02 0.347E+00 -.194E+02   -.502E+00 -.270E-02 0.512E+00   0.321E-05 0.645E-06 -.421E-05
   -.172E+02 -.347E+00 -.192E+02   0.175E+02 0.347E+00 0.194E+02   -.502E+00 -.270E-02 -.512E+00   0.321E-05 0.645E-06 0.421E-05
   -.172E+02 -.347E+00 0.192E+02   0.175E+02 0.347E+00 -.194E+02   -.502E+00 -.270E-02 0.512E+00   0.321E-05 0.645E-06 -.421E-05
   -.172E+02 -.347E+00 -.192E+02   0.175E+02 0.347E+00 0.194E+02   -.502E+00 -.270E-02 -.512E+00   0.321E-05 0.645E-06 0.421E-05
   0.172E+02 0.347E+00 -.192E+02   -.175E+02 -.347E+00 0.194E+02   0.502E+00 0.270E-02 -.512E+00   -.321E-05 -.645E-06 0.421E-05
   0.172E+02 0.347E+00 0.192E+02   -.175E+02 -.347E+00 -.194E+02   0.502E+00 0.270E-02 0.512E+00   -.321E-05 -.645E-06 -.421E-05
   -.223E+02 0.162E+02 -.115E-08   0.225E+02 -.165E+02 0.284E-13   -.502E+00 0.618E+00 0.332E-24   0.615E-05 -.213E-05 0.171E-12
   0.223E+02 -.162E+02 0.114E-08   -.225E+02 0.165E+02 0.240E-13   0.502E+00 -.618E+00 0.212E-23   -.615E-05 0.213E-05 -.273E-13
   0.162E+02 -.223E+02 -.114E-08   -.165E+02 0.225E+02 0.284E-13   0.618E+00 -.502E+00 0.110E-23   -.213E-05 0.615E-05 0.213E-12
   -.162E+02 0.223E+02 0.115E-08   0.165E+02 -.225E+02 0.284E-13   -.618E+00 0.502E+00 0.347E-24   0.213E-05 -.615E-05 -.551E-13
   0.162E+02 -.223E+02 -.115E-08   -.165E+02 0.225E+02 0.311E-13   0.618E+00 -.502E+00 0.767E-24   -.213E-05 0.615E-05 0.142E-12
   -.162E+02 0.223E+02 0.114E-08   0.165E+02 -.225E+02 0.275E-13   -.618E+00 0.502E+00 0.932E-24   0.213E-05 -.615E-05 -.145E-13
   -.223E+02 0.162E+02 -.114E-08   0.225E+02 -.165E+02 0.284E-13   -.502E+00 0.618E+00 -.738E-24   0.615E-05 -.213E-05 0.154E-12
   0.223E+02 -.162E+02 0.115E-08   -.225E+02 0.165E+02 0.213E-13   0.502E+00 -.618E+00 -.825E-24   -.615E-05 0.213E-05 -.241E-13
   -.347E+00 -.172E+02 0.192E+02   0.347E+00 0.175E+02 -.194E+02   -.270E-02 -.502E+00 0.512E+00   0.645E-06 0.321E-05 -.421E-05
   -.347E+00 -.172E+02 -.192E+02   0.347E+00 0.175E+02 0.194E+02   -.270E-02 -.502E+00 -.512E+00   0.645E-06 0.321E-05 0.421E-05
   0.347E+00 0.172E+02 -.192E+02   -.347E+00 -.175E+02 0.194E+02   0.270E-02 0.502E+00 -.512E+00   -.645E-06 -.321E-05 0.421E-05
   0.347E+00 0.172E+02 0.192E+02   -.347E+00 -.175E+02 -.194E+02   0.270E-02 0.502E+00 0.512E+00   -.645E-06 -.321E-05 -.421E-05
   0.347E+00 0.172E+02 -.192E+02   -.347E+00 -.175E+02 0.194E+02   0.270E-02 0.502E+00 -.512E+00   -.645E-06 -.321E-05 0.421E-05
   0.347E+00 0.172E+02 0.192E+02   -.347E+00 -.175E+02 -.194E+02   0.270E-02 0.502E+00 0.512E+00   -.645E-06 -.321E-05 -.421E-05
   -.347E+00 -.172E+02 0.192E+02   0.347E+00 0.175E+02 -.194E+02   -.270E-02 -.502E+00 0.512E+00   0.645E-06 0.321E-05 -.421E-05
   -.347E+00 -.172E+02 -.192E+02   0.347E+00 0.175E+02 0.194E+02   -.270E-02 -.502E+00 -.512E+00   0.645E-06 0.321E-05 0.421E-05
 -----------------------------------------------------------------------------------------------
   0.140E-10 0.297E-11 -.196E-11   -.113E-12 0.462E-13 -.355E-13   -.222E-15 -.111E-15 -.111E-15   0.945E-13 -.845E-13 -.143E-11


 POSITION                                       TOTAL-FORCE (eV/Angst)
 -----------------------------------------------------------------------------------
      2.93384      2.93384      2.93384        -0.386997     -0.260196      0.000000
      2.93384      2.93384      8.80151         0.386997      0.260196      0.000000
      2.93384      8.80151      2.93384        -0.260196     -0.386997      0.000000
      2.93384      8.80151      8.80151         0.260196      0.386997      0.000000
      8.80151      2.93384      2.93384        -0.260196     -0.386997      0.000000
      8.80151      2.93384      8.80151         0.260196      0.386997      0.000000
      8.80151      8.80151      2.93384        -0.386997     -0.260196      0.000000
      8.80151      8.80151      8.80151         0.386997      0.260196      0.000000
      0.00000      0.00000      0.00000        -0.000000     -0.000000      0.000000
      0.00000      0.00000      5.86768        -0.000000     -0.000000      0.000000
      0.00000      5.86768      0.00000        -0.000000     -0.000000      0.000000
      0.00000      5.86768      5.86768        -0.000000     -0.000000      0.000000
      5.86768      0.00000      0.00000        -0.000000     -0.000000      0.000000
      5.86768      0.00000      5.86768        -0.000000     -0.000000      0.000000
      5.86768      5.86768      0.00000        -0.000000     -0.000000      0.000000
      5.86768      5.86768      5.86768        -0.000000     -0.000000      0.000000
     11.20726      2.93384      0.58677         0.293327      0.003397     -0.276422
     11.20726      2.93384      5.28091         0.293327      0.003397      0.276422
      0.52809      8.80151     11.14858        -0.293327     -0.003397      0.276422
      0.52809      8.80151      6.45444        -0.293327     -0.003397     -0.276422
      6.39577      2.93384     11.14858        -0.293327     -0.003397      0.276422
      6.39577      2.93384      6.45444        -0.293327     -0.003397     -0.276422
      5.33959      8.80151      0.58677         0.293327      0.003397     -0.276422
      5.33959      8.80151      5.28091         0.293327      0.003397      0.276422
      0.58677     11.14858      2.93384        -0.315440      0.375995      0.000000
     11.14858      0.58677      8.80151         0.315440     -0.375995      0.000000
     11.14858      6.45444      2.93384         0.375995     -0.315440      0.000000
      0.58677      5.28091      8.80151        -0.375995      0.315440      0.000000
      5.28091      0.58677      2.93384         0.375995     -0.315440      0.000000
      6.45444     11.14858      8.80151        -0.375995      0.315440      0.000000
      6.45444      5.28091      2.93384        -0.315440      0.375995      0.000000
      5.28091      6.45444      8.80151         0.315440     -0.375995      0.000000
      2.93384      0.52809     11.14858        -0.003397     -0.293327      0.276422
      2.93384      0.52809      6.45444        -0.003397     -0.293327     -0.276422
      2.93384      5.33959      0.58677         0.003397      0.293327     -0.276422
      2.93384      5.33959      5.28091         0.003397      0.293327      0.276422
      8.80151     11.20726      0.58677         0.003397      0.293327     -0.276422
      8.80151     11.20726      5.28091         0.003397      0.293327      0.276422
      8.80151      6.39577     11.14858        -0.003397     -0.293327      0.276422
      8.80151      6.39577      6.45444        -0.003397     -0.293327     -0.276422
 -----------------------------------------------------------------------------------
    total drift:                                0.000000      0.000000     -0.000000


--------------------------------------------------------------------------------------------------------



  FREE ENERGIE OF THE ION-ELECTRON SYSTEM (eV)
  ---------------------------------------------------
  free  energy   TOTEN  =     -1428.16935865 eV

  energy  without entropy=    -1428.16935865  energy(sigma->0) =    -1428.16935865



--------------------------------------------------------------------------------------------------------


    POTLOK:  cpu time    1.4334: real time    1.4335


--------------------------------------------------------------------------------------------------------


 stress matrix after NEB project (eV)
      0.38561     -6.31580      0.00000
     -6.31580      0.38561      0.00000
      0.00000      0.00000     -1.66790
  FORCES: max atom, RMS     0.490790    0.395794
  FORCE total and by dimension    2.503223    0.386997
  Stress total and by dimension    9.102639    6.315804
     LOOP+:  cpu time  358.7521: real time  359.3892
    4ORBIT:  cpu time    0.0000: real time    0.0000



 total charge     

# of ion       s       p       d       tot
------------------------------------------
    1        1.791   4.721   0.028   6.540
    2        1.791   4.721   0.028   6.540
    3        1.791   4.721   0.028   6.540
    4        1.791   4.721   0.028   6.540
    5        1.791   4.721   0.028   6.540
    6        1.791   4.721   0.028   6.540
    7        1.791   4.721   0.028   6.540
    8        1.791   4.721   0.028   6.540
    9        1.554   0.398   9.830  11.782
   10        1.554   0.398   9.830  11.782
   11        1.554   0.398   9.830  11.782
   12        1.554   0.398   9.830  11.782
   13        1.554   0.398   9.830  11.782
   14        1.554   0.398   9.830  11.782
   15        1.554   0.398   9.830  11.782
   16        1.554   0.398   9.830  11.782
   17        1.613   3.300   0.005   4.919
   18        1.613   3.300   0.005   4.919
   19        1.613   3.300   0.005   4.919
   20        1.613   3.300   0.005   4.919
   21        1.613   3.300   0.005   4.919
   22        1.613   3.300   0.005   4.919
   23        1.613   3.300   0.005   4.919
   24        1.613   3.300   0.005   4.919
   25        1.614   3.287   0.006   4.906
   26        1.614   3.287   0.006   4.906
   27        1.614   3.286   0.006   4.906
   28        1.614   3.286   0.006   4.906
   29        1.614   3.286   0.006   4.906
   30        1.614   3.286   0.006   4.906
   31        1.614   3.287   0.006   4.906
   32        1.614   3.287   0.006   4.906
   33        1.615   3.271   0.006   4.892
   34        1.615   3.271   0.006   4.892
   35        1.615   3.271   0.006   4.892
   36        1.615   3.271   0.006   4.892
   37        1.615   3.271   0.006   4.892
   38        1.615   3.271   0.006   4.892
   39        1.615   3.271   0.006   4.892
   40        1.615   3.271   0.006   4.892
--------------------------------------------------
tot         65.498 119.807  78.998 264.303


 total amount of memory used by VASP MPI-rank0    58934. kBytes
=======================================================================

   base      :      30000. kBytes
   nonlr-proj:       6562. kBytes
   fftplans  :       8423. kBytes
   grid      :       7465. kBytes
   one-center:         77. kBytes
   wavefun   :       6407. kBytes

  
  
 General timing and accounting informations for this job:
 ========================================================
  
                  Total CPU time used (sec):      377.523
                            User time (sec):      374.119
                          System time (sec):        3.404
                         Elapsed time (sec):      378.824
  
                   Maximum memory used (kb):      128056.
                   Average memory used (kb):           0.
  
                          Minor page faults:       256992
                          Major page faults:            1
                 Voluntary context switches:         1465
