 vasp.5.4.4.18Apr17-6-g9f103f2a35 (build Jun 22 2020 09:27:21) complex           
 executed on tx2_gcc-7.3_libsci-1 date 2021.02.26  09:04:42
 running on   64 total cores
 distrk:  each k-point on   64 cores,    1 groups
 distr:  one band on NCORES_PER_BAND=   8 cores,    8 groups


--------------------------------------------------------------------------------------------------------


 INCAR:
 POTCAR:    PAW_PBE Cs_sv 08Apr2002               
 POTCAR:    PAW_PBE Pb_d 06Sep2000                
 POTCAR:    PAW_PBE Br 06Sep2000                  
 POTCAR:    PAW_PBE Cs_sv 08Apr2002               
   SHA256 =  c1463496f0f6037ed62c6012a8013a89ee9ad6ffb38599dcd6c079e7ed31779b Cs
   COPYR  = (c) Copyright 08Apr2002 Georg Kresse                                
   COPYR  = This file is part of the software VASP. Any use, copying, and all ot
   COPYR  = If you do not have a valid VASP license, you may not use, copy or di
   VRHFIN =Cs: 5s5p6s                                                           
   LEXCH  = PE                                                                  
   EATOM  =   555.6835 eV,   40.8416 Ry                                         
                                                                                
   TITEL  = PAW_PBE Cs_sv 08Apr2002                                             
   LULTRA =        F    use ultrasoft PP ?                                      
   IUNSCR =        1    unscreen: 0-lin 1-nonlin 2-no                           
   RPACOR =    2.200    partial core radius                                     
   POMASS =  132.900; ZVAL   =    9.000    mass and valenz                      
   RCORE  =    2.500    outmost cutoff radius                                   
   RWIGS  =    2.500; RWIGS  =    1.323    wigner-seitz radius (au A)           
   ENMAX  =  220.318; ENMIN  =  165.238 eV                                      
   RCLOC  =    2.207    cutoff for local pot                                    
   LCOR   =        T    correct aug charges                                     
   LPAW   =        T    paw PP                                                  
   EAUG   =  407.933                                                            
   DEXC   =    0.000                                                            
   RMAX   =    2.554    core radius for proj-oper                               
   RAUG   =    1.300    factor for augmentation sphere                          
   RDEP   =    2.590    radius for radial grids                                 
   RDEPT  =    2.117    core radius for aug-charge                              
                                                                                
   Atomic configuration                                                         
   13 entries                                                                   
     n  l   j            E        occ.                                          
     1  0  0.50    -35790.1377   2.0000                                         
     2  0  0.50     -5613.6201   2.0000                                         
     2  1  1.50     -5035.0101   6.0000                                         
     3  0  0.50     -1167.0767   2.0000                                         
     3  1  1.50      -980.9754   6.0000                                         
     3  2  2.50      -708.0703  10.0000                                         
     4  0  0.50      -220.2386   2.0000                                         
     4  1  1.50      -160.7596   6.0000                                         
     4  2  2.50       -74.2354  10.0000                                         
     5  0  0.50       -26.7287   2.0000                                         
     6  0  0.50        -2.0862   1.0000                                         
     5  1  1.50       -13.5159   6.0000                                         
     5  2  2.50        -0.4136   0.0000                                         
   Description                                                                  
     l       E           TYP  RCUT    TYP  RCUT                                 
     0    -26.7287425     23  1.900                                             
     0     -2.0862306     23  1.900                                             
     1    -13.5158719     23  2.500                                             
     1     -2.7211652     23  2.500                                             
     2     -0.4136171     23  2.500                                             
  local pseudopotential read in
  partial core-charges read in
  partial kinetic energy density read in
  atomic valenz-charges read in
  non local Contribution for L=           0  read in
    real space projection operators read in
  non local Contribution for L=           0  read in
    real space projection operators read in
  non local Contribution for L=           1  read in
    real space projection operators read in
  non local Contribution for L=           1  read in
    real space projection operators read in
  non local Contribution for L=           2  read in
    real space projection operators read in
    PAW grid and wavefunctions read in

   number of l-projection  operators is LMAX  =           5
   number of lm-projection operators is LMMAX =          13

 POTCAR:    PAW_PBE Pb_d 06Sep2000                
   SHA256 =  fb885b08f0fba73a15f6a6b0e39bd200c13ec96ef97cf3ecd8e63bade5137abd Pb
   COPYR  = (c) Copyright 06Sep2000 Georg Kresse                                
   COPYR  = This file is part of the software VASP. Any use, copying, and all ot
   COPYR  = If you do not have a valid VASP license, you may not use, copy or di
   VRHFIN =Pb:                                                                  
   LEXCH  = PE                                                                  
   EATOM  =  1661.6185 eV,  122.1255 Ry                                         
                                                                                
   TITEL  = PAW_PBE Pb_d 06Sep2000                                              
   LULTRA =        F    use ultrasoft PP ?                                      
   IUNSCR =        1    unscreen: 0-lin 1-nonlin 2-no                           
   RPACOR =    2.200    partial core radius                                     
   POMASS =  207.200; ZVAL   =   14.000    mass and valenz                      
   RCORE  =    2.500    outmost cutoff radius                                   
   RWIGS  =    3.260; RWIGS  =    1.725    wigner-seitz radius (au A)           
   ENMAX  =  237.835; ENMIN  =  178.376 eV                                      
   ICORE  =        3    local potential                                         
   LCOR   =        T    correct aug charges                                     
   LPAW   =        T    paw PP                                                  
   EAUG   =  391.914                                                            
   DEXC   =    0.000                                                            
   RMAX   =    2.565    core radius for proj-oper                               
   RAUG   =    1.300    factor for augmentation sphere                          
   RDEP   =    2.643    radius for radial grids                                 
   RDEPT  =    2.092    core radius for aug-charge                              
                                                                                
   Atomic configuration                                                         
   16 entries                                                                   
     n  l   j            E        occ.                                          
     1  0  0.50    -88091.8466   2.0000                                         
     2  0  0.50    -15753.4197   2.0000                                         
     2  1  1.50    -13508.1797   6.0000                                         
     3  0  0.50     -3781.7194   2.0000                                         
     3  1  1.50     -3138.2529   6.0000                                         
     3  2  2.50     -2483.2977  10.0000                                         
     4  0  0.50      -856.2895   2.0000                                         
     4  1  1.50      -645.4942   6.0000                                         
     4  2  2.50      -401.8768  10.0000                                         
     4  3  3.50      -132.9059  14.0000                                         
     5  0  0.50      -144.0950   2.0000                                         
     5  1  1.50       -85.7879   6.0000                                         
     5  2  2.50       -21.1769  10.0000                                         
     6  0  0.50       -12.0372   2.0000                                         
     6  1  1.50        -3.4971   2.0000                                         
     5  3  2.50        -2.7212   0.0000                                         
   Description                                                                  
     l       E           TYP  RCUT    TYP  RCUT                                 
     2    -21.1768523     23  2.500                                             
     2      1.3605826     23  2.500                                             
     0    -12.0371562     23  2.500                                             
     0     13.6058260     23  2.500                                             
     1     -3.4971339     23  2.500                                             
     1     13.6058260     23  2.500                                             
     3     -1.3605826      7  2.500                                             
  local pseudopotential read in
  partial core-charges read in
  partial kinetic energy density read in
  atomic valenz-charges read in
  non local Contribution for L=           2  read in
    real space projection operators read in
  non local Contribution for L=           2  read in
    real space projection operators read in
  non local Contribution for L=           0  read in
    real space projection operators read in
  non local Contribution for L=           0  read in
    real space projection operators read in
  non local Contribution for L=           1  read in
    real space projection operators read in
  non local Contribution for L=           1  read in
    real space projection operators read in
    PAW grid and wavefunctions read in

   number of l-projection  operators is LMAX  =           6
   number of lm-projection operators is LMMAX =          18

 POTCAR:    PAW_PBE Br 06Sep2000                  
   SHA256 =  96a73d2954943bbee26f4990d676cc6c3bf44b8dd2c75cd4b3b825d8403f0103 Br
   COPYR  = (c) Copyright 06Sep2000 Georg Kresse                                
   COPYR  = This file is part of the software VASP. Any use, copying, and all ot
   COPYR  = If you do not have a valid VASP license, you may not use, copy or di
   VRHFIN =Br: s2p5                                                             
   LEXCH  = PE                                                                  
   EATOM  =   368.4488 eV,   27.0802 Ry                                         
                                                                                
   TITEL  = PAW_PBE Br 06Sep2000                                                
   LULTRA =        F    use ultrasoft PP ?                                      
   IUNSCR =        1    unscreen: 0-lin 1-nonlin 2-no                           
   RPACOR =    1.900    partial core radius                                     
   POMASS =   79.904; ZVAL   =    7.000    mass and valenz                      
   RCORE  =    2.100    outmost cutoff radius                                   
   RWIGS  =    2.200; RWIGS  =    1.164    wigner-seitz radius (au A)           
   ENMAX  =  216.285; ENMIN  =  162.214 eV                                      
   ICORE  =        3    local potential                                         
   LCOR   =        T    correct aug charges                                     
   LPAW   =        T    paw PP                                                  
   EAUG   =  503.852                                                            
   DEXC   =    0.000                                                            
   RMAX   =    2.139    core radius for proj-oper                               
   RAUG   =    1.300    factor for augmentation sphere                          
   RDEP   =    2.186    radius for radial grids                                 
   RDEPT  =    1.890    core radius for aug-charge                              
                                                                                
   Atomic configuration                                                         
   10 entries                                                                   
     n  l   j            E        occ.                                          
     1  0  0.50    -13316.2796   2.0000                                         
     2  0  0.50     -1732.8239   2.0000                                         
     2  1  1.50     -1528.2193   6.0000                                         
     3  0  0.50      -238.0460   2.0000                                         
     3  1  1.50      -173.4609   6.0000                                         
     3  2  2.50       -66.7132  10.0000                                         
     4  0  0.50       -20.1334   2.0000                                         
     4  1  0.50        -7.8591   5.0000                                         
     4  2  2.50        -8.1635   0.0000                                         
     4  3  2.50        -8.1635   0.0000                                         
   Description                                                                  
     l       E           TYP  RCUT    TYP  RCUT                                 
     0    -20.1333652     23  2.100                                             
     0    -21.4939478     23  2.100                                             
     1     -7.8591052     23  2.100                                             
     1     -3.1608434     23  2.100                                             
     2     -8.1634956     23  2.100                                             
     3     -1.3605826      7  2.100                                             
  local pseudopotential read in
  partial core-charges read in
  partial kinetic energy density read in
  atomic valenz-charges read in
  non local Contribution for L=           0  read in
    real space projection operators read in
  non local Contribution for L=           0  read in
    real space projection operators read in
  non local Contribution for L=           1  read in
    real space projection operators read in
  non local Contribution for L=           1  read in
    real space projection operators read in
  non local Contribution for L=           2  read in
    real space projection operators read in
    PAW grid and wavefunctions read in

   number of l-projection  operators is LMAX  =           5
   number of lm-projection operators is LMMAX =          13

 Optimization of the real space projectors (new method)

 maximal supplied QI-value         = 15.12
 optimisation between [QCUT,QGAM] = [  8.77, 17.69] = [ 21.53, 87.61] Ry 
 Optimized for a Real-space Cutoff    1.85 Angstroem

   l    n(q)    QCUT    max X(q) W(low)/X(q) W(high)/X(q)  e(spline) 
   0     10     8.768    25.322    0.81E-04    0.51E-04    0.48E-06
   0     10     8.768    99.187    0.78E-04    0.50E-04    0.47E-06
   1      9     8.768    11.761    0.21E-03    0.20E-03    0.37E-06
   1      9     8.768     8.275    0.24E-03    0.22E-03    0.41E-06
   2      9     8.768     3.829    0.23E-04    0.15E-03    0.18E-06
 Optimization of the real space projectors (new method)

 maximal supplied QI-value         = 15.12
 optimisation between [QCUT,QGAM] = [  8.77, 17.69] = [ 21.53, 87.61] Ry 
 Optimized for a Real-space Cutoff    1.59 Angstroem

   l    n(q)    QCUT    max X(q) W(low)/X(q) W(high)/X(q)  e(spline) 
   2      7     8.768     3.846    0.48E-04    0.11E-03    0.11E-06
   2      7     8.768     8.593    0.20E-03    0.22E-04    0.24E-06
   0      8     8.768    20.082    0.68E-04    0.88E-04    0.41E-07
   0      8     8.768     8.597    0.89E-04    0.13E-03    0.59E-07
   1      8     8.768    33.223    0.15E-03    0.53E-04    0.87E-07
   1      8     8.768    15.899    0.14E-03    0.44E-04    0.78E-07
 Optimization of the real space projectors (new method)

 maximal supplied QI-value         = 17.95
 optimisation between [QCUT,QGAM] = [  8.80, 17.59] = [ 21.67, 86.68] Ry 
 Optimized for a Real-space Cutoff    1.59 Angstroem

   l    n(q)    QCUT    max X(q) W(low)/X(q) W(high)/X(q)  e(spline) 
   0      8     8.797   175.082    0.82E-04    0.14E-03    0.89E-07
   0      8     8.797   174.004    0.79E-04    0.14E-03    0.86E-07
   1      8     8.797    54.315    0.16E-03    0.14E-04    0.30E-06
   1      8     8.797    42.441    0.16E-03    0.14E-04    0.30E-06
   2      7     8.797     3.596    0.92E-04    0.15E-03    0.85E-07
  PAW_PBE Cs_sv 08Apr2002               :
 energy of atom  1       EATOM= -555.6835
 kinetic energy error for atom=    0.0069 (will be added to EATOM!!)
  PAW_PBE Pb_d 06Sep2000                :
 energy of atom  2       EATOM=-1661.6185
 kinetic energy error for atom=    0.0498 (will be added to EATOM!!)
  PAW_PBE Br 06Sep2000                  :
 energy of atom  3       EATOM= -368.4488
 kinetic energy error for atom=    0.0072 (will be added to EATOM!!)


 POSCAR: Cs7 Pb8 Br24                            
  positions in direct lattice
  No initial velocities read in

 METAGGA = SCAN     LMAXTAU =  6    LMIXTAU =  F

 exchange correlation table for  LEXCH =        8
   RHO(1)=    0.500       N(1)  =     2000
   RHO(2)=  100.500       N(2)  =     4000

 VTST: version 3.2, (02/03/18)

 CHAIN: initializing optimizer
 
 OPT: Using VASP Conjugate-Gradient optimizer
 CHAIN: Read ICHAIN            0

 POSCAR: Cs7 Pb8 Br24                            
  positions in direct lattice
  No initial velocities read in



--------------------------------------------------------------------------------------------------------


 ion  position               nearest neighbor table
   1  0.272  0.250  0.208-
   2  0.772  0.250  0.708-
   3  0.708  0.750  0.272-
   4  0.208  0.750  0.772-
   5  0.292  0.250  0.728-
   6  0.728  0.750  0.792-
   7  0.228  0.750  0.292-
   8  0.000  0.000  0.000-  18 2.99  20 2.99  29 3.00  35 3.00  32 3.01  30 3.01
   9  0.500  0.000  0.500-  19 2.99  21 2.99  28 3.00  34 3.00  33 3.01  31 3.01
  10  0.500  0.000  0.000-  16 2.99  22 2.99  30 3.00  32 3.00  28 3.01  34 3.01
  11  0.000  0.000  0.500-  17 2.99  23 2.99  31 3.00  33 3.00  29 3.01  35 3.01
  12  0.500  0.500  0.000-  16 2.99  22 2.99  24 3.00  36 3.00  26 3.01  38 3.01
  13  0.000  0.500  0.500-  17 2.99  23 2.99  25 3.00  37 3.00  27 3.01  39 3.01
  14  0.000  0.500  0.000-  18 2.99  20 2.99  27 3.00  39 3.00  36 3.01  24 3.01
  15  0.500  0.500  0.500-  19 2.99  21 2.99  26 3.00  38 3.00  37 3.01  25 3.01
  16  0.469  0.750  0.963-  10 2.99  12 2.99
  17  0.969  0.750  0.463-  11 2.99  13 2.99
  18  0.963  0.250  0.969-   8 2.99  14 2.99
  19  0.463  0.250  0.469-   9 2.99  15 2.99
  20  0.037  0.750  0.031-   8 2.99  14 2.99
  21  0.537  0.750  0.531-   9 2.99  15 2.99
  22  0.531  0.250  0.037-  10 2.99  12 2.99
  23  0.031  0.250  0.537-  11 2.99  13 2.99
  24  0.248  0.466  0.949-  12 3.00  14 3.01
  25  0.748  0.466  0.449-  13 3.00  15 3.01
  26  0.449  0.534  0.248-  15 3.00  12 3.01
  27  0.949  0.534  0.748-  14 3.00  13 3.01
  28  0.551  0.034  0.752-   9 3.00  10 3.01
  29  0.051  0.034  0.252-   8 3.00  11 3.01
  30  0.752  0.966  0.051-  10 3.00   8 3.01
  31  0.252  0.966  0.551-  11 3.00   9 3.01
  32  0.248  0.034  0.949-  10 3.00   8 3.01
  33  0.748  0.034  0.449-  11 3.00   9 3.01
  34  0.449  0.966  0.248-   9 3.00  10 3.01
  35  0.949  0.966  0.748-   8 3.00  11 3.01
  36  0.752  0.534  0.051-  12 3.00  14 3.01
  37  0.252  0.534  0.551-  13 3.00  15 3.01
  38  0.551  0.466  0.752-  15 3.00  12 3.01
  39  0.051  0.466  0.252-  14 3.00  13 3.01


IMPORTANT INFORMATION: All symmetrisations will be switched off!
NOSYMM: (Re-)initialisation of all symmetry stuff for point group C_1.



 KPOINTS: 1x1x1                                   

Automatic generation of k-mesh.
Space group operators:
 irot       det(A)        alpha          n_x          n_y          n_z        tau_x        tau_y        tau_z
    1     1.000000     0.000000     1.000000     0.000000     0.000000     0.000000     0.000000     0.000000
 
 Subroutine IBZKPT returns following result:
 ===========================================
 
 Found      8 irreducible k-points:
 
 Following reciprocal coordinates:
            Coordinates               Weight
  0.000000  0.000000  0.000000      1.000000
  0.500000  0.000000  0.000000      1.000000
  0.000000  0.500000  0.000000      1.000000
  0.500000  0.500000  0.000000      1.000000
  0.000000  0.000000  0.500000      1.000000
  0.500000  0.000000  0.500000      1.000000
  0.000000  0.500000  0.500000      1.000000
  0.500000  0.500000  0.500000      1.000000
 
 Following cartesian coordinates:
            Coordinates               Weight
  0.000000  0.000000  0.000000      1.000000
  0.029691  0.000000  0.030948      1.000000
  0.000000  0.042503  0.000000      1.000000
  0.029691  0.042503  0.030948      1.000000
 -0.029691  0.000000  0.030948      1.000000
  0.000000  0.000000  0.061897      1.000000
 -0.029691  0.042503  0.030948      1.000000
  0.000000  0.042503  0.061897      1.000000
 


--------------------------------------------------------------------------------------------------------




 Dimension of arrays:
   k-points           NKPTS =      8   k-points in BZ     NKDIM =      8   number of bands    NBANDS=    208
   number of dos      NEDOS =    301   number of ions     NIONS =     39
   non local maximal  LDIM  =      6   non local SUM 2l+1 LMDIM =     18
   total plane-waves  NPLWV = 343000
   max r-space proj   IRMAX =   5716   max aug-charges    IRDMAX=  91227
   dimension x,y,z NGX =    70 NGY =   70 NGZ =   70
   dimension x,y,z NGXF=   140 NGYF=  140 NGZF=  140
   support grid    NGXF=   280 NGYF=  280 NGZF=  280
   ions per type =               7   8  24
   NGX,Y,Z   is equivalent  to a cutoff of   9.97,  9.89,  9.97 a.u.
   NGXF,Y,Z  is equivalent  to a cutoff of  19.95, 19.78, 19.95 a.u.

 SYSTEM =  CsPbBr3 cubic bulk                      
 POSCAR =  Cs7 Pb8 Br24                            

 Startparameter for this run:
   NWRITE =      2    write-flag & timer
   PREC   = accura    normal or accurate (medium, high low for compatibility)
   ISTART =      0    job   : 0-new  1-cont  2-samecut
   ICHARG =      2    charge: 1-file 2-atom 10-const
   ISPIN  =      1    spin polarized calculation?
   LNONCOLLINEAR =      F non collinear calculations
   LSORBIT =      F    spin-orbit coupling
   INIWAV =      1    electr: 0-lowe 1-rand  2-diag
   LASPH  =      T    aspherical Exc in radial PAW
   METAGGA=      F    non-selfconsistent MetaGGA calc.

 Electronic Relaxation 1
   ENCUT  =  300.0 eV  22.05 Ry    4.70 a.u.  16.48 16.61 16.48*2*pi/ulx,y,z
   ENINI  =  300.0     initial cutoff
   ENAUG  =  503.9 eV  augmentation charge cutoff
   NELM   =    200;   NELMIN=  2; NELMDL= -5     # of ELM steps 
   EDIFF  = 0.1E-05   stopping-criterion for ELM
   LREAL  =      T    real-space projection
   NLSPLINE    = F    spline interpolate recip. space projectors
   LCOMPAT=      F    compatible to vasp.4.4
   GGA_COMPAT  = T    GGA compatible to vasp.4.4-vasp.4.6
   LMAXPAW     = -100 max onsite density
   LMAXMIX     =    2 max onsite mixed and CHGCAR
   VOSKOWN=      0    Vosko Wilk Nusair interpolation
   ROPT   =   -0.00025  -0.00025  -0.00025
 Ionic relaxation
   EDIFFG = -.1E-01   stopping-criterion for IOM
   NSW    =    150    number of steps for IOM
   NBLOCK =      1;   KBLOCK =    150    inner block; outer block 
   IBRION =      2    ionic relax: 0-MD 1-quasi-New 2-CG
   NFREE  =      1    steps in history (QN), initial steepest desc. (CG)
   ISIF   =      2    stress and relaxation
   IWAVPR =     11    prediction:  0-non 1-charg 2-wave 3-comb
   ISYM   =      0    0-nonsym 1-usesym 2-fastsym
   LCORR  =      T    Harris-Foulkes like correction to forces

   POTIM  = 0.5000    time-step for ionic-motion
   TEIN   =    0.0    initial temperature
   TEBEG  =    0.0;   TEEND  =   0.0 temperature during run
   SMASS  =  -3.00    Nose mass-parameter (am)
   estimated Nose-frequenzy (Omega)   =  0.10E-29 period in steps =****** mass=  -0.311E-26a.u.
   SCALEE = 1.0000    scale energy and forces
   NPACO  =    256;   APACO  = 16.0  distance and # of slots for P.C.
   PSTRESS=    0.0 pullay stress

  Mass of Ions in am
   POMASS = 132.90207.20 79.90
  Ionic Valenz
   ZVAL   =   9.00 14.00  7.00
  Atomic Wigner-Seitz radii
   RWIGS  =  -1.00 -1.00 -1.00
  virtual crystal weights 
   VCA    =   1.00  1.00  1.00
   NELECT =     344.0000    total number of electrons
   NUPDOWN=       0.0000    fix difference up-down

 DOS related values:
   EMIN   =  10.00;   EMAX   =-10.00  energy-range for DOS
   EFERMI =   0.00
   ISMEAR =     0;   SIGMA  =   0.01  broadening in eV -4-tet -1-fermi 0-gaus

 Electronic relaxation 2 (details)
   IALGO  =     38    algorithm
   LDIAG  =      T    sub-space diagonalisation (order eigenvalues)
   LSUBROT=      F    optimize rotation matrix (better conditioning)
   TURBO    =      0    0=normal 1=particle mesh
   IRESTART =      0    0=no restart 2=restart with 2 vectors
   NREBOOT  =      0    no. of reboots
   NMIN     =      0    reboot dimension
   EREF     =   0.00    reference energy to select bands
   IMIX   =      4    mixing-type and parameters
     AMIX     =   0.40;   BMIX     =  1.00
     AMIX_MAG =   1.60;   BMIX_MAG =  1.00
     AMIN     =   0.10
     WC   =   100.;   INIMIX=   1;  MIXPRE=   1;  MAXMIX= -45

 Intra band minimization:
   WEIMIN = 0.0010     energy-eigenvalue tresh-hold
   EBREAK =  0.12E-08  absolut break condition
   DEPER  =   0.30     relativ break condition  

   TIME   =   0.40     timestep for ELM

  volume/ion in A,a.u.               =      41.03       276.90
  Fermi-wavevector in a.u.,A,eV,Ry     =   0.980685  1.853227 13.085320  0.961744
  Thomas-Fermi vector in A             =   2.111635

 Write flags
   LWAVE        =      F    write WAVECAR
   LDOWNSAMPLE  =      F    k-point downsampling of WAVECAR
   LCHARG       =      F    write CHGCAR
   LVTOT        =      F    write LOCPOT, total local potential
   LVHAR        =      T    write LOCPOT, Hartree potential only
   LELF         =      F    write electronic localiz. function (ELF)
   LORBIT       =     10    0 simple, 1 ext, 2 COOP (PROOUT), +10 PAW based schemes


 Dipole corrections
   LMONO  =      F    monopole corrections only (constant potential shift)
   LDIPOL =      F    correct potential (dipole corrections)
   IDIPOL =      0    1-x, 2-y, 3-z, 4-all directions 
   EPSILON=  1.0000000 bulk dielectric constant

 Exchange correlation treatment:
   GGA     =    --    GGA type
   LEXCH   =     8    internal setting for exchange type
   VOSKOWN=      0    Vosko Wilk Nusair interpolation
   LHFCALC =     F    Hartree Fock is set to
   LHFONE  =     F    Hartree Fock one center treatment
   AEXX    =    0.0000 exact exchange contribution

 Linear response parameters
   LEPSILON=     F    determine dielectric tensor
   LRPA    =     F    only Hartree local field effects (RPA)
   LNABLA  =     F    use nabla operator in PAW spheres
   LVEL    =     F    velocity operator in full k-point grid
   LINTERFAST=   F  fast interpolation
   KINTER  =     0    interpolate to denser k-point grid
   CSHIFT  =0.1000    complex shift for real part using Kramers Kronig
   OMEGAMAX=  -1.0    maximum frequency
   DEG_THRESHOLD= 0.2000000E-02 threshold for treating states as degnerate
   RTIME   =   -0.100 relaxation time in fs
  (WPLASMAI=    0.000 imaginary part of plasma frequency in eV, 0.658/RTIME)
   DFIELD  = 0.0000000 0.0000000 0.0000000 field for delta impulse in time

 Orbital magnetization related:
   ORBITALMAG=     F  switch on orbital magnetization
   LCHIMAG   =     F  perturbation theory with respect to B field
   DQ        =  0.001000  dq finite difference perturbation B field
   LLRAUG    =     F  two centre corrections for induced B field



--------------------------------------------------------------------------------------------------------


 conjugate gradient relaxation of ions
 charge density and potential will be updated during run
 non-spin polarized calculation
 Variant of blocked Davidson
 Davidson routine will perform the subspace rotation
 perform sub-space diagonalisation
    after iterative eigenvector-optimisation
 modified Broyden-mixing scheme, WC =      100.0
 initial mixing is a Kerker type mixing with AMIX =  0.4000 and BMIX =      1.0000
 Hartree-type preconditioning will be used
 using additional bands           36
 real space projection scheme for non local part
 use partial core corrections
 calculate Harris-corrections to forces   (improved forces if not selfconsistent)
 use gradient corrections 
 use of overlap-Matrix (Vanderbilt PP)
 Gauss-broadening in eV      SIGMA  =   0.01


--------------------------------------------------------------------------------------------------------


  energy-cutoff  :      300.00
  volume of cell :     1600.27
      direct lattice vectors                 reciprocal lattice vectors
     8.420018000  0.000000000  8.077981000     0.059382296 -0.000000000  0.061896655
     0.000000000 11.763808000  0.000000000     0.000000000  0.085006488 -0.000000000
    -8.420018000  0.000000000  8.077981000    -0.059382296  0.000000000  0.061896655

  length of vectors
    11.668353789 11.763808000 11.668353789     0.085775596  0.085006488  0.085775596



 k-points in units of 2pi/SCALE and weight: 1x1x1                                   
   0.00000000  0.00000000  0.00000000       0.125
   0.02969115  0.00000000  0.03094833       0.125
   0.00000000  0.04250324  0.00000000       0.125
   0.02969115  0.04250324  0.03094833       0.125
  -0.02969115  0.00000000  0.03094833       0.125
   0.00000000  0.00000000  0.06189665       0.125
  -0.02969115  0.04250324  0.03094833       0.125
   0.00000000  0.04250324  0.06189665       0.125

 k-points in reciprocal lattice and weights: 1x1x1                                   
   0.00000000  0.00000000  0.00000000       0.125
   0.50000000  0.00000000  0.00000000       0.125
   0.00000000  0.50000000  0.00000000       0.125
   0.50000000  0.50000000  0.00000000       0.125
   0.00000000  0.00000000  0.50000000       0.125
   0.50000000  0.00000000  0.50000000       0.125
   0.00000000  0.50000000  0.50000000       0.125
   0.50000000  0.50000000  0.50000000       0.125

 position of ions in fractional coordinates (direct lattice) 
   0.27212500  0.25000000  0.20823600
   0.77212500  0.25000000  0.70823600
   0.70823600  0.75000000  0.27212500
   0.20823600  0.75000000  0.77212500
   0.29176400  0.25000000  0.72787500
   0.72787500  0.75000000  0.79176400
   0.22787500  0.75000000  0.29176400
   0.00000000  0.00000000  0.00000000
   0.50000000  0.00000000  0.50000000
   0.50000000  0.00000000  0.00000000
   0.00000000  0.00000000  0.50000000
   0.50000000  0.50000000  0.00000000
   0.00000000  0.50000000  0.50000000
   0.00000000  0.50000000  0.00000000
   0.50000000  0.50000000  0.50000000
   0.46927400  0.75000000  0.96298100
   0.96927400  0.75000000  0.46298100
   0.96298100  0.25000000  0.96927400
   0.46298100  0.25000000  0.46927400
   0.03701900  0.75000000  0.03072600
   0.53701900  0.75000000  0.53072600
   0.53072600  0.25000000  0.03701900
   0.03072600  0.25000000  0.53701900
   0.24818000  0.46553700  0.94926100
   0.74818000  0.46553700  0.44926100
   0.44926100  0.53446300  0.24818000
   0.94926100  0.53446300  0.74818000
   0.55073900  0.03446300  0.75182000
   0.05073900  0.03446300  0.25182000
   0.75182000  0.96553700  0.05073900
   0.25182000  0.96553700  0.55073900
   0.24818000  0.03446300  0.94926100
   0.74818000  0.03446300  0.44926100
   0.44926100  0.96553700  0.24818000
   0.94926100  0.96553700  0.74818000
   0.75182000  0.53446300  0.05073900
   0.25182000  0.53446300  0.55073900
   0.55073900  0.46553700  0.75182000
   0.05073900  0.46553700  0.25182000

 position of ions in cartesian coordinates  (Angst):
   0.53794653  2.94095200  3.88034703
   0.53794653  2.94095200 11.95832803
   3.67206247  8.82285600  7.91933753
  -4.74795553  8.82285600  7.91933753
  -3.67206247  2.94095200  8.23662447
  -0.53794653  8.82285600 12.27561497
  -0.53794653  8.82285600  4.19763397
   0.00000000  0.00000000  0.00000000
   0.00000000  0.00000000  8.07798100
   4.21000900  0.00000000  4.03899050
  -4.21000900  0.00000000  4.03899050
   4.21000900  5.88190400  4.03899050
  -4.21000900  5.88190400  4.03899050
   0.00000000  5.88190400  0.00000000
   0.00000000  5.88190400  8.07798100
  -4.15702183  8.82285600 11.56972868
   4.26299617  8.82285600 11.56972868
  -0.05298717  2.94095200 15.60871918
  -0.05298717  2.94095200  7.53073818
   0.05298717  8.82285600  0.54724282
   0.05298717  8.82285600  8.62522382
   4.15702183  2.94095200  4.58623332
  -4.26299617  2.94095200  4.58623332
  -5.90311464  5.47648788  9.67290565
   2.51690336  5.47648788  9.67290565
   1.69310564  6.28732012  5.63391515
   1.69310564  6.28732012 13.71189615
  -1.69310564  0.40541612 10.52204685
  -1.69310564  0.40541612  2.44406585
   5.90311464 11.35839188  6.48305635
  -2.51690336 11.35839188  6.48305635
  -5.90311464  0.40541612  9.67290565
   2.51690336  0.40541612  9.67290565
   1.69310564 11.35839188  5.63391515
   1.69310564 11.35839188 13.71189615
   5.90311464  6.28732012  6.48305635
  -2.51690336  6.28732012  6.48305635
  -1.69310564  5.47648788 10.52204685
  -1.69310564  5.47648788  2.44406585



--------------------------------------------------------------------------------------------------------


 k-point  1 :   0.0000 0.0000 0.0000  plane waves:   18901
 k-point  2 :   0.5000 0.0000 0.0000  plane waves:   18892
 k-point  3 :   0.0000 0.5000 0.0000  plane waves:   18858
 k-point  4 :   0.5000 0.5000 0.0000  plane waves:   18900
 k-point  5 :   0.0000 0.0000 0.5000  plane waves:   18892
 k-point  6 :   0.5000 0.0000 0.5000  plane waves:   18810
 k-point  7 :   0.0000 0.5000 0.5000  plane waves:   18900
 k-point  8 :   0.5000 0.5000 0.5000  plane waves:   18888

 maximum and minimum number of plane-waves per node :      2391     2328

 maximum number of plane-waves:     18901
 maximum index in each direction: 
   IXMAX=   16   IYMAX=   16   IZMAX=   16
   IXMIN=  -16   IYMIN=  -17   IZMIN=  -16


 real space projection operators:
  total allocation   :      16468.42 KBytes
  max/ min on nodes  :       2152.39       1784.78


 parallel 3D FFT for wavefunctions:
    minimum data exchange during FFTs selected (reduces bandwidth)
 parallel 3D FFT for charge:
    minimum data exchange during FFTs selected (reduces bandwidth)


 total amount of memory used by VASP MPI-rank0    60515. kBytes
=======================================================================

   base      :      30000. kBytes
   nonlr-proj:       6404. kBytes
   fftplans  :       8423. kBytes
   grid      :       7465. kBytes
   one-center:         77. kBytes
   wavefun   :       8146. kBytes

     INWAV:  cpu time    0.0000: real time    0.0000
 Broyden mixing: mesh for mixing (old mesh)
   NGX = 33   NGY = 33   NGZ = 33
  (NGX  =140   NGY  =140   NGZ  =140)
  gives a total of  35937 points

 initial charge density was supplied:
 charge density of overlapping atoms calculated
 number of electron     343.0000000 magnetization 
 keeping initial charge density in first step


--------------------------------------------------------------------------------------------------------


 Maximum index for non-local projection operator          728
 Maximum index for augmentation-charges         2982 (set IRDMAX)


--------------------------------------------------------------------------------------------------------


 First call to EWALD:  gamma=   0.152
 Maximum number of real-space cells 3x 3x 3
 Maximum number of reciprocal cells 3x 3x 3

    FEWALD:  cpu time    0.0039: real time    0.0039


--------------------------------------- Iteration      1(   1)  ---------------------------------------


    POTLOK:  cpu time    0.2596: real time    0.2802
    SETDIJ:  cpu time    1.2105: real time    1.2106
     EDDAV:  cpu time   16.8572: real time   16.8619
       DOS:  cpu time    0.0008: real time    0.0008
    --------------------------------------------
      LOOP:  cpu time   18.3282: real time   18.3535

 eigenvalue-minimisations  :  3504
 total energy-change (2. order) : 0.1352011E+04  (-0.1105507E+05)
 number of electron     343.0000000 magnetization 
 augmentation part      343.0000000 magnetization 

 Free energy of the ion-electron system (eV)
  ---------------------------------------------------
  alpha Z        PSCENC =       835.99855037
  Ewald energy   TEWEN  =    -17566.86205900
  -Hartree energ DENC   =     -7568.11931887
  -exchange      EXHF   =         0.00000000
  -V(xc)+E(xc)   XCENC  =       905.08769171
  PAW double counting   =     21217.07306836   -22257.58625956
  entropy T*S    EENTRO =        -0.00106919
  eigenvalues    EBANDS =      -238.46342045
  atomic energy  EATOM  =     26024.88362379
  Solvation  Ediel_sol  =         0.00000000
  ---------------------------------------------------
  free energy    TOTEN  =      1352.01080715 eV

  energy without entropy =     1352.01187635  energy(sigma->0) =     1352.01134175


--------------------------------------------------------------------------------------------------------




--------------------------------------- Iteration      1(   2)  ---------------------------------------


     EDDAV:  cpu time   18.5919: real time   18.6521
       DOS:  cpu time    0.0004: real time    0.0004
    --------------------------------------------
      LOOP:  cpu time   18.5923: real time   18.6526

 eigenvalue-minimisations  :  4112
 total energy-change (2. order) :-0.2445291E+04  (-0.2368872E+04)
 number of electron     343.0000000 magnetization 
 augmentation part      343.0000000 magnetization 

 Free energy of the ion-electron system (eV)
  ---------------------------------------------------
  alpha Z        PSCENC =       835.99855037
  Ewald energy   TEWEN  =    -17566.86205900
  -Hartree energ DENC   =     -7568.11931887
  -exchange      EXHF   =         0.00000000
  -V(xc)+E(xc)   XCENC  =       905.08769171
  PAW double counting   =     21217.07306836   -22257.58625956
  entropy T*S    EENTRO =        -0.00000000
  eigenvalues    EBANDS =     -2683.75566051
  atomic energy  EATOM  =     26024.88362379
  Solvation  Ediel_sol  =         0.00000000
  ---------------------------------------------------
  free energy    TOTEN  =     -1093.28036371 eV

  energy without entropy =    -1093.28036371  energy(sigma->0) =    -1093.28036371


--------------------------------------------------------------------------------------------------------




--------------------------------------- Iteration      1(   3)  ---------------------------------------


     EDDAV:  cpu time   19.5876: real time   19.6031
       DOS:  cpu time    0.0004: real time    0.0004
    --------------------------------------------
      LOOP:  cpu time   19.5880: real time   19.6035

 eigenvalue-minimisations  :  4416
 total energy-change (2. order) :-0.3598020E+03  (-0.3578916E+03)
 number of electron     343.0000000 magnetization 
 augmentation part      343.0000000 magnetization 

 Free energy of the ion-electron system (eV)
  ---------------------------------------------------
  alpha Z        PSCENC =       835.99855037
  Ewald energy   TEWEN  =    -17566.86205900
  -Hartree energ DENC   =     -7568.11931887
  -exchange      EXHF   =         0.00000000
  -V(xc)+E(xc)   XCENC  =       905.08769171
  PAW double counting   =     21217.07306836   -22257.58625956
  entropy T*S    EENTRO =        -0.00000000
  eigenvalues    EBANDS =     -3043.55761963
  atomic energy  EATOM  =     26024.88362379
  Solvation  Ediel_sol  =         0.00000000
  ---------------------------------------------------
  free energy    TOTEN  =     -1453.08232283 eV

  energy without entropy =    -1453.08232283  energy(sigma->0) =    -1453.08232283


--------------------------------------------------------------------------------------------------------




--------------------------------------- Iteration      1(   4)  ---------------------------------------


     EDDAV:  cpu time   18.1009: real time   18.1495
       DOS:  cpu time    0.0004: real time    0.0004
    --------------------------------------------
      LOOP:  cpu time   18.1013: real time   18.1499

 eigenvalue-minimisations  :  3928
 total energy-change (2. order) :-0.1219532E+02  (-0.1215906E+02)
 number of electron     343.0000000 magnetization 
 augmentation part      343.0000000 magnetization 

 Free energy of the ion-electron system (eV)
  ---------------------------------------------------
  alpha Z        PSCENC =       835.99855037
  Ewald energy   TEWEN  =    -17566.86205900
  -Hartree energ DENC   =     -7568.11931887
  -exchange      EXHF   =         0.00000000
  -V(xc)+E(xc)   XCENC  =       905.08769171
  PAW double counting   =     21217.07306836   -22257.58625956
  entropy T*S    EENTRO =        -0.00000000
  eigenvalues    EBANDS =     -3055.75294109
  atomic energy  EATOM  =     26024.88362379
  Solvation  Ediel_sol  =         0.00000000
  ---------------------------------------------------
  free energy    TOTEN  =     -1465.27764429 eV

  energy without entropy =    -1465.27764429  energy(sigma->0) =    -1465.27764429


--------------------------------------------------------------------------------------------------------




--------------------------------------- Iteration      1(   5)  ---------------------------------------


     EDDAV:  cpu time   19.7484: real time   19.8051
       DOS:  cpu time    0.0005: real time    0.0005
    CHARGE:  cpu time    2.6386: real time    2.6386
    MIXING:  cpu time    0.0014: real time    0.0014
    --------------------------------------------
      LOOP:  cpu time   22.3888: real time   22.4456

 eigenvalue-minimisations  :  4488
 total energy-change (2. order) :-0.5374253E+00  (-0.5371261E+00)
 number of electron     343.9999998 magnetization 
 augmentation part       -4.5759777 magnetization 

 Broyden mixing:
  rms(total) = 0.10086E+01    rms(broyden)= 0.10079E+01
  rms(prec ) = 0.13982E+01
  weight for this iteration     100.00

 Free energy of the ion-electron system (eV)
  ---------------------------------------------------
  alpha Z        PSCENC =       835.99855037
  Ewald energy   TEWEN  =    -17566.86205900
  -Hartree energ DENC   =     -7568.11931887
  -exchange      EXHF   =         0.00000000
  -V(xc)+E(xc)   XCENC  =       905.08769171
  PAW double counting   =     21217.07306836   -22257.58625956
  entropy T*S    EENTRO =        -0.00000000
  eigenvalues    EBANDS =     -3056.29036635
  atomic energy  EATOM  =     26024.88362379
  Solvation  Ediel_sol  =         0.00000000
  ---------------------------------------------------
  free energy    TOTEN  =     -1465.81506955 eV

  energy without entropy =    -1465.81506955  energy(sigma->0) =    -1465.81506955


--------------------------------------------------------------------------------------------------------




--------------------------------------- Iteration      1(   6)  ---------------------------------------


    POTLOK:  cpu time    0.2550: real time    0.3138
    SETDIJ:  cpu time    1.2135: real time    1.2136
     EDDAV:  cpu time   19.2255: real time   19.2263
       DOS:  cpu time    0.0005: real time    0.0005
    CHARGE:  cpu time    2.5903: real time    2.5904
    MIXING:  cpu time    0.0016: real time    0.0016
    --------------------------------------------
      LOOP:  cpu time   23.2864: real time   23.3462

 eigenvalue-minimisations  :  4320
 total energy-change (2. order) : 0.7847145E+02  (-0.2333898E+01)
 number of electron     343.9999998 magnetization 
 augmentation part       -3.1077447 magnetization 

 Broyden mixing:
  rms(total) = 0.71277E+00    rms(broyden)= 0.71269E+00
  rms(prec ) = 0.88564E+00
  weight for this iteration     100.00

 eigenvalues of (default mixing * dielectric matrix)
  average eigenvalue GAMMA=   1.1766
  1.1766

 Free energy of the ion-electron system (eV)
  ---------------------------------------------------
  alpha Z        PSCENC =       835.99855037
  Ewald energy   TEWEN  =    -17566.86205900
  -Hartree energ DENC   =     -7550.50984438
  -exchange      EXHF   =         0.00000000
  -V(xc)+E(xc)   XCENC  =       939.04575230
  PAW double counting   =     21536.77585521   -22575.83320260
  entropy T*S    EENTRO =        -0.00000000
  eigenvalues    EBANDS =     -3030.84229968
  atomic energy  EATOM  =     26024.88362379
  Solvation  Ediel_sol  =         0.00000000
  ---------------------------------------------------
  free energy    TOTEN  =     -1387.34362399 eV

  energy without entropy =    -1387.34362399  energy(sigma->0) =    -1387.34362399


--------------------------------------------------------------------------------------------------------




--------------------------------------- Iteration      1(   7)  ---------------------------------------


    POTLOK:  cpu time    0.2991: real time    0.3156
    SETDIJ:  cpu time    1.2106: real time    1.2106
     EDDAV:  cpu time   18.5485: real time   18.5493
       DOS:  cpu time    0.0006: real time    0.0006
    CHARGE:  cpu time    2.5983: real time    2.5983
    MIXING:  cpu time    0.0019: real time    0.0019
    --------------------------------------------
      LOOP:  cpu time   22.6589: real time   22.6763

 eigenvalue-minimisations  :  4088
 total energy-change (2. order) : 0.4279096E+00  (-0.8411513E+00)
 number of electron     343.9999998 magnetization 
 augmentation part       -2.5591932 magnetization 

 Broyden mixing:
  rms(total) = 0.37078E+00    rms(broyden)= 0.37077E+00
  rms(prec ) = 0.40634E+00
  weight for this iteration     100.00

 eigenvalues of (default mixing * dielectric matrix)
  average eigenvalue GAMMA=   1.3068
  1.3068  1.3068

 Free energy of the ion-electron system (eV)
  ---------------------------------------------------
  alpha Z        PSCENC =       835.99855037
  Ewald energy   TEWEN  =    -17566.86205900
  -Hartree energ DENC   =     -7589.91080980
  -exchange      EXHF   =         0.00000000
  -V(xc)+E(xc)   XCENC  =       944.27777042
  PAW double counting   =     22186.76666113   -23224.07993316
  entropy T*S    EENTRO =        -0.00000000
  eigenvalues    EBANDS =     -2997.98951810
  atomic energy  EATOM  =     26024.88362379
  Solvation  Ediel_sol  =         0.00000000
  ---------------------------------------------------
  free energy    TOTEN  =     -1386.91571435 eV

  energy without entropy =    -1386.91571435  energy(sigma->0) =    -1386.91571435


--------------------------------------------------------------------------------------------------------




--------------------------------------- Iteration      1(   8)  ---------------------------------------


    POTLOK:  cpu time    0.2743: real time    0.3056
    SETDIJ:  cpu time    1.2108: real time    1.2108
     EDDAV:  cpu time   18.4403: real time   18.4411
       DOS:  cpu time    0.0005: real time    0.0005
    CHARGE:  cpu time    2.5934: real time    2.5935
    MIXING:  cpu time    0.0016: real time    0.0016
    --------------------------------------------
      LOOP:  cpu time   22.5209: real time   22.5531

 eigenvalue-minimisations  :  4056
 total energy-change (2. order) :-0.1868821E+00  (-0.3783689E-01)
 number of electron     343.9999998 magnetization 
 augmentation part       -2.6442966 magnetization 

 Broyden mixing:
  rms(total) = 0.21422E+00    rms(broyden)= 0.21422E+00
  rms(prec ) = 0.23749E+00
  weight for this iteration     100.00

 eigenvalues of (default mixing * dielectric matrix)
  average eigenvalue GAMMA=   1.7083
  1.1336  1.2766  2.7148

 Free energy of the ion-electron system (eV)
  ---------------------------------------------------
  alpha Z        PSCENC =       835.99855037
  Ewald energy   TEWEN  =    -17566.86205900
  -Hartree energ DENC   =     -7593.43837985
  -exchange      EXHF   =         0.00000000
  -V(xc)+E(xc)   XCENC  =       944.91163792
  PAW double counting   =     22433.00778918   -23470.72114166
  entropy T*S    EENTRO =        -0.00000000
  eigenvalues    EBANDS =     -2994.88261719
  atomic energy  EATOM  =     26024.88362379
  Solvation  Ediel_sol  =         0.00000000
  ---------------------------------------------------
  free energy    TOTEN  =     -1387.10259644 eV

  energy without entropy =    -1387.10259644  energy(sigma->0) =    -1387.10259644


--------------------------------------------------------------------------------------------------------




--------------------------------------- Iteration      1(   9)  ---------------------------------------


    POTLOK:  cpu time    0.2596: real time    0.2758
    SETDIJ:  cpu time    1.2114: real time    1.2114
     EDDAV:  cpu time   17.4787: real time   17.4795
       DOS:  cpu time    0.0006: real time    0.0006
    CHARGE:  cpu time    2.5968: real time    2.5969
    MIXING:  cpu time    0.0018: real time    0.0018
    --------------------------------------------
      LOOP:  cpu time   21.5490: real time   21.5661

 eigenvalue-minimisations  :  3720
 total energy-change (2. order) :-0.7955127E-01  (-0.1699263E-01)
 number of electron     343.9999998 magnetization 
 augmentation part       -2.6878856 magnetization 

 Broyden mixing:
  rms(total) = 0.45478E-01    rms(broyden)= 0.45475E-01
  rms(prec ) = 0.49551E-01
  weight for this iteration     100.00

 eigenvalues of (default mixing * dielectric matrix)
  average eigenvalue GAMMA=   1.4607
  2.5696  1.2317  1.2317  0.8097

 Free energy of the ion-electron system (eV)
  ---------------------------------------------------
  alpha Z        PSCENC =       835.99855037
  Ewald energy   TEWEN  =    -17566.86205900
  -Hartree energ DENC   =     -7597.82144592
  -exchange      EXHF   =         0.00000000
  -V(xc)+E(xc)   XCENC  =       946.90065929
  PAW double counting   =     22784.96791201   -23823.50814907
  entropy T*S    EENTRO =        -0.00000000
  eigenvalues    EBANDS =     -2991.74123918
  atomic energy  EATOM  =     26024.88362379
  Solvation  Ediel_sol  =         0.00000000
  ---------------------------------------------------
  free energy    TOTEN  =     -1387.18214771 eV

  energy without entropy =    -1387.18214771  energy(sigma->0) =    -1387.18214771


--------------------------------------------------------------------------------------------------------




--------------------------------------- Iteration      1(  10)  ---------------------------------------


    POTLOK:  cpu time    0.2850: real time    0.3004
    SETDIJ:  cpu time    1.2109: real time    1.2109
     EDDAV:  cpu time   20.5679: real time   20.5688
       DOS:  cpu time    0.0006: real time    0.0006
    CHARGE:  cpu time    2.6104: real time    2.6105
    MIXING:  cpu time    0.0017: real time    0.0017
    --------------------------------------------
      LOOP:  cpu time   24.6765: real time   24.6929

 eigenvalue-minimisations  :  4784
 total energy-change (2. order) :-0.1907262E-02  (-0.1132376E-02)
 number of electron     343.9999998 magnetization 
 augmentation part       -2.6740950 magnetization 

 Broyden mixing:
  rms(total) = 0.27457E-01    rms(broyden)= 0.27456E-01
  rms(prec ) = 0.31044E-01
  weight for this iteration     100.00

 eigenvalues of (default mixing * dielectric matrix)
  average eigenvalue GAMMA=   1.5167
  2.2481  2.2481  1.1151  1.1151  0.8570

 Free energy of the ion-electron system (eV)
  ---------------------------------------------------
  alpha Z        PSCENC =       835.99855037
  Ewald energy   TEWEN  =    -17566.86205900
  -Hartree energ DENC   =     -7596.06143368
  -exchange      EXHF   =         0.00000000
  -V(xc)+E(xc)   XCENC  =       946.70990099
  PAW double counting   =     22751.87398031   -23790.47725729
  entropy T*S    EENTRO =        -0.00000000
  eigenvalues    EBANDS =     -2993.24936046
  atomic energy  EATOM  =     26024.88362379
  Solvation  Ediel_sol  =         0.00000000
  ---------------------------------------------------
  free energy    TOTEN  =     -1387.18405498 eV

  energy without entropy =    -1387.18405498  energy(sigma->0) =    -1387.18405498


--------------------------------------------------------------------------------------------------------




--------------------------------------- Iteration      1(  11)  ---------------------------------------


    POTLOK:  cpu time    0.2963: real time    0.3059
    SETDIJ:  cpu time    1.2084: real time    1.2084
     EDDAV:  cpu time   17.5570: real time   17.5577
       DOS:  cpu time    0.0005: real time    0.0005
    CHARGE:  cpu time    2.6080: real time    2.6082
    MIXING:  cpu time    0.0019: real time    0.0019
    --------------------------------------------
      LOOP:  cpu time   21.6722: real time   21.6826

 eigenvalue-minimisations  :  3736
 total energy-change (2. order) :-0.2898665E-02  (-0.3271357E-03)
 number of electron     343.9999998 magnetization 
 augmentation part       -2.6718460 magnetization 

 Broyden mixing:
  rms(total) = 0.96607E-02    rms(broyden)= 0.96603E-02
  rms(prec ) = 0.12313E-01
  weight for this iteration     100.00

 eigenvalues of (default mixing * dielectric matrix)
  average eigenvalue GAMMA=   1.5829
  2.6638  2.6638  1.2050  1.2050  0.8799  0.8799

 Free energy of the ion-electron system (eV)
  ---------------------------------------------------
  alpha Z        PSCENC =       835.99855037
  Ewald energy   TEWEN  =    -17566.86205900
  -Hartree energ DENC   =     -7593.34351991
  -exchange      EXHF   =         0.00000000
  -V(xc)+E(xc)   XCENC  =       946.60682765
  PAW double counting   =     22722.38637156   -23761.27356825
  entropy T*S    EENTRO =        -0.00000000
  eigenvalues    EBANDS =     -2995.58317983
  atomic energy  EATOM  =     26024.88362379
  Solvation  Ediel_sol  =         0.00000000
  ---------------------------------------------------
  free energy    TOTEN  =     -1387.18695364 eV

  energy without entropy =    -1387.18695364  energy(sigma->0) =    -1387.18695364


--------------------------------------------------------------------------------------------------------




--------------------------------------- Iteration      1(  12)  ---------------------------------------


    POTLOK:  cpu time    0.2869: real time    0.3013
    SETDIJ:  cpu time    1.2069: real time    1.2069
     EDDAV:  cpu time   18.3808: real time   18.3816
       DOS:  cpu time    0.0005: real time    0.0005
    CHARGE:  cpu time    2.5984: real time    2.5985
    MIXING:  cpu time    0.0017: real time    0.0017
    --------------------------------------------
      LOOP:  cpu time   22.4752: real time   22.4905

 eigenvalue-minimisations  :  4024
 total energy-change (2. order) :-0.5840075E-03  (-0.1082712E-03)
 number of electron     343.9999998 magnetization 
 augmentation part       -2.6765309 magnetization 

 Broyden mixing:
  rms(total) = 0.43223E-02    rms(broyden)= 0.43214E-02
  rms(prec ) = 0.54999E-02
  weight for this iteration     100.00

 eigenvalues of (default mixing * dielectric matrix)
  average eigenvalue GAMMA=   1.6112
  2.9749  2.2225  1.9749  1.1230  1.1230  0.9301  0.9301

 Free energy of the ion-electron system (eV)
  ---------------------------------------------------
  alpha Z        PSCENC =       835.99855037
  Ewald energy   TEWEN  =    -17566.86205900
  -Hartree energ DENC   =     -7593.01794343
  -exchange      EXHF   =         0.00000000
  -V(xc)+E(xc)   XCENC  =       946.69861156
  PAW double counting   =     22728.16553888   -23767.19924233
  entropy T*S    EENTRO =        -0.00000000
  eigenvalues    EBANDS =     -2995.85461748
  atomic energy  EATOM  =     26024.88362379
  Solvation  Ediel_sol  =         0.00000000
  ---------------------------------------------------
  free energy    TOTEN  =     -1387.18753765 eV

  energy without entropy =    -1387.18753765  energy(sigma->0) =    -1387.18753765


--------------------------------------------------------------------------------------------------------




--------------------------------------- Iteration      1(  13)  ---------------------------------------


    POTLOK:  cpu time    0.2456: real time    0.2990
    SETDIJ:  cpu time    1.2090: real time    1.2091
     EDDAV:  cpu time   18.3934: real time   18.3943
       DOS:  cpu time    0.0006: real time    0.0006
    CHARGE:  cpu time    2.5908: real time    2.5910
    MIXING:  cpu time    0.0018: real time    0.0018
    --------------------------------------------
      LOOP:  cpu time   22.4413: real time   22.4959

 eigenvalue-minimisations  :  4024
 total energy-change (2. order) : 0.2100118E-03  (-0.2380539E-04)
 number of electron     343.9999998 magnetization 
 augmentation part       -2.6767939 magnetization 

 Broyden mixing:
  rms(total) = 0.13979E-02    rms(broyden)= 0.13966E-02
  rms(prec ) = 0.18729E-02
  weight for this iteration     100.00

 eigenvalues of (default mixing * dielectric matrix)
  average eigenvalue GAMMA=   1.5772
  3.0053  2.4225  1.5049  1.5049  1.1551  1.1551  0.9083  0.9618

 Free energy of the ion-electron system (eV)
  ---------------------------------------------------
  alpha Z        PSCENC =       835.99855037
  Ewald energy   TEWEN  =    -17566.86205900
  -Hartree energ DENC   =     -7593.55064158
  -exchange      EXHF   =         0.00000000
  -V(xc)+E(xc)   XCENC  =       946.74153232
  PAW double counting   =     22728.04253112   -23767.06808756
  entropy T*S    EENTRO =        -0.00000000
  eigenvalues    EBANDS =     -2995.37277710
  atomic energy  EATOM  =     26024.88362379
  Solvation  Ediel_sol  =         0.00000000
  ---------------------------------------------------
  free energy    TOTEN  =     -1387.18732764 eV

  energy without entropy =    -1387.18732764  energy(sigma->0) =    -1387.18732764


--------------------------------------------------------------------------------------------------------




--------------------------------------- Iteration      1(  14)  ---------------------------------------


    POTLOK:  cpu time    0.2614: real time    0.3052
    SETDIJ:  cpu time    1.2086: real time    1.2087
     EDDAV:  cpu time   18.9286: real time   18.9295
       DOS:  cpu time    0.0005: real time    0.0005
    CHARGE:  cpu time    2.5914: real time    2.5915
    MIXING:  cpu time    0.0018: real time    0.0018
    --------------------------------------------
      LOOP:  cpu time   22.9922: real time   23.0372

 eigenvalue-minimisations  :  4216
 total energy-change (2. order) :-0.5297395E-04  (-0.3094968E-05)
 number of electron     343.9999998 magnetization 
 augmentation part       -2.6764791 magnetization 

 Broyden mixing:
  rms(total) = 0.77969E-03    rms(broyden)= 0.77763E-03
  rms(prec ) = 0.11471E-02
  weight for this iteration     100.00

 eigenvalues of (default mixing * dielectric matrix)
  average eigenvalue GAMMA=   1.5157
  3.0271  2.2734  1.9864  1.2916  1.2916  1.0475  1.0475  0.8618  0.8145

 Free energy of the ion-electron system (eV)
  ---------------------------------------------------
  alpha Z        PSCENC =       835.99855037
  Ewald energy   TEWEN  =    -17566.86205900
  -Hartree energ DENC   =     -7593.47160801
  -exchange      EXHF   =         0.00000000
  -V(xc)+E(xc)   XCENC  =       946.73533081
  PAW double counting   =     22727.16219767   -23766.19245939
  entropy T*S    EENTRO =        -0.00000000
  eigenvalues    EBANDS =     -2995.44095683
  atomic energy  EATOM  =     26024.88362379
  Solvation  Ediel_sol  =         0.00000000
  ---------------------------------------------------
  free energy    TOTEN  =     -1387.18738061 eV

  energy without entropy =    -1387.18738061  energy(sigma->0) =    -1387.18738061


--------------------------------------------------------------------------------------------------------




--------------------------------------- Iteration      1(  15)  ---------------------------------------


    POTLOK:  cpu time    0.2581: real time    0.3215
    SETDIJ:  cpu time    1.2084: real time    1.2084
     EDDAV:  cpu time   16.1040: real time   16.1047
       DOS:  cpu time    0.0005: real time    0.0005
    CHARGE:  cpu time    2.6076: real time    2.6077
    MIXING:  cpu time    0.0021: real time    0.0021
    --------------------------------------------
      LOOP:  cpu time   20.1806: real time   20.2449

 eigenvalue-minimisations  :  3232
 total energy-change (2. order) : 0.1358463E-04  (-0.1304110E-05)
 number of electron     343.9999998 magnetization 
 augmentation part       -2.6765229 magnetization 

 Broyden mixing:
  rms(total) = 0.40578E-03    rms(broyden)= 0.40190E-03
  rms(prec ) = 0.64905E-03
  weight for this iteration     100.00

 eigenvalues of (default mixing * dielectric matrix)
  average eigenvalue GAMMA=   1.5907
  3.2700  2.5192  2.5192  1.4454  1.4454  1.0945  1.0945  0.9301  0.9301  0.6590

 Free energy of the ion-electron system (eV)
  ---------------------------------------------------
  alpha Z        PSCENC =       835.99855037
  Ewald energy   TEWEN  =    -17566.86205900
  -Hartree energ DENC   =     -7593.47728783
  -exchange      EXHF   =         0.00000000
  -V(xc)+E(xc)   XCENC  =       946.73536751
  PAW double counting   =     22727.01407269   -23766.03372713
  entropy T*S    EENTRO =        -0.00000000
  eigenvalues    EBANDS =     -2995.44590742
  atomic energy  EATOM  =     26024.88362379
  Solvation  Ediel_sol  =         0.00000000
  ---------------------------------------------------
  free energy    TOTEN  =     -1387.18736703 eV

  energy without entropy =    -1387.18736703  energy(sigma->0) =    -1387.18736703


--------------------------------------------------------------------------------------------------------




--------------------------------------- Iteration      1(  16)  ---------------------------------------


    POTLOK:  cpu time    0.2865: real time    0.3043
    SETDIJ:  cpu time    1.2062: real time    1.2065
     EDDAV:  cpu time   15.7029: real time   15.7036
       DOS:  cpu time    0.0005: real time    0.0005
    CHARGE:  cpu time    2.6000: real time    2.6001
    MIXING:  cpu time    0.0019: real time    0.0019
    --------------------------------------------
      LOOP:  cpu time   19.7980: real time   19.8169

 eigenvalue-minimisations  :  3088
 total energy-change (2. order) :-0.4090186E-05  (-0.4436241E-06)
 number of electron     343.9999998 magnetization 
 augmentation part       -2.6763803 magnetization 

 Broyden mixing:
  rms(total) = 0.36148E-03    rms(broyden)= 0.35713E-03
  rms(prec ) = 0.43346E-03
  weight for this iteration     100.00

 eigenvalues of (default mixing * dielectric matrix)
  average eigenvalue GAMMA=   1.5844
  3.4816  2.5606  2.5606  1.6038  1.1643  1.1643  1.1693  1.1078  0.8679  0.8744
  0.8744

 Free energy of the ion-electron system (eV)
  ---------------------------------------------------
  alpha Z        PSCENC =       835.99855037
  Ewald energy   TEWEN  =    -17566.86205900
  -Hartree energ DENC   =     -7593.44842768
  -exchange      EXHF   =         0.00000000
  -V(xc)+E(xc)   XCENC  =       946.73386610
  PAW double counting   =     22726.88831924   -23765.90686338
  entropy T*S    EENTRO =        -0.00000000
  eigenvalues    EBANDS =     -2995.47438055
  atomic energy  EATOM  =     26024.88362379
  Solvation  Ediel_sol  =         0.00000000
  ---------------------------------------------------
  free energy    TOTEN  =     -1387.18737112 eV

  energy without entropy =    -1387.18737112  energy(sigma->0) =    -1387.18737112


--------------------------------------------------------------------------------------------------------




--------------------------------------- Iteration      1(  17)  ---------------------------------------


    POTLOK:  cpu time    0.2677: real time    0.3111
    SETDIJ:  cpu time    1.2050: real time    1.2050
     EDDAV:  cpu time   14.1474: real time   14.1479
       DOS:  cpu time    0.0004: real time    0.0004
    --------------------------------------------
      LOOP:  cpu time   15.6204: real time   15.6643

 eigenvalue-minimisations  :  2544
 total energy-change (2. order) :-0.4077629E-06  (-0.1164935E-06)
 number of electron     343.9999998 magnetization 
 augmentation part       -2.6763803 magnetization 

 Free energy of the ion-electron system (eV)
  ---------------------------------------------------
  alpha Z        PSCENC =       835.99855037
  Ewald energy   TEWEN  =    -17566.86205900
  -Hartree energ DENC   =     -7593.43848433
  -exchange      EXHF   =         0.00000000
  -V(xc)+E(xc)   XCENC  =       946.73293499
  PAW double counting   =     22726.97593768   -23765.99418262
  entropy T*S    EENTRO =        -0.00000000
  eigenvalues    EBANDS =     -2995.48369239
  atomic energy  EATOM  =     26024.88362379
  Solvation  Ediel_sol  =         0.00000000
  ---------------------------------------------------
  free energy    TOTEN  =     -1387.18737152 eV

  energy without entropy =    -1387.18737152  energy(sigma->0) =    -1387.18737152


--------------------------------------------------------------------------------------------------------




 average (electrostatic) potential at core
  the test charge radii are     1.1312  1.1541  1.0178
  (the norm of the test charge is              1.0000)
       1 -55.4678       2 -55.4705       3 -55.4879       4 -55.6606       5 -55.5870
       6 -55.5813       7 -55.5781       8-101.8117       9-101.9142      10-101.8701
      11-101.8482      12-101.8701      13-101.8482      14-101.8117      15-101.9142
      16 -69.2949      17 -69.2667      18 -68.8992      19 -69.2093      20 -69.2462
      21 -69.3222      22 -68.9317      23 -69.1206      24 -69.2499      25 -68.9269
      26 -69.2271      27 -69.2421      28 -69.2837      29 -68.9784      30 -68.9816
      31 -69.2883      32 -69.2499      33 -68.9269      34 -69.2271      35 -69.2421
      36 -68.9816      37 -69.2883      38 -69.2837      39 -68.9784



 E-fermi :   0.3641     XC(G=0):  -7.9418     alpha+bet : -6.8224


 k-point     1 :       0.0000    0.0000    0.0000
  band No.  band energies     occupation 
      1     -21.1900      2.00000
      2     -21.1167      2.00000
      3     -21.1108      2.00000
      4     -21.1080      2.00000
      5     -21.0170      2.00000
      6     -20.9992      2.00000
      7     -20.9967      2.00000
      8     -16.7342      2.00000
      9     -16.7035      2.00000
     10     -16.7025      2.00000
     11     -16.6731      2.00000
     12     -16.6718      2.00000
     13     -16.6632      2.00000
     14     -16.6449      2.00000
     15     -16.6432      2.00000
     16     -16.6253      2.00000
     17     -16.6223      2.00000
     18     -16.6129      2.00000
     19     -16.6028      2.00000
     20     -16.5941      2.00000
     21     -16.5817      2.00000
     22     -16.5808      2.00000
     23     -16.5747      2.00000
     24     -16.5741      2.00000
     25     -16.5663      2.00000
     26     -16.5658      2.00000
     27     -16.5652      2.00000
     28     -16.5622      2.00000
     29     -16.5500      2.00000
     30     -16.5367      2.00000
     31     -16.5361      2.00000
     32     -16.5310      2.00000
     33     -16.5305      2.00000
     34     -16.5210      2.00000
     35     -16.5201      2.00000
     36     -16.5113      2.00000
     37     -16.5104      2.00000
     38     -16.5098      2.00000
     39     -16.5092      2.00000
     40     -16.5005      2.00000
     41     -16.5001      2.00000
     42     -16.4741      2.00000
     43     -16.4732      2.00000
     44     -16.4728      2.00000
     45     -16.4727      2.00000
     46     -16.4638      2.00000
     47     -16.4629      2.00000
     48     -14.5695      2.00000
     49     -14.4136      2.00000
     50     -14.4118      2.00000
     51     -14.4082      2.00000
     52     -14.3150      2.00000
     53     -14.2922      2.00000
     54     -14.2893      2.00000
     55     -14.2747      2.00000
     56     -14.2700      2.00000
     57     -14.2378      2.00000
     58     -14.2290      2.00000
     59     -14.2133      2.00000
     60     -14.2019      2.00000
     61     -14.1768      2.00000
     62     -14.1232      2.00000
     63     -14.0963      2.00000
     64     -14.0084      2.00000
     65     -14.0069      2.00000
     66     -13.9237      2.00000
     67     -13.8986      2.00000
     68     -13.8160      2.00000
     69     -13.8129      2.00000
     70     -13.7955      2.00000
     71     -13.7644      2.00000
     72      -8.3748      2.00000
     73      -7.9021      2.00000
     74      -7.8992      2.00000
     75      -7.8745      2.00000
     76      -7.6011      2.00000
     77      -7.5832      2.00000
     78      -7.5744      2.00000
     79      -7.5323      2.00000
     80      -7.5270      2.00000
     81      -7.5192      2.00000
     82      -7.5098      2.00000
     83      -7.5050      2.00000
     84      -7.5023      2.00000
     85      -7.4960      2.00000
     86      -7.4875      2.00000
     87      -7.4777      2.00000
     88      -7.4384      2.00000
     89      -7.4172      2.00000
     90      -7.4120      2.00000
     91      -7.4065      2.00000
     92      -7.4054      2.00000
     93      -7.3869      2.00000
     94      -7.3846      2.00000
     95      -7.3773      2.00000
     96      -7.3678      2.00000
     97      -7.3522      2.00000
     98      -7.3178      2.00000
     99      -7.3030      2.00000
    100      -6.7369      2.00000
    101      -3.5312      2.00000
    102      -3.4961      2.00000
    103      -3.4348      2.00000
    104      -3.4239      2.00000
    105      -3.4228      2.00000
    106      -3.3575      2.00000
    107      -3.3488      2.00000
    108      -3.3170      2.00000
    109      -3.3109      2.00000
    110      -3.2623      2.00000
    111      -3.2066      2.00000
    112      -3.1612      2.00000
    113      -2.3765      2.00000
    114      -2.3590      2.00000
    115      -2.3387      2.00000
    116      -2.1805      2.00000
    117      -2.1355      2.00000
    118      -2.1148      2.00000
    119      -2.0879      2.00000
    120      -2.0747      2.00000
    121      -2.0366      2.00000
    122      -1.8947      2.00000
    123      -1.8922      2.00000
    124      -1.8612      2.00000
    125      -1.8157      2.00000
    126      -1.7994      2.00000
    127      -1.7888      2.00000
    128      -1.7467      2.00000
    129      -1.7294      2.00000
    130      -1.7103      2.00000
    131      -1.6986      2.00000
    132      -1.6964      2.00000
    133      -1.6843      2.00000
    134      -1.6841      2.00000
    135      -1.6742      2.00000
    136      -1.6459      2.00000
    137      -1.6402      2.00000
    138      -1.6022      2.00000
    139      -1.5987      2.00000
    140      -1.5874      2.00000
    141      -1.5791      2.00000
    142      -1.5457      2.00000
    143      -1.5379      2.00000
    144      -1.5347      2.00000
    145      -1.5223      2.00000
    146      -1.5094      2.00000
    147      -1.4952      2.00000
    148      -1.4647      2.00000
    149      -1.4458      2.00000
    150      -1.4183      2.00000
    151      -1.3931      2.00000
    152      -1.3506      2.00000
    153      -1.3214      2.00000
    154      -1.3059      2.00000
    155      -1.2737      2.00000
    156      -1.1905      2.00000
    157      -1.1735      2.00000
    158      -1.1652      2.00000
    159      -1.1496      2.00000
    160      -1.1400      2.00000
    161      -1.1294      2.00000
    162      -1.1235      2.00000
    163      -1.0608      2.00000
    164      -1.0303      2.00000
    165      -0.9223      2.00000
    166      -0.8590      2.00000
    167      -0.8259      2.00000
    168      -0.7794      2.00000
    169      -0.3354      2.00000
    170      -0.3241      2.00000
    171      -0.2999      2.00000
    172       0.2808      2.00000
    173       2.5372      0.00000
    174       2.5880      0.00000
    175       2.6959      0.00000
    176       2.9055      0.00000
    177       2.9244      0.00000
    178       2.9355      0.00000
    179       2.9706      0.00000
    180       2.9933      0.00000
    181       3.1290      0.00000
    182       3.3284      0.00000
    183       3.3674      0.00000
    184       3.3979      0.00000
    185       4.7433      0.00000
    186       5.2766      0.00000
    187       5.3148      0.00000
    188       5.4934      0.00000
    189       5.6600      0.00000
    190       5.7147      0.00000
    191       5.7320      0.00000
    192       5.7653      0.00000
    193       5.8156      0.00000
    194       5.8420      0.00000
    195       5.9394      0.00000
    196       5.9517      0.00000
    197       5.9974      0.00000
    198       6.0374      0.00000
    199       6.1277      0.00000
    200       6.1901      0.00000
    201       6.2116      0.00000
    202       6.2310      0.00000
    203       6.3166      0.00000
    204       6.3485      0.00000
    205       6.3839      0.00000
    206       6.4175      0.00000
    207       6.4302      0.00000
    208       6.5309      0.00000

 k-point     2 :       0.5000    0.0000    0.0000
  band No.  band energies     occupation 
      1     -21.1900      2.00000
      2     -21.1167      2.00000
      3     -21.1108      2.00000
      4     -21.1080      2.00000
      5     -21.0170      2.00000
      6     -20.9992      2.00000
      7     -20.9966      2.00000
      8     -16.7337      2.00000
      9     -16.7007      2.00000
     10     -16.6953      2.00000
     11     -16.6666      2.00000
     12     -16.6646      2.00000
     13     -16.6638      2.00000
     14     -16.6349      2.00000
     15     -16.6328      2.00000
     16     -16.6307      2.00000
     17     -16.6298      2.00000
     18     -16.6114      2.00000
     19     -16.6105      2.00000
     20     -16.6020      2.00000
     21     -16.5818      2.00000
     22     -16.5809      2.00000
     23     -16.5747      2.00000
     24     -16.5741      2.00000
     25     -16.5732      2.00000
     26     -16.5721      2.00000
     27     -16.5663      2.00000
     28     -16.5658      2.00000
     29     -16.5511      2.00000
     30     -16.5368      2.00000
     31     -16.5363      2.00000
     32     -16.5310      2.00000
     33     -16.5305      2.00000
     34     -16.5210      2.00000
     35     -16.5201      2.00000
     36     -16.5113      2.00000
     37     -16.5105      2.00000
     38     -16.5099      2.00000
     39     -16.5092      2.00000
     40     -16.5005      2.00000
     41     -16.5001      2.00000
     42     -16.4742      2.00000
     43     -16.4732      2.00000
     44     -16.4729      2.00000
     45     -16.4727      2.00000
     46     -16.4638      2.00000
     47     -16.4630      2.00000
     48     -14.5503      2.00000
     49     -14.4615      2.00000
     50     -14.4036      2.00000
     51     -14.3960      2.00000
     52     -14.3290      2.00000
     53     -14.3071      2.00000
     54     -14.2957      2.00000
     55     -14.2858      2.00000
     56     -14.2667      2.00000
     57     -14.2657      2.00000
     58     -14.2335      2.00000
     59     -14.2008      2.00000
     60     -14.1833      2.00000
     61     -14.1472      2.00000
     62     -14.1013      2.00000
     63     -14.0786      2.00000
     64     -13.9896      2.00000
     65     -13.9871      2.00000
     66     -13.9261      2.00000
     67     -13.8821      2.00000
     68     -13.8288      2.00000
     69     -13.8275      2.00000
     70     -13.8210      2.00000
     71     -13.7762      2.00000
     72      -8.1898      2.00000
     73      -8.1182      2.00000
     74      -7.7064      2.00000
     75      -7.6915      2.00000
     76      -7.6438      2.00000
     77      -7.6296      2.00000
     78      -7.5992      2.00000
     79      -7.5709      2.00000
     80      -7.5675      2.00000
     81      -7.5272      2.00000
     82      -7.5220      2.00000
     83      -7.5115      2.00000
     84      -7.5096      2.00000
     85      -7.5014      2.00000
     86      -7.4996      2.00000
     87      -7.4852      2.00000
     88      -7.4756      2.00000
     89      -7.4756      2.00000
     90      -7.4337      2.00000
     91      -7.4101      2.00000
     92      -7.4042      2.00000
     93      -7.3966      2.00000
     94      -7.3954      2.00000
     95      -7.3876      2.00000
     96      -7.3730      2.00000
     97      -7.3717      2.00000
     98      -7.3591      2.00000
     99      -7.1026      2.00000
    100      -7.0364      2.00000
    101      -3.5087      2.00000
    102      -3.4807      2.00000
    103      -3.4422      2.00000
    104      -3.3866      2.00000
    105      -3.3650      2.00000
    106      -3.3315      2.00000
    107      -3.2994      2.00000
    108      -3.2392      2.00000
    109      -2.7496      2.00000
    110      -2.6854      2.00000
    111      -2.6809      2.00000
    112      -2.6360      2.00000
    113      -2.5654      2.00000
    114      -2.5494      2.00000
    115      -2.5182      2.00000
    116      -2.3579      2.00000
    117      -2.3236      2.00000
    118      -2.2915      2.00000
    119      -2.2480      2.00000
    120      -2.2182      2.00000
    121      -2.1137      2.00000
    122      -2.0585      2.00000
    123      -2.0211      2.00000
    124      -1.9978      2.00000
    125      -1.9029      2.00000
    126      -1.8843      2.00000
    127      -1.8577      2.00000
    128      -1.8133      2.00000
    129      -1.7932      2.00000
    130      -1.7773      2.00000
    131      -1.7192      2.00000
    132      -1.6921      2.00000
    133      -1.6885      2.00000
    134      -1.6772      2.00000
    135      -1.6608      2.00000
    136      -1.6532      2.00000
    137      -1.6298      2.00000
    138      -1.6043      2.00000
    139      -1.5993      2.00000
    140      -1.5809      2.00000
    141      -1.5593      2.00000
    142      -1.5540      2.00000
    143      -1.5392      2.00000
    144      -1.5216      2.00000
    145      -1.5002      2.00000
    146      -1.4927      2.00000
    147      -1.4807      2.00000
    148      -1.4283      2.00000
    149      -1.4282      2.00000
    150      -1.4034      2.00000
    151      -1.3855      2.00000
    152      -1.3487      2.00000
    153      -1.3136      2.00000
    154      -1.3059      2.00000
    155      -1.2570      2.00000
    156      -1.2302      2.00000
    157      -1.2053      2.00000
    158      -1.1951      2.00000
    159      -1.1892      2.00000
    160      -1.1656      2.00000
    161      -1.1270      2.00000
    162      -1.1121      2.00000
    163      -1.0685      2.00000
    164      -1.0164      2.00000
    165      -0.9893      2.00000
    166      -0.9475      2.00000
    167      -0.7872      2.00000
    168      -0.7046      2.00000
    169      -0.6872      2.00000
    170      -0.6384      2.00000
    171      -0.2060      2.00000
[...]
  0.001  -0.000   0.000  -2.775   0.001  -0.000   3.302  -0.001
  0.002  -0.000  -0.000   0.001  -2.774   0.000  -0.001   3.300
  0.000  -0.000   0.001   0.000   0.000  -0.001  -0.000  -0.000
  0.000  -0.000   0.001   0.000   0.000  -0.001  -0.000  -0.000
  0.001  -0.000   0.000  -0.002   0.000  -0.000   0.002  -0.001
 -0.001   0.000   0.000  -0.001   0.000  -0.000   0.001  -0.000
  0.000  -0.000   0.000  -0.000  -0.002  -0.000   0.001   0.003
 total augmentation occupancy for first ion, spin component:           1
  1.910  -0.143  -0.000  -0.000  -0.000  -0.000  -0.000  -0.001  -0.000   0.000   0.001  -0.001  -0.000
 -0.143   0.124  -0.000  -0.002  -0.002  -0.000   0.000   0.002   0.000  -0.000  -0.003   0.003   0.001
 -0.000  -0.000   2.015   0.000  -0.000   0.002   0.000  -0.000   0.002   0.002   0.000   0.000   0.000
 -0.000  -0.002   0.000   2.018  -0.002   0.000   0.004  -0.001   0.000   0.000  -0.004  -0.000  -0.001
 -0.000  -0.002  -0.000  -0.002   2.016  -0.000  -0.001   0.003  -0.000   0.000   0.001   0.001  -0.004
 -0.000  -0.000   0.002   0.000  -0.000   0.009  -0.000   0.000  -0.002  -0.002   0.000  -0.000   0.000
 -0.000   0.000   0.000   0.004  -0.001  -0.000   0.008   0.001  -0.000  -0.000   0.003  -0.001   0.001
 -0.001   0.002  -0.000  -0.001   0.003   0.000   0.001   0.009  -0.000  -0.000  -0.001  -0.001   0.003
 -0.000   0.000   0.002   0.000  -0.000  -0.002  -0.000  -0.000   0.007   0.002  -0.000  -0.000   0.000
  0.000  -0.000   0.002   0.000   0.000  -0.002  -0.000  -0.000   0.002   0.005  -0.000   0.000   0.000
  0.001  -0.003   0.000  -0.004   0.001   0.000   0.003  -0.001  -0.000  -0.000   0.006  -0.002  -0.001
 -0.001   0.003   0.000  -0.000   0.001  -0.000  -0.001  -0.001  -0.000   0.000  -0.002   0.004   0.000
 -0.000   0.001   0.000  -0.001  -0.004   0.000   0.001   0.003   0.000   0.000  -0.001   0.000   0.005


------------------------ aborting loop because EDIFF is reached ----------------------------------------





 total charge     

# of ion       s       p       d       tot
------------------------------------------
    1        1.786   4.721   0.019   6.526
    2        1.786   4.721   0.019   6.527
    3        1.786   4.721   0.020   6.528
    4        1.787   4.722   0.022   6.530
    5        1.786   4.721   0.020   6.528
    6        1.787   4.721   0.021   6.529
    7        1.787   4.722   0.021   6.530
    8        1.555   0.416   9.833  11.804
    9        1.555   0.421   9.834  11.810
   10        1.555   0.419   9.834  11.808
   11        1.555   0.418   9.833  11.806
   12        1.555   0.419   9.834  11.808
   13        1.555   0.418   9.833  11.806
   14        1.555   0.416   9.833  11.804
   15        1.555   0.421   9.834  11.810
   16        1.614   3.290   0.006   4.910
   17        1.614   3.291   0.006   4.911
   18        1.615   3.284   0.006   4.905
   19        1.614   3.289   0.006   4.910
   20        1.614   3.291   0.006   4.911
   21        1.614   3.291   0.006   4.911
   22        1.615   3.285   0.007   4.906
   23        1.615   3.290   0.006   4.910
   24        1.614   3.289   0.006   4.909
   25        1.615   3.279   0.006   4.900
   26        1.614   3.288   0.006   4.908
   27        1.614   3.289   0.006   4.908
   28        1.614   3.288   0.006   4.909
   29        1.615   3.288   0.006   4.908
   30        1.615   3.288   0.006   4.909
   31        1.614   3.288   0.006   4.908
   32        1.614   3.289   0.006   4.909
   33        1.615   3.279   0.006   4.900
   34        1.614   3.288   0.006   4.908
   35        1.614   3.289   0.006   4.908
   36        1.615   3.288   0.006   4.909
   37        1.614   3.288   0.006   4.908
   38        1.614   3.288   0.006   4.909
   39        1.615   3.288   0.006   4.908
--------------------------------------------------
tot         63.686 115.303  78.954 257.943

    CHARGE:  cpu time    0.3794: real time    0.3795
    FORLOC:  cpu time    0.0115: real time    0.0115
    FORNL :  cpu time    1.9051: real time    1.9052
    STRESS:  cpu time   48.3865: real time   48.3883
    FORCOR:  cpu time    0.2400: real time    0.2400
    FORHAR:  cpu time    0.0275: real time    0.0275
    MIXING:  cpu time    0.0016: real time    0.0016
    OFIELD:  cpu time    0.0000: real time    0.0000

  FORCE on cell =-STRESS in cart. coord.  units (eV):
  Direction    XX          YY          ZZ          XY          YZ          ZX
  --------------------------------------------------------------------------------------
  Alpha Z   835.99855   835.99855   835.99855
  Ewald   -5828.05813 -5726.82244 -5950.18081    -0.00098     0.00140    61.46478
  Hartree  2568.43178  2604.15361  2483.60660    -0.00050     0.00092    44.68522
  E(xc)   -1446.68159 -1446.58590 -1446.71792    -0.00000     0.00000     0.05062
  Local   -3128.65812 -3264.29415 -2922.43113     0.00144    -0.00230  -106.26506
  n-local  1793.37813  1794.03437  1792.73919    -0.00001     0.00001     0.56350
  augment   824.79244   824.65865   824.21180     0.00004    -0.00005     0.17262
  Kinetic  4384.63805  4383.45408  4386.77299     0.00003    -0.00007    -0.64193
  Fock        0.00000     0.00000     0.00000     0.00000     0.00000     0.00000
  -------------------------------------------------------------------------------------
  Total       3.84111     4.59677     3.99926     0.00003    -0.00009     0.02974
  in kB       3.84569     4.60225     4.00403     0.00003    -0.00009     0.02978
  external pressure =        4.15 kB  Pullay stress =        0.00 kB


 VOLUME and BASIS-vectors are now :
 -----------------------------------------------------------------------------
  energy-cutoff  :      300.00
  volume of cell :     1600.27
      direct lattice vectors                 reciprocal lattice vectors
     8.420018000  0.000000000  8.077981000     0.059382296 -0.000000000  0.061896655
     0.000000000 11.763808000  0.000000000     0.000000000  0.085006488 -0.000000000
    -8.420018000  0.000000000  8.077981000    -0.059382296  0.000000000  0.061896655

  length of vectors
    11.668353789 11.763808000 11.668353789     0.085775596  0.085006488  0.085775596


 FORCES acting on ions
    electron-ion (+dipol)            ewald-force                    non-local-force                 convergence-correction
 -----------------------------------------------------------------------------------------------
   0.342E+02 -.413E-03 -.157E+02   -.341E+02 0.412E-03 0.158E+02   -.916E-01 0.555E-06 -.329E-01   -.590E-03 0.850E-06 -.146E-03
   0.280E+02 -.257E-03 -.490E+01   -.279E+02 0.264E-03 0.499E+01   -.144E+00 -.535E-05 -.100E+00   0.155E-03 0.266E-06 -.144E-03
   -.335E+02 -.565E-03 -.119E+02   0.334E+02 0.565E-03 0.119E+02   0.414E-01 0.797E-06 -.408E-02   0.710E-03 -.104E-05 0.156E-02
   -.262E+02 0.489E-03 -.118E+02   0.261E+02 -.484E-03 0.119E+02   0.125E+00 -.581E-05 -.113E+00   -.379E-03 -.477E-06 -.559E-03
   0.219E+02 -.793E-03 0.167E+02   -.219E+02 0.794E-03 -.168E+02   -.381E-01 -.333E-05 0.386E-01   0.947E-03 0.109E-06 -.107E-03
   -.300E+02 -.229E-03 0.113E+02   0.298E+02 0.222E-03 -.112E+02   0.238E+00 0.101E-04 -.116E+00   0.902E-03 0.210E-05 -.483E-03
   -.285E+02 -.173E-03 0.131E+02   0.284E+02 0.173E-03 -.133E+02   0.103E+00 0.145E-05 0.160E+00   -.186E-03 -.979E-06 -.238E-03
   0.790E+02 -.640E+02 0.491E+01   -.790E+02 0.641E+02 -.523E+01   -.649E-01 -.144E+00 0.312E+00   -.230E-02 0.691E-03 -.255E-03
   -.470E+02 -.347E+02 0.411E+01   0.468E+02 0.344E+02 -.471E+01   0.190E+00 0.215E+00 0.603E+00   0.228E-02 0.240E-03 0.107E-02
   -.110E+01 -.416E+02 -.640E+02   0.114E+01 0.417E+02 0.639E+02   -.559E-01 -.111E+00 0.988E-01   0.742E-03 0.597E-03 0.164E-02
   -.573E+01 -.518E+02 0.682E+02   0.560E+01 0.518E+02 -.685E+02   0.129E+00 0.127E-01 0.268E+00   -.117E-02 0.321E-03 -.206E-02
   -.110E+01 0.416E+02 -.640E+02   0.114E+01 -.417E+02 0.639E+02   -.558E-01 0.111E+00 0.989E-01   0.740E-03 -.598E-03 0.164E-02
   -.573E+01 0.518E+02 0.682E+02   0.560E+01 -.518E+02 -.685E+02   0.129E+00 -.121E-01 0.268E+00   -.117E-02 -.316E-03 -.206E-02
   0.790E+02 0.640E+02 0.491E+01   -.790E+02 -.641E+02 -.523E+01   -.649E-01 0.144E+00 0.312E+00   -.230E-02 -.692E-03 -.255E-03
   -.470E+02 0.347E+02 0.411E+01   0.468E+02 -.344E+02 -.471E+01   0.190E+00 -.215E+00 0.603E+00   0.227E-02 -.240E-03 0.107E-02
   0.796E+01 0.184E-03 0.321E+02   -.798E+01 -.182E-03 -.325E+02   0.131E-01 -.163E-05 0.360E+00   0.268E-03 -.500E-06 -.693E-03
   0.123E+02 -.472E-02 0.461E+02   -.124E+02 0.479E-02 -.463E+02   0.100E+00 -.382E-04 0.173E+00   -.663E-03 -.655E-06 -.950E-03
   0.482E+02 -.525E-03 0.259E+02   -.480E+02 0.537E-03 -.262E+02   -.163E+00 -.856E-05 0.235E+00   -.114E-02 0.375E-06 0.613E-03
   -.351E+02 -.102E-02 0.408E+02   0.350E+02 0.104E-02 -.411E+02   0.618E-01 -.158E-04 0.344E+00   0.456E-03 -.853E-06 -.594E-03
   0.163E+02 -.809E-04 -.362E+02   -.163E+02 0.908E-04 0.365E+02   0.651E-02 -.151E-05 -.298E+00   -.114E-02 -.826E-06 0.270E-03
   0.229E+01 -.725E-03 -.306E+02   -.244E+01 0.739E-03 0.308E+02   0.130E+00 -.428E-05 -.187E+00   0.107E-02 0.178E-06 0.527E-03
   -.203E+02 0.479E-04 -.979E+02   0.205E+02 -.492E-04 0.983E+02   -.130E+00 -.943E-06 -.311E+00   0.796E-03 0.638E-06 -.275E-03
   -.158E+02 -.238E-02 -.134E+01   0.160E+02 0.242E-02 0.174E+01   -.106E+00 -.433E-04 -.379E+00   -.809E-03 0.947E-06 -.351E-03
   -.104E+02 0.196E+02 0.203E+02   0.106E+02 -.197E+02 -.206E+02   -.151E+00 0.106E+00 0.232E+00   -.283E-03 0.284E-03 0.124E-03
   -.638E+02 0.649E+02 0.513E+02   0.642E+02 -.652E+02 -.517E+02   -.366E+00 0.329E+00 0.327E+00   0.672E-04 -.669E-04 -.192E-03
   0.262E+01 0.312E+01 0.796E+01   -.285E+01 -.292E+01 -.816E+01   0.224E+00 -.183E+00 0.185E+00   0.448E-03 -.722E-04 0.303E-03
   0.257E+02 -.430E+01 0.263E+02   -.259E+02 0.445E+01 -.265E+02   0.169E+00 -.159E+00 0.160E+00   -.312E-03 -.490E-04 -.112E-02
   -.240E+02 -.288E+02 -.378E+02   0.242E+02 0.290E+02 0.382E+02   -.152E+00 -.183E+00 -.283E+00   0.125E-02 0.283E-03 0.672E-03
   0.342E+01 -.511E+02 0.152E+01   -.316E+01 0.513E+02 -.118E+01   -.256E+00 -.118E+00 -.308E+00   -.843E-03 0.362E-03 -.629E-03
   0.348E+02 -.212E+02 -.486E+02   -.349E+02 0.209E+02 0.488E+02   0.151E+00 0.308E+00 -.181E+00   -.573E-03 0.823E-03 0.871E-03
   0.156E+02 0.986E+01 -.232E+02   -.158E+02 -.100E+02 0.234E+02   0.169E+00 0.174E+00 -.243E+00   -.136E-03 0.250E-03 -.315E-03
   -.104E+02 -.196E+02 0.203E+02   0.106E+02 0.197E+02 -.206E+02   -.151E+00 -.106E+00 0.232E+00   -.282E-03 -.285E-03 0.123E-03
   -.638E+02 -.649E+02 0.513E+02   0.642E+02 0.652E+02 -.517E+02   -.366E+00 -.329E+00 0.328E+00   0.663E-04 0.667E-04 -.191E-03
   0.261E+01 -.312E+01 0.796E+01   -.285E+01 0.292E+01 -.816E+01   0.224E+00 0.183E+00 0.185E+00   0.447E-03 0.716E-04 0.304E-03
   0.257E+02 0.430E+01 0.263E+02   -.259E+02 -.445E+01 -.265E+02   0.169E+00 0.159E+00 0.160E+00   -.312E-03 0.484E-04 -.112E-02
   0.348E+02 0.212E+02 -.486E+02   -.349E+02 -.209E+02 0.488E+02   0.151E+00 -.308E+00 -.181E+00   -.574E-03 -.824E-03 0.871E-03
   0.156E+02 -.986E+01 -.232E+02   -.158E+02 0.100E+02 0.234E+02   0.169E+00 -.174E+00 -.243E+00   -.137E-03 -.250E-03 -.316E-03
   -.240E+02 0.288E+02 -.378E+02   0.242E+02 -.290E+02 0.382E+02   -.152E+00 0.183E+00 -.283E+00   0.125E-02 -.284E-03 0.673E-03
   0.342E+01 0.511E+02 0.152E+01   -.316E+01 -.513E+02 -.118E+01   -.256E+00 0.118E+00 -.308E+00   -.843E-03 -.362E-03 -.630E-03
 -----------------------------------------------------------------------------------------------
   -.221E+00 -.651E-03 -.209E+01   -.187E-13 -.284E-13 -.103E-12   0.118E+00 0.771E-03 0.211E+01   -.129E-02 0.713E-06 -.133E-02


 POSITION                                       TOTAL-FORCE (eV/Angst)
 -----------------------------------------------------------------------------------
      0.56089      2.94095      3.81875         0.003405     -0.000001     -0.007222
      0.58745      2.94095     11.99804        -0.000451     -0.000000     -0.006826
      3.64782      8.82285      8.01071         0.005779     -0.000001      0.002240
     -4.80816      8.82286      7.83989        -0.000540     -0.000008     -0.001517
     -3.76605      2.94095      8.37329         0.002664     -0.000001     -0.002638
     -0.46132      8.82285     12.20575        -0.000341      0.000003     -0.004186
     -0.55580      8.82286      4.23305        -0.003568     -0.000002      0.000222
     -0.10390      0.01240      0.00064         0.000217     -0.002985      0.001345
      0.01240      0.03157      8.07968        -0.001274     -0.001109      0.000640
      4.21205     -0.01860      4.03928        -0.002819     -0.001010     -0.003290
     -4.20719      0.04207      4.02778         0.003508      0.003186     -0.000011
      4.21205      5.90050      4.03928        -0.002824      0.001005     -0.003288
     -4.20719      5.83990      4.02777         0.003496     -0.003149     -0.000048
     -0.10390      5.86948      0.00064         0.000215      0.002983      0.001348
      0.01240      5.85033      8.07968        -0.001297      0.001101      0.000618
     -4.08615      8.82286     11.40527         0.003142     -0.000003      0.005467
      4.21208      8.82287     11.65080        -0.001819      0.000030      0.000001
      0.08797      2.94094     15.65484         0.000203     -0.000007      0.003829
     -0.22225      2.94094      7.42759         0.004057     -0.000008     -0.005648
      0.07132      8.82285      0.58337         0.002005     -0.000003      0.002165
      0.02242      8.82285      8.56421         0.000738      0.000000      0.000281
      4.17496      2.94095      4.35662         0.002095     -0.000005     -0.001474
     -4.25405      2.94097      4.75901        -0.005843      0.000004      0.002761
     -5.94344      5.55462      9.66919        -0.004176      0.000124     -0.001581
      2.48100      5.47852      9.68923        -0.002497     -0.000712      0.001652
      1.71271      6.33361      5.63200         0.004546     -0.000811     -0.001306
      1.69673      6.28694     13.73434         0.000219     -0.000424     -0.002607
     -1.66355      0.42977     10.52420         0.000295     -0.001449      0.002105
     -1.59138      0.26187      2.57422        -0.003866     -0.002562      0.003591
      5.95766     11.09619      6.37393        -0.000865      0.003557     -0.000243
     -2.54263     11.33766      6.50028         0.000988     -0.000791      0.005987
     -5.94344      0.32727      9.66919        -0.004176     -0.000128     -0.001580
      2.48100      0.40337      9.68923        -0.002522      0.000713      0.001674
      1.71270     11.31211      5.63200         0.004541      0.000804     -0.001303
      1.69673     11.35877     13.73434         0.000218      0.000423     -0.002606
      5.95766      6.54952      6.37393        -0.000862     -0.003562     -0.000242
     -2.54263      6.30806      6.50028         0.000986      0.000792      0.005985
     -1.66354      5.45212     10.52419         0.000294      0.001443      0.002109
     -1.59138      5.62003      2.57422        -0.003871      0.002560      0.003597
 -----------------------------------------------------------------------------------
    total drift:                               -0.104369      0.000121      0.026815


--------------------------------------------------------------------------------------------------------



  FREE ENERGIE OF THE ION-ELECTRON SYSTEM (eV)
  ---------------------------------------------------
  free  energy   TOTEN  =     -1387.36412761 eV

  energy  without entropy=    -1387.36412761  energy(sigma->0) =    -1387.36412761

 d Force = 0.4441889E-03[ 0.200E-03, 0.688E-03]  d Energy = 0.4628072E-03-0.186E-04
 d Force =-0.1071686E+01[-0.109E+01,-0.106E+01]  d Ewald  =-0.1071681E+01-0.563E-05


--------------------------------------------------------------------------------------------------------


    POTLOK:  cpu time    1.4436: real time    1.4437


--------------------------------------------------------------------------------------------------------


 stress matrix after NEB project (eV)
      3.84111      0.00003      0.02974
      0.00003      4.59677     -0.00009
      0.02976     -0.00009      3.99926
  FORCES: max atom, RMS     0.007984    0.004458
  FORCE total and by dimension    0.027841    0.007222
  Stress total and by dimension    7.202803    4.596774
 Conjugate gradient step on ions:
 trial-energy change:   -0.000463  1 .order   -0.000444   -0.000688   -0.000200
  (g-gl).g = 0.979E-04      g.g   = 0.967E-04  gl.gl    = 0.111E-03
 g(Force)  = 0.967E-04   g(Stress)= 0.000E+00 ortho     = 0.772E-05
 gamma     =   0.88356
 trial     =   6.65023
 opt step  =   8.74245  (harmonic =   9.37134) maximal distance =0.01127548
 next E    = -1387.364160   (d E  =  -0.00049)


--------------------------------------------------------------------------------------------------------


  
 reached required accuracy - stopping structural energy minimisation
     LOOP+:  cpu time  216.1179: real time  216.4531
    4ORBIT:  cpu time    0.0000: real time    0.0000



 total charge     

# of ion       s       p       d       tot
------------------------------------------
    1        1.786   4.721   0.019   6.526
    2        1.786   4.721   0.019   6.527
    3        1.786   4.721   0.020   6.528
    4        1.787   4.722   0.022   6.530
    5        1.786   4.721   0.020   6.528
    6        1.787   4.721   0.021   6.529
    7        1.787   4.722   0.021   6.530
    8        1.555   0.416   9.833  11.804
    9        1.555   0.421   9.834  11.810
   10        1.555   0.419   9.834  11.808
   11        1.555   0.418   9.833  11.806
   12        1.555   0.419   9.834  11.808
   13        1.555   0.418   9.833  11.806
   14        1.555   0.416   9.833  11.804
   15        1.555   0.421   9.834  11.810
   16        1.614   3.290   0.006   4.910
   17        1.614   3.291   0.006   4.911
   18        1.615   3.284   0.006   4.905
   19        1.614   3.289   0.006   4.910
   20        1.614   3.291   0.006   4.911
   21        1.614   3.291   0.006   4.911
   22        1.615   3.285   0.007   4.906
   23        1.615   3.290   0.006   4.910
   24        1.614   3.289   0.006   4.909
   25        1.615   3.279   0.006   4.900
   26        1.614   3.288   0.006   4.908
   27        1.614   3.289   0.006   4.908
   28        1.614   3.288   0.006   4.909
   29        1.615   3.288   0.006   4.908
   30        1.615   3.288   0.006   4.909
   31        1.614   3.288   0.006   4.908
   32        1.614   3.289   0.006   4.909
   33        1.615   3.279   0.006   4.900
   34        1.614   3.288   0.006   4.908
   35        1.614   3.289   0.006   4.908
   36        1.615   3.288   0.006   4.909
   37        1.614   3.288   0.006   4.908
   38        1.614   3.288   0.006   4.909
   39        1.615   3.288   0.006   4.908
--------------------------------------------------
tot         63.686 115.303  78.954 257.943


 total amount of memory used by VASP MPI-rank0    60515. kBytes
=======================================================================

   base      :      30000. kBytes
   nonlr-proj:       6404. kBytes
   fftplans  :       8423. kBytes
   grid      :       7465. kBytes
   one-center:         77. kBytes
   wavefun   :       8146. kBytes

  
  
 General timing and accounting informations for this job:
 ========================================================
  
                  Total CPU time used (sec):     7099.615
                            User time (sec):     7088.191
                          System time (sec):       11.424
                         Elapsed time (sec):     7109.560
  
                   Maximum memory used (kb):       80784.
                   Average memory used (kb):           0.
  
                          Minor page faults:        22294
                          Major page faults:            0
                 Voluntary context switches:        19397
