       N       E                     dE             d eps       ncg     rms          rms(c)
DAV:   1     0.145886869011E+04    0.14589E+04   -0.11078E+05  3496   0.973E+02
DAV:   2    -0.101847122594E+04   -0.24773E+04   -0.23949E+04  4120   0.302E+02
DAV:   3    -0.138815990576E+04   -0.36969E+03   -0.36736E+03  4424   0.138E+02
DAV:   4    -0.140146038070E+04   -0.13300E+02   -0.13257E+02  4096   0.340E+01
DAV:   5    -0.140200864457E+04   -0.54826E+00   -0.54793E+00  4424   0.532E+00    0.597E+01
DAV:   6    -0.132340111546E+04    0.78608E+02   -0.23153E+01  4264   0.302E+01    0.381E+01
DAV:   7    -0.132293226634E+04    0.46885E+00   -0.18720E+01  4336   0.930E+00    0.565E+00
DAV:   8    -0.132261325889E+04    0.31901E+00   -0.17036E+00  3928   0.373E+00    0.317E+00
DAV:   9    -0.132244490756E+04    0.16835E+00   -0.73288E-01  4232   0.176E+00    0.142E+00
DAV:  10    -0.132244893108E+04   -0.40235E-02   -0.93256E-02  4416   0.769E-01    0.635E-01
DAV:  11    -0.132245022858E+04   -0.12975E-02   -0.16349E-02  4272   0.433E-01    0.326E-01
DAV:  12    -0.132245192109E+04   -0.16925E-02   -0.48258E-03  3808   0.188E-01    0.108E-01
DAV:  13    -0.132245242133E+04   -0.50024E-03   -0.11653E-03  4672   0.947E-02    0.598E-02
DAV:  14    -0.132245252435E+04   -0.10302E-03   -0.39656E-04  3968   0.470E-02    0.233E-02
DAV:  15    -0.132245261882E+04   -0.94463E-04   -0.10923E-04  4056   0.267E-02    0.172E-02
DAV:  16    -0.132245262824E+04   -0.94292E-05   -0.36433E-05  4128   0.148E-02    0.104E-02
DAV:  17    -0.132245262651E+04    0.17327E-05   -0.11204E-05  3936   0.911E-03    0.361E-03
DAV:  18    -0.132245262547E+04    0.10468E-05   -0.17826E-06  2592   0.421E-03    0.244E-03
DAV:  19    -0.132245262618E+04   -0.71320E-06   -0.51876E-07  2272   0.297E-03
   1 F= -.13224526E+04 E0= -.13224521E+04  d E =-.112523E-02
