CsPbBr3 cubic bulk                      
           1
     8.456489    0.000000    8.040301
     0.000000   11.729847    0.000000
    -8.456489    0.000000    8.040301
   Cs   Pb   Br
   8   8  23
Direct configuration=     1
   0.25823200  0.23997200  0.19622700
   0.77243500  0.24360300  0.71573100
   0.75104900  0.75904200  0.26095000
   0.20256100  0.75204300  0.77253500
   0.29731200  0.25083400  0.73257300
   0.78568000  0.24565400  0.22754900
   0.73477100  0.75232800  0.80496400
   0.21764700  0.75391500  0.28631700
   0.99866900  0.00102900  0.99832300
   0.49945300  0.00311800  0.49023800
   0.49587100  0.00092200  0.99583800
   0.00381000  0.00046300  0.50408200
   0.50055900  0.50454500  0.00258200
   0.00501200  0.49487900  0.50090900
   0.99999200  0.49810700  0.00269000
   0.50415300  0.48976800  0.50475700
   0.46829800  0.75162100  0.95667500
   0.97709200  0.74721200  0.48276100
   0.96558800  0.25057700  0.97464900
   0.45796000  0.24395700  0.45821800
   0.02115600  0.74936500  0.02813000
   0.52190200  0.25370200  0.03313300
   0.03496900  0.24860500  0.54774500
   0.24736000  0.47051600  0.95241000
   0.75091000  0.45715900  0.45747100
   0.74667100  0.53246100  0.95233300
   0.54679000  0.03028600  0.74345700
   0.04005800  0.02784500  0.25410800
   0.74892300  0.97480100  0.04305600
   0.25534000  0.96088900  0.54709700
   0.24422000  0.03106300  0.94223000
   0.74736700  0.02927600  0.44932300
   0.44091600  0.97021200  0.24106800
   0.94530100  0.96798300  0.74932200
   0.75165300  0.53001000  0.05506500
   0.25774600  0.53416000  0.55321200
   0.55411800  0.47462500  0.76238300
   0.05164800  0.46731700  0.25524500
   0.59861100  0.65644500  0.46634600
