  40  40   1   0
  0.4040437E+02  0.1173535E-08  0.1173535E-08  0.1173535E-08  0.5000000E-15
   1.0000000000000000E-004
  CAR 
 CsPbBr3 cubic bulk                      
      8.15885818    -22.47696662  301      1.06155877      1.00000000
    -22.477  0.0000E+00  0.0000E+00
    -22.375  0.0000E+00  0.0000E+00
    -22.273  0.0000E+00  0.0000E+00
    -22.171  0.0000E+00  0.0000E+00
    -22.068  0.0000E+00  0.0000E+00
    -21.966  0.0000E+00  0.0000E+00
    -21.864  0.0000E+00  0.0000E+00
    -21.762  0.0000E+00  0.0000E+00
    -21.660  0.0000E+00  0.0000E+00
    -21.558  0.0000E+00  0.0000E+00
    -21.456  0.0000E+00  0.0000E+00
    -21.354  0.0000E+00  0.0000E+00
    -21.252  0.0000E+00  0.0000E+00
    -21.149  0.0000E+00  0.0000E+00
    -21.047  0.1567E+03  0.1600E+02
    -20.945  0.0000E+00  0.1600E+02
    -20.843  0.0000E+00  0.1600E+02
    -20.741  0.0000E+00  0.1600E+02
    -20.639  0.0000E+00  0.1600E+02
    -20.537  0.0000E+00  0.1600E+02
    -20.435  0.0000E+00  0.1600E+02
    -20.332  0.0000E+00  0.1600E+02
    -20.230  0.0000E+00  0.1600E+02
    -20.128  0.0000E+00  0.1600E+02
    -20.026  0.0000E+00  0.1600E+02
    -19.924  0.0000E+00  0.1600E+02
    -19.822  0.0000E+00  0.1600E+02
    -19.720  0.0000E+00  0.1600E+02
    -19.618  0.0000E+00  0.1600E+02
    -19.516  0.0000E+00  0.1600E+02
    -19.413  0.0000E+00  0.1600E+02
    -19.311  0.0000E+00  0.1600E+02
    -19.209  0.0000E+00  0.1600E+02
    -19.107  0.0000E+00  0.1600E+02
    -19.005  0.0000E+00  0.1600E+02
    -18.903  0.0000E+00  0.1600E+02
    -18.801  0.0000E+00  0.1600E+02
    -18.699  0.0000E+00  0.1600E+02
    -18.596  0.0000E+00  0.1600E+02
    -18.494  0.0000E+00  0.1600E+02
    -18.392  0.0000E+00  0.1600E+02
    -18.290  0.0000E+00  0.1600E+02
    -18.188  0.0000E+00  0.1600E+02
    -18.086  0.0000E+00  0.1600E+02
    -17.984  0.0000E+00  0.1600E+02
    -17.882  0.0000E+00  0.1600E+02
    -17.779  0.0000E+00  0.1600E+02
    -17.677  0.0000E+00  0.1600E+02
    -17.575  0.0000E+00  0.1600E+02
    -17.473  0.0000E+00  0.1600E+02
    -17.371  0.0000E+00  0.1600E+02
    -17.269  0.0000E+00  0.1600E+02
    -17.167  0.0000E+00  0.1600E+02
    -17.065  0.0000E+00  0.1600E+02
    -16.963  0.0000E+00  0.1600E+02
    -16.860  0.0000E+00  0.1600E+02
    -16.758  0.0000E+00  0.1600E+02
    -16.656  0.0000E+00  0.1600E+02
    -16.554  0.0000E+00  0.1600E+02
    -16.452  0.0000E+00  0.1600E+02
    -16.350  0.0000E+00  0.1600E+02
    -16.248  0.9436E+02  0.2564E+02
    -16.146  0.2042E+03  0.4786E+02
    -16.043  0.4581E+03  0.9478E+02
    -15.941  0.0000E+00  0.9600E+02
    -15.839  0.0000E+00  0.9600E+02
    -15.737  0.0000E+00  0.9600E+02
    -15.635  0.0000E+00  0.9600E+02
    -15.533  0.0000E+00  0.9600E+02
    -15.431  0.0000E+00  0.9600E+02
    -15.329  0.0000E+00  0.9600E+02
    -15.226  0.0000E+00  0.9600E+02
    -15.124  0.0000E+00  0.9600E+02
    -15.022  0.0000E+00  0.9600E+02
    -14.920  0.0000E+00  0.9600E+02
    -14.818  0.0000E+00  0.9600E+02
    -14.716  0.0000E+00  0.9600E+02
    -14.614  0.0000E+00  0.9600E+02
    -14.512  0.0000E+00  0.9600E+02
    -14.410  0.2406E-01  0.9600E+02
    -14.307  0.1425E+02  0.9770E+02
    -14.205  0.4034E+02  0.1019E+03
    -14.103  0.3268E+02  0.1061E+03
    -14.001  0.3842E+02  0.1104E+03
    -13.899  0.1870E+02  0.1234E+03
    -13.797  0.8491E+02  0.1324E+03
    -13.695  0.6467E+02  0.1404E+03
    -13.593  0.2693E+02  0.1440E+03
    -13.490  0.0000E+00  0.1440E+03
    -13.388  0.0000E+00  0.1440E+03
    -13.286  0.0000E+00  0.1440E+03
    -13.184  0.0000E+00  0.1440E+03
    -13.082  0.0000E+00  0.1440E+03
    -12.980  0.0000E+00  0.1440E+03
    -12.878  0.0000E+00  0.1440E+03
    -12.776  0.0000E+00  0.1440E+03
    -12.674  0.0000E+00  0.1440E+03
    -12.571  0.0000E+00  0.1440E+03
    -12.469  0.0000E+00  0.1440E+03
    -12.367  0.0000E+00  0.1440E+03
    -12.265  0.0000E+00  0.1440E+03
    -12.163  0.0000E+00  0.1440E+03
    -12.061  0.0000E+00  0.1440E+03
    -11.959  0.0000E+00  0.1440E+03
    -11.857  0.0000E+00  0.1440E+03
    -11.754  0.0000E+00  0.1440E+03
    -11.652  0.0000E+00  0.1440E+03
    -11.550  0.0000E+00  0.1440E+03
    -11.448  0.0000E+00  0.1440E+03
    -11.346  0.0000E+00  0.1440E+03
    -11.244  0.0000E+00  0.1440E+03
    -11.142  0.0000E+00  0.1440E+03
    -11.040  0.0000E+00  0.1440E+03
    -10.937  0.0000E+00  0.1440E+03
    -10.835  0.0000E+00  0.1440E+03
    -10.733  0.0000E+00  0.1440E+03
    -10.631  0.0000E+00  0.1440E+03
    -10.529  0.0000E+00  0.1440E+03
    -10.427  0.0000E+00  0.1440E+03
    -10.325  0.0000E+00  0.1440E+03
    -10.223  0.0000E+00  0.1440E+03
    -10.121  0.0000E+00  0.1440E+03
    -10.018  0.0000E+00  0.1440E+03
     -9.916  0.0000E+00  0.1440E+03
     -9.814  0.0000E+00  0.1440E+03
     -9.712  0.0000E+00  0.1440E+03
     -9.610  0.0000E+00  0.1440E+03
     -9.508  0.0000E+00  0.1440E+03
     -9.406  0.0000E+00  0.1440E+03
     -9.304  0.0000E+00  0.1440E+03
     -9.201  0.0000E+00  0.1440E+03
     -9.099  0.0000E+00  0.1440E+03
     -8.997  0.0000E+00  0.1440E+03
     -8.895  0.0000E+00  0.1440E+03
     -8.793  0.0000E+00  0.1440E+03
     -8.691  0.0000E+00  0.1440E+03
     -8.589  0.0000E+00  0.1440E+03
     -8.487  0.0000E+00  0.1440E+03
     -8.384  0.0000E+00  0.1440E+03
     -8.282  0.2031E-01  0.1440E+03
     -8.180  0.0000E+00  0.1442E+03
     -8.078  0.0000E+00  0.1442E+03
     -7.976  0.1365E+02  0.1456E+03
     -7.874  0.0000E+00  0.1458E+03
     -7.772  0.0000E+00  0.1458E+03
     -7.670  0.2938E+02  0.1488E+03
     -7.568  0.7343E+01  0.1495E+03
     -7.465  0.8767E+01  0.1504E+03
     -7.363  0.3755E+03  0.1996E+03
     -7.261  0.0000E+00  0.2025E+03
     -7.159  0.0000E+00  0.2025E+03
     -7.057  0.1161E+02  0.2037E+03
     -6.955  0.7125E+01  0.2062E+03
     -6.853  0.0000E+00  0.2062E+03
     -6.751  0.0000E+00  0.2062E+03
     -6.648  0.8288E+01  0.2071E+03
     -6.546  0.0000E+00  0.2078E+03
     -6.444  0.0000E+00  0.2078E+03
     -6.342  0.0000E+00  0.2078E+03
     -6.240  0.1359E-15  0.2078E+03
     -6.138  0.2448E+01  0.2080E+03
     -6.036  0.0000E+00  0.2080E+03
     -5.934  0.0000E+00  0.2080E+03
     -5.832  0.0000E+00  0.2080E+03
     -5.729  0.0000E+00  0.2080E+03
     -5.627  0.0000E+00  0.2080E+03
     -5.525  0.0000E+00  0.2080E+03
     -5.423  0.0000E+00  0.2080E+03
     -5.321  0.0000E+00  0.2080E+03
     -5.219  0.0000E+00  0.2080E+03
     -5.117  0.0000E+00  0.2080E+03
     -5.015  0.0000E+00  0.2080E+03
     -4.912  0.0000E+00  0.2080E+03
     -4.810  0.0000E+00  0.2080E+03
     -4.708  0.0000E+00  0.2080E+03
     -4.606  0.0000E+00  0.2080E+03
     -4.504  0.0000E+00  0.2080E+03
     -4.402  0.0000E+00  0.2080E+03
     -4.300  0.0000E+00  0.2080E+03
     -4.198  0.0000E+00  0.2080E+03
     -4.095  0.0000E+00  0.2080E+03
     -3.993  0.0000E+00  0.2080E+03
     -3.891  0.0000E+00  0.2080E+03
     -3.789  0.0000E+00  0.2080E+03
     -3.687  0.0000E+00  0.2080E+03
     -3.585  0.0000E+00  0.2080E+03
     -3.483  0.5822E-11  0.2080E+03
     -3.381  0.2205E+02  0.2103E+03
     -3.279  0.4459E+02  0.2163E+03
     -3.176  0.1441E+02  0.2197E+03
     -3.074  0.0000E+00  0.2200E+03
     -2.972  0.0000E+00  0.2200E+03
     -2.870  0.0000E+00  0.2200E+03
     -2.768  0.0000E+00  0.2200E+03
     -2.666  0.2571E-01  0.2200E+03
     -2.564  0.5593E+02  0.2267E+03
     -2.462  0.3118E+02  0.2302E+03
     -2.359  0.2938E+02  0.2345E+03
     -2.257  0.3983E+02  0.2386E+03
     -2.155  0.4505E+02  0.2436E+03
     -2.053  0.3728E+01  0.2451E+03
     -1.951  0.6271E+02  0.2527E+03
     -1.849  0.8698E+01  0.2539E+03
     -1.747  0.2938E+02  0.2597E+03
     -1.645  0.2412E+01  0.2600E+03
     -1.542  0.7689E+02  0.2716E+03
     -1.440  0.1375E+02  0.2757E+03
     -1.338  0.7015E+02  0.2849E+03
     -1.236  0.1198E+03  0.3012E+03
     -1.134  0.2948E+02  0.3085E+03
     -1.032  0.7914E+02  0.3173E+03
     -0.930  0.1228E+03  0.3363E+03
     -0.828  0.1958E+02  0.3398E+03
     -0.726  0.2937E+02  0.3427E+03
     -0.623  0.0000E+00  0.3428E+03
     -0.521  0.0000E+00  0.3428E+03
     -0.419  0.7340E+01  0.3435E+03
     -0.317  0.5283E-05  0.3435E+03
     -0.215  0.2938E+02  0.3465E+03
     -0.113  0.2936E+02  0.3495E+03
     -0.011  0.0000E+00  0.3495E+03
      0.091  0.0000E+00  0.3495E+03
      0.194  0.0000E+00  0.3495E+03
      0.296  0.3808E+01  0.3499E+03
      0.398  0.5291E-09  0.3503E+03
      0.500  0.1469E+02  0.3517E+03
      0.602  0.0000E+00  0.3518E+03
      0.704  0.0000E+00  0.3518E+03
      0.806  0.0000E+00  0.3518E+03
      0.908  0.0000E+00  0.3518E+03
      1.010  0.5103E+00  0.3518E+03
      1.113  0.0000E+00  0.3520E+03
      1.215  0.0000E+00  0.3520E+03
      1.317  0.0000E+00  0.3520E+03
      1.419  0.0000E+00  0.3520E+03
      1.521  0.0000E+00  0.3520E+03
      1.623  0.0000E+00  0.3520E+03
      1.725  0.0000E+00  0.3520E+03
      1.827  0.0000E+00  0.3520E+03
      1.930  0.0000E+00  0.3520E+03
      2.032  0.0000E+00  0.3520E+03
      2.134  0.0000E+00  0.3520E+03
      2.236  0.0000E+00  0.3520E+03
      2.338  0.0000E+00  0.3520E+03
      2.440  0.0000E+00  0.3520E+03
      2.542  0.0000E+00  0.3520E+03
      2.644  0.0000E+00  0.3520E+03
      2.747  0.0000E+00  0.3520E+03
      2.849  0.6797E+01  0.3527E+03
      2.951  0.0000E+00  0.3528E+03
      3.053  0.2149E-11  0.3528E+03
      3.155  0.2938E+02  0.3557E+03
      3.257  0.0000E+00  0.3558E+03
      3.359  0.2824E+02  0.3586E+03
      3.461  0.0000E+00  0.3602E+03
      3.563  0.2025E-04  0.3603E+03
      3.666  0.2938E+02  0.3632E+03
      3.768  0.0000E+00  0.3632E+03
      3.870  0.7344E+01  0.3640E+03
      3.972  0.0000E+00  0.3640E+03
      4.074  0.0000E+00  0.3640E+03
      4.176  0.0000E+00  0.3640E+03
      4.278  0.0000E+00  0.3640E+03
      4.380  0.0000E+00  0.3640E+03
      4.483  0.0000E+00  0.3640E+03
      4.585  0.2448E+01  0.3642E+03
      4.687  0.1469E+02  0.3657E+03
      4.789  0.1092E+02  0.3669E+03
      4.891  0.1602E+02  0.3704E+03
      4.993  0.1957E+02  0.3737E+03
      5.095  0.2150E+02  0.3779E+03
      5.197  0.9789E+01  0.3823E+03
      5.300  0.5875E+02  0.3882E+03
      5.402  0.0000E+00  0.3882E+03
      5.504  0.4388E-05  0.3883E+03
      5.606  0.9238E+01  0.3892E+03
      5.708  0.2746E-11  0.3903E+03
      5.810  0.2938E+02  0.3932E+03
      5.912  0.9918E-02  0.3933E+03
      6.014  0.2301E+02  0.3966E+03
      6.116  0.1958E+02  0.3990E+03
      6.219  0.7357E+01  0.3998E+03
      6.321  0.2883E+02  0.4029E+03
      6.423  0.7451E+02  0.4106E+03
      6.525  0.5875E+02  0.4187E+03
      6.627  0.6361E+02  0.4252E+03
      6.729  0.3655E+02  0.4310E+03
      6.831  0.2448E+01  0.4320E+03
      6.933  0.0000E+00  0.4320E+03
      7.036  0.0000E+00  0.4320E+03
      7.138  0.0000E+00  0.4320E+03
      7.240  0.0000E+00  0.4320E+03
      7.342  0.0000E+00  0.4320E+03
      7.444  0.0000E+00  0.4320E+03
      7.546  0.0000E+00  0.4320E+03
      7.648  0.0000E+00  0.4320E+03
      7.750  0.0000E+00  0.4320E+03
      7.852  0.0000E+00  0.4320E+03
      7.955  0.0000E+00  0.4320E+03
      8.057  0.0000E+00  0.4320E+03
      8.159  0.0000E+00  0.4320E+03
      8.15885818    -22.47696662  301      1.06155877      1.00000000
    -22.477  0.0000E+00  0.0000E+00  0.0000E+00
    -22.375  0.0000E+00  0.0000E+00  0.0000E+00
    -22.273  0.0000E+00  0.0000E+00  0.0000E+00
    -22.171  0.0000E+00  0.0000E+00  0.0000E+00
    -22.068  0.0000E+00  0.0000E+00  0.0000E+00
    -21.966  0.0000E+00  0.0000E+00  0.0000E+00
    -21.864  0.0000E+00  0.0000E+00  0.0000E+00
    -21.762  0.0000E+00  0.0000E+00  0.0000E+00
    -21.660  0.0000E+00  0.0000E+00  0.0000E+00
    -21.558  0.0000E+00  0.0000E+00  0.0000E+00
    -21.456  0.0000E+00  0.0000E+00  0.0000E+00
    -21.354  0.0000E+00  0.0000E+00  0.0000E+00
    -21.252  0.0000E+00  0.0000E+00  0.0000E+00
    -21.149  0.0000E+00  0.0000E+00  0.0000E+00
    -21.047  0.1738E+02  0.7393E-07  0.3082E-07
    -20.945  0.0000E+00  0.0000E+00  0.0000E+00
    -20.843  0.0000E+00  0.0000E+00  0.0000E+00
    -20.741  0.0000E+00  0.0000E+00  0.0000E+00
    -20.639  0.0000E+00  0.0000E+00  0.0000E+00
    -20.537  0.0000E+00  0.0000E+00  0.0000E+00
    -20.435  0.0000E+00  0.0000E+00  0.0000E+00
    -20.332  0.0000E+00  0.0000E+00  0.0000E+00
    -20.230  0.0000E+00  0.0000E+00  0.0000E+00
    -20.128  0.0000E+00  0.0000E+00  0.0000E+00
    -20.026  0.0000E+00  0.0000E+00  0.0000E+00
    -19.924  0.0000E+00  0.0000E+00  0.0000E+00
    -19.822  0.0000E+00  0.0000E+00  0.0000E+00
    -19.720  0.0000E+00  0.0000E+00  0.0000E+00
    -19.618  0.0000E+00  0.0000E+00  0.0000E+00
    -19.516  0.0000E+00  0.0000E+00  0.0000E+00
    -19.413  0.0000E+00  0.0000E+00  0.0000E+00
    -19.311  0.0000E+00  0.0000E+00  0.0000E+00
    -19.209  0.0000E+00  0.0000E+00  0.0000E+00
    -19.107  0.0000E+00  0.0000E+00  0.0000E+00
    -19.005  0.0000E+00  0.0000E+00  0.0000E+00
    -18.903  0.0000E+00  0.0000E+00  0.0000E+00
    -18.801  0.0000E+00  0.0000E+00  0.0000E+00
    -18.699  0.0000E+00  0.0000E+00  0.0000E+00
    -18.596  0.0000E+00  0.0000E+00  0.0000E+00
    -18.494  0.0000E+00  0.0000E+00  0.0000E+00
    -18.392  0.0000E+00  0.0000E+00  0.0000E+00
    -18.290  0.0000E+00  0.0000E+00  0.0000E+00
    -18.188  0.0000E+00  0.0000E+00  0.0000E+00
    -18.086  0.0000E+00  0.0000E+00  0.0000E+00
    -17.984  0.0000E+00  0.0000E+00  0.0000E+00
    -17.882  0.0000E+00  0.0000E+00  0.0000E+00
    -17.779  0.0000E+00  0.0000E+00  0.0000E+00
    -17.677  0.0000E+00  0.0000E+00  0.0000E+00
    -17.575  0.0000E+00  0.0000E+00  0.0000E+00
    -17.473  0.0000E+00  0.0000E+00  0.0000E+00
    -17.371  0.0000E+00  0.0000E+00  0.0000E+00
    -17.269  0.0000E+00  0.0000E+00  0.0000E+00
    -17.167  0.0000E+00  0.0000E+00  0.0000E+00
    -17.065  0.0000E+00  0.0000E+00  0.0000E+00
    -16.963  0.0000E+00  0.0000E+00  0.0000E+00
    -16.860  0.0000E+00  0.0000E+00  0.0000E+00
    -16.758  0.0000E+00  0.0000E+00  0.0000E+00
    -16.656  0.0000E+00  0.0000E+00  0.0000E+00
    -16.554  0.0000E+00  0.0000E+00  0.0000E+00
    -16.452  0.0000E+00  0.0000E+00  0.0000E+00
    -16.350  0.0000E+00  0.0000E+00  0.0000E+00
    -16.248  0.2992E-05  0.6870E-05  0.4465E-05
    -16.146  0.1630E-05  0.3506E-04  0.4649E-05
    -16.043  0.2621E-04  0.2072E-04  0.2069E-05
    -15.941  0.0000E+00  0.0000E+00  0.0000E+00
    -15.839  0.0000E+00  0.0000E+00  0.0000E+00
    -15.737  0.0000E+00  0.0000E+00  0.0000E+00
    -15.635  0.0000E+00  0.0000E+00  0.0000E+00
    -15.533  0.0000E+00  0.0000E+00  0.0000E+00
    -15.431  0.0000E+00  0.0000E+00  0.0000E+00
    -15.329  0.0000E+00  0.0000E+00  0.0000E+00
    -15.226  0.0000E+00  0.0000E+00  0.0000E+00
    -15.124  0.0000E+00  0.0000E+00  0.0000E+00
    -15.022  0.0000E+00  0.0000E+00  0.0000E+00
    -14.920  0.0000E+00  0.0000E+00  0.0000E+00
    -14.818  0.0000E+00  0.0000E+00  0.0000E+00
    -14.716  0.0000E+00  0.0000E+00  0.0000E+00
    -14.614  0.0000E+00  0.0000E+00  0.0000E+00
    -14.512  0.0000E+00  0.0000E+00  0.0000E+00
    -14.410  0.2130E-05  0.1204E-21  0.1913E-10
    -14.307  0.8213E-03  0.2998E-03  0.6660E-06
    -14.205  0.1335E-02  0.1277E-02  0.2128E-04
    -14.103  0.6821E-06  0.1774E-02  0.2286E-04
    -14.001  0.7780E-04  0.1236E-02  0.6719E-04
    -13.899  0.5266E-17  0.1489E-04  0.7442E-04
    -13.797  0.2477E-04  0.9736E-03  0.1312E-03
    -13.695  0.8360E-04  0.2866E-03  0.8879E-04
    -13.593  0.1182E-04  0.2804E-04  0.2596E-04
    -13.490  0.0000E+00  0.0000E+00  0.0000E+00
    -13.388  0.0000E+00  0.0000E+00  0.0000E+00
    -13.286  0.0000E+00  0.0000E+00  0.0000E+00
    -13.184  0.0000E+00  0.0000E+00  0.0000E+00
    -13.082  0.0000E+00  0.0000E+00  0.0000E+00
    -12.980  0.0000E+00  0.0000E+00  0.0000E+00
    -12.878  0.0000E+00  0.0000E+00  0.0000E+00
    -12.776  0.0000E+00  0.0000E+00  0.0000E+00
    -12.674  0.0000E+00  0.0000E+00  0.0000E+00
    -12.571  0.0000E+00  0.0000E+00  0.0000E+00
    -12.469  0.0000E+00  0.0000E+00  0.0000E+00
    -12.367  0.0000E+00  0.0000E+00  0.0000E+00
    -12.265  0.0000E+00  0.0000E+00  0.0000E+00
    -12.163  0.0000E+00  0.0000E+00  0.0000E+00
    -12.061  0.0000E+00  0.0000E+00  0.0000E+00
    -11.959  0.0000E+00  0.0000E+00  0.0000E+00
    -11.857  0.0000E+00  0.0000E+00  0.0000E+00
    -11.754  0.0000E+00  0.0000E+00  0.0000E+00
    -11.652  0.0000E+00  0.0000E+00  0.0000E+00
    -11.550  0.0000E+00  0.0000E+00  0.0000E+00
    -11.448  0.0000E+00  0.0000E+00  0.0000E+00
    -11.346  0.0000E+00  0.0000E+00  0.0000E+00
    -11.244  0.0000E+00  0.0000E+00  0.0000E+00
    -11.142  0.0000E+00  0.0000E+00  0.0000E+00
    -11.040  0.0000E+00  0.0000E+00  0.0000E+00
    -10.937  0.0000E+00  0.0000E+00  0.0000E+00
    -10.835  0.0000E+00  0.0000E+00  0.0000E+00
    -10.733  0.0000E+00  0.0000E+00  0.0000E+00
    -10.631  0.0000E+00  0.0000E+00  0.0000E+00
    -10.529  0.0000E+00  0.0000E+00  0.0000E+00
    -10.427  0.0000E+00  0.0000E+00  0.0000E+00
    -10.325  0.0000E+00  0.0000E+00  0.0000E+00
    -10.223  0.0000E+00  0.0000E+00  0.0000E+00
    -10.121  0.0000E+00  0.0000E+00  0.0000E+00
    -10.018  0.0000E+00  0.0000E+00  0.0000E+00
     -9.916  0.0000E+00  0.0000E+00  0.0000E+00
     -9.814  0.0000E+00  0.0000E+00  0.0000E+00
     -9.712  0.0000E+00  0.0000E+00  0.0000E+00
     -9.610  0.0000E+00  0.0000E+00  0.0000E+00
     -9.508  0.0000E+00  0.0000E+00  0.0000E+00
     -9.406  0.0000E+00  0.0000E+00  0.0000E+00
     -9.304  0.0000E+00  0.0000E+00  0.0000E+00
     -9.201  0.0000E+00  0.0000E+00  0.0000E+00
     -9.099  0.0000E+00  0.0000E+00  0.0000E+00
     -8.997  0.0000E+00  0.0000E+00  0.0000E+00
     -8.895  0.0000E+00  0.0000E+00  0.0000E+00
     -8.793  0.0000E+00  0.0000E+00  0.0000E+00
     -8.691  0.0000E+00  0.0000E+00  0.0000E+00
     -8.589  0.0000E+00  0.0000E+00  0.0000E+00
     -8.487  0.0000E+00  0.0000E+00  0.0000E+00
     -8.384  0.0000E+00  0.0000E+00  0.0000E+00
     -8.282  0.7051E-22  0.2425E-19  0.5211E-20
     -8.180  0.0000E+00  0.0000E+00  0.0000E+00
     -8.078  0.0000E+00  0.0000E+00  0.0000E+00
     -7.976  0.1608E-18  0.3095E-03  0.3418E-05
     -7.874  0.0000E+00  0.0000E+00  0.0000E+00
     -7.772  0.0000E+00  0.0000E+00  0.0000E+00
     -7.670  0.4237E-19  0.7103E-02  0.1523E-04
     -7.568  0.4393E-19  0.2508E-02  0.5161E-05
     -7.465  0.5796E-08  0.8407E+00  0.2059E-06
     -7.363  0.2934E-04  0.3458E+02  0.2889E-04
     -7.261  0.0000E+00  0.0000E+00  0.0000E+00
     -7.159  0.0000E+00  0.0000E+00  0.0000E+00
     -7.057  0.1153E-04  0.7099E-03  0.7899E-05
     -6.955  0.1859E-19  0.1221E-04  0.9202E-06
     -6.853  0.0000E+00  0.0000E+00  0.0000E+00
     -6.751  0.0000E+00  0.0000E+00  0.0000E+00
     -6.648  0.1172E-04  0.3932E-03  0.5873E-06
     -6.546  0.0000E+00  0.0000E+00  0.0000E+00
     -6.444  0.0000E+00  0.0000E+00  0.0000E+00
     -6.342  0.0000E+00  0.0000E+00  0.0000E+00
     -6.240  0.2117E-21  0.2179E-34  0.4321E-24
     -6.138  0.3813E-05  0.3926E-18  0.7784E-08
     -6.036  0.0000E+00  0.0000E+00  0.0000E+00
     -5.934  0.0000E+00  0.0000E+00  0.0000E+00
     -5.832  0.0000E+00  0.0000E+00  0.0000E+00
     -5.729  0.0000E+00  0.0000E+00  0.0000E+00
     -5.627  0.0000E+00  0.0000E+00  0.0000E+00
     -5.525  0.0000E+00  0.0000E+00  0.0000E+00
     -5.423  0.0000E+00  0.0000E+00  0.0000E+00
     -5.321  0.0000E+00  0.0000E+00  0.0000E+00
     -5.219  0.0000E+00  0.0000E+00  0.0000E+00
     -5.117  0.0000E+00  0.0000E+00  0.0000E+00
     -5.015  0.0000E+00  0.0000E+00  0.0000E+00
     -4.912  0.0000E+00  0.0000E+00  0.0000E+00
     -4.810  0.0000E+00  0.0000E+00  0.0000E+00
     -4.708  0.0000E+00  0.0000E+00  0.0000E+00
     -4.606  0.0000E+00  0.0000E+00  0.0000E+00
     -4.504  0.0000E+00  0.0000E+00  0.0000E+00
     -4.402  0.0000E+00  0.0000E+00  0.0000E+00
     -4.300  0.0000E+00  0.0000E+00  0.0000E+00
     -4.198  0.0000E+00  0.0000E+00  0.0000E+00
     -4.095  0.0000E+00  0.0000E+00  0.0000E+00
     -3.993  0.0000E+00  0.0000E+00  0.0000E+00
     -3.891  0.0000E+00  0.0000E+00  0.0000E+00
     -3.789  0.0000E+00  0.0000E+00  0.0000E+00
     -3.687  0.0000E+00  0.0000E+00  0.0000E+00
     -3.585  0.0000E+00  0.0000E+00  0.0000E+00
     -3.483  0.4521E-32  0.4861E-14  0.1059E-17
     -3.381  0.1005E-08  0.1264E-01  0.3257E-03
     -3.279  0.4270E-17  0.7124E-02  0.1449E-02
     -3.176  0.2056E-18  0.6086E-17  0.2722E-03
     -3.074  0.0000E+00  0.0000E+00  0.0000E+00
     -2.972  0.0000E+00  0.0000E+00  0.0000E+00
     -2.870  0.0000E+00  0.0000E+00  0.0000E+00
     -2.768  0.0000E+00  0.0000E+00  0.0000E+00
     -2.666  0.3785E-08  0.1709E-04  0.1652E-07
     -2.564  0.1797E-04  0.2858E-01  0.4434E-03
     -2.462  0.1524E-03  0.1296E-02  0.9894E-03
     -2.359  0.1801E-04  0.7562E-02  0.1409E-02
     -2.257  0.4478E-02  0.3822E-02  0.1433E-02
     -2.155  0.3716E-02  0.1700E-01  0.2588E-02
     -2.053  0.7571E-03  0.5835E-02  0.2303E-03
     -1.951  0.2058E-01  0.3103E-01  0.3256E-02
     -1.849  0.3163E-02  0.3362E-02  0.7729E-04
     -1.747  0.7188E-05  0.5913E-01  0.2612E-02
     -1.645  0.2517E-06  0.3014E-02  0.2988E-03
     -1.542  0.1617E-02  0.6266E-01  0.9610E-02
     -1.440  0.2226E-07  0.8122E-03  0.3836E-02
     -1.338  0.4573E-04  0.1859E-01  0.1023E-01
     -1.236  0.1571E-03  0.4621E-01  0.9429E-02
     -1.134  0.2404E-05  0.2157E-01  0.2309E-02
     -1.032  0.4794E-02  0.1114E-01  0.6288E-02
     -0.930  0.3109E-02  0.2123E-01  0.7616E-02
     -0.828  0.1522E-03  0.6403E-03  0.8724E-03
     -0.726  0.2514E-04  0.5619E-03  0.1502E-02
     -0.623  0.0000E+00  0.0000E+00  0.0000E+00
     -0.521  0.0000E+00  0.0000E+00  0.0000E+00
     -0.419  0.3457E-16  0.4100E-03  0.1110E-04
     -0.317  0.2462E-17  0.5352E-09  0.2991E-10
     -0.215  0.2311E-05  0.2841E-02  0.1685E-03
     -0.113  0.4482E-17  0.1582E-02  0.1556E-03
     -0.011  0.0000E+00  0.0000E+00  0.0000E+00
      0.091  0.0000E+00  0.0000E+00  0.0000E+00
      0.194  0.0000E+00  0.0000E+00  0.0000E+00
      0.296  0.8534E-17  0.4631E-05  0.2260E-03
      0.398  0.5763E-28  0.2020E-17  0.1051E-13
      0.500  0.6370E-17  0.1263E-04  0.2924E-03
      0.602  0.0000E+00  0.0000E+00  0.0000E+00
      0.704  0.0000E+00  0.0000E+00  0.0000E+00
      0.806  0.0000E+00  0.0000E+00  0.0000E+00
      0.908  0.0000E+00  0.0000E+00  0.0000E+00
      1.010  0.6531E-17  0.1518E-17  0.1578E-15
      1.113  0.0000E+00  0.0000E+00  0.0000E+00
      1.215  0.0000E+00  0.0000E+00  0.0000E+00
      1.317  0.0000E+00  0.0000E+00  0.0000E+00
      1.419  0.0000E+00  0.0000E+00  0.0000E+00
      1.521  0.0000E+00  0.0000E+00  0.0000E+00
      1.623  0.0000E+00  0.0000E+00  0.0000E+00
      1.725  0.0000E+00  0.0000E+00  0.0000E+00
      1.827  0.0000E+00  0.0000E+00  0.0000E+00
      1.930  0.0000E+00  0.0000E+00  0.0000E+00
      2.032  0.0000E+00  0.0000E+00  0.0000E+00
      2.134  0.0000E+00  0.0000E+00  0.0000E+00
      2.236  0.0000E+00  0.0000E+00  0.0000E+00
      2.338  0.0000E+00  0.0000E+00  0.0000E+00
      2.440  0.0000E+00  0.0000E+00  0.0000E+00
      2.542  0.0000E+00  0.0000E+00  0.0000E+00
      2.644  0.0000E+00  0.0000E+00  0.0000E+00
      2.747  0.0000E+00  0.0000E+00  0.0000E+00
      2.849  0.4629E-15  0.8519E-07  0.2398E-02
      2.951  0.0000E+00  0.0000E+00  0.0000E+00
      3.053  0.4823E-17  0.2729E-16  0.3562E-15
      3.155  0.4950E-04  0.3741E-03  0.4822E-02
      3.257  0.0000E+00  0.0000E+00  0.0000E+00
      3.359  0.7879E-04  0.3966E-03  0.2046E-02
      3.461  0.0000E+00  0.0000E+00  0.0000E+00
      3.563  0.1343E-09  0.2196E-09  0.1212E-09
      3.666  0.1980E-03  0.3222E-03  0.1797E-03
      3.768  0.0000E+00  0.0000E+00  0.0000E+00
      3.870  0.1450E-03  0.6379E-04  0.2628E-04
      3.972  0.0000E+00  0.0000E+00  0.0000E+00
      4.074  0.0000E+00  0.0000E+00  0.0000E+00
      4.176  0.0000E+00  0.0000E+00  0.0000E+00
      4.278  0.0000E+00  0.0000E+00  0.0000E+00
      4.380  0.0000E+00  0.0000E+00  0.0000E+00
      4.483  0.0000E+00  0.0000E+00  0.0000E+00
      4.585  0.1465E-01  0.1341E-13  0.6366E-05
      4.687  0.1344E-13  0.1840E-06  0.1880E-01
      4.789  0.1129E-03  0.8242E-05  0.5311E-02
      4.891  0.2624E-14  0.4505E-02  0.1459E-01
      4.993  0.2844E-03  0.2600E-03  0.1085E-01
      5.095  0.9497E-02  0.1067E-01  0.1429E-01
      5.197  0.4243E-08  0.1849E-02  0.2526E-03
      5.300  0.3162E-01  0.2109E-01  0.6745E-02
      5.402  0.0000E+00  0.0000E+00  0.0000E+00
      5.504  0.2600E-20  0.2808E-12  0.6543E-07
      5.606  0.2711E-02  0.7286E-03  0.7322E-01
      5.708  0.1063E-13  0.2552E-14  0.5145E-14
      5.810  0.1136E+00  0.2733E-01  0.5529E-01
      5.912  0.9344E-07  0.1020E-04  0.1406E-03
      6.014  0.3218E-01  0.5454E-02  0.2957E+00
      6.116  0.8748E-01  0.6938E-02  0.6863E-01
      6.219  0.2002E-01  0.1931E-10  0.2712E-03
      6.321  0.1397E-01  0.1466E-02  0.4743E+00
      6.423  0.5670E-01  0.3400E-01  0.6220E+00
      6.525  0.1345E+00  0.2531E-01  0.2512E+00
      6.627  0.1032E+00  0.7474E-01  0.6922E+00
      6.729  0.1237E-01  0.6204E-01  0.2790E+00
      6.831  0.1562E-06  0.2495E-04  0.3558E-01
      6.933  0.0000E+00  0.0000E+00  0.0000E+00
      7.036  0.0000E+00  0.0000E+00  0.0000E+00
      7.138  0.0000E+00  0.0000E+00  0.0000E+00
      7.240  0.0000E+00  0.0000E+00  0.0000E+00
      7.342  0.0000E+00  0.0000E+00  0.0000E+00
      7.444  0.0000E+00  0.0000E+00  0.0000E+00
      7.546  0.0000E+00  0.0000E+00  0.0000E+00
      7.648  0.0000E+00  0.0000E+00  0.0000E+00
      7.750  0.0000E+00  0.0000E+00  0.0000E+00
      7.852  0.0000E+00  0.0000E+00  0.0000E+00
      7.955  0.0000E+00  0.0000E+00  0.0000E+00
      8.057  0.0000E+00  0.0000E+00  0.0000E+00
      8.159  0.0000E+00  0.0000E+00  0.0000E+00
      8.15885818    -22.47696662  301      1.06155877      1.00000000
    -22.477  0.0000E+00  0.0000E+00  0.0000E+00
    -22.375  0.0000E+00  0.0000E+00  0.0000E+00
    -22.273  0.0000E+00  0.0000E+00  0.0000E+00
    -22.171  0.0000E+00  0.0000E+00  0.0000E+00
    -22.068  0.0000E+00  0.0000E+00  0.0000E+00
    -21.966  0.0000E+00  0.0000E+00  0.0000E+00
    -21.864  0.0000E+00  0.0000E+00  0.0000E+00
    -21.762  0.0000E+00  0.0000E+00  0.0000E+00
    -21.660  0.0000E+00  0.0000E+00  0.0000E+00
    -21.558  0.0000E+00  0.0000E+00  0.0000E+00
    -21.456  0.0000E+00  0.0000E+00  0.0000E+00
    -21.354  0.0000E+00  0.0000E+00  0.0000E+00
    -21.252  0.0000E+00  0.0000E+00  0.0000E+00
    -21.149  0.0000E+00  0.0000E+00  0.0000E+00
    -21.047  0.1738E+02  0.7393E-07  0.3082E-07
    -20.945  0.0000E+00  0.0000E+00  0.0000E+00
    -20.843  0.0000E+00  0.0000E+00  0.0000E+00
    -20.741  0.0000E+00  0.0000E+00  0.0000E+00
    -20.639  0.0000E+00  0.0000E+00  0.0000E+00
    -20.537  0.0000E+00  0.0000E+00  0.0000E+00
    -20.435  0.0000E+00  0.0000E+00  0.0000E+00
    -20.332  0.0000E+00  0.0000E+00  0.0000E+00
    -20.230  0.0000E+00  0.0000E+00  0.0000E+00
    -20.128  0.0000E+00  0.0000E+00  0.0000E+00
    -20.026  0.0000E+00  0.0000E+00  0.0000E+00
    -19.924  0.0000E+00  0.0000E+00  0.0000E+00
    -19.822  0.0000E+00  0.0000E+00  0.0000E+00
    -19.720  0.0000E+00  0.0000E+00  0.0000E+00
    -19.618  0.0000E+00  0.0000E+00  0.0000E+00
    -19.516  0.0000E+00  0.0000E+00  0.0000E+00
    -19.413  0.0000E+00  0.0000E+00  0.0000E+00
    -19.311  0.0000E+00  0.0000E+00  0.0000E+00
    -19.209  0.0000E+00  0.0000E+00  0.0000E+00
    -19.107  0.0000E+00  0.0000E+00  0.0000E+00
    -19.005  0.0000E+00  0.0000E+00  0.0000E+00
    -18.903  0.0000E+00  0.0000E+00  0.0000E+00
    -18.801  0.0000E+00  0.0000E+00  0.0000E+00
    -18.699  0.0000E+00  0.0000E+00  0.0000E+00
    -18.596  0.0000E+00  0.0000E+00  0.0000E+00
    -18.494  0.0000E+00  0.0000E+00  0.0000E+00
    -18.392  0.0000E+00  0.0000E+00  0.0000E+00
    -18.290  0.0000E+00  0.0000E+00  0.0000E+00
    -18.188  0.0000E+00  0.0000E+00  0.0000E+00
    -18.086  0.0000E+00  0.0000E+00  0.0000E+00
    -17.984  0.0000E+00  0.0000E+00  0.0000E+00
    -17.882  0.0000E+00  0.0000E+00  0.0000E+00
    -17.779  0.0000E+00  0.0000E+00  0.0000E+00
    -17.677  0.0000E+00  0.0000E+00  0.0000E+00
    -17.575  0.0000E+00  0.0000E+00  0.0000E+00
    -17.473  0.0000E+00  0.0000E+00  0.0000E+00
    -17.371  0.0000E+00  0.0000E+00  0.0000E+00
    -17.269  0.0000E+00  0.0000E+00  0.0000E+00
    -17.167  0.0000E+00  0.0000E+00  0.0000E+00
    -17.065  0.0000E+00  0.0000E+00  0.0000E+00
    -16.963  0.0000E+00  0.0000E+00  0.0000E+00
    -16.860  0.0000E+00  0.0000E+00  0.0000E+00
    -16.758  0.0000E+00  0.0000E+00  0.0000E+00
    -16.656  0.0000E+00  0.0000E+00  0.0000E+00
    -16.554  0.0000E+00  0.0000E+00  0.0000E+00
    -16.452  0.0000E+00  0.0000E+00  0.0000E+00
    -16.350  0.0000E+00  0.0000E+00  0.0000E+00
    -16.248  0.2992E-05  0.6870E-05  0.4465E-05
    -16.146  0.1630E-05  0.3506E-04  0.4649E-05
    -16.043  0.2621E-04  0.2072E-04  0.2069E-05
    -15.941  0.0000E+00  0.0000E+00  0.0000E+00
    -15.839  0.0000E+00  0.0000E+00  0.0000E+00
    -15.737  0.0000E+00  0.0000E+00  0.0000E+00
    -15.635  0.0000E+00  0.0000E+00  0.0000E+00
    -15.533  0.0000E+00  0.0000E+00  0.0000E+00
    -15.431  0.0000E+00  0.0000E+00  0.0000E+00
    -15.329  0.0000E+00  0.0000E+00  0.0000E+00
    -15.226  0.0000E+00  0.0000E+00  0.0000E+00
    -15.124  0.0000E+00  0.0000E+00  0.0000E+00
    -15.022  0.0000E+00  0.0000E+00  0.0000E+00
    -14.920  0.0000E+00  0.0000E+00  0.0000E+00
    -14.818  0.0000E+00  0.0000E+00  0.0000E+00
    -14.716  0.0000E+00  0.0000E+00  0.0000E+00
    -14.614  0.0000E+00  0.0000E+00  0.0000E+00
    -14.512  0.0000E+00  0.0000E+00  0.0000E+00
    -14.410  0.2130E-05  0.1440E-21  0.1913E-10
    -14.307  0.8213E-03  0.2998E-03  0.6660E-06
    -14.205  0.1335E-02  0.1277E-02  0.2128E-04
    -14.103  0.6821E-06  0.1774E-02  0.2286E-04
    -14.001  0.7780E-04  0.1236E-02  0.6719E-04
    -13.899  0.5372E-17  0.1489E-04  0.7442E-04
    -13.797  0.2477E-04  0.9736E-03  0.1312E-03
    -13.695  0.8360E-04  0.2866E-03  0.8879E-04
    -13.593  0.1182E-04  0.2804E-04  0.2596E-04
    -13.490  0.0000E+00  0.0000E+00  0.0000E+00
    -13.388  0.0000E+00  0.0000E+00  0.0000E+00