 vasp.5.4.4.18Apr17-6-g9f103f2a35 (build Jun 22 2020 09:27:21) complex           
 executed on tx2_gcc-7.3_libsci-1 date 2021.09.22  08:30:56
 running on   64 total cores
 distrk:  each k-point on   64 cores,    1 groups
 distr:  one band on NCORES_PER_BAND=   8 cores,    8 groups


--------------------------------------------------------------------------------------------------------


 INCAR:
 POTCAR:    PAW_PBE Cs_sv 08Apr2002               
 POTCAR:    PAW_PBE Pb_d 06Sep2000                
 POTCAR:    PAW_PBE Br 06Sep2000                  
 POTCAR:    PAW_PBE Cs_sv 08Apr2002               
   SHA256 =  c1463496f0f6037ed62c6012a8013a89ee9ad6ffb38599dcd6c079e7ed31779b Cs
   COPYR  = (c) Copyright 08Apr2002 Georg Kresse                                
   COPYR  = This file is part of the software VASP. Any use, copying, and all ot
   COPYR  = If you do not have a valid VASP license, you may not use, copy or di
   VRHFIN =Cs: 5s5p6s                                                           
   LEXCH  = PE                                                                  
   EATOM  =   555.6835 eV,   40.8416 Ry                                         
                                                                                
   TITEL  = PAW_PBE Cs_sv 08Apr2002                                             
   LULTRA =        F    use ultrasoft PP ?                                      
   IUNSCR =        1    unscreen: 0-lin 1-nonlin 2-no                           
   RPACOR =    2.200    partial core radius                                     
   POMASS =  132.900; ZVAL   =    9.000    mass and valenz                      
   RCORE  =    2.500    outmost cutoff radius                                   
   RWIGS  =    2.500; RWIGS  =    1.323    wigner-seitz radius (au A)           
   ENMAX  =  220.318; ENMIN  =  165.238 eV                                      
   RCLOC  =    2.207    cutoff for local pot                                    
   LCOR   =        T    correct aug charges                                     
   LPAW   =        T    paw PP                                                  
   EAUG   =  407.933                                                            
   DEXC   =    0.000                                                            
   RMAX   =    2.554    core radius for proj-oper                               
   RAUG   =    1.300    factor for augmentation sphere                          
   RDEP   =    2.590    radius for radial grids                                 
   RDEPT  =    2.117    core radius for aug-charge                              
                                                                                
   Atomic configuration                                                         
   13 entries                                                                   
     n  l   j            E        occ.                                          
     1  0  0.50    -35790.1377   2.0000                                         
     2  0  0.50     -5613.6201   2.0000                                         
     2  1  1.50     -5035.0101   6.0000                                         
     3  0  0.50     -1167.0767   2.0000                                         
     3  1  1.50      -980.9754   6.0000                                         
     3  2  2.50      -708.0703  10.0000                                         
     4  0  0.50      -220.2386   2.0000                                         
     4  1  1.50      -160.7596   6.0000                                         
     4  2  2.50       -74.2354  10.0000                                         
     5  0  0.50       -26.7287   2.0000                                         
     6  0  0.50        -2.0862   1.0000                                         
     5  1  1.50       -13.5159   6.0000                                         
     5  2  2.50        -0.4136   0.0000                                         
   Description                                                                  
     l       E           TYP  RCUT    TYP  RCUT                                 
     0    -26.7287425     23  1.900                                             
     0     -2.0862306     23  1.900                                             
     1    -13.5158719     23  2.500                                             
     1     -2.7211652     23  2.500                                             
     2     -0.4136171     23  2.500                                             
  local pseudopotential read in
  partial core-charges read in
  partial kinetic energy density read in
  atomic valenz-charges read in
  non local Contribution for L=           0  read in
    real space projection operators read in
  non local Contribution for L=           0  read in
    real space projection operators read in
  non local Contribution for L=           1  read in
    real space projection operators read in
  non local Contribution for L=           1  read in
    real space projection operators read in
  non local Contribution for L=           2  read in
    real space projection operators read in
    PAW grid and wavefunctions read in

   number of l-projection  operators is LMAX  =           5
   number of lm-projection operators is LMMAX =          13

 POTCAR:    PAW_PBE Pb_d 06Sep2000                
   SHA256 =  fb885b08f0fba73a15f6a6b0e39bd200c13ec96ef97cf3ecd8e63bade5137abd Pb
   COPYR  = (c) Copyright 06Sep2000 Georg Kresse                                
   COPYR  = This file is part of the software VASP. Any use, copying, and all ot
   COPYR  = If you do not have a valid VASP license, you may not use, copy or di
   VRHFIN =Pb:                                                                  
   LEXCH  = PE                                                                  
   EATOM  =  1661.6185 eV,  122.1255 Ry                                         
                                                                                
   TITEL  = PAW_PBE Pb_d 06Sep2000                                              
   LULTRA =        F    use ultrasoft PP ?                                      
   IUNSCR =        1    unscreen: 0-lin 1-nonlin 2-no                           
   RPACOR =    2.200    partial core radius                                     
   POMASS =  207.200; ZVAL   =   14.000    mass and valenz                      
   RCORE  =    2.500    outmost cutoff radius                                   
   RWIGS  =    3.260; RWIGS  =    1.725    wigner-seitz radius (au A)           
   ENMAX  =  237.835; ENMIN  =  178.376 eV                                      
   ICORE  =        3    local potential                                         
   LCOR   =        T    correct aug charges                                     
   LPAW   =        T    paw PP                                                  
   EAUG   =  391.914                                                            
   DEXC   =    0.000                                                            
   RMAX   =    2.565    core radius for proj-oper                               
   RAUG   =    1.300    factor for augmentation sphere                          
   RDEP   =    2.643    radius for radial grids                                 
   RDEPT  =    2.092    core radius for aug-charge                              
                                                                                
   Atomic configuration                                                         
   16 entries                                                                   
     n  l   j            E        occ.                                          
     1  0  0.50    -88091.8466   2.0000                                         
     2  0  0.50    -15753.4197   2.0000                                         
     2  1  1.50    -13508.1797   6.0000                                         
     3  0  0.50     -3781.7194   2.0000                                         
     3  1  1.50     -3138.2529   6.0000                                         
     3  2  2.50     -2483.2977  10.0000                                         
     4  0  0.50      -856.2895   2.0000                                         
     4  1  1.50      -645.4942   6.0000                                         
     4  2  2.50      -401.8768  10.0000                                         
     4  3  3.50      -132.9059  14.0000                                         
     5  0  0.50      -144.0950   2.0000                                         
     5  1  1.50       -85.7879   6.0000                                         
     5  2  2.50       -21.1769  10.0000                                         
     6  0  0.50       -12.0372   2.0000                                         
     6  1  1.50        -3.4971   2.0000                                         
     5  3  2.50        -2.7212   0.0000                                         
   Description                                                                  
     l       E           TYP  RCUT    TYP  RCUT                                 
     2    -21.1768523     23  2.500                                             
     2      1.3605826     23  2.500                                             
     0    -12.0371562     23  2.500                                             
     0     13.6058260     23  2.500                                             
     1     -3.4971339     23  2.500                                             
     1     13.6058260     23  2.500                                             
     3     -1.3605826      7  2.500                                             
  local pseudopotential read in
  partial core-charges read in
  partial kinetic energy density read in
  atomic valenz-charges read in
  non local Contribution for L=           2  read in
    real space projection operators read in
  non local Contribution for L=           2  read in
    real space projection operators read in
  non local Contribution for L=           0  read in
    real space projection operators read in
  non local Contribution for L=           0  read in
    real space projection operators read in
  non local Contribution for L=           1  read in
    real space projection operators read in
  non local Contribution for L=           1  read in
    real space projection operators read in
    PAW grid and wavefunctions read in

   number of l-projection  operators is LMAX  =           6
   number of lm-projection operators is LMMAX =          18

 POTCAR:    PAW_PBE Br 06Sep2000                  
   SHA256 =  96a73d2954943bbee26f4990d676cc6c3bf44b8dd2c75cd4b3b825d8403f0103 Br
   COPYR  = (c) Copyright 06Sep2000 Georg Kresse                                
   COPYR  = This file is part of the software VASP. Any use, copying, and all ot
   COPYR  = If you do not have a valid VASP license, you may not use, copy or di
   VRHFIN =Br: s2p5                                                             
   LEXCH  = PE                                                                  
   EATOM  =   368.4488 eV,   27.0802 Ry                                         
                                                                                
   TITEL  = PAW_PBE Br 06Sep2000                                                
   LULTRA =        F    use ultrasoft PP ?                                      
   IUNSCR =        1    unscreen: 0-lin 1-nonlin 2-no                           
   RPACOR =    1.900    partial core radius                                     
   POMASS =   79.904; ZVAL   =    7.000    mass and valenz                      
   RCORE  =    2.100    outmost cutoff radius                                   
   RWIGS  =    2.200; RWIGS  =    1.164    wigner-seitz radius (au A)           
   ENMAX  =  216.285; ENMIN  =  162.214 eV                                      
   ICORE  =        3    local potential                                         
   LCOR   =        T    correct aug charges                                     
   LPAW   =        T    paw PP                                                  
   EAUG   =  503.852                                                            
   DEXC   =    0.000                                                            
   RMAX   =    2.139    core radius for proj-oper                               
   RAUG   =    1.300    factor for augmentation sphere                          
   RDEP   =    2.186    radius for radial grids                                 
   RDEPT  =    1.890    core radius for aug-charge                              
                                                                                
   Atomic configuration                                                         
   10 entries                                                                   
     n  l   j            E        occ.                                          
     1  0  0.50    -13316.2796   2.0000                                         
     2  0  0.50     -1732.8239   2.0000                                         
     2  1  1.50     -1528.2193   6.0000                                         
     3  0  0.50      -238.0460   2.0000                                         
     3  1  1.50      -173.4609   6.0000                                         
     3  2  2.50       -66.7132  10.0000                                         
     4  0  0.50       -20.1334   2.0000                                         
     4  1  0.50        -7.8591   5.0000                                         
     4  2  2.50        -8.1635   0.0000                                         
     4  3  2.50        -8.1635   0.0000                                         
   Description                                                                  
     l       E           TYP  RCUT    TYP  RCUT                                 
     0    -20.1333652     23  2.100                                             
     0    -21.4939478     23  2.100                                             
     1     -7.8591052     23  2.100                                             
     1     -3.1608434     23  2.100                                             
     2     -8.1634956     23  2.100                                             
     3     -1.3605826      7  2.100                                             
  local pseudopotential read in
  partial core-charges read in
  partial kinetic energy density read in
  atomic valenz-charges read in
  non local Contribution for L=           0  read in
    real space projection operators read in
  non local Contribution for L=           0  read in
    real space projection operators read in
  non local Contribution for L=           1  read in
    real space projection operators read in
  non local Contribution for L=           1  read in
    real space projection operators read in
  non local Contribution for L=           2  read in
    real space projection operators read in
    PAW grid and wavefunctions read in

   number of l-projection  operators is LMAX  =           5
   number of lm-projection operators is LMMAX =          13

 Optimization of the real space projectors (new method)

 maximal supplied QI-value         = 15.12
 optimisation between [QCUT,QGAM] = [  8.77, 17.69] = [ 21.53, 87.61] Ry 
 Optimized for a Real-space Cutoff    1.85 Angstroem

   l    n(q)    QCUT    max X(q) W(low)/X(q) W(high)/X(q)  e(spline) 
   0     10     8.768    25.322    0.81E-04    0.51E-04    0.48E-06
   0     10     8.768    99.187    0.78E-04    0.50E-04    0.47E-06
   1      9     8.768    11.761    0.21E-03    0.20E-03    0.37E-06
   1      9     8.768     8.275    0.24E-03    0.22E-03    0.41E-06
   2      9     8.768     3.829    0.23E-04    0.15E-03    0.18E-06
 Optimization of the real space projectors (new method)

 maximal supplied QI-value         = 15.12
 optimisation between [QCUT,QGAM] = [  8.77, 17.69] = [ 21.53, 87.61] Ry 
 Optimized for a Real-space Cutoff    1.59 Angstroem

   l    n(q)    QCUT    max X(q) W(low)/X(q) W(high)/X(q)  e(spline) 
   2      7     8.768     3.846    0.48E-04    0.11E-03    0.11E-06
   2      7     8.768     8.593    0.20E-03    0.22E-04    0.24E-06
   0      8     8.768    20.082    0.68E-04    0.88E-04    0.41E-07
   0      8     8.768     8.597    0.89E-04    0.13E-03    0.59E-07
   1      8     8.768    33.223    0.15E-03    0.53E-04    0.87E-07
   1      8     8.768    15.899    0.14E-03    0.44E-04    0.78E-07
 Optimization of the real space projectors (new method)

 maximal supplied QI-value         = 17.95
 optimisation between [QCUT,QGAM] = [  8.80, 17.59] = [ 21.67, 86.68] Ry 
 Optimized for a Real-space Cutoff    1.59 Angstroem

   l    n(q)    QCUT    max X(q) W(low)/X(q) W(high)/X(q)  e(spline) 
   0      8     8.797   175.082    0.82E-04    0.14E-03    0.89E-07
   0      8     8.797   174.004    0.79E-04    0.14E-03    0.86E-07
   1      8     8.797    54.315    0.16E-03    0.14E-04    0.30E-06
   1      8     8.797    42.441    0.16E-03    0.14E-04    0.30E-06
   2      7     8.797     3.596    0.92E-04    0.15E-03    0.85E-07
  PAW_PBE Cs_sv 08Apr2002               :
 energy of atom  1       EATOM= -555.6835
 kinetic energy error for atom=    0.0069 (will be added to EATOM!!)
  PAW_PBE Pb_d 06Sep2000                :
 energy of atom  2       EATOM=-1661.6185
 kinetic energy error for atom=    0.0498 (will be added to EATOM!!)
  PAW_PBE Br 06Sep2000                  :
 energy of atom  3       EATOM= -368.4488
 kinetic energy error for atom=    0.0072 (will be added to EATOM!!)


 POSCAR: Cs8 Pb8 Br24                            
  positions in direct lattice
  No initial velocities read in

 METAGGA = SCAN     LMAXTAU =  6    LMIXTAU =  F

 exchange correlation table for  LEXCH =        8
   RHO(1)=    0.500       N(1)  =     2000
   RHO(2)=  100.500       N(2)  =     4000

 VTST: version 3.2, (02/03/18)

 CHAIN: initializing optimizer
 
 OPT: Using VASP Conjugate-Gradient optimizer
 CHAIN: Read ICHAIN            0

 POSCAR: Cs8 Pb8 Br24                            
  positions in direct lattice
  No initial velocities read in



--------------------------------------------------------------------------------------------------------


 ion  position               nearest neighbor table
   1  0.250  0.250  0.250-
   2  0.250  0.250  0.750-
   3  0.250  0.750  0.250-
   4  0.250  0.750  0.750-
   5  0.750  0.250  0.250-
   6  0.750  0.250  0.750-
   7  0.750  0.750  0.250-
   8  0.750  0.750  0.750-
   9  0.000  0.000  0.000-  25 2.93  26 2.93  17 2.94  19 2.94  33 2.94  37 2.94
  10  0.000  0.000  0.500-  25 2.93  26 2.93  18 2.94  20 2.94  34 2.94  38 2.94
  11  0.000  0.500  0.000-  27 2.93  28 2.93  17 2.94  19 2.94  35 2.94  39 2.94
  12  0.000  0.500  0.500-  27 2.93  28 2.93  18 2.94  20 2.94  36 2.94  40 2.94
  13  0.500  0.000  0.000-  29 2.93  30 2.93  21 2.94  23 2.94  33 2.94  37 2.94
  14  0.500  0.000  0.500-  29 2.93  30 2.93  22 2.94  24 2.94  34 2.94  38 2.94
  15  0.500  0.500  0.000-  31 2.93  32 2.93  21 2.94  23 2.94  35 2.94  39 2.94
  16  0.500  0.500  0.500-  31 2.93  32 2.93  22 2.94  24 2.94  36 2.94  40 2.94
  17  0.989  0.250  0.000-   9 2.94  11 2.94
  18  0.011  0.250  0.500-  10 2.94  12 2.94
  19  0.011  0.750  0.000-   9 2.94  11 2.94
  20  0.989  0.750  0.500-  10 2.94  12 2.94
  21  0.511  0.250  0.000-  13 2.94  15 2.94
  22  0.489  0.250  0.500-  14 2.94  16 2.94
  23  0.489  0.750  0.000-  13 2.94  15 2.94
  24  0.511  0.750  0.500-  14 2.94  16 2.94
  25  0.000  0.000  0.250-   9 2.93  10 2.93
  26  0.000  0.000  0.750-   9 2.93  10 2.93
  27  0.000  0.500  0.250-  11 2.93  12 2.93
  28  0.000  0.500  0.750-  11 2.93  12 2.93
  29  0.500  0.000  0.250-  13 2.93  14 2.93
  30  0.500  0.000  0.750-  13 2.93  14 2.93
  31  0.500  0.500  0.250-  15 2.93  16 2.93
  32  0.500  0.500  0.750-  15 2.93  16 2.93
  33  0.250  0.011  0.000-   9 2.94  13 2.94
  34  0.250  0.989  0.500-  10 2.94  14 2.94
  35  0.250  0.489  0.000-  11 2.94  15 2.94
  36  0.250  0.511  0.500-  12 2.94  16 2.94
  37  0.750  0.989  0.000-   9 2.94  13 2.94
  38  0.750  0.011  0.500-  10 2.94  14 2.94
  39  0.750  0.511  0.000-  11 2.94  15 2.94
  40  0.750  0.489  0.500-  12 2.94  16 2.94

  LATTYP: Found a simple cubic cell.
 ALAT       =    11.7353520000
  
  Lattice vectors:
  
 A1 = (  11.7353520000,   0.0000000000,   0.0000000000)
 A2 = (   0.0000000000,  11.7353520000,   0.0000000000)
 A3 = (   0.0000000000,   0.0000000000,  11.7353520000)


Analysis of symmetry for initial positions (statically):
=====================================================================
 Subroutine PRICEL returns following result:
 
  LATTYP: Found a face centered cubic cell.
 ALAT       =    11.7353520000
  
  Lattice vectors:
  
 A1 = (   5.8676760000,   5.8676760000,   0.0000000000)
 A2 = (   5.8676760000,  -0.0000000000,  -5.8676760000)
 A3 = (   0.0000000000,   5.8676760000,  -5.8676760000)
 
   4 primitive cells build up your supercell.
 

 Routine SETGRP: Setting up the symmetry group for a 
 simple cubic supercell.


 Subroutine GETGRP returns: Found 16 space group operations
 (whereof  8 operations were pure point group operations)
 out of a pool of 48 trial point group operations.


The static configuration has the point symmetry C_4h.
 The point group associated with its full space group is D_4h.


Analysis of symmetry for dynamics (positions and initial velocities):
=====================================================================
 Subroutine PRICEL returns following result:
 
  LATTYP: Found a face centered cubic cell.
 ALAT       =    11.7353520000
  
  Lattice vectors:
  
 A1 = (   5.8676760000,   5.8676760000,   0.0000000000)
 A2 = (   5.8676760000,  -0.0000000000,  -5.8676760000)
 A3 = (   0.0000000000,   5.8676760000,  -5.8676760000)
 
   4 primitive cells build up your supercell.
 

 Routine SETGRP: Setting up the symmetry group for a 
 simple cubic supercell.


 Subroutine GETGRP returns: Found 16 space group operations
 (whereof  8 operations were pure point group operations)
 out of a pool of 48 trial point group operations.


The dynamic configuration has the point symmetry C_4h.
 The point group associated with its full space group is D_4h.


 Subroutine INISYM returns: Found 16 space group operations
 (whereof  8 operations are pure point group operations),
 and found     4 'primitive' translations



 KPOINTS: 1x1x1                                   

Automatic generation of k-mesh.
Space group operators:
 irot       det(A)        alpha          n_x          n_y          n_z        tau_x        tau_y        tau_z
    1     1.000000     0.000000     1.000000     0.000000     0.000000     0.000000     0.000000    -0.000000
    2    -1.000000     0.000000     1.000000     0.000000     0.000000     0.000000     0.000000    -0.000000
    3     1.000000    90.000000     0.000000     0.000000    -1.000000     0.000000     0.000000    -0.000000
    4    -1.000000    90.000000     0.000000     0.000000    -1.000000     0.000000     0.000000    -0.000000
    5     1.000000   180.000000     0.000000     0.000000     1.000000     0.000000     0.000000    -0.000000
    6    -1.000000   180.000000     0.000000     0.000000     1.000000     0.000000     0.000000    -0.000000
    7     1.000000    90.000000     0.000000     0.000000     1.000000     0.000000     0.000000    -0.000000
    8    -1.000000    90.000000     0.000000     0.000000     1.000000     0.000000     0.000000    -0.000000
    9     1.000000   180.000000     1.000000     0.000000     0.000000     0.500000     0.500000    -0.500000
   10    -1.000000   180.000000     1.000000     0.000000     0.000000     0.500000     0.500000    -0.500000
   11     1.000000   180.000000     0.707107     0.707107     0.000000     0.500000     0.500000    -0.500000
   12    -1.000000   180.000000     0.707107     0.707107     0.000000     0.500000     0.500000    -0.500000
   13     1.000000   180.000000     0.000000     1.000000     0.000000     0.500000     0.500000    -0.500000
   14    -1.000000   180.000000     0.000000     1.000000     0.000000     0.500000     0.500000    -0.500000
   15     1.000000   180.000000     0.707107    -0.707107     0.000000     0.500000     0.500000    -0.500000
   16    -1.000000   180.000000     0.707107    -0.707107     0.000000     0.500000     0.500000    -0.500000
 
 Subroutine IBZKPT returns following result:
 ===========================================
 
 Found      6 irreducible k-points:
 
 Following reciprocal coordinates:
            Coordinates               Weight
  0.000000  0.000000  0.000000      1.000000
  0.500000  0.000000  0.000000      2.000000
  0.500000  0.500000  0.000000      1.000000
  0.000000  0.000000  0.500000      1.000000
  0.500000  0.000000  0.500000      2.000000
  0.500000  0.500000  0.500000      1.000000
 
 Following cartesian coordinates:
            Coordinates               Weight
  0.000000  0.000000  0.000000      1.000000
  0.042606  0.000000  0.000000      2.000000
  0.042606  0.042606  0.000000      1.000000
  0.000000  0.000000  0.042606      1.000000
  0.042606  0.000000  0.042606      2.000000
  0.042606  0.042606  0.042606      1.000000
 


--------------------------------------------------------------------------------------------------------




 Dimension of arrays:
   k-points           NKPTS =      6   k-points in BZ     NKDIM =      6   number of bands    NBANDS=    216
   number of dos      NEDOS =    301   number of ions     NIONS =     40
   non local maximal  LDIM  =      6   non local SUM 2l+1 LMDIM =     18
   total plane-waves  NPLWV = 343000
   max r-space proj   IRMAX =   5660   max aug-charges    IRDMAX=  90331
   dimension x,y,z NGX =    70 NGY =   70 NGZ =   70
   dimension x,y,z NGXF=   140 NGYF=  140 NGZF=  140
   support grid    NGXF=   280 NGYF=  280 NGZF=  280
   ions per type =               8   8  24
   NGX,Y,Z   is equivalent  to a cutoff of   9.92,  9.92,  9.92 a.u.
   NGXF,Y,Z  is equivalent  to a cutoff of  19.83, 19.83, 19.83 a.u.

 SYSTEM =  CsPbBr3 cubic bulk                      
 POSCAR =  Cs8 Pb8 Br24                            

 Startparameter for this run:
   NWRITE =      2    write-flag & timer
   PREC   = accura    normal or accurate (medium, high low for compatibility)
   ISTART =      0    job   : 0-new  1-cont  2-samecut
   ICHARG =      2    charge: 1-file 2-atom 10-const
   ISPIN  =      1    spin polarized calculation?
   LNONCOLLINEAR =      F non collinear calculations
   LSORBIT =      F    spin-orbit coupling
   INIWAV =      1    electr: 0-lowe 1-rand  2-diag
   LASPH  =      T    aspherical Exc in radial PAW
   METAGGA=      F    non-selfconsistent MetaGGA calc.

 Electronic Relaxation 1
   ENCUT  =  300.0 eV  22.05 Ry    4.70 a.u.  16.57 16.57 16.57*2*pi/ulx,y,z
   ENINI  =  300.0     initial cutoff
   ENAUG  =  503.9 eV  augmentation charge cutoff
   NELM   =    200;   NELMIN=  2; NELMDL= -5     # of ELM steps 
   EDIFF  = 0.1E-05   stopping-criterion for ELM
   LREAL  =      T    real-space projection
   NLSPLINE    = F    spline interpolate recip. space projectors
   LCOMPAT=      F    compatible to vasp.4.4
   GGA_COMPAT  = T    GGA compatible to vasp.4.4-vasp.4.6
   LMAXPAW     = -100 max onsite density
   LMAXMIX     =    2 max onsite mixed and CHGCAR
   VOSKOWN=      0    Vosko Wilk Nusair interpolation
   ROPT   =   -0.00025  -0.00025  -0.00025
 Ionic relaxation
   EDIFFG = -.1E-01   stopping-criterion for IOM
   NSW    =      0    number of steps for IOM
   NBLOCK =      1;   KBLOCK =      1    inner block; outer block 
   IBRION =     -1    ionic relax: 0-MD 1-quasi-New 2-CG
   NFREE  =      1    steps in history (QN), initial steepest desc. (CG)
   ISIF   =      3    stress and relaxation
   IWAVPR =     10    prediction:  0-non 1-charg 2-wave 3-comb
   ISYM   =      2    0-nonsym 1-usesym 2-fastsym
   LCORR  =      T    Harris-Foulkes like correction to forces

   POTIM  = 0.5000    time-step for ionic-motion
   TEIN   =    0.0    initial temperature
   TEBEG  =    0.0;   TEEND  =   0.0 temperature during run
   SMASS  =  -3.00    Nose mass-parameter (am)
   estimated Nose-frequenzy (Omega)   =  0.10E-29 period in steps =****** mass=  -0.315E-26a.u.
   SCALEE = 1.0000    scale energy and forces
   NPACO  =    256;   APACO  = 16.0  distance and # of slots for P.C.
   PSTRESS=    0.0 pullay stress

  Mass of Ions in am
   POMASS = 132.90207.20 79.90
  Ionic Valenz
   ZVAL   =   9.00 14.00  7.00
  Atomic Wigner-Seitz radii
   RWIGS  =  -1.00 -1.00 -1.00
  virtual crystal weights 
   VCA    =   1.00  1.00  1.00
   NELECT =     352.0000    total number of electrons
   NUPDOWN=      -1.0000    fix difference up-down

 DOS related values:
   EMIN   =  10.00;   EMAX   =-10.00  energy-range for DOS
   EFERMI =   0.00
   ISMEAR =     0;   SIGMA  =   0.01  broadening in eV -4-tet -1-fermi 0-gaus

 Electronic relaxation 2 (details)
   IALGO  =     38    algorithm
   LDIAG  =      T    sub-space diagonalisation (order eigenvalues)
   LSUBROT=      F    optimize rotation matrix (better conditioning)
   TURBO    =      0    0=normal 1=particle mesh
   IRESTART =      0    0=no restart 2=restart with 2 vectors
   NREBOOT  =      0    no. of reboots
   NMIN     =      0    reboot dimension
   EREF     =   0.00    reference energy to select bands
   IMIX   =      4    mixing-type and parameters
     AMIX     =   0.40;   BMIX     =  1.00
     AMIX_MAG =   1.60;   BMIX_MAG =  1.00
     AMIN     =   0.10
     WC   =   100.;   INIMIX=   1;  MIXPRE=   1;  MAXMIX= -45

 Intra band minimization:
   WEIMIN = 0.0000     energy-eigenvalue tresh-hold
   EBREAK =  0.12E-08  absolut break condition
   DEPER  =   0.30     relativ break condition  

   TIME   =   0.40     timestep for ELM

  volume/ion in A,a.u.               =      40.40       272.66
  Fermi-wavevector in a.u.,A,eV,Ry     =   0.984977  1.861337 13.200107  0.970180
  Thomas-Fermi vector in A             =   2.116250

 Write flags
   LWAVE        =      F    write WAVECAR
   LDOWNSAMPLE  =      F    k-point downsampling of WAVECAR
   LCHARG       =      T    write CHGCAR
   LVTOT        =      F    write LOCPOT, total local potential
   LVHAR        =      T    write LOCPOT, Hartree potential only
   LELF         =      F    write electronic localiz. function (ELF)
   LORBIT       =     10    0 simple, 1 ext, 2 COOP (PROOUT), +10 PAW based schemes


 Dipole corrections
   LMONO  =      F    monopole corrections only (constant potential shift)
   LDIPOL =      F    correct potential (dipole corrections)
   IDIPOL =      0    1-x, 2-y, 3-z, 4-all directions 
   EPSILON=  1.0000000 bulk dielectric constant

 Exchange correlation treatment:
   GGA     =    --    GGA type
   LEXCH   =     8    internal setting for exchange type
   VOSKOWN=      0    Vosko Wilk Nusair interpolation
   LHFCALC =     F    Hartree Fock is set to
   LHFONE  =     F    Hartree Fock one center treatment
   AEXX    =    0.0000 exact exchange contribution

 Linear response parameters
   LEPSILON=     F    determine dielectric tensor
   LRPA    =     F    only Hartree local field effects (RPA)
   LNABLA  =     F    use nabla operator in PAW spheres
   LVEL    =     F    velocity operator in full k-point grid
   LINTERFAST=   F  fast interpolation
   KINTER  =     0    interpolate to denser k-point grid
   CSHIFT  =0.1000    complex shift for real part using Kramers Kronig
   OMEGAMAX=  -1.0    maximum frequency
   DEG_THRESHOLD= 0.2000000E-02 threshold for treating states as degnerate
   RTIME   =   -0.100 relaxation time in fs
  (WPLASMAI=    0.000 imaginary part of plasma frequency in eV, 0.658/RTIME)
   DFIELD  = 0.0000000 0.0000000 0.0000000 field for delta impulse in time

 Orbital magnetization related:
   ORBITALMAG=     F  switch on orbital magnetization
   LCHIMAG   =     F  perturbation theory with respect to B field
   DQ        =  0.001000  dq finite difference perturbation B field
   LLRAUG    =     F  two centre corrections for induced B field



--------------------------------------------------------------------------------------------------------


 Static calculation
 charge density and potential will be updated during run
 non-spin polarized calculation
 Variant of blocked Davidson
 Davidson routine will perform the subspace rotation
 perform sub-space diagonalisation
    after iterative eigenvector-optimisation
 modified Broyden-mixing scheme, WC =      100.0
 initial mixing is a Kerker type mixing with AMIX =  0.4000 and BMIX =      1.0000
 Hartree-type preconditioning will be used
 using additional bands           40
 real space projection scheme for non local part
 use partial core corrections
 calculate Harris-corrections to forces   (improved forces if not selfconsistent)
 use gradient corrections 
 use of overlap-Matrix (Vanderbilt PP)
 Gauss-broadening in eV      SIGMA  =   0.01


--------------------------------------------------------------------------------------------------------


  energy-cutoff  :      300.00
  volume of cell :     1616.17
      direct lattice vectors                 reciprocal lattice vectors
    11.735352000  0.000000000  0.000000000     0.085212612  0.000000000  0.000000000
     0.000000000 11.735352000  0.000000000     0.000000000  0.085212612  0.000000000
     0.000000000  0.000000000 11.735352000     0.000000000  0.000000000  0.085212612

  length of vectors
    11.735352000 11.735352000 11.735352000     0.085212612  0.085212612  0.085212612



 k-points in units of 2pi/SCALE and weight: 1x1x1                                   
   0.00000000  0.00000000  0.00000000       0.125
   0.04260631  0.00000000  0.00000000       0.250
   0.04260631  0.04260631  0.00000000       0.125
   0.00000000  0.00000000  0.04260631       0.125
   0.04260631  0.00000000  0.04260631       0.250
   0.04260631  0.04260631  0.04260631       0.125

 k-points in reciprocal lattice and weights: 1x1x1                                   
   0.00000000  0.00000000  0.00000000       0.125
   0.50000000  0.00000000  0.00000000       0.250
   0.50000000  0.50000000  0.00000000       0.125
   0.00000000  0.00000000  0.50000000       0.125
   0.50000000  0.00000000  0.50000000       0.250
   0.50000000  0.50000000  0.50000000       0.125

 position of ions in fractional coordinates (direct lattice) 
   0.25000000  0.25000000  0.25000000
   0.25000000  0.25000000  0.75000000
   0.25000000  0.75000000  0.25000000
   0.25000000  0.75000000  0.75000000
   0.75000000  0.25000000  0.25000000
   0.75000000  0.25000000  0.75000000
   0.75000000  0.75000000  0.25000000
   0.75000000  0.75000000  0.75000000
   0.00000000  0.00000000  0.00000000
   0.00000000  0.00000000  0.50000000
   0.00000000  0.50000000  0.00000000
   0.00000000  0.50000000  0.50000000
   0.50000000  0.00000000  0.00000000
   0.50000000  0.00000000  0.50000000
   0.50000000  0.50000000  0.00000000
   0.50000000  0.50000000  0.50000000
   0.98875000  0.25000000  0.00000000
   0.01125000  0.25000000  0.50000000
   0.01125000  0.75000000  0.00000000
   0.98875000  0.75000000  0.50000000
   0.51125000  0.25000000  0.00000000
   0.48875000  0.25000000  0.50000000
   0.48875000  0.75000000  0.00000000
   0.51125000  0.75000000  0.50000000
   0.00000000  0.00000000  0.25000000
   0.00000000  0.00000000  0.75000000
   0.00000000  0.50000000  0.25000000
   0.00000000  0.50000000  0.75000000
   0.50000000  0.00000000  0.25000000
   0.50000000  0.00000000  0.75000000
   0.50000000  0.50000000  0.25000000
   0.50000000  0.50000000  0.75000000
   0.25000000  0.01125000  0.00000000
   0.25000000  0.98875000  0.50000000
   0.25000000  0.48875000  0.00000000
   0.25000000  0.51125000  0.50000000
   0.75000000  0.98875000  0.00000000
   0.75000000  0.01125000  0.50000000
   0.75000000  0.51125000  0.00000000
   0.75000000  0.48875000  0.50000000

 position of ions in cartesian coordinates  (Angst):
   2.93383800  2.93383800  2.93383800
   2.93383800  2.93383800  8.80151400
   2.93383800  8.80151400  2.93383800
   2.93383800  8.80151400  8.80151400
   8.80151400  2.93383800  2.93383800
   8.80151400  2.93383800  8.80151400
   8.80151400  8.80151400  2.93383800
   8.80151400  8.80151400  8.80151400
   0.00000000  0.00000000  0.00000000
   0.00000000  0.00000000  5.86767600
   0.00000000  5.86767600  0.00000000
   0.00000000  5.86767600  5.86767600
   5.86767600  0.00000000  0.00000000
   5.86767600  0.00000000  5.86767600
   5.86767600  5.86767600  0.00000000
   5.86767600  5.86767600  5.86767600
  11.60332929  2.93383800  0.00000000
   0.13202271  2.93383800  5.86767600
   0.13202271  8.80151400  0.00000000
  11.60332929  8.80151400  5.86767600
   5.99969871  2.93383800  0.00000000
   5.73565329  2.93383800  5.86767600
   5.73565329  8.80151400  0.00000000
   5.99969871  8.80151400  5.86767600
   0.00000000  0.00000000  2.93383800
   0.00000000  0.00000000  8.80151400
   0.00000000  5.86767600  2.93383800
   0.00000000  5.86767600  8.80151400
   5.86767600  0.00000000  2.93383800
   5.86767600  0.00000000  8.80151400
   5.86767600  5.86767600  2.93383800
   5.86767600  5.86767600  8.80151400
   2.93383800  0.13202271  0.00000000
   2.93383800 11.60332929  5.86767600
   2.93383800  5.73565329  0.00000000
   2.93383800  5.99969871  5.86767600
   8.80151400 11.60332929  0.00000000
   8.80151400  0.13202271  5.86767600
   8.80151400  5.99969871  0.00000000
   8.80151400  5.73565329  5.86767600



--------------------------------------------------------------------------------------------------------


 k-point  1 :   0.0000 0.0000 0.0000  plane waves:   19093
 k-point  2 :   0.5000 0.0000 0.0000  plane waves:   19066
 k-point  3 :   0.5000 0.5000 0.0000  plane waves:   19072
 k-point  4 :   0.0000 0.0000 0.5000  plane waves:   19066
 k-point  5 :   0.5000 0.0000 0.5000  plane waves:   19072
 k-point  6 :   0.5000 0.5000 0.5000  plane waves:   19064

 maximum and minimum number of plane-waves per node :      2417     2354

 maximum number of plane-waves:     19093
 maximum index in each direction: 
   IXMAX=   16   IYMAX=   16   IZMAX=   16
   IXMIN=  -17   IYMIN=  -17   IZMIN=  -17


 real space projection operators:
  total allocation   :      16861.50 KBytes
  max/ min on nodes  :       2223.81       1843.75


 parallel 3D FFT for wavefunctions:
    minimum data exchange during FFTs selected (reduces bandwidth)
 parallel 3D FFT for charge:
    minimum data exchange during FFTs selected (reduces bandwidth)


 total amount of memory used by VASP MPI-rank0    58990. kBytes
=======================================================================

   base      :      30000. kBytes
   nonlr-proj:       6618. kBytes
   fftplans  :       8423. kBytes
   grid      :       7465. kBytes
   one-center:         77. kBytes
   wavefun   :       6407. kBytes

     INWAV:  cpu time    0.0002: real time    0.0006
 Broyden mixing: mesh for mixing (old mesh)
   NGX = 33   NGY = 33   NGZ = 33
  (NGX  =140   NGY  =140   NGZ  =140)
  gives a total of  35937 points

 initial charge density was supplied:
 charge density of overlapping atoms calculated
 number of electron     352.0000000 magnetization 
 keeping initial charge density in first step


--------------------------------------------------------------------------------------------------------


 Maximum index for non-local projection operator          712
 Maximum index for augmentation-charges         2962 (set IRDMAX)


--------------------------------------------------------------------------------------------------------


 First call to EWALD:  gamma=   0.151
 Maximum number of real-space cells 3x 3x 3
 Maximum number of reciprocal cells 3x 3x 3

    FEWALD:  cpu time    0.0040: real time    0.0040


--------------------------------------- Iteration      1(   1)  ---------------------------------------


    POTLOK:  cpu time    0.2597: real time    0.2944
    SETDIJ:  cpu time    1.1985: real time    1.1986
     EDDAV:  cpu time   12.8253: real time   12.8306
       DOS:  cpu time    0.0007: real time    0.0007
    --------------------------------------------
      LOOP:  cpu time   14.2842: real time   14.3243

 eigenvalue-minimisations  :  2680
 total energy-change (2. order) : 0.1342194E+04  (-0.1129629E+05)
 number of electron     352.0000000 magnetization 
 augmentation part      352.0000000 magnetization 

 Free energy of the ion-electron system (eV)
  ---------------------------------------------------
  alpha Z        PSCENC =       892.99476195
  Ewald energy   TEWEN  =    -18197.57183547
  -Hartree energ DENC   =     -7551.22505475
  -exchange      EXHF   =         0.00000000
  -V(xc)+E(xc)   XCENC  =       924.97180809
  PAW double counting   =     21633.96174531   -22707.92185401
  entropy T*S    EENTRO =        -0.00141627
  eigenvalues    EBANDS =      -233.57461669
  atomic energy  EATOM  =     26580.56019858
  Solvation  Ediel_sol  =         0.00000000
  ---------------------------------------------------
  free energy    TOTEN  =      1342.19373675 eV

  energy without entropy =     1342.19515301  energy(sigma->0) =     1342.19444488


--------------------------------------------------------------------------------------------------------




--------------------------------------- Iteration      1(   2)  ---------------------------------------


     EDDAV:  cpu time   14.2111: real time   14.2279
       DOS:  cpu time    0.0004: real time    0.0004
    --------------------------------------------
      LOOP:  cpu time   14.2115: real time   14.2283

 eigenvalue-minimisations  :  3144
 total energy-change (2. order) :-0.2472796E+04  (-0.2384962E+04)
 number of electron     352.0000000 magnetization 
 augmentation part      352.0000000 magnetization 

 Free energy of the ion-electron system (eV)
  ---------------------------------------------------
  alpha Z        PSCENC =       892.99476195
  Ewald energy   TEWEN  =    -18197.57183547
  -Hartree energ DENC   =     -7551.22505475
  -exchange      EXHF   =         0.00000000
  -V(xc)+E(xc)   XCENC  =       924.97180809
  PAW double counting   =     21633.96174531   -22707.92185401
  entropy T*S    EENTRO =        -0.00000000
  eigenvalues    EBANDS =     -2706.37188258
  atomic energy  EATOM  =     26580.56019858
  Solvation  Ediel_sol  =         0.00000000
  ---------------------------------------------------
  free energy    TOTEN  =     -1130.60211288 eV

  energy without entropy =    -1130.60211288  energy(sigma->0) =    -1130.60211288


--------------------------------------------------------------------------------------------------------




--------------------------------------- Iteration      1(   3)  ---------------------------------------


     EDDAV:  cpu time   15.1855: real time   15.2382
       DOS:  cpu time    0.0004: real time    0.0004
    --------------------------------------------
      LOOP:  cpu time   15.1859: real time   15.2385

 eigenvalue-minimisations  :  3496
 total energy-change (2. order) :-0.3645046E+03  (-0.3624119E+03)
 number of electron     352.0000000 magnetization 
 augmentation part      352.0000000 magnetization 

 Free energy of the ion-electron system (eV)
  ---------------------------------------------------
  alpha Z        PSCENC =       892.99476195
  Ewald energy   TEWEN  =    -18197.57183547
  -Hartree energ DENC   =     -7551.22505475
  -exchange      EXHF   =         0.00000000
  -V(xc)+E(xc)   XCENC  =       924.97180809
  PAW double counting   =     21633.96174531   -22707.92185401
  entropy T*S    EENTRO =        -0.00000000
  eigenvalues    EBANDS =     -3070.87646157
  atomic energy  EATOM  =     26580.56019858
  Solvation  Ediel_sol  =         0.00000000
  ---------------------------------------------------
  free energy    TOTEN  =     -1495.10669187 eV

  energy without entropy =    -1495.10669187  energy(sigma->0) =    -1495.10669187


--------------------------------------------------------------------------------------------------------




--------------------------------------- Iteration      1(   4)  ---------------------------------------


     EDDAV:  cpu time   14.0742: real time   14.1136
       DOS:  cpu time    0.0004: real time    0.0004
    --------------------------------------------
      LOOP:  cpu time   14.0746: real time   14.1140

 eigenvalue-minimisations  :  3112
 total energy-change (2. order) :-0.1197041E+02  (-0.1192451E+02)
 number of electron     352.0000000 magnetization 
 augmentation part      352.0000000 magnetization 

 Free energy of the ion-electron system (eV)
  ---------------------------------------------------
  alpha Z        PSCENC =       892.99476195
  Ewald energy   TEWEN  =    -18197.57183547
  -Hartree energ DENC   =     -7551.22505475
  -exchange      EXHF   =         0.00000000
  -V(xc)+E(xc)   XCENC  =       924.97180809
  PAW double counting   =     21633.96174531   -22707.92185401
  entropy T*S    EENTRO =        -0.00000000
  eigenvalues    EBANDS =     -3082.84686759
  atomic energy  EATOM  =     26580.56019858
  Solvation  Ediel_sol  =         0.00000000
  ---------------------------------------------------
  free energy    TOTEN  =     -1507.07709789 eV

  energy without entropy =    -1507.07709789  energy(sigma->0) =    -1507.07709789


--------------------------------------------------------------------------------------------------------




--------------------------------------- Iteration      1(   5)  ---------------------------------------


     EDDAV:  cpu time   15.0160: real time   15.0361
       DOS:  cpu time    0.0004: real time    0.0004
    CHARGE:  cpu time    3.0759: real time    3.0760
    MIXING:  cpu time    0.0014: real time    0.0014
    --------------------------------------------
      LOOP:  cpu time   18.0937: real time   18.1139

 eigenvalue-minimisations  :  3440
 total energy-change (2. order) :-0.5387461E+00  (-0.5384532E+00)
 number of electron     351.9999985 magnetization 
 augmentation part       -6.5405199 magnetization 

 Broyden mixing:
  rms(total) = 0.10698E+01    rms(broyden)= 0.10695E+01
  rms(prec ) = 0.13993E+01
  weight for this iteration     100.00

 Free energy of the ion-electron system (eV)
  ---------------------------------------------------
  alpha Z        PSCENC =       892.99476195
  Ewald energy   TEWEN  =    -18197.57183547
  -Hartree energ DENC   =     -7551.22505475
  -exchange      EXHF   =         0.00000000
  -V(xc)+E(xc)   XCENC  =       924.97180809
  PAW double counting   =     21633.96174531   -22707.92185401
  entropy T*S    EENTRO =        -0.00000000
  eigenvalues    EBANDS =     -3083.38561369
  atomic energy  EATOM  =     26580.56019858
  Solvation  Ediel_sol  =         0.00000000
  ---------------------------------------------------
  free energy    TOTEN  =     -1507.61584399 eV

  energy without entropy =    -1507.61584399  energy(sigma->0) =    -1507.61584399


--------------------------------------------------------------------------------------------------------




--------------------------------------- Iteration      1(   6)  ---------------------------------------


    POTLOK:  cpu time    0.2620: real time    0.2753
    SETDIJ:  cpu time    1.1942: real time    1.1942
     EDDAV:  cpu time   14.6724: real time   14.6731
       DOS:  cpu time    0.0004: real time    0.0004
    CHARGE:  cpu time    3.1017: real time    3.1037
    MIXING:  cpu time    0.0017: real time    0.0017
    --------------------------------------------
      LOOP:  cpu time   19.2324: real time   19.2485

 eigenvalue-minimisations  :  3328
 total energy-change (2. order) : 0.7842917E+02  (-0.2238177E+01)
 number of electron     351.9999985 magnetization 
 augmentation part       -5.1340913 magnetization 

 Broyden mixing:
  rms(total) = 0.75482E+00    rms(broyden)= 0.75473E+00
  rms(prec ) = 0.90928E+00
  weight for this iteration     100.00

 eigenvalues of (default mixing * dielectric matrix)
  average eigenvalue GAMMA=   1.2921
  1.2921

 Free energy of the ion-electron system (eV)
  ---------------------------------------------------
  alpha Z        PSCENC =       892.99476195
  Ewald energy   TEWEN  =    -18197.57183547
  -Hartree energ DENC   =     -7537.89523913
  -exchange      EXHF   =         0.00000000
  -V(xc)+E(xc)   XCENC  =       955.90407301
  PAW double counting   =     22040.07103321   -23113.79298805
  entropy T*S    EENTRO =        -0.00000000
  eigenvalues    EBANDS =     -3049.45667595
  atomic energy  EATOM  =     26580.56019858
  Solvation  Ediel_sol  =         0.00000000
  ---------------------------------------------------
  free energy    TOTEN  =     -1429.18667187 eV

  energy without entropy =    -1429.18667187  energy(sigma->0) =    -1429.18667187


--------------------------------------------------------------------------------------------------------




--------------------------------------- Iteration      1(   7)  ---------------------------------------


    POTLOK:  cpu time    0.2750: real time    0.2848
    SETDIJ:  cpu time    1.1986: real time    1.1987
     EDDAV:  cpu time   14.3151: real time   14.3157
       DOS:  cpu time    0.0004: real time    0.0004
    CHARGE:  cpu time    3.1187: real time    3.1189
    MIXING:  cpu time    0.0018: real time    0.0018
    --------------------------------------------
      LOOP:  cpu time   18.9097: real time   18.9202

 eigenvalue-minimisations  :  3200
 total energy-change (2. order) : 0.5036035E+00  (-0.7503320E+00)
 number of electron     351.9999985 magnetization 
 augmentation part       -4.6196722 magnetization 

 Broyden mixing:
  rms(total) = 0.36135E+00    rms(broyden)= 0.36134E+00
  rms(prec ) = 0.39527E+00
  weight for this iteration     100.00

 eigenvalues of (default mixing * dielectric matrix)
  average eigenvalue GAMMA=   1.3355
  1.3355  1.3355

 Free energy of the ion-electron system (eV)
  ---------------------------------------------------
  alpha Z        PSCENC =       892.99476195
  Ewald energy   TEWEN  =    -18197.57183547
  -Hartree energ DENC   =     -7583.78347577
  -exchange      EXHF   =         0.00000000
  -V(xc)+E(xc)   XCENC  =       961.55854486
  PAW double counting   =     22751.97155858   -23825.00274637
  entropy T*S    EENTRO =        -0.00000000
  eigenvalues    EBANDS =     -3009.41007469
  atomic energy  EATOM  =     26580.56019858
  Solvation  Ediel_sol  =         0.00000000
  ---------------------------------------------------
  free energy    TOTEN  =     -1428.68306834 eV

  energy without entropy =    -1428.68306834  energy(sigma->0) =    -1428.68306834


--------------------------------------------------------------------------------------------------------




--------------------------------------- Iteration      1(   8)  ---------------------------------------


    POTLOK:  cpu time    0.2780: real time    0.2976
    SETDIJ:  cpu time    1.1964: real time    1.1964
     EDDAV:  cpu time   14.2777: real time   14.2782
       DOS:  cpu time    0.0006: real time    0.0006
    CHARGE:  cpu time    3.1232: real time    3.1232
    MIXING:  cpu time    0.0015: real time    0.0015
    --------------------------------------------
      LOOP:  cpu time   18.8774: real time   18.8975

 eigenvalue-minimisations  :  3192
 total energy-change (2. order) :-0.1709268E+00  (-0.3724654E-01)
 number of electron     351.9999985 magnetization 
 augmentation part       -4.6929063 magnetization 

 Broyden mixing:
  rms(total) = 0.20939E+00    rms(broyden)= 0.20939E+00
  rms(prec ) = 0.22949E+00
  weight for this iteration     100.00

 eigenvalues of (default mixing * dielectric matrix)
  average eigenvalue GAMMA=   1.7662
  1.0873  1.3401  2.8711

 Free energy of the ion-electron system (eV)
  ---------------------------------------------------
  alpha Z        PSCENC =       892.99476195
  Ewald energy   TEWEN  =    -18197.57183547
  -Hartree energ DENC   =     -7589.83357332
  -exchange      EXHF   =         0.00000000
  -V(xc)+E(xc)   XCENC  =       962.43485776
  PAW double counting   =     23032.66470683   -24106.17092152
  entropy T*S    EENTRO =        -0.00000000
  eigenvalues    EBANDS =     -3003.93218997
  atomic energy  EATOM  =     26580.56019858
  Solvation  Ediel_sol  =         0.00000000
  ---------------------------------------------------
  free energy    TOTEN  =     -1428.85399516 eV

  energy without entropy =    -1428.85399516  energy(sigma->0) =    -1428.85399516


--------------------------------------------------------------------------------------------------------




--------------------------------------- Iteration      1(   9)  ---------------------------------------


    POTLOK:  cpu time    0.2691: real time    0.2775
    SETDIJ:  cpu time    1.1964: real time    1.1964
     EDDAV:  cpu time   13.2459: real time   13.2465
       DOS:  cpu time    0.0004: real time    0.0004
    CHARGE:  cpu time    3.1299: real time    3.1300
    MIXING:  cpu time    0.0016: real time    0.0016
    --------------------------------------------
      LOOP:  cpu time   17.8432: real time   17.8523

 eigenvalue-minimisations  :  2832
 total energy-change (2. order) :-0.7994327E-01  (-0.1484608E-01)
 number of electron     351.9999985 magnetization 
 augmentation part       -4.7409093 magnetization 

 Broyden mixing:
  rms(total) = 0.48513E-01    rms(broyden)= 0.48512E-01
  rms(prec ) = 0.51467E-01
  weight for this iteration     100.00

 eigenvalues of (default mixing * dielectric matrix)
  average eigenvalue GAMMA=   1.4815
  2.5717  1.2560  1.2560  0.8421

 Free energy of the ion-electron system (eV)
  ---------------------------------------------------
  alpha Z        PSCENC =       892.99476195
  Ewald energy   TEWEN  =    -18197.57183547
  -Hartree energ DENC   =     -7596.76524134
  -exchange      EXHF   =         0.00000000
  -V(xc)+E(xc)   XCENC  =       964.43721938
  PAW double counting   =     23419.03862453   -24493.54640105
  entropy T*S    EENTRO =        -0.00000000
  eigenvalues    EBANDS =     -2998.08126501
  atomic energy  EATOM  =     26580.56019858
  Solvation  Ediel_sol  =         0.00000000
  ---------------------------------------------------
  free energy    TOTEN  =     -1428.93393844 eV

  energy without entropy =    -1428.93393844  energy(sigma->0) =    -1428.93393844


--------------------------------------------------------------------------------------------------------




--------------------------------------- Iteration      1(  10)  ---------------------------------------


    POTLOK:  cpu time    0.2597: real time    0.2801
    SETDIJ:  cpu time    1.1999: real time    1.1999
     EDDAV:  cpu time   15.4429: real time   15.4437
       DOS:  cpu time    0.0004: real time    0.0004
    CHARGE:  cpu time    3.1254: real time    3.1254
    MIXING:  cpu time    0.0017: real time    0.0017
    --------------------------------------------
      LOOP:  cpu time   20.0299: real time   20.0512

 eigenvalue-minimisations  :  3600
 total energy-change (2. order) :-0.9392475E-03  (-0.9197586E-03)
 number of electron     351.9999985 magnetization 
 augmentation part       -4.7256028 magnetization 

 Broyden mixing:
  rms(total) = 0.27142E-01    rms(broyden)= 0.27142E-01
  rms(prec ) = 0.29796E-01
  weight for this iteration     100.00

 eigenvalues of (default mixing * dielectric matrix)
  average eigenvalue GAMMA=   1.5642
  2.3629  2.3629  1.1229  1.1229  0.8495

 Free energy of the ion-electron system (eV)
  ---------------------------------------------------
  alpha Z        PSCENC =       892.99476195
  Ewald energy   TEWEN  =    -18197.57183547
  -Hartree energ DENC   =     -7595.11497913
  -exchange      EXHF   =         0.00000000
  -V(xc)+E(xc)   XCENC  =       964.20570743
  PAW double counting   =     23369.93964553   -24444.42989256
  entropy T*S    EENTRO =        -0.00000000
  eigenvalues    EBANDS =     -2999.51848400
  atomic energy  EATOM  =     26580.56019858
  Solvation  Ediel_sol  =         0.00000000
  ---------------------------------------------------
  free energy    TOTEN  =     -1428.93487768 eV

  energy without entropy =    -1428.93487768  energy(sigma->0) =    -1428.93487768


--------------------------------------------------------------------------------------------------------




--------------------------------------- Iteration      1(  11)  ---------------------------------------


    POTLOK:  cpu time    0.2961: real time    0.3043
    SETDIJ:  cpu time    1.1968: real time    1.1968
     EDDAV:  cpu time   13.6880: real time   13.6884
       DOS:  cpu time    0.0003: real time    0.0003
    CHARGE:  cpu time    3.1289: real time    3.1290
    MIXING:  cpu time    0.0018: real time    0.0018
    --------------------------------------------
      LOOP:  cpu time   18.3119: real time   18.3206

 eigenvalue-minimisations  :  2992
 total energy-change (2. order) :-0.2904251E-02  (-0.2633913E-03)
 number of electron     351.9999985 magnetization 
 augmentation part       -4.7222246 magnetization 

 Broyden mixing:
  rms(total) = 0.94967E-02    rms(broyden)= 0.94966E-02
  rms(prec ) = 0.11954E-01
  weight for this iteration     100.00

 eigenvalues of (default mixing * dielectric matrix)
  average eigenvalue GAMMA=   1.6032
  2.6448  2.6448  1.2582  1.2582  0.9067  0.9067

 Free energy of the ion-electron system (eV)
  ---------------------------------------------------
  alpha Z        PSCENC =       892.99476195
  Ewald energy   TEWEN  =    -18197.57183547
  -Hartree energ DENC   =     -7593.03107441
  -exchange      EXHF   =         0.00000000
  -V(xc)+E(xc)   XCENC  =       964.11368008
  PAW double counting   =     23332.01208987   -24406.61993627
  entropy T*S    EENTRO =        -0.00000000
  eigenvalues    EBANDS =     -3001.39566626
  atomic energy  EATOM  =     26580.56019858
  Solvation  Ediel_sol  =         0.00000000
  ---------------------------------------------------
  free energy    TOTEN  =     -1428.93778194 eV

  energy without entropy =    -1428.93778194  energy(sigma->0) =    -1428.93778194


--------------------------------------------------------------------------------------------------------




--------------------------------------- Iteration      1(  12)  ---------------------------------------


    POTLOK:  cpu time    0.2609: real time    0.2950
    SETDIJ:  cpu time    1.1974: real time    1.1974
     EDDAV:  cpu time   13.5910: real time   13.5916
       DOS:  cpu time    0.0004: real time    0.0004
    CHARGE:  cpu time    3.1240: real time    3.1242
    MIXING:  cpu time    0.0020: real time    0.0020
    --------------------------------------------
      LOOP:  cpu time   18.1757: real time   18.2105

 eigenvalue-minimisations  :  2960
 total energy-change (2. order) :-0.7680201E-03  (-0.9889102E-04)
 number of electron     351.9999985 magnetization 
 augmentation part       -4.7260903 magnetization 

 Broyden mixing:
  rms(total) = 0.42486E-02    rms(broyden)= 0.42484E-02
  rms(prec ) = 0.47945E-02
  weight for this iteration     100.00

 eigenvalues of (default mixing * dielectric matrix)
  average eigenvalue GAMMA=   1.6397
  3.0087  2.5587  1.7257  1.2240  0.9743  0.9933  0.9933

 Free energy of the ion-electron system (eV)
  ---------------------------------------------------
  alpha Z        PSCENC =       892.99476195
  Ewald energy   TEWEN  =    -18197.57183547
  -Hartree energ DENC   =     -7593.30867898
  -exchange      EXHF   =         0.00000000
  -V(xc)+E(xc)   XCENC  =       964.24870100
  PAW double counting   =     23340.07621460   -24414.78778593
  entropy T*S    EENTRO =        -0.00000000
  eigenvalues    EBANDS =     -3001.15012571
  atomic energy  EATOM  =     26580.56019858
  Solvation  Ediel_sol  =         0.00000000
  ---------------------------------------------------
  free energy    TOTEN  =     -1428.93854996 eV

  energy without entropy =    -1428.93854996  energy(sigma->0) =    -1428.93854996


--------------------------------------------------------------------------------------------------------




--------------------------------------- Iteration      1(  13)  ---------------------------------------


    POTLOK:  cpu time    0.2646: real time    0.3109
    SETDIJ:  cpu time    1.1985: real time    1.1985
     EDDAV:  cpu time   14.7074: real time   14.7079
       DOS:  cpu time    0.0004: real time    0.0004
    CHARGE:  cpu time    3.1226: real time    3.1228
    MIXING:  cpu time    0.0019: real time    0.0019
    --------------------------------------------
      LOOP:  cpu time   19.2954: real time   19.3424

 eigenvalue-minimisations  :  3344
 total energy-change (2. order) :-0.3009294E-04  (-0.1143301E-04)
 number of electron     351.9999985 magnetization 
 augmentation part       -4.7252502 magnetization 

 Broyden mixing:
  rms(total) = 0.15987E-02    rms(broyden)= 0.15986E-02
  rms(prec ) = 0.16630E-02
  weight for this iteration     100.00

 eigenvalues of (default mixing * dielectric matrix)
  average eigenvalue GAMMA=   1.5908
  3.0085  2.6272  1.5018  1.5018  1.1434  1.1434  0.9452  0.8551

 Free energy of the ion-electron system (eV)
  ---------------------------------------------------
  alpha Z        PSCENC =       892.99476195
  Ewald energy   TEWEN  =    -18197.57183547
  -Hartree energ DENC   =     -7593.69125425
  -exchange      EXHF   =         0.00000000
  -V(xc)+E(xc)   XCENC  =       964.27438583
  PAW double counting   =     23336.58886559   -24411.29270798
  entropy T*S    EENTRO =        -0.00000000
  eigenvalues    EBANDS =     -3000.80099428
  atomic energy  EATOM  =     26580.56019858
  Solvation  Ediel_sol  =         0.00000000
  ---------------------------------------------------
  free energy    TOTEN  =     -1428.93858005 eV

  energy without entropy =    -1428.93858005  energy(sigma->0) =    -1428.93858005


--------------------------------------------------------------------------------------------------------




--------------------------------------- Iteration      1(  14)  ---------------------------------------


    POTLOK:  cpu time    0.2634: real time    0.3041
    SETDIJ:  cpu time    1.2008: real time    1.2009
     EDDAV:  cpu time   13.5714: real time   13.5721
       DOS:  cpu time    0.0004: real time    0.0004
    CHARGE:  cpu time    3.1297: real time    3.1298
    MIXING:  cpu time    0.0018: real time    0.0018
    --------------------------------------------
      LOOP:  cpu time   18.1674: real time   18.2090

 eigenvalue-minimisations  :  2944
 total energy-change (2. order) :-0.2819269E-04  (-0.1034768E-05)
 number of electron     351.9999985 magnetization 
 augmentation part       -4.7247992 magnetization 

 Broyden mixing:
  rms(total) = 0.79347E-03    rms(broyden)= 0.79346E-03
  rms(prec ) = 0.82249E-03
  weight for this iteration     100.00

 eigenvalues of (default mixing * dielectric matrix)
  average eigenvalue GAMMA=   1.6747
  2.9938  2.5152  2.2585  2.2585  1.1097  1.1097  0.9876  0.9876  0.8516

 Free energy of the ion-electron system (eV)
  ---------------------------------------------------
  alpha Z        PSCENC =       892.99476195
  Ewald energy   TEWEN  =    -18197.57183547
  -Hartree energ DENC   =     -7593.71238575
  -exchange      EXHF   =         0.00000000
  -V(xc)+E(xc)   XCENC  =       964.27358794
  PAW double counting   =     23336.22680775   -24410.92688152
  entropy T*S    EENTRO =        -0.00000000
  eigenvalues    EBANDS =     -3000.78286171
  atomic energy  EATOM  =     26580.56019858
  Solvation  Ediel_sol  =         0.00000000
  ---------------------------------------------------
  free energy    TOTEN  =     -1428.93860824 eV

  energy without entropy =    -1428.93860824  energy(sigma->0) =    -1428.93860824


--------------------------------------------------------------------------------------------------------




--------------------------------------- Iteration      1(  15)  ---------------------------------------


    POTLOK:  cpu time    0.2596: real time    0.3054
    SETDIJ:  cpu time    1.1967: real time    1.1967
     EDDAV:  cpu time   10.3635: real time   10.3638
       DOS:  cpu time    0.0004: real time    0.0004
    CHARGE:  cpu time    3.1251: real time    3.1251
    MIXING:  cpu time    0.0021: real time    0.0021
    --------------------------------------------
      LOOP:  cpu time   14.9473: real time   14.9935

 eigenvalue-minimisations  :  1800
 total energy-change (2. order) : 0.1342734E-04  (-0.1016563E-06)
 number of electron     351.9999985 magnetization 
 augmentation part       -4.7250029 magnetization 

 Broyden mixing:
  rms(total) = 0.10069E-03    rms(broyden)= 0.10068E-03
  rms(prec ) = 0.12712E-03
  weight for this iteration     100.00

 eigenvalues of (default mixing * dielectric matrix)
  average eigenvalue GAMMA=   1.6366
  3.1697  2.6262  2.6262  1.7333  1.3085  1.0955  1.0955  0.9379  0.9379  0.8353

 Free energy of the ion-electron system (eV)
  ---------------------------------------------------
  alpha Z        PSCENC =       892.99476195
  Ewald energy   TEWEN  =    -18197.57183547
  -Hartree energ DENC   =     -7593.73559202
  -exchange      EXHF   =         0.00000000
  -V(xc)+E(xc)   XCENC  =       964.27455463
  PAW double counting   =     23336.81479038   -24411.51140697
  entropy T*S    EENTRO =        -0.00000000
  eigenvalues    EBANDS =     -3000.76406588
  atomic energy  EATOM  =     26580.56019858
  Solvation  Ediel_sol  =         0.00000000
  ---------------------------------------------------
  free energy    TOTEN  =     -1428.93859481 eV

  energy without entropy =    -1428.93859481  energy(sigma->0) =    -1428.93859481


--------------------------------------------------------------------------------------------------------




--------------------------------------- Iteration      1(  16)  ---------------------------------------


    POTLOK:  cpu time    0.2602: real time    0.3162
    SETDIJ:  cpu time    1.1981: real time    1.1981
     EDDAV:  cpu time   10.0733: real time   10.0737
       DOS:  cpu time    0.0004: real time    0.0004
    CHARGE:  cpu time    3.1333: real time    3.1335
    MIXING:  cpu time    0.0021: real time    0.0021
    --------------------------------------------
      LOOP:  cpu time   14.6674: real time   14.7239

 eigenvalue-minimisations  :  1696
 total energy-change (2. order) : 0.5913724E-05  (-0.4766409E-07)
 number of electron     351.9999985 magnetization 
 augmentation part       -4.7249597 magnetization 

 Broyden mixing:
  rms(total) = 0.82308E-04    rms(broyden)= 0.82304E-04
  rms(prec ) = 0.88722E-04
  weight for this iteration     100.00

 eigenvalues of (default mixing * dielectric matrix)
  average eigenvalue GAMMA=   1.6006
  3.0972  2.6329  2.6329  1.7670  1.4816  1.1394  1.1394  0.9787  0.9163  0.9108
  0.9108

 Free energy of the ion-electron system (eV)
  ---------------------------------------------------
  alpha Z        PSCENC =       892.99476195
  Ewald energy   TEWEN  =    -18197.57183547
  -Hartree energ DENC   =     -7593.75828560
  -exchange      EXHF   =         0.00000000
  -V(xc)+E(xc)   XCENC  =       964.27598656
  PAW double counting   =     23336.68735077   -24411.38312452
  entropy T*S    EENTRO =        -0.00000000
  eigenvalues    EBANDS =     -3000.74364117
  atomic energy  EATOM  =     26580.56019858
  Solvation  Ediel_sol  =         0.00000000
  ---------------------------------------------------
  free energy    TOTEN  =     -1428.93858890 eV

  energy without entropy =    -1428.93858890  energy(sigma->0) =    -1428.93858890


--------------------------------------------------------------------------------------------------------




--------------------------------------- Iteration      1(  17)  ---------------------------------------


    POTLOK:  cpu time    0.2778: real time    0.2926
    SETDIJ:  cpu time    1.1952: real time    1.1952
     EDDAV:  cpu time    9.9919: real time    9.9923
       DOS:  cpu time    0.0004: real time    0.0004
    CHARGE:  cpu time    3.1266: real time    3.1267
    MIXING:  cpu time    0.0019: real time    0.0019
    --------------------------------------------
      LOOP:  cpu time   14.5937: real time   14.6091

 eigenvalue-minimisations  :  1664
 total energy-change (2. order) : 0.5965466E-05  (-0.1079582E-07)
 number of electron     351.9999985 magnetization 
 augmentation part       -4.7249373 magnetization 

 Broyden mixing:
  rms(total) = 0.17687E-04    rms(broyden)= 0.17684E-04
  rms(prec ) = 0.21441E-04
  weight for this iteration     100.00

 eigenvalues of (default mixing * dielectric matrix)
  average eigenvalue GAMMA=   1.6954
  3.3739  2.7487  2.7487  2.4207  1.7253  1.3734  1.0937  1.0937  0.9061  0.9061
  0.9771  0.9771

 Free energy of the ion-electron system (eV)
  ---------------------------------------------------
  alpha Z        PSCENC =       892.99476195
  Ewald energy   TEWEN  =    -18197.57183547
  -Hartree energ DENC   =     -7593.75649480
  -exchange      EXHF   =         0.00000000
  -V(xc)+E(xc)   XCENC  =       964.27563022
  PAW double counting   =     23336.66717928   -24411.36314215
  entropy T*S    EENTRO =        -0.00000000
  eigenvalues    EBANDS =     -3000.74488054
  atomic energy  EATOM  =     26580.56019858
  Solvation  Ediel_sol  =         0.00000000
  ---------------------------------------------------
  free energy    TOTEN  =     -1428.93858293 eV

  energy without entropy =    -1428.93858293  energy(sigma->0) =    -1428.93858293


--------------------------------------------------------------------------------------------------------




--------------------------------------- Iteration      1(  18)  ---------------------------------------


    POTLOK:  cpu time    0.2765: real time    0.3089
    SETDIJ:  cpu time    1.1964: real time    1.1964
     EDDAV:  cpu time    9.9668: real time    9.9673
       DOS:  cpu time    0.0004: real time    0.0004
    CHARGE:  cpu time    3.1327: real time    3.1328
    MIXING:  cpu time    0.0021: real time    0.0021
    --------------------------------------------
      LOOP:  cpu time   14.5749: real time   14.6080

 eigenvalue-minimisations  :  1656
 total energy-change (2. order) : 0.1616464E-05  (-0.4969635E-08)
 number of electron     351.9999985 magnetization 
 augmentation part       -4.7249648 magnetization 

 Broyden mixing:
  rms(total) = 0.18105E-04    rms(broyden)= 0.18104E-04
  rms(prec ) = 0.20895E-04
  weight for this iteration     100.00

 eigenvalues of (default mixing * dielectric matrix)
  average eigenvalue GAMMA=   1.6433
  3.4167  2.7890  2.7890  1.9438  1.8312  1.8312  1.1263  1.0774  1.0774  0.9478
  0.9028  0.9028  0.7276

 Free energy of the ion-electron system (eV)
  ---------------------------------------------------
  alpha Z        PSCENC =       892.99476195
  Ewald energy   TEWEN  =    -18197.57183547
  -Hartree energ DENC   =     -7593.75863063
  -exchange      EXHF   =         0.00000000
  -V(xc)+E(xc)   XCENC  =       964.27575075
  PAW double counting   =     23336.65036365   -24411.34612512
  entropy T*S    EENTRO =        -0.00000000
  eigenvalues    EBANDS =     -3000.74306502
  atomic energy  EATOM  =     26580.56019858
  Solvation  Ediel_sol  =         0.00000000
  ---------------------------------------------------
  free energy    TOTEN  =     -1428.93858132 eV

  energy without entropy =    -1428.93858132  energy(sigma->0) =    -1428.93858132


--------------------------------------------------------------------------------------------------------




--------------------------------------- Iteration      1(  19)  ---------------------------------------


    POTLOK:  cpu time    0.2596: real time    0.2945
    SETDIJ:  cpu time    1.2013: real time    1.2013
     EDDAV:  cpu time    9.9414: real time    9.9418
       DOS:  cpu time    0.0003: real time    0.0003
    --------------------------------------------
      LOOP:  cpu time   11.4027: real time   11.4379

 eigenvalue-minimisations  :  1648
 total energy-change (2. order) :-0.7892645E-06  (-0.1554016E-08)
 number of electron     351.9999985 magnetization 
 augmentation part       -4.7249648 magnetization 

 Free energy of the ion-electron system (eV)
  ---------------------------------------------------
  alpha Z        PSCENC =       892.99476195
  Ewald energy   TEWEN  =    -18197.57183547
  -Hartree energ DENC   =     -7593.75870414
  -exchange      EXHF   =         0.00000000
  -V(xc)+E(xc)   XCENC  =       964.27579966
  PAW double counting   =     23336.65939946   -24411.35502165
  entropy T*S    EENTRO =        -0.00000000
  eigenvalues    EBANDS =     -3000.74318049
  atomic energy  EATOM  =     26580.56019858
  Solvation  Ediel_sol  =         0.00000000
  ---------------------------------------------------
  free energy    TOTEN  =     -1428.93858211 eV

  energy without entropy =    -1428.93858211  energy(sigma->0) =    -1428.93858211


--------------------------------------------------------------------------------------------------------




 average (electrostatic) potential at core
  the test charge radii are     1.1312  1.1541  1.0178
  (the norm of the test charge is              1.0000)
       1 -55.5908       2 -55.5908       3 -55.5908       4 -55.5908       5 -55.5908
       6 -55.5908       7 -55.5908       8 -55.5908       9-101.3806      10-101.3806
      11-101.3806      12-101.3806      13-101.3806      14-101.3806      15-101.3806
      16-101.3806      17 -68.9303      18 -68.9303      19 -68.9303      20 -68.9303
      21 -68.9303      22 -68.9303      23 -68.9303      24 -68.9303      25 -68.9343
      26 -68.9343      27 -68.9343      28 -68.9343      29 -68.9343      30 -68.9343
      31 -68.9343      32 -68.9343      33 -68.9303      34 -68.9303      35 -68.9303
      36 -68.9303      37 -68.9303      38 -68.9303      39 -68.9303      40 -68.9303



 E-fermi :   1.0616     XC(G=0):  -8.0349     alpha+bet : -7.0048


 k-point     1 :       0.0000    0.0000    0.0000
  band No.  band energies     occupation 
      1     -21.0844      2.00000
      2     -21.0834      2.00000
      3     -21.0834      2.00000
      4     -21.0834      2.00000
      5     -21.0825      2.00000
      6     -21.0825      2.00000
      7     -21.0825      2.00000
      8     -21.0812      2.00000
      9     -16.2854      2.00000
     10     -16.2848      2.00000
     11     -16.2848      2.00000
     12     -16.2833      2.00000
     13     -16.2833      2.00000
     14     -16.2494      2.00000
     15     -16.2473      2.00000
     16     -16.2473      2.00000
     17     -16.2065      2.00000
     18     -16.2064      2.00000
     19     -16.2064      2.00000
     20     -16.1575      2.00000
     21     -16.1575      2.00000
     22     -16.1572      2.00000
     23     -16.1568      2.00000
     24     -16.1564      2.00000
     25     -16.0586      2.00000
     26     -16.0584      2.00000
     27     -16.0584      2.00000
     28     -16.0583      2.00000
     29     -16.0581      2.00000
     30     -16.0581      2.00000
     31     -16.0576      2.00000
     32     -16.0576      2.00000
     33     -16.0574      2.00000
     34     -16.0574      2.00000
     35     -16.0574      2.00000
     36     -16.0574      2.00000
     37     -16.0574      2.00000
     38     -16.0574      2.00000
     39     -16.0572      2.00000
     40     -16.0572      2.00000
     41     -16.0572      2.00000
     42     -16.0572      2.00000
     43     -16.0563      2.00000
     44     -16.0562      2.00000
     45     -16.0561      2.00000
     46     -16.0561      2.00000
     47     -16.0560      2.00000
     48     -16.0560      2.00000
     49     -14.3930      2.00000
     50     -14.1610      2.00000
     51     -14.1610      2.00000
     52     -14.1584      2.00000
     53     -13.9952      2.00000
     54     -13.9952      2.00000
     55     -13.9940      2.00000
     56     -13.9907      2.00000
     57     -13.9903      2.00000
     58     -13.9903      2.00000
     59     -13.9896      2.00000
     60     -13.9896      2.00000
     61     -13.9884      2.00000
     62     -13.9884      2.00000
     63     -13.9852      2.00000
     64     -13.9852      2.00000
     65     -13.9023      2.00000
     66     -13.8985      2.00000
     67     -13.8985      2.00000
     68     -13.6219      2.00000
     69     -13.6217      2.00000
     70     -13.6199      2.00000
     71     -13.6199      2.00000
     72     -13.6196      2.00000
     73      -8.2654      2.00000
     74      -7.6449      2.00000
     75      -7.6449      2.00000
     76      -7.6356      2.00000
     77      -7.4704      2.00000
     78      -7.4704      2.00000
     79      -7.4675      2.00000
     80      -7.4448      2.00000
     81      -7.4448      2.00000
     82      -7.4443      2.00000
     83      -7.4443      2.00000
     84      -7.4421      2.00000
     85      -7.4421      2.00000
     86      -7.4347      2.00000
     87      -7.4347      2.00000
     88      -7.4338      2.00000
     89      -7.4224      2.00000
     90      -7.4224      2.00000
     91      -7.4215      2.00000
     92      -7.4215      2.00000
     93      -7.4207      2.00000
     94      -7.4207      2.00000
     95      -7.4204      2.00000
     96      -7.4204      2.00000
     97      -7.4196      2.00000
     98      -7.4125      2.00000
     99      -7.4125      2.00000
    100      -7.4109      2.00000
    101      -6.9755      2.00000
    102      -6.9669      2.00000
    103      -6.9669      2.00000
    104      -6.1812      2.00000
    105      -3.4339      2.00000
    106      -3.4245      2.00000
    107      -3.4245      2.00000
    108      -3.3378      2.00000
    109      -3.3378      2.00000
    110      -3.3278      2.00000
    111      -3.3278      2.00000
    112      -3.3277      2.00000
    113      -3.3277      2.00000
    114      -3.1881      2.00000
    115      -3.1759      2.00000
    116      -3.1759      2.00000
    117      -2.1443      2.00000
    118      -2.1443      2.00000
    119      -2.1393      2.00000
    120      -1.9536      2.00000
    121      -1.9536      2.00000
    122      -1.9477      2.00000
    123      -1.8732      2.00000
    124      -1.8732      2.00000
    125      -1.8715      2.00000
    126      -1.5401      2.00000
    127      -1.5401      2.00000
    128      -1.5316      2.00000
    129      -1.5316      2.00000
    130      -1.5249      2.00000
    131      -1.5249      2.00000
    132      -1.4620      2.00000
    133      -1.4620      2.00000
    134      -1.4584      2.00000
    135      -1.4584      2.00000
    136      -1.4462      2.00000
    137      -1.4462      2.00000
    138      -1.3818      2.00000
    139      -1.3818      2.00000
    140      -1.3798      2.00000
    141      -1.3798      2.00000
    142      -1.3783      2.00000
    143      -1.3783      2.00000
    144      -1.3668      2.00000
    145      -1.3583      2.00000
    146      -1.3583      2.00000
    147      -1.3237      2.00000
    148      -1.3178      2.00000
    149      -1.3155      2.00000
    150      -1.3148      2.00000
    151      -1.3148      2.00000
    152      -1.2441      2.00000
    153      -1.2430      2.00000
    154      -1.2430      2.00000
    155      -1.2298      2.00000
    156      -1.2298      2.00000
    157      -1.2285      2.00000
    158      -1.2285      2.00000
    159      -1.2193      2.00000
    160      -1.2193      2.00000
    161      -1.1203      2.00000
    162      -1.1170      2.00000
    163      -1.1170      2.00000
    164      -0.7628      2.00000
    165      -0.7588      2.00000
    166      -0.7588      2.00000
    167      -0.7485      2.00000
    168      -0.7485      2.00000
    169      -0.7473      2.00000
    170      -0.4597      2.00000
    171      -0.4597      2.00000
    172      -0.4400      2.00000
[...]
 total charge-density along one line

 pseudopotential strength for first ion, spin component:           1
 18.104  -4.740  -0.000  -0.000   0.000   0.000   0.000  -0.000
 -4.740   1.249   0.000   0.000  -0.000  -0.000  -0.000   0.000
 -0.000   0.000   2.319   0.000  -0.000  -2.785  -0.000   0.000
 -0.000   0.000   0.000   2.319   0.000  -0.000  -2.785  -0.000
  0.000  -0.000  -0.000   0.000   2.319   0.000  -0.000  -2.785
  0.000  -0.000  -2.785  -0.000   0.000   3.316   0.000  -0.000
  0.000  -0.000  -0.000  -2.785  -0.000   0.000   3.316   0.000
 -0.000   0.000   0.000  -0.000  -2.785  -0.000   0.000   3.316
 -0.000   0.000  -0.000   0.000  -0.000   0.000  -0.000   0.000
  0.000  -0.000   0.000  -0.000   0.000  -0.000   0.000  -0.000
 -0.000   0.000   0.000  -0.000   0.000  -0.000   0.000  -0.000
  0.000  -0.000   0.000  -0.000  -0.000  -0.000   0.000   0.000
  0.000  -0.000   0.000  -0.000  -0.000  -0.000   0.000   0.000
 total augmentation occupancy for first ion, spin component:           1
  1.904  -0.152   0.000   0.000   0.000   0.000   0.000   0.000  -0.000   0.000  -0.000   0.000   0.000
 -0.152   0.077   0.000   0.000   0.000   0.000   0.000   0.000   0.000  -0.000   0.000  -0.000  -0.000
  0.000   0.000   2.012   0.000   0.000  -0.000   0.000   0.000   0.000   0.001  -0.000   0.000  -0.000
  0.000   0.000   0.000   2.012   0.000   0.000  -0.001   0.000   0.000   0.000   0.000  -0.000  -0.001
  0.000   0.000   0.000   0.000   2.012   0.000   0.000  -0.000  -0.000   0.000  -0.000  -0.001   0.000
  0.000   0.000  -0.000   0.000   0.000   0.005   0.000   0.000  -0.000  -0.001   0.000   0.000   0.000
  0.000   0.000   0.000  -0.001   0.000   0.000   0.005   0.000  -0.000  -0.000  -0.000  -0.000   0.001
  0.000   0.000   0.000   0.000  -0.000   0.000   0.000   0.005   0.000  -0.000  -0.000   0.001  -0.000
 -0.000   0.000   0.000   0.000  -0.000  -0.000  -0.000   0.000   0.003  -0.000   0.000  -0.000  -0.000
  0.000  -0.000   0.001   0.000   0.000  -0.001  -0.000  -0.000  -0.000   0.003  -0.000  -0.000   0.000
 -0.000   0.000  -0.000   0.000  -0.000   0.000  -0.000  -0.000   0.000  -0.000   0.002  -0.000  -0.000
  0.000  -0.000   0.000  -0.000  -0.001   0.000  -0.000   0.001  -0.000  -0.000  -0.000   0.003   0.000
  0.000  -0.000  -0.000  -0.001   0.000   0.000   0.001  -0.000  -0.000   0.000  -0.000   0.000   0.002


------------------------ aborting loop because EDIFF is reached ----------------------------------------





 total charge     

# of ion       s       p       d       tot
------------------------------------------
    1        1.781   4.717   0.010   6.508
    2        1.781   4.717   0.010   6.508
    3        1.781   4.717   0.010   6.508
    4        1.781   4.717   0.010   6.508
    5        1.781   4.717   0.010   6.508
    6        1.781   4.717   0.010   6.508
    7        1.781   4.717   0.010   6.508
    8        1.781   4.717   0.010   6.508
    9        1.555   0.449   9.841  11.846
   10        1.555   0.449   9.841  11.846
   11        1.555   0.449   9.841  11.846
   12        1.555   0.449   9.841  11.846
   13        1.555   0.449   9.841  11.846
   14        1.555   0.449   9.841  11.846
   15        1.555   0.449   9.841  11.846
   16        1.555   0.449   9.841  11.846
   17        1.613   3.311   0.007   4.931
   18        1.613   3.311   0.007   4.931
   19        1.613   3.311   0.007   4.931
   20        1.613   3.311   0.007   4.931
   21        1.613   3.311   0.007   4.931
   22        1.613   3.311   0.007   4.931
   23        1.613   3.311   0.007   4.931
   24        1.613   3.311   0.007   4.931
   25        1.615   3.288   0.008   4.911
   26        1.615   3.288   0.008   4.911
   27        1.615   3.288   0.008   4.911
   28        1.615   3.288   0.008   4.911
   29        1.615   3.288   0.008   4.911
   30        1.615   3.288   0.008   4.911
   31        1.615   3.288   0.008   4.911
   32        1.615   3.288   0.008   4.911
   33        1.617   3.265   0.008   4.890
   34        1.617   3.265   0.008   4.890
   35        1.617   3.265   0.008   4.890
   36        1.617   3.265   0.008   4.890
   37        1.617   3.265   0.008   4.890
   38        1.617   3.265   0.008   4.890
   39        1.617   3.265   0.008   4.890
   40        1.617   3.265   0.008   4.890
--------------------------------------------------
tot         65.452 120.245  78.991 264.688

    CHARGE:  cpu time    0.4247: real time    0.4247
    FORLOC:  cpu time    0.0113: real time    0.0113
    FORNL :  cpu time    1.5781: real time    1.5782
    STRESS:  cpu time   40.0464: real time   40.0477
    FORCOR:  cpu time    0.2403: real time    0.2403
    FORHAR:  cpu time    0.0274: real time    0.0274
    MIXING:  cpu time    0.0020: real time    0.0020
    OFIELD:  cpu time    0.0000: real time    0.0000

  FORCE on cell =-STRESS in cart. coord.  units (eV):
  Direction    XX          YY          ZZ          XY          YZ          ZX
  --------------------------------------------------------------------------------------
  Alpha Z   892.99476   892.99476   892.99476
  Ewald   -6071.97669 -6071.97669 -6053.70354    -0.00000     0.00000    -0.00000
  Hartree  2529.20832  2529.20832  2535.34214    -0.00000    -0.00000    -0.00000
  E(xc)   -1479.08474 -1478.74799 -1478.72718     0.00000    -0.00000     0.00000
  Local   -2991.78944 -2991.78944 -3016.45324     0.00000     0.00000     0.00000
  n-local  1809.49807  1806.65540  1808.51015     0.00000     0.00000    -0.00000
  augment   811.23058   811.23058   811.35822     0.00000    -0.00002    -0.00002
  Kinetic  4498.33296  4512.12113  4505.46608     0.00000    -0.00001    -0.00000
  Fock        0.00000     0.00000     0.00000     0.00000     0.00000     0.00000
  -------------------------------------------------------------------------------------
  Total       4.05494     4.05494     4.78740     0.00000    -0.00000     0.00000
  in kB       4.01982     4.01982     4.74594     0.00000    -0.00000     0.00000
  external pressure =        4.26 kB  Pullay stress =        0.00 kB


 VOLUME and BASIS-vectors are now :
 -----------------------------------------------------------------------------
  energy-cutoff  :      300.00
  volume of cell :     1616.17
      direct lattice vectors                 reciprocal lattice vectors
    11.735352000  0.000000000  0.000000000     0.085212612  0.000000000  0.000000000
     0.000000000 11.735352000  0.000000000     0.000000000  0.085212612  0.000000000
     0.000000000  0.000000000 11.735352000     0.000000000  0.000000000  0.085212612

  length of vectors
    11.735352000 11.735352000 11.735352000     0.085212612  0.085212612  0.085212612


 FORCES acting on ions
    electron-ion (+dipol)            ewald-force                    non-local-force                 convergence-correction
 -----------------------------------------------------------------------------------------------
   0.217E-13 -.592E-12 -.602E-12   -.815E-14 -.169E-13 -.355E-14   0.000E+00 -.200E-24 -.267E-19   0.115E-12 0.415E-13 0.146E-12
   0.264E-13 0.852E-12 -.971E-12   0.199E-13 -.311E-13 -.355E-14   0.000E+00 0.207E-24 0.537E-20   0.638E-13 0.125E-12 -.114E-12
   0.171E-13 0.543E-12 -.629E-12   0.927E-14 -.426E-13 -.142E-13   0.000E+00 0.207E-24 0.657E-20   0.296E-13 0.852E-14 0.162E-12
   -.754E-14 -.843E-12 -.861E-12   -.321E-13 -.213E-13 0.000E+00   0.000E+00 -.207E-24 0.702E-21   0.468E-13 -.751E-13 -.130E-12
   0.142E-13 0.270E-11 -.233E-11   -.136E-13 -.284E-13 -.213E-13   0.000E+00 0.207E-24 0.658E-20   -.217E-13 0.529E-13 0.174E-12
   0.973E-14 0.273E-11 0.728E-12   -.133E-13 -.142E-13 0.711E-14   0.517E-25 -.207E-24 -.268E-19   0.308E-13 0.169E-12 -.148E-12
   0.671E-14 -.449E-12 0.393E-11   -.970E-14 -.178E-13 -.711E-14   0.000E+00 -.207E-24 -.208E-21   0.644E-13 -.449E-14 0.176E-12
   0.242E-13 -.667E-12 -.572E-11   0.328E-14 -.391E-13 -.711E-14   0.000E+00 0.207E-24 0.613E-20   0.457E-13 -.121E-12 -.151E-12
   0.128E-13 0.458E-14 -.403E-15   0.130E-12 0.846E-13 0.332E-13   -.196E-22 0.132E-22 -.128E-23   -.111E-12 0.261E-12 -.295E-12
   -.462E-14 0.916E-14 0.116E-11   0.817E-13 0.804E-13 0.349E-13   0.331E-23 -.993E-23 -.111E-23   -.138E-12 0.240E-12 -.112E-12
   0.357E-14 0.116E-11 0.229E-13   0.835E-13 0.866E-13 0.314E-13   -.662E-23 0.000E+00 -.115E-23   -.159E-12 -.322E-12 -.467E-12
   0.153E-13 0.114E-11 0.114E-11   0.171E-12 0.924E-13 0.332E-13   -.199E-22 0.331E-23 0.204E-23   -.208E-12 -.300E-12 0.441E-13
   0.114E-11 -.340E-13 0.630E-11   0.114E-12 0.815E-13 0.297E-13   -.662E-23 0.000E+00 -.185E-23   -.450E-13 0.361E-12 -.256E-12
   0.115E-11 -.102E-13 -.771E-11   0.158E-12 0.822E-13 0.314E-13   -.199E-22 0.165E-22 0.212E-23   -.183E-13 0.335E-12 -.138E-12
   0.183E-11 -.315E-11 0.186E-11   0.151E-12 0.837E-13 0.279E-13   -.199E-22 0.132E-22 0.452E-24   -.135E-13 -.405E-12 -.436E-12
   0.117E-11 -.150E-11 -.143E-11   0.853E-13 0.844E-13 0.580E-13   0.331E-23 -.993E-23 -.212E-23   0.431E-13 -.391E-12 0.330E-13
   0.769E+01 -.681E-11 -.330E-07   -.775E+01 -.391E-13 -.503E-14   0.102E-01 -.414E-24 -.230E-24   0.840E-05 -.467E-14 -.133E-12
   -.769E+01 -.651E-13 0.331E-07   0.775E+01 -.497E-13 0.295E-14   -.102E-01 0.000E+00 0.213E-25   -.840E-05 0.106E-12 0.303E-13
   -.769E+01 -.406E-12 0.331E-07   0.775E+01 -.497E-13 0.208E-14   -.102E-01 0.000E+00 0.823E-25   -.840E-05 -.487E-13 -.487E-13
   0.769E+01 -.808E-12 -.330E-07   -.775E+01 -.355E-13 -.417E-14   0.102E-01 0.000E+00 -.162E-24   0.840E-05 -.163E-12 -.596E-13
   -.769E+01 0.458E-11 0.331E-07   0.775E+01 -.462E-13 0.297E-14   -.102E-01 0.000E+00 -.725E-25   -.840E-05 0.716E-13 -.734E-13
   0.769E+01 0.174E-11 -.331E-07   -.775E+01 -.355E-13 -.328E-14   0.102E-01 0.000E+00 0.326E-24   0.840E-05 -.388E-13 -.310E-13
   0.769E+01 0.154E-11 -.331E-07   -.775E+01 -.409E-13 -.770E-14   0.102E-01 -.414E-24 -.430E-24   0.840E-05 -.128E-12 -.797E-13
   -.769E+01 0.245E-11 0.331E-07   0.775E+01 -.391E-13 0.283E-15   -.102E-01 0.000E+00 0.188E-24   -.840E-05 -.201E-13 -.275E-13
   -.148E-13 -.578E-15 0.599E-13   -.346E-13 -.171E-13 -.346E-13   -.207E-24 -.207E-24 -.540E-24   -.638E-13 0.994E-13 0.132E-12
   0.218E-13 -.122E-13 0.512E-13   -.444E-13 -.211E-13 -.266E-13   0.000E+00 0.000E+00 0.501E-24   -.383E-13 0.170E-12 0.132E-13
   0.157E-13 0.106E-12 -.368E-13   -.249E-13 -.171E-13 -.284E-13   0.000E+00 0.000E+00 0.417E-24   -.864E-13 -.103E-12 0.243E-12
   -.179E-13 0.841E-13 0.632E-13   -.284E-13 -.167E-13 -.320E-13   -.207E-24 -.207E-24 -.995E-25   -.716E-13 -.174E-12 -.936E-13
   0.115E-12 -.413E-15 -.720E-11   -.711E-14 -.303E-13 -.284E-13   -.207E-24 0.000E+00 0.329E-24   0.264E-13 0.180E-12 0.210E-12
   0.864E-13 0.268E-14 0.203E-11   -.391E-13 -.261E-13 -.338E-13   -.207E-24 -.207E-24 0.214E-24   -.976E-15 0.191E-12 -.694E-13
   0.817E-13 -.183E-11 -.419E-11   -.107E-13 -.178E-13 -.284E-13   -.207E-24 -.207E-24 -.393E-24   0.407E-13 -.165E-12 0.107E-12
   0.115E-12 -.437E-12 -.281E-12   -.142E-13 -.180E-13 -.249E-13   0.000E+00 0.000E+00 0.716E-24   0.280E-13 -.177E-12 0.372E-13
   0.559E-13 -.769E+01 0.331E-07   -.988E-13 0.775E+01 -.429E-15   0.000E+00 -.102E-01 0.457E-25   -.503E-14 -.840E-05 -.414E-13
   -.545E-13 0.769E+01 -.331E-07   -.131E-12 -.775E+01 0.987E-15   0.000E+00 0.102E-01 -.330E-24   0.672E-13 0.840E-05 -.463E-13
   -.427E-13 0.769E+01 -.331E-07   -.123E-12 -.775E+01 -.282E-15   0.000E+00 0.102E-01 -.773E-24   0.672E-13 0.840E-05 -.130E-12
   0.821E-13 -.769E+01 0.331E-07   -.108E-12 0.775E+01 0.184E-15   0.000E+00 -.102E-01 0.606E-24   -.653E-13 -.840E-05 0.393E-13
   0.129E-14 0.769E+01 -.331E-07   -.145E-12 -.775E+01 0.638E-15   0.000E+00 0.102E-01 -.380E-24   -.214E-13 0.840E-05 -.211E-13
   0.114E-12 -.769E+01 0.331E-07   -.861E-13 0.775E+01 0.110E-14   0.000E+00 -.102E-01 0.237E-24   -.997E-13 -.840E-05 -.569E-13
   0.102E-12 -.769E+01 0.331E-07   -.648E-13 0.775E+01 -.165E-15   0.000E+00 -.102E-01 -.671E-23   -.877E-13 -.840E-05 -.100E-12
   -.235E-13 0.769E+01 -.331E-07   -.102E-12 -.775E+01 0.362E-15   0.000E+00 0.102E-01 0.261E-24   0.371E-13 0.840E-05 0.183E-13
 -----------------------------------------------------------------------------------------------
   0.770E-11 -.531E-11 0.191E-10   -.514E-13 -.178E-13 -.167E-13   -.104E-16 0.694E-17 -.283E-19   -.741E-12 -.210E-12 -.169E-11


 POSITION                                       TOTAL-FORCE (eV/Angst)
 -----------------------------------------------------------------------------------
      2.93384      2.93384      2.93384         0.000000     -0.000000      0.000000
      2.93384      2.93384      8.80151         0.000000     -0.000000      0.000000
      2.93384      8.80151      2.93384         0.000000     -0.000000      0.000000
      2.93384      8.80151      8.80151         0.000000     -0.000000      0.000000
      8.80151      2.93384      2.93384         0.000000     -0.000000      0.000000
      8.80151      2.93384      8.80151         0.000000     -0.000000      0.000000
      8.80151      8.80151      2.93384         0.000000     -0.000000      0.000000
      8.80151      8.80151      8.80151         0.000000     -0.000000      0.000000
      0.00000      0.00000      0.00000         0.000000     -0.000000      0.000000
      0.00000      0.00000      5.86768         0.000000     -0.000000      0.000000
      0.00000      5.86768      0.00000         0.000000     -0.000000      0.000000
      0.00000      5.86768      5.86768         0.000000     -0.000000      0.000000
      5.86768      0.00000      0.00000         0.000000     -0.000000      0.000000
      5.86768      0.00000      5.86768         0.000000     -0.000000      0.000000
      5.86768      5.86768      0.00000         0.000000     -0.000000      0.000000
      5.86768      5.86768      5.86768         0.000000     -0.000000      0.000000
     11.60333      2.93384      0.00000        -0.046276     -0.000000      0.000000
      0.13202      2.93384      5.86768         0.046276     -0.000000     -0.000000
      0.13202      8.80151      0.00000         0.046276     -0.000000     -0.000000
     11.60333      8.80151      5.86768        -0.046276     -0.000000      0.000000
      5.99970      2.93384      0.00000         0.046276     -0.000000     -0.000000
      5.73565      2.93384      5.86768        -0.046276     -0.000000      0.000000
      5.73565      8.80151      0.00000        -0.046276     -0.000000     -0.000000
      5.99970      8.80151      5.86768         0.046276     -0.000000     -0.000000
      0.00000      0.00000      2.93384         0.000000     -0.000000      0.000000
      0.00000      0.00000      8.80151         0.000000     -0.000000      0.000000
      0.00000      5.86768      2.93384         0.000000     -0.000000      0.000000
      0.00000      5.86768      8.80151         0.000000     -0.000000      0.000000
      5.86768      0.00000      2.93384         0.000000     -0.000000      0.000000
      5.86768      0.00000      8.80151         0.000000     -0.000000      0.000000
      5.86768      5.86768      2.93384         0.000000     -0.000000      0.000000
      5.86768      5.86768      8.80151         0.000000     -0.000000      0.000000
      2.93384      0.13202      0.00000         0.000000      0.046276     -0.000000
      2.93384     11.60333      5.86768         0.000000     -0.046276      0.000000
      2.93384      5.73565      0.00000         0.000000     -0.046276      0.000000
      2.93384      5.99970      5.86768         0.000000      0.046276     -0.000000
      8.80151     11.60333      0.00000         0.000000     -0.046276      0.000000
      8.80151      0.13202      5.86768         0.000000      0.046276     -0.000000
      8.80151      5.99970      0.00000         0.000000      0.046276     -0.000000
      8.80151      5.73565      5.86768         0.000000     -0.046276      0.000000
 -----------------------------------------------------------------------------------
    total drift:                                0.000000     -0.000000      0.000000


--------------------------------------------------------------------------------------------------------



  FREE ENERGIE OF THE ION-ELECTRON SYSTEM (eV)
  ---------------------------------------------------
  free  energy   TOTEN  =     -1428.93858211 eV

  energy  without entropy=    -1428.93858211  energy(sigma->0) =    -1428.93858211



--------------------------------------------------------------------------------------------------------


    POTLOK:  cpu time    1.4334: real time    1.4335


--------------------------------------------------------------------------------------------------------


 stress matrix after NEB project (eV)
      4.05494      0.00000      0.00000
      0.00000      4.05494      0.00000
     -0.00000     -0.00000      4.78740
  FORCES: max atom, RMS     0.046276    0.029267
  FORCE total and by dimension    0.185102    0.046276
  Stress total and by dimension    7.470228    4.787402
     LOOP+:  cpu time  364.6650: real time  365.5903
    4ORBIT:  cpu time    0.0000: real time    0.0000



 total charge     

# of ion       s       p       d       tot
------------------------------------------
    1        1.781   4.717   0.010   6.508
    2        1.781   4.717   0.010   6.508
    3        1.781   4.717   0.010   6.508
    4        1.781   4.717   0.010   6.508
    5        1.781   4.717   0.010   6.508
    6        1.781   4.717   0.010   6.508
    7        1.781   4.717   0.010   6.508
    8        1.781   4.717   0.010   6.508
    9        1.555   0.449   9.841  11.846
   10        1.555   0.449   9.841  11.846
   11        1.555   0.449   9.841  11.846
   12        1.555   0.449   9.841  11.846
   13        1.555   0.449   9.841  11.846
   14        1.555   0.449   9.841  11.846
   15        1.555   0.449   9.841  11.846
   16        1.555   0.449   9.841  11.846
   17        1.613   3.311   0.007   4.931
   18        1.613   3.311   0.007   4.931
   19        1.613   3.311   0.007   4.931
   20        1.613   3.311   0.007   4.931
   21        1.613   3.311   0.007   4.931
   22        1.613   3.311   0.007   4.931
   23        1.613   3.311   0.007   4.931
   24        1.613   3.311   0.007   4.931
   25        1.615   3.288   0.008   4.911
   26        1.615   3.288   0.008   4.911
   27        1.615   3.288   0.008   4.911
   28        1.615   3.288   0.008   4.911
   29        1.615   3.288   0.008   4.911
   30        1.615   3.288   0.008   4.911
   31        1.615   3.288   0.008   4.911
   32        1.615   3.288   0.008   4.911
   33        1.617   3.265   0.008   4.890
   34        1.617   3.265   0.008   4.890
   35        1.617   3.265   0.008   4.890
   36        1.617   3.265   0.008   4.890
   37        1.617   3.265   0.008   4.890
   38        1.617   3.265   0.008   4.890
   39        1.617   3.265   0.008   4.890
   40        1.617   3.265   0.008   4.890
--------------------------------------------------
tot         65.452 120.245  78.991 264.688


 total amount of memory used by VASP MPI-rank0    58990. kBytes
=======================================================================

   base      :      30000. kBytes
   nonlr-proj:       6618. kBytes
   fftplans  :       8423. kBytes
   grid      :       7465. kBytes
   one-center:         77. kBytes
   wavefun   :       6407. kBytes

  
  
 General timing and accounting informations for this job:
 ========================================================
  
                  Total CPU time used (sec):      383.460
                            User time (sec):      379.876
                          System time (sec):        3.584
                         Elapsed time (sec):      385.022
  
                   Maximum memory used (kb):      128280.
                   Average memory used (kb):           0.
  
                          Minor page faults:       256990
                          Major page faults:            0
                 Voluntary context switches:         1884
