 running on   64 total cores
 distrk:  each k-point on   64 cores,    1 groups
 distr:  one band on    8 cores,    8 groups
 using from now: INCAR     
 vasp.5.4.4.18Apr17-6-g9f103f2a35 (build Jun 22 2020 09:27:21) complex           
 POSCAR found type information on POSCAR  Cs Pb Br
 POSCAR found :  3 types and      40 ions
 scaLAPACK will be used
 LDA part: xc-table for Pade appr. of Perdew
 POSCAR found type information on POSCAR  Cs Pb Br
 POSCAR found :  3 types and      40 ions
 POSCAR, INCAR and KPOINTS ok, starting setup
 FFT: planning ...
 WAVECAR not read
 entering main loop
       N       E                     dE             d eps       ncg     rms          rms(c)
DAV:   1     0.134219373675E+04    0.13422E+04   -0.11296E+05  2680   0.958E+02
DAV:   2    -0.113060211288E+04   -0.24728E+04   -0.23850E+04  3144   0.295E+02
DAV:   3    -0.149510669187E+04   -0.36450E+03   -0.36241E+03  3496   0.134E+02
DAV:   4    -0.150707709789E+04   -0.11970E+02   -0.11925E+02  3112   0.318E+01
DAV:   5    -0.150761584399E+04   -0.53875E+00   -0.53845E+00  3440   0.529E+00    0.107E+01
DAV:   6    -0.142918667187E+04    0.78429E+02   -0.22382E+01  3328   0.279E+01    0.755E+00
DAV:   7    -0.142868306834E+04    0.50360E+00   -0.75033E+00  3200   0.487E+00    0.361E+00
DAV:   8    -0.142885399516E+04   -0.17093E+00   -0.37247E-01  3192   0.175E+00    0.209E+00
DAV:   9    -0.142893393844E+04   -0.79943E-01   -0.14846E-01  2832   0.118E+00    0.485E-01
DAV:  10    -0.142893487768E+04   -0.93925E-03   -0.91976E-03  3600   0.350E-01    0.271E-01
DAV:  11    -0.142893778194E+04   -0.29043E-02   -0.26339E-03  2992   0.166E-01    0.950E-02
DAV:  12    -0.142893854996E+04   -0.76802E-03   -0.98891E-04  2960   0.992E-02    0.425E-02
DAV:  13    -0.142893858005E+04   -0.30093E-04   -0.11433E-04  3344   0.254E-02    0.160E-02
DAV:  14    -0.142893860824E+04   -0.28193E-04   -0.10348E-05  2944   0.679E-03    0.793E-03
DAV:  15    -0.142893859481E+04    0.13427E-04   -0.10166E-06  1800   0.390E-03    0.101E-03
DAV:  16    -0.142893858890E+04    0.59137E-05   -0.47664E-07  1696   0.183E-03    0.823E-04
DAV:  17    -0.142893858293E+04    0.59655E-05   -0.10796E-07  1664   0.148E-03    0.177E-04
DAV:  18    -0.142893858132E+04    0.16165E-05   -0.49696E-08  1656   0.635E-04    0.181E-04
DAV:  19    -0.142893858211E+04   -0.78926E-06   -0.15540E-08  1648   0.556E-04
   1 F= -.14289386E+04 E0= -.14289386E+04  d E =-.848789E-12
Application 1868179 resources: utime ~24388s, stime ~242s, Rss ~128280, inblocks ~1328, outblocks ~272128
