<?xml version="1.0" encoding="ISO-8859-1"?>
<modeling>
 <generator>
  <i name="program" type="string">vasp </i>
  <i name="version" type="string">5.4.4.18Apr17-6-g9f103f2a35  </i>
  <i name="subversion" type="string">(build Jun 22 2020 09:27:21) complex            parallel </i>
  <i name="platform" type="string">tx2_gcc-7.3_libsci-18.07_cray-fftw-3.3.8 </i>
  <i name="date" type="string">2021 09 22 </i>
  <i name="time" type="string">08:30:56 </i>
 </generator>
 <incar>
  <i type="string" name="SYSTEM"> CsPbBr3 cubic bulk</i>
  <i type="string" name="PREC">accurate</i>
  <i type="string" name="ALGO"> Normal   ! Electronic minimisation algo</i>
  <i type="logical" name="ADDGRID"> T  </i>
  <i type="int" name="NELM">   200</i>
  <i type="int" name="IBRION">     2</i>
  <i name="EDIFF">      0.00000100</i>
  <i name="EDIFFG">     -0.01000000</i>
  <i type="int" name="NSW">     0</i>
  <i type="int" name="ISIF">     3</i>
  <i type="int" name="ISYM">     2</i>
  <i name="ENCUT">    300.00000000</i>
  <i name="POTIM">      0.50000000</i>
  <i type="string" name="LREAL"> AUTO</i>
  <i type="int" name="ISMEAR">     0</i>
  <i name="SIGMA">      0.01000000</i>
  <i name="PSTRESS">      0.00000000</i>
  <i type="logical" name="LWAVE"> F  </i>
  <i type="logical" name="LCHARG"> T  </i>
  <i type="logical" name="LVHAR"> T  </i>
  <i type="int" name="LORBIT">    10</i>
  <i type="logical" name="LASPH"> T  </i>
  <v type="int" name="KPOINT_BSE">    -1     0     0     0</v>
  <i type="int" name="NELM">   200</i>
  <i type="string" name="METAGGA"> SCAN       ! PBE exchange-correlation</i>
  <i type="logical" name="LASPH"> T  </i>
 </incar>
 <structure name="primitive_cell" >
  <crystal>
   <varray name="basis" >
    <v>       5.86767600       5.86767600       0.00000000 </v>
    <v>       5.86767600      -0.00000000      -5.86767600 </v>
    <v>       0.00000000       5.86767600      -5.86767600 </v>
   </varray>
   <i name="volume">    404.04372918 </i>
   <varray name="rec_basis" >
    <v>       0.08521261       0.08521261       0.08521261 </v>
    <v>       0.08521261      -0.08521261      -0.08521261 </v>
    <v>      -0.08521261       0.08521261      -0.08521261 </v>
   </varray>
  </crystal>
  <varray name="positions" >
   <v>      -0.25000000      -0.25000000      -0.25000000 </v>
   <v>      -0.23875000       0.26125000      -0.26125000 </v>
   <v>       0.23875000      -0.26125000       0.26125000 </v>
   <v>       0.26125000       0.23875000      -0.23875000 </v>
   <v>      -0.26125000      -0.23875000       0.23875000 </v>
   <v>       0.25000000      -0.25000000      -0.25000000 </v>
   <v>      -0.25000000       0.25000000       0.25000000 </v>
   <v>       0.00000000       0.00000000       0.00000000 </v>
   <v>      -0.50000000      -0.50000000      -0.50000000 </v>
   <v>       0.25000000       0.25000000       0.25000000 </v>
  </varray>
 </structure>
 <varray name="primitive_index" >
  <v type="int" >        1 </v>
  <v type="int" >       18 </v>
  <v type="int" >       22 </v>
  <v type="int" >       33 </v>
  <v type="int" >       35 </v>
  <v type="int" >       25 </v>
  <v type="int" >       27 </v>
  <v type="int" >        9 </v>
  <v type="int" >       10 </v>
  <v type="int" >        2 </v>
 </varray>
 <kpoints>
  <generation param="Gamma">
   <v type="int" name="divisions">       2        2        2 </v>
   <v name="usershift">      0.00000000       0.00000000       0.00000000 </v>
   <v name="genvec1">      0.50000000       0.00000000       0.00000000 </v>
   <v name="genvec2">      0.00000000       0.50000000       0.00000000 </v>
   <v name="genvec3">      0.00000000       0.00000000       0.50000000 </v>
   <v name="shift">      0.00000000       0.00000000       0.00000000 </v>
  </generation>
  <varray name="kpointlist" >
   <v>       0.00000000       0.00000000       0.00000000 </v>
   <v>       0.50000000       0.00000000       0.00000000 </v>
   <v>       0.50000000       0.50000000       0.00000000 </v>
   <v>       0.00000000       0.00000000       0.50000000 </v>
   <v>       0.50000000       0.00000000       0.50000000 </v>
   <v>       0.50000000       0.50000000       0.50000000 </v>
  </varray>
  <varray name="weights" >
   <v>       0.12500000 </v>
   <v>       0.25000000 </v>
   <v>       0.12500000 </v>
   <v>       0.12500000 </v>
   <v>       0.25000000 </v>
   <v>       0.12500000 </v>
  </varray>
 </kpoints>
 <parameters>
  <separator name="general" >
   <i type="string" name="SYSTEM">CsPbBr3 cubic bulk</i>
   <i type="logical" name="LCOMPAT"> F  </i>
  </separator>
  <separator name="electronic" >
   <i type="string" name="PREC">accura</i>
   <i name="ENMAX">    300.00000000</i>
   <i name="ENAUG">    503.85200000</i>
   <i name="EDIFF">      0.00000100</i>
   <i type="int" name="IALGO">    38</i>
   <i type="int" name="IWAVPR">    10</i>
   <i type="int" name="NBANDS">   216</i>
   <i name="NELECT">    352.00000000</i>
   <i type="int" name="TURBO">     0</i>
   <i type="int" name="IRESTART">     0</i>
   <i type="int" name="NREBOOT">     0</i>
   <i type="int" name="NMIN">     0</i>
   <i name="EREF">      0.00000000</i>
   <separator name="electronic smearing" >
    <i type="int" name="ISMEAR">     0</i>
    <i name="SIGMA">      0.01000000</i>
    <i name="KSPACING">      0.50000000</i>
    <i type="logical" name="KGAMMA"> T  </i>
   </separator>
   <separator name="electronic projectors" >
    <i type="logical" name="LREAL"> T  </i>
    <v name="ROPT">     -0.00025000     -0.00025000     -0.00025000</v>
    <i type="int" name="LMAXPAW">  -100</i>
    <i type="int" name="LMAXMIX">     2</i>
    <i type="logical" name="NLSPLINE"> F  </i>
   </separator>
   <separator name="electronic startup" >
    <i type="int" name="ISTART">     0</i>
    <i type="int" name="ICHARG">     2</i>
    <i type="int" name="INIWAV">     1</i>
   </separator>
   <separator name="electronic spin" >
    <i type="int" name="ISPIN">     1</i>
    <i type="logical" name="LNONCOLLINEAR"> F  </i>
    <v name="MAGMOM">      1.00000000      1.00000000      1.00000000      1.00000000      1.00000000      1.00000000      1.00000000      1.00000000      1.00000000      1.00000000      1.00000000      1.00000000      1.00000000      1.00000000      1.00000000      1.00000000      1.00000000      1.00000000      1.00000000      1.00000000
      1.00000000      1.00000000      1.00000000      1.00000000      1.00000000      1.00000000      1.00000000      1.00000000      1.00000000      1.00000000      1.00000000      1.00000000      1.00000000      1.00000000      1.00000000      1.00000000      1.00000000      1.00000000      1.00000000      1.00000000
</v>
    <i name="NUPDOWN">     -1.00000000</i>
    <i type="logical" name="LSORBIT"> F  </i>
    <v name="SAXIS">      0.00000000      0.00000000      1.00000000</v>
    <i type="logical" name="LSPIRAL"> F  </i>
    <v name="QSPIRAL">      0.00000000      0.00000000      0.00000000</v>
    <i type="logical" name="LZEROZ"> F  </i>
   </separator>
   <separator name="electronic exchange-correlation" >
    <i type="logical" name="LASPH"> T  </i>
    <i type="logical" name="LMETAGGA"> F  </i>
   </separator>
   <separator name="electronic convergence" >
    <i type="int" name="NELM">   200</i>
    <i type="int" name="NELMDL">    -5</i>
    <i type="int" name="NELMIN">     2</i>
    <i name="ENINI">    300.00000000</i>
    <separator name="electronic convergence detail" >
     <i type="logical" name="LDIAG"> T  </i>
     <i type="logical" name="LSUBROT"> F  </i>
     <i name="WEIMIN">      0.00000000</i>
     <i name="EBREAK">      0.00000000</i>
     <i name="DEPER">      0.30000000</i>
     <i type="int" name="NRMM">     4</i>
     <i name="TIME">      0.40000000</i>
    </separator>
   </separator>
   <separator name="electronic mixer" >
    <i name="AMIX">      0.40000000</i>
    <i name="BMIX">      1.00000000</i>
    <i name="AMIN">      0.10000000</i>
    <i name="AMIX_MAG">      1.60000000</i>
    <i name="BMIX_MAG">      1.00000000</i>
    <separator name="electronic mixer details" >
     <i type="int" name="IMIX">     4</i>
     <i type="logical" name="MIXFIRST"> F  </i>
     <i type="int" name="MAXMIX">   -45</i>
     <i name="WC">    100.00000000</i>
     <i type="int" name="INIMIX">     1</i>
     <i type="int" name="MIXPRE">     1</i>
     <i type="int" name="MREMOVE">     5</i>
    </separator>
   </separator>
   <separator name="electronic dipolcorrection" >
    <i type="logical" name="LDIPOL"> F  </i>
    <i type="logical" name="LMONO"> F  </i>
    <i type="int" name="IDIPOL">     0</i>
    <i name="EPSILON">      1.00000000</i>
    <v name="DIPOL">   -100.00000000   -100.00000000   -100.00000000</v>
    <i name="EFIELD">      0.00000000</i>
   </separator>
  </separator>
  <separator name="grids" >
   <i type="int" name="NGX">    70</i>
   <i type="int" name="NGY">    70</i>
   <i type="int" name="NGZ">    70</i>
   <i type="int" name="NGXF">   140</i>
   <i type="int" name="NGYF">   140</i>
   <i type="int" name="NGZF">   140</i>
   <i type="logical" name="ADDGRID"> T  </i>
  </separator>
  <separator name="ionic" >
   <i type="int" name="NSW">     0</i>
   <i type="int" name="IBRION">    -1</i>
   <i type="int" name="MDALGO">     0</i>
   <i type="int" name="ISIF">     3</i>
   <i name="PSTRESS">      0.00000000</i>
   <i name="EDIFFG">     -0.01000000</i>
   <i type="int" name="NFREE">     1</i>
   <i name="POTIM">      0.50000000</i>
   <i name="SMASS">     -3.00000000</i>
   <i name="SCALEE">      1.00000000</i>
  </separator>
  <separator name="ionic md" >
   <i name="TEBEG">      0.00010000</i>
   <i name="TEEND">      0.00010000</i>
   <i type="int" name="NBLOCK">     1</i>
   <i type="int" name="KBLOCK">     1</i>
   <i type="int" name="NPACO">   256</i>
   <i name="APACO">     16.00000000</i>
  </separator>
  <separator name="symmetry" >
   <i type="int" name="ISYM">     2</i>
   <i name="SYMPREC">      0.00001000</i>
  </separator>
  <separator name="dos" >
   <i type="int" name="LORBIT">    10</i>
   <v name="RWIGS">     -1.00000000     -1.00000000     -1.00000000</v>
   <i type="int" name="NEDOS">   301</i>
   <i name="EMIN">     10.00000000</i>
   <i name="EMAX">    -10.00000000</i>
   <i name="EFERMI">      0.00000000</i>
  </separator>
  <separator name="writing" >
   <i type="int" name="NWRITE">     2</i>
   <i type="logical" name="LWAVE"> F  </i>
   <i type="logical" name="LDOWNSAMPLE"> F  </i>
   <i type="logical" name="LCHARG"> T  </i>
   <i type="logical" name="LPARD"> F  </i>
   <i type="logical" name="LVTOT"> F  </i>
   <i type="logical" name="LVHAR"> T  </i>
   <i type="logical" name="LELF"> F  </i>
   <i type="logical" name="LOPTICS"> F  </i>
   <v name="STM">      0.00000000      0.00000000      0.00000000      0.00000000      0.00000000      0.00000000      0.00000000</v>
  </separator>
  <separator name="performance" >
   <i type="int" name="NPAR">     8</i>
   <i type="int" name="NSIM">     4</i>
   <i type="int" name="NBLK">    -1</i>
   <i type="logical" name="LPLANE"> T  </i>
   <i type="logical" name="LSCALAPACK"> T  </i>
   <i type="logical" name="LSCAAWARE"> F  </i>
   <i type="logical" name="LSCALU"> F  </i>
   <i type="logical" name="LASYNC"> F  </i>
   <i type="logical" name="LORBITALREAL"> F  </i>
  </separator>
  <separator name="miscellaneous" >
   <i type="int" name="IDIOT">     3</i>
   <i type="int" name="ISPECIAL">     0</i>
   <i type="logical" name="LMUSIC"> F  </i>
   <v name="POMASS">    132.90000000    207.20000000     79.90400000</v>
   <v name="DARWINR">      0.00000000      0.00000000      0.00000000</v>
   <v name="DARWINV">      1.00000000      1.00000000      1.00000000</v>
   <i type="logical" name="LCORR"> T  </i>
  </separator>
  <i type="logical" name="GGA_COMPAT"> T  </i>
  <i type="logical" name="LBERRY"> F  </i>
  <i type="int" name="ICORELEVEL">     0</i>
  <i type="logical" name="LDAU"> F  </i>
  <i type="int" name="I_CONSTRAINED_M">     0</i>
  <separator name="electronic exchange-correlation" >
   <i type="string" name="GGA">--</i>
   <i type="int" name="VOSKOWN">     0</i>
   <i type="logical" name="LHFCALC"> F  </i>
   <i type="string" name="PRECFOCK"></i>
   <i type="logical" name="LSYMGRAD"> F  </i>
   <i type="logical" name="LHFONE"> F  </i>
   <i type="logical" name="LRHFCALC"> F  </i>
   <i type="logical" name="LTHOMAS"> F  </i>
   <i type="logical" name="LMODELHF"> F  </i>
   <i name="ENCUT4O">     -1.00000000</i>
   <i type="int" name="EXXOEP">     0</i>
   <i type="int" name="FOURORBIT">     0</i>
   <i name="AEXX">      0.00000000</i>
   <i name="HFALPHA">      0.00000000</i>
   <i name="MCALPHA">      0.00000000</i>
   <i name="ALDAX">      1.00000000</i>
   <i name="AGGAX">      1.00000000</i>
   <i name="ALDAC">      1.00000000</i>
   <i name="AGGAC">      1.00000000</i>
   <i type="int" name="NKREDX">     1</i>
   <i type="int" name="NKREDY">     1</i>
   <i type="int" name="NKREDZ">     1</i>
   <i type="logical" name="SHIFTRED"> F  </i>
   <i type="logical" name="ODDONLY"> F  </i>
   <i type="logical" name="EVENONLY"> F  </i>
   <i type="int" name="LMAXFOCK">     0</i>
   <i type="int" name="NMAXFOCKAE">     0</i>
   <i type="logical" name="LFOCKAEDFT"> F  </i>
   <i name="HFSCREEN">      0.00000000</i>
   <i name="HFSCREENC">      0.00000000</i>
   <i type="int" name="NBANDSGWLOW">     0</i>
  </separator>
  <separator name="vdW DFT" >
   <i type="logical" name="LUSE_VDW"> F  </i>
   <i name="Zab_VDW">     -0.84910000</i>
   <i name="PARAM1">      0.12340000</i>
   <i name="PARAM2">      1.00000000</i>
   <i name="PARAM3">      0.00000000</i>
  </separator>
  <separator name="model GW" >
   <i type="int" name="MODEL_GW">     0</i>
   <i name="MODEL_EPS0">     24.24262375</i>
   <i name="MODEL_ALPHA">      1.00000000</i>
  </separator>
  <separator name="linear response parameters" >
   <i type="logical" name="LEPSILON"> F  </i>
   <i type="logical" name="LRPA"> F  </i>
   <i type="logical" name="LNABLA"> F  </i>
   <i type="logical" name="LVEL"> F  </i>
   <i type="int" name="KINTER">     0</i>
   <i name="CSHIFT">      0.10000000</i>
   <i name="OMEGAMAX">     -1.00000000</i>
   <i name="DEG_THRESHOLD">      0.00200000</i>
   <i name="RTIME">     -0.10000000</i>
   <i name="WPLASMAI">      0.00000000</i>
   <v name="DFIELD">      0.00000000      0.00000000      0.00000000</v>
   <v name="WPLASMA">      0.00000000      0.00000000      0.00000000      0.00000000      0.00000000      0.00000000      0.00000000      0.00000000      0.00000000</v>
  </separator>
  <separator name="orbital magnetization" >
   <i type="logical" name="NUCIND"> F  </i>
   <v name="MAGPOS">      0.00000000      0.00000000      0.00000000</v>
   <i type="logical" name="LNICSALL"> T  </i>
   <i type="logical" name="ORBITALMAG"> F  </i>
   <i type="logical" name="LMAGBLOCH"> F  </i>
   <i type="logical" name="LCHIMAG"> F  </i>
   <i type="logical" name="LGAUGE"> T  </i>
   <i type="int" name="MAGATOM">     0</i>
   <v name="MAGDIPOL">      0.00000000      0.00000000      0.00000000</v>
   <v name="AVECCONST">      0.00000000      0.00000000      0.00000000</v>
  </separator>
  <separator name="response functions" >
   <i type="logical" name="LADDER"> F  </i>
   <i type="logical" name="LRPAFORCE"> F  </i>
   <i type="logical" name="LFXC"> F  </i>
   <i type="logical" name="LHARTREE"> T  </i>
   <i type="int" name="IBSE">     0</i>
   <v type="int" name="KPOINT">    -1     0     0     0</v>
   <i type="logical" name="LTCTE"> F  </i>
   <i type="logical" name="LTETE"> F  </i>
   <i type="logical" name="LTRIPLET"> F  </i>
   <i type="logical" name="LFXCEPS"> F  </i>
   <i type="logical" name="LFXHEG"> F  </i>
   <i type="int" name="NATURALO">     2</i>
   <i type="logical" name="L2ORDER"> F  </i>
   <i type="logical" name="LMP2LT"> F  </i>
   <i type="logical" name="LUSEW"> F  </i>
   <i name="ENCUTGW">     -2.00000000</i>
   <i name="ENCUTGWSOFT">     -2.00000000</i>
   <i name="ENCUTLF">     -1.00000000</i>
   <i type="int" name="LMAXMP2">    -1</i>
   <i name="SCISSOR">      0.00000000</i>
   <i type="int" name="NOMEGA">     0</i>
   <i type="int" name="NOMEGAR">     0</i>
   <i type="int" name="NBANDSGW">    -1</i>
   <i type="int" name="NBANDSO">    -1</i>
   <i type="int" name="NBANDSV">    -1</i>
   <i type="int" name="NELM">   200</i>
   <i type="int" name="NELMHF">     1</i>
   <i type="int" name="DIM">     3</i>
   <i type="int" name="ANTIRES">     0</i>
   <i name="OMEGAMAX">    -30.00000000</i>
   <i name="OMEGAMIN">    -30.00000000</i>
   <i name="OMEGATL">   -200.00000000</i>
   <i type="int" name="OMEGAGRID">   140</i>
   <i name="CSHIFT">     -0.10000000</i>
   <i type="logical" name="SELFENERGY"> F  </i>
   <i type="logical" name="LSPECTRAL"> F  </i>
   <i type="logical" name="LSPECTRALGW"> F  </i>
   <i type="logical" name="LSINGLES"> F  </i>
   <i type="logical" name="LFERMIGW"> F  </i>
   <i type="logical" name="ODDONLYGW"> F  </i>
   <i type="logical" name="EVENONLYGW"> F  </i>
   <i type="int" name="NKREDLFX">     1</i>
   <i type="int" name="NKREDLFY">     1</i>
   <i type="int" name="NKREDLFZ">     1</i>
   <i type="int" name="MAXMEM">  2800</i>
   <i type="int" name="TELESCOPE">     0</i>
   <i type="int" name="TAUPAR">     1</i>
   <i type="int" name="OMEGAPAR">    -1</i>
   <i name="LAMBDA">      1.00000000</i>
  </separator>
  <separator name="External order field" >
   <i name="OFIELD_KAPPA">      0.00000000</i>
   <v name="OFIELD_K">      0.00000000      0.00000000      0.00000000</v>
   <i name="OFIELD_Q6_NEAR">      0.00000000</i>
   <i name="OFIELD_Q6_FAR">      0.00000000</i>
   <i name="OFIELD_A">      0.00000000</i>
  </separator>
 </parameters>
 <atominfo>
  <atoms>      40 </atoms>
  <types>       3 </types>
  <array name="atoms" >
   <dimension dim="1">ion</dimension>
   <field type="string">element</field>
   <field type="int">atomtype</field>
   <set>
    <rc><c>Cs</c><c>   1</c></rc>
    <rc><c>Cs</c><c>   1</c></rc>
    <rc><c>Cs</c><c>   1</c></rc>
    <rc><c>Cs</c><c>   1</c></rc>
    <rc><c>Cs</c><c>   1</c></rc>
    <rc><c>Cs</c><c>   1</c></rc>
    <rc><c>Cs</c><c>   1</c></rc>
    <rc><c>Cs</c><c>   1</c></rc>
    <rc><c>Pb</c><c>   2</c></rc>
    <rc><c>Pb</c><c>   2</c></rc>
    <rc><c>Pb</c><c>   2</c></rc>
    <rc><c>Pb</c><c>   2</c></rc>
    <rc><c>Pb</c><c>   2</c></rc>
    <rc><c>Pb</c><c>   2</c></rc>
    <rc><c>Pb</c><c>   2</c></rc>
    <rc><c>Pb</c><c>   2</c></rc>
    <rc><c>Br</c><c>   3</c></rc>
    <rc><c>Br</c><c>   3</c></rc>
    <rc><c>Br</c><c>   3</c></rc>
    <rc><c>Br</c><c>   3</c></rc>
    <rc><c>Br</c><c>   3</c></rc>
    <rc><c>Br</c><c>   3</c></rc>
    <rc><c>Br</c><c>   3</c></rc>
    <rc><c>Br</c><c>   3</c></rc>
    <rc><c>Br</c><c>   3</c></rc>
    <rc><c>Br</c><c>   3</c></rc>
    <rc><c>Br</c><c>   3</c></rc>
    <rc><c>Br</c><c>   3</c></rc>
    <rc><c>Br</c><c>   3</c></rc>
    <rc><c>Br</c><c>   3</c></rc>
    <rc><c>Br</c><c>   3</c></rc>
    <rc><c>Br</c><c>   3</c></rc>
    <rc><c>Br</c><c>   3</c></rc>
    <rc><c>Br</c><c>   3</c></rc>
    <rc><c>Br</c><c>   3</c></rc>
    <rc><c>Br</c><c>   3</c></rc>
    <rc><c>Br</c><c>   3</c></rc>
    <rc><c>Br</c><c>   3</c></rc>
    <rc><c>Br</c><c>   3</c></rc>
    <rc><c>Br</c><c>   3</c></rc>
   </set>
  </array>
  <array name="atomtypes" >
   <dimension dim="1">type</dimension>
   <field type="int">atomspertype</field>
   <field type="string">element</field>
   <field>mass</field>
   <field>valence</field>
   <field type="string">pseudopotential</field>
   <set>
    <rc><c>   8</c><c>Cs</c><c>    132.90000000</c><c>      9.00000000</c><c>  PAW_PBE Cs_sv 08Apr2002               </c></rc>
    <rc><c>   8</c><c>Pb</c><c>    207.20000000</c><c>     14.00000000</c><c>  PAW_PBE Pb_d 06Sep2000                </c></rc>
    <rc><c>  24</c><c>Br</c><c>     79.90400000</c><c>      7.00000000</c><c>  PAW_PBE Br 06Sep2000                  </c></rc>
   </set>
  </array>
 </atominfo>
 <structure name="initialpos" >
  <crystal>
   <varray name="basis" >
    <v>      11.73535200       0.00000000       0.00000000 </v>
    <v>       0.00000000      11.73535200       0.00000000 </v>
    <v>       0.00000000       0.00000000      11.73535200 </v>
   </varray>
   <i name="volume">   1616.17491673 </i>
   <varray name="rec_basis" >
    <v>       0.08521261       0.00000000       0.00000000 </v>
    <v>       0.00000000       0.08521261       0.00000000 </v>
    <v>       0.00000000       0.00000000       0.08521261 </v>
   </varray>
  </crystal>
  <varray name="positions" >
   <v>       0.25000000       0.25000000       0.25000000 </v>
   <v>       0.25000000       0.25000000       0.75000000 </v>
   <v>       0.25000000       0.75000000       0.25000000 </v>
   <v>       0.25000000       0.75000000       0.75000000 </v>
   <v>       0.75000000       0.25000000       0.25000000 </v>
   <v>       0.75000000       0.25000000       0.75000000 </v>
   <v>       0.75000000       0.75000000       0.25000000 </v>
   <v>       0.75000000       0.75000000       0.75000000 </v>
   <v>       0.00000000       0.00000000       0.00000000 </v>
   <v>       0.00000000       0.00000000       0.50000000 </v>
   <v>       0.00000000       0.50000000       0.00000000 </v>
   <v>       0.00000000       0.50000000       0.50000000 </v>
   <v>       0.50000000       0.00000000       0.00000000 </v>
   <v>       0.50000000       0.00000000       0.50000000 </v>
   <v>       0.50000000       0.50000000       0.00000000 </v>
   <v>       0.50000000       0.50000000       0.50000000 </v>
   <v>       0.98875000       0.25000000       0.00000000 </v>
   <v>       0.01125000       0.25000000       0.50000000 </v>
   <v>       0.01125000       0.75000000       0.00000000 </v>
   <v>       0.98875000       0.75000000       0.50000000 </v>
   <v>       0.51125000       0.25000000       0.00000000 </v>
   <v>       0.48875000       0.25000000       0.50000000 </v>
   <v>       0.48875000       0.75000000       0.00000000 </v>
   <v>       0.51125000       0.75000000       0.50000000 </v>
   <v>       0.00000000       0.00000000       0.25000000 </v>
   <v>       0.00000000       0.00000000       0.75000000 </v>
   <v>       0.00000000       0.50000000       0.25000000 </v>
   <v>       0.00000000       0.50000000       0.75000000 </v>
   <v>       0.50000000       0.00000000       0.25000000 </v>
   <v>       0.50000000       0.00000000       0.75000000 </v>
   <v>       0.50000000       0.50000000       0.25000000 </v>
   <v>       0.50000000       0.50000000       0.75000000 </v>
   <v>       0.25000000       0.01125000       0.00000000 </v>
   <v>       0.25000000       0.98875000       0.50000000 </v>
   <v>       0.25000000       0.48875000       0.00000000 </v>
   <v>       0.25000000       0.51125000       0.50000000 </v>
   <v>       0.75000000       0.98875000       0.00000000 </v>
   <v>       0.75000000       0.01125000       0.50000000 </v>
   <v>       0.75000000       0.51125000       0.00000000 </v>
   <v>       0.75000000       0.48875000       0.50000000 </v>
  </varray>
 </structure>
 <calculation>
  <scstep>
   <time name="dav">   12.83   12.83</time>
   <time name="total">   14.28   14.32</time>
   <energy>
    <i name="alphaZ">    892.99476195 </i>
    <i name="ewald"> -18197.57183547 </i>
    <i name="hartreedc">  -7551.22505475 </i>
    <i name="XCdc">    924.97180809 </i>
    <i name="pawpsdc">  21633.96174531 </i>
    <i name="pawaedc"> -22707.92185401 </i>
    <i name="eentropy">     -0.00141627 </i>
    <i name="bandstr">   -233.57461669 </i>
    <i name="atom">  26580.56019858 </i>
    <i name="e_fr_energy">   1342.19373675 </i>
    <i name="e_wo_entrp">   1342.19515301 </i>
    <i name="e_0_energy">   1342.19444488 </i>
   </energy>
  </scstep>
  <scstep>
   <time name="dav">   14.21   14.23</time>
   <time name="total">   14.21   14.23</time>
   <energy>
    <i name="e_fr_energy">  -1130.60211288 </i>
    <i name="e_wo_entrp">  -1130.60211288 </i>
    <i name="e_0_energy">  -1130.60211288 </i>
   </energy>
  </scstep>
  <scstep>
   <time name="dav">   15.19   15.24</time>
   <time name="total">   15.19   15.24</time>
   <energy>
    <i name="e_fr_energy">  -1495.10669187 </i>
    <i name="e_wo_entrp">  -1495.10669187 </i>
    <i name="e_0_energy">  -1495.10669187 </i>
   </energy>
  </scstep>
  <scstep>
   <time name="dav">   14.07   14.11</time>
   <time name="total">   14.07   14.11</time>
   <energy>
    <i name="e_fr_energy">  -1507.07709789 </i>
    <i name="e_wo_entrp">  -1507.07709789 </i>
    <i name="e_0_energy">  -1507.07709789 </i>
   </energy>
  </scstep>
  <scstep>
   <time name="dav">   15.02   15.04</time>
   <time name="total">   18.09   18.11</time>
   <energy>
    <i name="e_fr_energy">  -1507.61584399 </i>
    <i name="e_wo_entrp">  -1507.61584399 </i>
    <i name="e_0_energy">  -1507.61584399 </i>
   </energy>
  </scstep>
  <scstep>
   <time name="dav">   14.67   14.67</time>
   <time name="total">   19.23   19.25</time>
   <energy>
    <i name="e_fr_energy">  -1429.18667187 </i>
    <i name="e_wo_entrp">  -1429.18667187 </i>
    <i name="e_0_energy">  -1429.18667187 </i>
   </energy>
  </scstep>
  <scstep>
   <time name="dav">   14.32   14.32</time>
   <time name="total">   18.91   18.92</time>
   <energy>
    <i name="e_fr_energy">  -1428.68306834 </i>
    <i name="e_wo_entrp">  -1428.68306834 </i>
    <i name="e_0_energy">  -1428.68306834 </i>
   </energy>
  </scstep>
  <scstep>
   <time name="dav">   14.28   14.28</time>
   <time name="total">   18.88   18.90</time>
   <energy>
    <i name="e_fr_energy">  -1428.85399516 </i>
    <i name="e_wo_entrp">  -1428.85399516 </i>
    <i name="e_0_energy">  -1428.85399516 </i>
   </energy>
  </scstep>
  <scstep>
   <time name="dav">   13.25   13.25</time>
   <time name="total">   17.84   17.85</time>
   <energy>
    <i name="e_fr_energy">  -1428.93393844 </i>
    <i name="e_wo_entrp">  -1428.93393844 </i>
    <i name="e_0_energy">  -1428.93393844 </i>
   </energy>
  </scstep>
  <scstep>
   <time name="dav">   15.44   15.44</time>
   <time name="total">   20.03   20.05</time>
   <energy>
    <i name="e_fr_energy">  -1428.93487768 </i>
    <i name="e_wo_entrp">  -1428.93487768 </i>
    <i name="e_0_energy">  -1428.93487768 </i>
   </energy>
  </scstep>
  <scstep>
   <time name="dav">   13.69   13.69</time>
   <time name="total">   18.31   18.32</time>
   <energy>
    <i name="e_fr_energy">  -1428.93778194 </i>
    <i name="e_wo_entrp">  -1428.93778194 </i>
    <i name="e_0_energy">  -1428.93778194 </i>
   </energy>
  </scstep>
  <scstep>
   <time name="dav">   13.59   13.59</time>
   <time name="total">   18.18   18.21</time>
   <energy>
    <i name="e_fr_energy">  -1428.93854996 </i>
    <i name="e_wo_entrp">  -1428.93854996 </i>
    <i name="e_0_energy">  -1428.93854996 </i>
   </energy>
  </scstep>
  <scstep>
   <time name="dav">   14.71   14.71</time>
   <time name="total">   19.30   19.34</time>
   <energy>
    <i name="e_fr_energy">  -1428.93858005 </i>
    <i name="e_wo_entrp">  -1428.93858005 </i>
    <i name="e_0_energy">  -1428.93858005 </i>
   </energy>
  </scstep>
  <scstep>
   <time name="dav">   13.57   13.57</time>
   <time name="total">   18.17   18.21</time>
   <energy>
    <i name="e_fr_energy">  -1428.93860824 </i>
    <i name="e_wo_entrp">  -1428.93860824 </i>
    <i name="e_0_energy">  -1428.93860824 </i>
   </energy>
  </scstep>
  <scstep>
   <time name="dav">   10.36   10.36</time>
   <time name="total">   14.95   14.99</time>
   <energy>
    <i name="e_fr_energy">  -1428.93859481 </i>
    <i name="e_wo_entrp">  -1428.93859481 </i>
    <i name="e_0_energy">  -1428.93859481 </i>
   </energy>
  </scstep>
  <scstep>
   <time name="dav">   10.07   10.07</time>
   <time name="total">   14.67   14.72</time>
   <energy>
    <i name="e_fr_energy">  -1428.93858890 </i>
    <i name="e_wo_entrp">  -1428.93858890 </i>
    <i name="e_0_energy">  -1428.93858890 </i>
   </energy>
  </scstep>
  <scstep>
   <time name="dav">    9.99    9.99</time>
   <time name="total">   14.59   14.61</time>
   <energy>
    <i name="e_fr_energy">  -1428.93858293 </i>
    <i name="e_wo_entrp">  -1428.93858293 </i>
    <i name="e_0_energy">  -1428.93858293 </i>
   </energy>
  </scstep>
  <scstep>
   <time name="dav">    9.97    9.97</time>
   <time name="total">   14.57   14.61</time>
   <energy>
    <i name="e_fr_energy">  -1428.93858132 </i>
    <i name="e_wo_entrp">  -1428.93858132 </i>
    <i name="e_0_energy">  -1428.93858132 </i>
   </energy>
  </scstep>
  <scstep>
   <time name="dav">    9.94    9.94</time>
   <time name="total">   11.40   11.44</time>
   <energy>
    <i name="alphaZ">    892.99476195 </i>
    <i name="ewald"> -18197.57183547 </i>
    <i name="hartreedc">  -7593.75870414 </i>
    <i name="XCdc">    964.27579966 </i>
    <i name="pawpsdc">  23336.65939946 </i>
    <i name="pawaedc"> -24411.35502165 </i>
    <i name="eentropy">     -0.00000000 </i>
    <i name="bandstr">  -3000.74318049 </i>
    <i name="atom">  26580.56019858 </i>
    <i name="e_fr_energy">  -1428.93858211 </i>
    <i name="e_wo_entrp">  -1428.93858211 </i>
    <i name="e_0_energy">  -1428.93858211 </i>
   </energy>
  </scstep>
  <structure>
   <crystal>
    <varray name="basis" >
     <v>      11.73535200       0.00000000       0.00000000 </v>
     <v>       0.00000000      11.73535200       0.00000000 </v>
     <v>       0.00000000       0.00000000      11.73535200 </v>
    </varray>
    <i name="volume">   1616.17491673 </i>
    <varray name="rec_basis" >
     <v>       0.08521261       0.00000000       0.00000000 </v>
     <v>       0.00000000       0.08521261       0.00000000 </v>
     <v>       0.00000000       0.00000000       0.08521261 </v>
    </varray>
   </crystal>
   <varray name="positions" >
    <v>       0.25000000       0.25000000       0.25000000 </v>
    <v>       0.25000000       0.25000000       0.75000000 </v>
    <v>       0.25000000       0.75000000       0.25000000 </v>
    <v>       0.25000000       0.75000000       0.75000000 </v>
    <v>       0.75000000       0.25000000       0.25000000 </v>
    <v>       0.75000000       0.25000000       0.75000000 </v>
    <v>       0.75000000       0.75000000       0.25000000 </v>
    <v>       0.75000000       0.75000000       0.75000000 </v>
    <v>       0.00000000       0.00000000       0.00000000 </v>
    <v>       0.00000000       0.00000000       0.50000000 </v>
    <v>       0.00000000       0.50000000       0.00000000 </v>
    <v>       0.00000000       0.50000000       0.50000000 </v>
    <v>       0.50000000       0.00000000       0.00000000 </v>
    <v>       0.50000000       0.00000000       0.50000000 </v>
    <v>       0.50000000       0.50000000       0.00000000 </v>
    <v>       0.50000000       0.50000000       0.50000000 </v>
    <v>       0.98875000       0.25000000       0.00000000 </v>
    <v>       0.01125000       0.25000000       0.50000000 </v>
    <v>       0.01125000       0.75000000       0.00000000 </v>
    <v>       0.98875000       0.75000000       0.50000000 </v>
    <v>       0.51125000       0.25000000       0.00000000 </v>
    <v>       0.48875000       0.25000000       0.50000000 </v>
    <v>       0.48875000       0.75000000       0.00000000 </v>
    <v>       0.51125000       0.75000000       0.50000000 </v>
    <v>       0.00000000       0.00000000       0.25000000 </v>
    <v>       0.00000000       0.00000000       0.75000000 </v>
    <v>       0.00000000       0.50000000       0.25000000 </v>
    <v>       0.00000000       0.50000000       0.75000000 </v>
    <v>       0.50000000       0.00000000       0.25000000 </v>
    <v>       0.50000000       0.00000000       0.75000000 </v>
    <v>       0.50000000       0.50000000       0.25000000 </v>
    <v>       0.50000000       0.50000000       0.75000000 </v>
    <v>       0.25000000       0.01125000       0.00000000 </v>
    <v>       0.25000000       0.98875000       0.50000000 </v>
    <v>       0.25000000       0.48875000       0.00000000 </v>
    <v>       0.25000000       0.51125000       0.50000000 </v>
    <v>       0.75000000       0.98875000       0.00000000 </v>
    <v>       0.75000000       0.01125000       0.50000000 </v>
    <v>       0.75000000       0.51125000       0.00000000 </v>
    <v>       0.75000000       0.48875000       0.50000000 </v>
   </varray>
  </structure>
  <varray name="forces" >
   <v>       0.00000000      -0.00000000       0.00000000 </v>
   <v>       0.00000000      -0.00000000       0.00000000 </v>
   <v>       0.00000000      -0.00000000       0.00000000 </v>
   <v>       0.00000000      -0.00000000       0.00000000 </v>
   <v>       0.00000000      -0.00000000       0.00000000 </v>
   <v>       0.00000000      -0.00000000       0.00000000 </v>
   <v>       0.00000000      -0.00000000       0.00000000 </v>
   <v>       0.00000000      -0.00000000       0.00000000 </v>
   <v>       0.00000000      -0.00000000       0.00000000 </v>
   <v>       0.00000000      -0.00000000       0.00000000 </v>
   <v>       0.00000000      -0.00000000       0.00000000 </v>
   <v>       0.00000000      -0.00000000       0.00000000 </v>
   <v>       0.00000000      -0.00000000       0.00000000 </v>
   <v>       0.00000000      -0.00000000       0.00000000 </v>
   <v>       0.00000000      -0.00000000       0.00000000 </v>
   <v>       0.00000000      -0.00000000       0.00000000 </v>
   <v>      -0.04627550      -0.00000000       0.00000000 </v>
   <v>       0.04627550      -0.00000000      -0.00000000 </v>
   <v>       0.04627550      -0.00000000      -0.00000000 </v>
   <v>      -0.04627550      -0.00000000       0.00000000 </v>
   <v>       0.04627550      -0.00000000      -0.00000000 </v>
   <v>      -0.04627550      -0.00000000       0.00000000 </v>
   <v>      -0.04627550      -0.00000000      -0.00000000 </v>
   <v>       0.04627550      -0.00000000      -0.00000000 </v>
   <v>       0.00000000      -0.00000000       0.00000000 </v>
   <v>       0.00000000      -0.00000000       0.00000000 </v>
   <v>       0.00000000      -0.00000000       0.00000000 </v>
   <v>       0.00000000      -0.00000000       0.00000000 </v>
   <v>       0.00000000      -0.00000000       0.00000000 </v>
   <v>       0.00000000      -0.00000000       0.00000000 </v>
   <v>       0.00000000      -0.00000000       0.00000000 </v>
   <v>       0.00000000      -0.00000000       0.00000000 </v>
   <v>       0.00000000       0.04627550      -0.00000000 </v>
   <v>       0.00000000      -0.04627550       0.00000000 </v>
   <v>       0.00000000      -0.04627550       0.00000000 </v>
   <v>       0.00000000       0.04627550      -0.00000000 </v>
   <v>       0.00000000      -0.04627550       0.00000000 </v>
   <v>       0.00000000       0.04627550      -0.00000000 </v>
   <v>       0.00000000       0.04627550      -0.00000000 </v>
   <v>       0.00000000      -0.04627550       0.00000000 </v>
  </varray>
  <varray name="stress" >
   <v>       4.01982105       0.00000000       0.00000000 </v>
   <v>       0.00000000       4.01982105       0.00000000 </v>
   <v>      -0.00000000      -0.00000000       4.74593846 </v>
  </varray>
  <energy>
   <i name="e_fr_energy">  -1428.93858211 </i>
   <i name="e_wo_entrp">  -1428.93858211 </i>
   <i name="e_0_energy">     -0.00000000 </i>
  </energy>
  <time name="totalsc">  364.66  365.59</time>
  <eigenvalues>
   <array>
    <dimension dim="1">band</dimension>
    <dimension dim="2">kpoint</dimension>
    <dimension dim="3">spin</dimension>
    <field>eigene</field>
    <field>occ</field>
    <set>
     <set comment="spin 1">
      <set comment="kpoint 1">
       <r>  -21.0844    1.0000 </r>
       <r>  -21.0834    1.0000 </r>
       <r>  -21.0834    1.0000 </r>
       <r>  -21.0834    1.0000 </r>
       <r>  -21.0825    1.0000 </r>
       <r>  -21.0825    1.0000 </r>
       <r>  -21.0825    1.0000 </r>
       <r>  -21.0812    1.0000 </r>
       <r>  -16.2854    1.0000 </r>
       <r>  -16.2848    1.0000 </r>
       <r>  -16.2848    1.0000 </r>
       <r>  -16.2833    1.0000 </r>
       <r>  -16.2833    1.0000 </r>
       <r>  -16.2494    1.0000 </r>
       <r>  -16.2473    1.0000 </r>
       <r>  -16.2473    1.0000 </r>
       <r>  -16.2065    1.0000 </r>
       <r>  -16.2064    1.0000 </r>
       <r>  -16.2064    1.0000 </r>
       <r>  -16.1575    1.0000 </r>
       <r>  -16.1575    1.0000 </r>
       <r>  -16.1572    1.0000 </r>
       <r>  -16.1568    1.0000 </r>
       <r>  -16.1564    1.0000 </r>
       <r>  -16.0586    1.0000 </r>
       <r>  -16.0584    1.0000 </r>
       <r>  -16.0584    1.0000 </r>
       <r>  -16.0583    1.0000 </r>
       <r>  -16.0581    1.0000 </r>
       <r>  -16.0581    1.0000 </r>
       <r>  -16.0576    1.0000 </r>
       <r>  -16.0576    1.0000 </r>
       <r>  -16.0574    1.0000 </r>
       <r>  -16.0574    1.0000 </r>
       <r>  -16.0574    1.0000 </r>
       <r>  -16.0574    1.0000 </r>
       <r>  -16.0574    1.0000 </r>
       <r>  -16.0574    1.0000 </r>
       <r>  -16.0572    1.0000 </r>
       <r>  -16.0572    1.0000 </r>
       <r>  -16.0572    1.0000 </r>
       <r>  -16.0572    1.0000 </r>
       <r>  -16.0563    1.0000 </r>
       <r>  -16.0562    1.0000 </r>
       <r>  -16.0561    1.0000 </r>
       <r>  -16.0561    1.0000 </r>
       <r>  -16.0560    1.0000 </r>
       <r>  -16.0560    1.0000 </r>
       <r>  -14.3930    1.0000 </r>
       <r>  -14.1610    1.0000 </r>
       <r>  -14.1610    1.0000 </r>
       <r>  -14.1584    1.0000 </r>
       <r>  -13.9952    1.0000 </r>
       <r>  -13.9952    1.0000 </r>
       <r>  -13.9940    1.0000 </r>
       <r>  -13.9907    1.0000 </r>
       <r>  -13.9903    1.0000 </r>
       <r>  -13.9903    1.0000 </r>
       <r>  -13.9896    1.0000 </r>
       <r>  -13.9896    1.0000 </r>
       <r>  -13.9884    1.0000 </r>
       <r>  -13.9884    1.0000 </r>
       <r>  -13.9852    1.0000 </r>
       <r>  -13.9852    1.0000 </r>
       <r>  -13.9023    1.0000 </r>
       <r>  -13.8985    1.0000 </r>
       <r>  -13.8985    1.0000 </r>
       <r>  -13.6219    1.0000 </r>
       <r>  -13.6217    1.0000 </r>
       <r>  -13.6199    1.0000 </r>
       <r>  -13.6199    1.0000 </r>
       <r>  -13.6196    1.0000 </r>
       <r>   -8.2654    1.0000 </r>
       <r>   -7.6449    1.0000 </r>
       <r>   -7.6449    1.0000 </r>
       <r>   -7.6356    1.0000 </r>
       <r>   -7.4704    1.0000 </r>
       <r>   -7.4704    1.0000 </r>
       <r>   -7.4675    1.0000 </r>
       <r>   -7.4448    1.0000 </r>
       <r>   -7.4448    1.0000 </r>
       <r>   -7.4443    1.0000 </r>
       <r>   -7.4443    1.0000 </r>
       <r>   -7.4421    1.0000 </r>
       <r>   -7.4421    1.0000 </r>
       <r>   -7.4347    1.0000 </r>
       <r>   -7.4347    1.0000 </r>
       <r>   -7.4338    1.0000 </r>
       <r>   -7.4224    1.0000 </r>
       <r>   -7.4224    1.0000 </r>
       <r>   -7.4215    1.0000 </r>
       <r>   -7.4215    1.0000 </r>
       <r>   -7.4207    1.0000 </r>
       <r>   -7.4207    1.0000 </r>
       <r>   -7.4204    1.0000 </r>
       <r>   -7.4204    1.0000 </r>
       <r>   -7.4196    1.0000 </r>
       <r>   -7.4125    1.0000 </r>
       <r>   -7.4125    1.0000 </r>
       <r>   -7.4109    1.0000 </r>
       <r>   -6.9755    1.0000 </r>
       <r>   -6.9669    1.0000 </r>
       <r>   -6.9669    1.0000 </r>
       <r>   -6.1812    1.0000 </r>
       <r>   -3.4339    1.0000 </r>
       <r>   -3.4245    1.0000 </r>
       <r>   -3.4245    1.0000 </r>
       <r>   -3.3378    1.0000 </r>
       <r>   -3.3378    1.0000 </r>
       <r>   -3.3278    1.0000 </r>
       <r>   -3.3278    1.0000 </r>
       <r>   -3.3277    1.0000 </r>
       <r>   -3.3277    1.0000 </r>
       <r>   -3.1881    1.0000 </r>
       <r>   -3.1759    1.0000 </r>
       <r>   -3.1759    1.0000 </r>
       <r>   -2.1443    1.0000 </r>
       <r>   -2.1443    1.0000 </r>
       <r>   -2.1393    1.0000 </r>
       <r>   -1.9536    1.0000 </r>
       <r>   -1.9536    1.0000 </r>
       <r>   -1.9477    1.0000 </r>
       <r>   -1.8732    1.0000 </r>
       <r>   -1.8732    1.0000 </r>
       <r>   -1.8715    1.0000 </r>
       <r>   -1.5401    1.0000 </r>
       <r>   -1.5401    1.0000 </r>
       <r>   -1.5316    1.0000 </r>
       <r>   -1.5316    1.0000 </r>
       <r>   -1.5249    1.0000 </r>
       <r>   -1.5249    1.0000 </r>
       <r>   -1.4620    1.0000 </r>
       <r>   -1.4620    1.0000 </r>
       <r>   -1.4584    1.0000 </r>
       <r>   -1.4584    1.0000 </r>
       <r>   -1.4462    1.0000 </r>
       <r>   -1.4462    1.0000 </r>
       <r>   -1.3818    1.0000 </r>
       <r>   -1.3818    1.0000 </r>
       <r>   -1.3798    1.0000 </r>
       <r>   -1.3798    1.0000 </r>
       <r>   -1.3783    1.0000 </r>
       <r>   -1.3783    1.0000 </r>
       <r>   -1.3668    1.0000 </r>
       <r>   -1.3583    1.0000 </r>
       <r>   -1.3583    1.0000 </r>
       <r>   -1.3237    1.0000 </r>
       <r>   -1.3178    1.0000 </r>
       <r>   -1.3155    1.0000 </r>
       <r>   -1.3148    1.0000 </r>
       <r>   -1.3148    1.0000 </r>
       <r>   -1.2441    1.0000 </r>
       <r>   -1.2430    1.0000 </r>
       <r>   -1.2430    1.0000 </r>
       <r>   -1.2298    1.0000 </r>
       <r>   -1.2298    1.0000 </r>
       <r>   -1.2285    1.0000 </r>
       <r>   -1.2285    1.0000 </r>
       <r>   -1.2193    1.0000 </r>
       <r>   -1.2193    1.0000 </r>
       <r>   -1.1203    1.0000 </r>
       <r>   -1.1170    1.0000 </r>
       <r>   -1.1170    1.0000 </r>
       <r>   -0.7628    1.0000 </r>
       <r>   -0.7588    1.0000 </r>
       <r>   -0.7588    1.0000 </r>
       <r>   -0.7485    1.0000 </r>
       <r>   -0.7485    1.0000 </r>
       <r>   -0.7473    1.0000 </r>
       <r>   -0.4597    1.0000 </r>
       <r>   -0.4597    1.0000 </r>
       <r>   -0.4400    1.0000 </r>
       <r>    0.2911    1.0000 </r>
       <r>    0.2973    1.0000 </r>
       <r>    0.2973    1.0000 </r>
       <r>    1.0162    1.0000 </r>
       <r>    2.8369    0.0000 </r>
       <r>    2.8391    0.0000 </r>
       <r>    2.8391    0.0000 </r>
       <r>    3.3601    0.0000 </r>
       <r>    3.3601    0.0000 </r>
       <r>    3.3630    0.0000 </r>
       <r>    3.3630    0.0000 </r>
       <r>    3.3655    0.0000 </r>
       <r>    3.3655    0.0000 </r>
       <r>    3.8323    0.0000 </r>
       <r>    3.8355    0.0000 </r>
       <r>    3.8355    0.0000 </r>
       <r>    4.5498    0.0000 </r>
       <r>    5.5365    0.0000 </r>
       <r>    5.5596    0.0000 </r>
       <r>    5.9788    0.0000 </r>
       <r>    6.0006    0.0000 </r>
       <r>    6.0006    0.0000 </r>
       <r>    6.1430    0.0000 </r>
       <r>    6.2031    0.0000 </r>
       <r>    6.2031    0.0000 </r>
       <r>    6.2315    0.0000 </r>
       <r>    6.4104    0.0000 </r>
       <r>    6.4104    0.0000 </r>
       <r>    6.4222    0.0000 </r>
       <r>    6.5486    0.0000 </r>
       <r>    6.5486    0.0000 </r>
       <r>    6.5609    0.0000 </r>
       <r>    6.5655    0.0000 </r>
       <r>    6.6029    0.0000 </r>
       <r>    6.6030    0.0000 </r>
       <r>    6.6608    0.0000 </r>
       <r>    6.6618    0.0000 </r>
       <r>    6.6667    0.0000 </r>
       <r>    6.6797    0.0000 </r>
       <r>    6.6885    0.0000 </r>
       <r>    6.7099    0.0000 </r>
       <r>    6.7359    0.0000 </r>
       <r>    6.7402    0.0000 </r>
       <r>    6.7663    0.0000 </r>
      </set>
      <set comment="kpoint 2">
       <r>  -21.0840    1.0000 </r>
       <r>  -21.0840    1.0000 </r>
       <r>  -21.0828    1.0000 </r>
       <r>  -21.0828    1.0000 </r>
       <r>  -21.0827    1.0000 </r>
       <r>  -21.0827    1.0000 </r>
       <r>  -21.0820    1.0000 </r>
       <r>  -21.0820    1.0000 </r>
       <r>  -16.2851    1.0000 </r>
       <r>  -16.2851    1.0000 </r>
       <r>  -16.2619    1.0000 </r>
       <r>  -16.2619    1.0000 </r>
       <r>  -16.2599    1.0000 </r>
       <r>  -16.2599    1.0000 </r>
       <r>  -16.2457    1.0000 </r>
       <r>  -16.2457    1.0000 </r>
       <r>  -16.2034    1.0000 </r>
       <r>  -16.2034    1.0000 </r>
       <r>  -16.1881    1.0000 </r>
       <r>  -16.1881    1.0000 </r>
       <r>  -16.1875    1.0000 </r>
       <r>  -16.1875    1.0000 </r>
       <r>  -16.1573    1.0000 </r>
       <r>  -16.1573    1.0000 </r>
       <r>  -16.0585    1.0000 </r>
       <r>  -16.0585    1.0000 </r>
       <r>  -16.0580    1.0000 </r>
       <r>  -16.0580    1.0000 </r>
       <r>  -16.0579    1.0000 </r>
       <r>  -16.0579    1.0000 </r>
       <r>  -16.0579    1.0000 </r>
       <r>  -16.0579    1.0000 </r>
       <r>  -16.0577    1.0000 </r>
       <r>  -16.0577    1.0000 </r>
       <r>  -16.0571    1.0000 </r>
       <r>  -16.0571    1.0000 </r>
       <r>  -16.0571    1.0000 </r>
       <r>  -16.0571    1.0000 </r>
       <r>  -16.0570    1.0000 </r>
       <r>  -16.0570    1.0000 </r>
       <r>  -16.0568    1.0000 </r>
       <r>  -16.0568    1.0000 </r>
       <r>  -16.0567    1.0000 </r>
       <r>  -16.0567    1.0000 </r>
       <r>  -16.0565    1.0000 </r>
       <r>  -16.0565    1.0000 </r>
       <r>  -16.0563    1.0000 </r>
       <r>  -16.0563    1.0000 </r>
       <r>  -14.3207    1.0000 </r>
       <r>  -14.3207    1.0000 </r>
       <r>  -14.1114    1.0000 </r>
       <r>  -14.1114    1.0000 </r>
       <r>  -14.1092    1.0000 </r>
       <r>  -14.1092    1.0000 </r>
       <r>  -13.9946    1.0000 </r>
       <r>  -13.9946    1.0000 </r>
       <r>  -13.9930    1.0000 </r>
       <r>  -13.9930    1.0000 </r>
       <r>  -13.9892    1.0000 </r>
       <r>  -13.9892    1.0000 </r>
       <r>  -13.9876    1.0000 </r>
       <r>  -13.9876    1.0000 </r>
       <r>  -13.9405    1.0000 </r>
       <r>  -13.9405    1.0000 </r>
       <r>  -13.7608    1.0000 </r>
       <r>  -13.7608    1.0000 </r>
       <r>  -13.7236    1.0000 </r>
       <r>  -13.7236    1.0000 </r>
       <r>  -13.7226    1.0000 </r>
       <r>  -13.7226    1.0000 </r>
       <r>  -13.6209    1.0000 </r>
       <r>  -13.6209    1.0000 </r>
       <r>   -7.9878    1.0000 </r>
       <r>   -7.9878    1.0000 </r>
       <r>   -7.4577    1.0000 </r>
       <r>   -7.4577    1.0000 </r>
       <r>   -7.4549    1.0000 </r>
       <r>   -7.4549    1.0000 </r>
       <r>   -7.4418    1.0000 </r>
       <r>   -7.4418    1.0000 </r>
       <r>   -7.4361    1.0000 </r>
       <r>   -7.4361    1.0000 </r>
       <r>   -7.4338    1.0000 </r>
       <r>   -7.4338    1.0000 </r>
       <r>   -7.4335    1.0000 </r>
       <r>   -7.4335    1.0000 </r>
       <r>   -7.4308    1.0000 </r>
       <r>   -7.4308    1.0000 </r>
       <r>   -7.4281    1.0000 </r>
       <r>   -7.4281    1.0000 </r>
       <r>   -7.4278    1.0000 </r>
       <r>   -7.4278    1.0000 </r>
       <r>   -7.4274    1.0000 </r>
       <r>   -7.4274    1.0000 </r>
       <r>   -7.4173    1.0000 </r>
       <r>   -7.4173    1.0000 </r>
       <r>   -7.4157    1.0000 </r>
       <r>   -7.4157    1.0000 </r>
       <r>   -7.3524    1.0000 </r>
       <r>   -7.3524    1.0000 </r>
       <r>   -7.3465    1.0000 </r>
       <r>   -7.3465    1.0000 </r>
       <r>   -6.6478    1.0000 </r>
       <r>   -6.6478    1.0000 </r>
       <r>   -3.3875    1.0000 </r>
       <r>   -3.3875    1.0000 </r>
       <r>   -3.3775    1.0000 </r>
       <r>   -3.3775    1.0000 </r>
       <r>   -3.2670    1.0000 </r>
       <r>   -3.2670    1.0000 </r>
       <r>   -3.2565    1.0000 </r>
       <r>   -3.2565    1.0000 </r>
       <r>   -2.4538    1.0000 </r>
       <r>   -2.4538    1.0000 </r>
       <r>   -2.4175    1.0000 </r>
       <r>   -2.4175    1.0000 </r>
       <r>   -2.4154    1.0000 </r>
       <r>   -2.4154    1.0000 </r>
       <r>   -2.2760    1.0000 </r>
       <r>   -2.2760    1.0000 </r>
       <r>   -2.0498    1.0000 </r>
       <r>   -2.0498    1.0000 </r>
       <r>   -2.0164    1.0000 </r>
       <r>   -2.0164    1.0000 </r>
       <r>   -2.0111    1.0000 </r>
       <r>   -2.0111    1.0000 </r>
       <r>   -1.8378    1.0000 </r>
       <r>   -1.8378    1.0000 </r>
       <r>   -1.8310    1.0000 </r>
       <r>   -1.8310    1.0000 </r>
       <r>   -1.5449    1.0000 </r>
       <r>   -1.5449    1.0000 </r>
       <r>   -1.5427    1.0000 </r>
       <r>   -1.5427    1.0000 </r>
       <r>   -1.4234    1.0000 </r>
       <r>   -1.4234    1.0000 </r>
       <r>   -1.4194    1.0000 </r>
       <r>   -1.4194    1.0000 </r>
       <r>   -1.3373    1.0000 </r>
       <r>   -1.3373    1.0000 </r>
       <r>   -1.3281    1.0000 </r>
       <r>   -1.3281    1.0000 </r>
       <r>   -1.3261    1.0000 </r>
       <r>   -1.3261    1.0000 </r>
       <r>   -1.3127    1.0000 </r>
       <r>   -1.3127    1.0000 </r>
       <r>   -1.3071    1.0000 </r>
       <r>   -1.3071    1.0000 </r>
       <r>   -1.2911    1.0000 </r>
       <r>   -1.2911    1.0000 </r>
       <r>   -1.2471    1.0000 </r>
       <r>   -1.2471    1.0000 </r>
       <r>   -1.2420    1.0000 </r>
       <r>   -1.2420    1.0000 </r>
       <r>   -1.1802    1.0000 </r>
       <r>   -1.1802    1.0000 </r>
       <r>   -1.1777    1.0000 </r>
       <r>   -1.1777    1.0000 </r>
       <r>   -1.0906    1.0000 </r>
       <r>   -1.0906    1.0000 </r>
       <r>   -1.0126    1.0000 </r>
       <r>   -1.0126    1.0000 </r>
       <r>   -0.9914    1.0000 </r>
       <r>   -0.9914    1.0000 </r>
       <r>   -0.9701    1.0000 </r>
       <r>   -0.9701    1.0000 </r>
       <r>   -0.9697    1.0000 </r>
       <r>   -0.9697    1.0000 </r>
       <r>   -0.7536    1.0000 </r>
       <r>   -0.7536    1.0000 </r>
       <r>   -0.2815    1.0000 </r>
       <r>   -0.2815    1.0000 </r>
       <r>   -0.2674    1.0000 </r>
       <r>   -0.2674    1.0000 </r>
       <r>    0.4493    1.0000 </r>
       <r>    0.4493    1.0000 </r>
       <r>    3.1047    0.0000 </r>
       <r>    3.1047    0.0000 </r>
       <r>    3.1049    0.0000 </r>
       <r>    3.1049    0.0000 </r>
       <r>    3.5975    0.0000 </r>
       <r>    3.5975    0.0000 </r>
       <r>    3.5975    0.0000 </r>
       <r>    3.5975    0.0000 </r>
       <r>    4.6219    0.0000 </r>
       <r>    4.6219    0.0000 </r>
       <r>    5.1044    0.0000 </r>
       <r>    5.1044    0.0000 </r>
       <r>    5.1053    0.0000 </r>
       <r>    5.1053    0.0000 </r>
       <r>    5.1120    0.0000 </r>
       <r>    5.1120    0.0000 </r>
       <r>    5.6070    0.0000 </r>
       <r>    5.6070    0.0000 </r>
       <r>    5.9341    0.0000 </r>
       <r>    5.9341    0.0000 </r>
       <r>    6.0123    0.0000 </r>
       <r>    6.0123    0.0000 </r>
       <r>    6.3850    0.0000 </r>
       <r>    6.3850    0.0000 </r>
       <r>    6.4066    0.0000 </r>
       <r>    6.4066    0.0000 </r>
       <r>    6.4528    0.0000 </r>
       <r>    6.4528    0.0000 </r>
       <r>    6.4749    0.0000 </r>
       <r>    6.4749    0.0000 </r>
       <r>    6.5707    0.0000 </r>
       <r>    6.5708    0.0000 </r>
       <r>    6.6190    0.0000 </r>
       <r>    6.6243    0.0000 </r>
       <r>    6.6272    0.0000 </r>
       <r>    6.6326    0.0000 </r>
       <r>    6.6523    0.0000 </r>
       <r>    6.6618    0.0000 </r>
       <r>    6.7213    0.0000 </r>
       <r>    6.7280    0.0000 </r>
      </set>
      <set comment="kpoint 3">
       <r>  -21.0834    1.0000 </r>
       <r>  -21.0834    1.0000 </r>
       <r>  -21.0834    1.0000 </r>
       <r>  -21.0834    1.0000 </r>
       <r>  -21.0824    1.0000 </r>
       <r>  -21.0824    1.0000 </r>
       <r>  -21.0824    1.0000 </r>
       <r>  -21.0824    1.0000 </r>
       <r>  -16.2671    1.0000 </r>
       <r>  -16.2671    1.0000 </r>
       <r>  -16.2671    1.0000 </r>
       <r>  -16.2671    1.0000 </r>
       <r>  -16.2237    1.0000 </r>
       <r>  -16.2237    1.0000 </r>
       <r>  -16.2237    1.0000 </r>
       <r>  -16.2237    1.0000 </r>
       <r>  -16.2236    1.0000 </r>
       <r>  -16.2236    1.0000 </r>
       <r>  -16.2236    1.0000 </r>
       <r>  -16.2236    1.0000 </r>
       <r>  -16.1817    1.0000 </r>
       <r>  -16.1817    1.0000 </r>
       <r>  -16.1817    1.0000 </r>
       <r>  -16.1817    1.0000 </r>
       <r>  -16.0578    1.0000 </r>
       <r>  -16.0578    1.0000 </r>
       <r>  -16.0578    1.0000 </r>
       <r>  -16.0578    1.0000 </r>
       <r>  -16.0578    1.0000 </r>
       <r>  -16.0578    1.0000 </r>
       <r>  -16.0578    1.0000 </r>
       <r>  -16.0578    1.0000 </r>
       <r>  -16.0575    1.0000 </r>
       <r>  -16.0575    1.0000 </r>
       <r>  -16.0575    1.0000 </r>
       <r>  -16.0575    1.0000 </r>
       <r>  -16.0575    1.0000 </r>
       <r>  -16.0575    1.0000 </r>
       <r>  -16.0575    1.0000 </r>
       <r>  -16.0575    1.0000 </r>
       <r>  -16.0567    1.0000 </r>
       <r>  -16.0567    1.0000 </r>
       <r>  -16.0567    1.0000 </r>
       <r>  -16.0567    1.0000 </r>
       <r>  -16.0566    1.0000 </r>
       <r>  -16.0566    1.0000 </r>
       <r>  -16.0566    1.0000 </r>
       <r>  -16.0566    1.0000 </r>
       <r>  -14.2578    1.0000 </r>
       <r>  -14.2578    1.0000 </r>
       <r>  -14.2578    1.0000 </r>
       <r>  -14.2578    1.0000 </r>
       <r>  -14.0765    1.0000 </r>
       <r>  -14.0765    1.0000 </r>
       <r>  -14.0765    1.0000 </r>
       <r>  -14.0765    1.0000 </r>
       <r>  -13.9938    1.0000 </r>
       <r>  -13.9938    1.0000 </r>
       <r>  -13.9938    1.0000 </r>
       <r>  -13.9938    1.0000 </r>
       <r>  -13.8056    1.0000 </r>
       <r>  -13.8056    1.0000 </r>
       <r>  -13.8056    1.0000 </r>
       <r>  -13.8056    1.0000 </r>
       <r>  -13.8022    1.0000 </r>
       <r>  -13.8022    1.0000 </r>
       <r>  -13.8022    1.0000 </r>
       <r>  -13.8022    1.0000 </r>
       <r>  -13.6989    1.0000 </r>
       <r>  -13.6989    1.0000 </r>
       <r>  -13.6989    1.0000 </r>
       <r>  -13.6989    1.0000 </r>
       <r>   -7.7097    1.0000 </r>
       <r>   -7.7097    1.0000 </r>
       <r>   -7.7097    1.0000 </r>
       <r>   -7.7097    1.0000 </r>
       <r>   -7.4464    1.0000 </r>
       <r>   -7.4464    1.0000 </r>
       <r>   -7.4464    1.0000 </r>
       <r>   -7.4464    1.0000 </r>
       <r>   -7.4426    1.0000 </r>
       <r>   -7.4426    1.0000 </r>
       <r>   -7.4426    1.0000 </r>
       <r>   -7.4426    1.0000 </r>
       <r>   -7.4379    1.0000 </r>
       <r>   -7.4379    1.0000 </r>
       <r>   -7.4379    1.0000 </r>
       <r>   -7.4379    1.0000 </r>
       <r>   -7.4289    1.0000 </r>
       <r>   -7.4289    1.0000 </r>
       <r>   -7.4289    1.0000 </r>
       <r>   -7.4289    1.0000 </r>
       <r>   -7.4223    1.0000 </r>
       <r>   -7.4223    1.0000 </r>
       <r>   -7.4223    1.0000 </r>
       <r>   -7.4223    1.0000 </r>
       <r>   -7.4216    1.0000 </r>
       <r>   -7.4216    1.0000 </r>
       <r>   -7.4216    1.0000 </r>
       <r>   -7.4216    1.0000 </r>
       <r>   -7.0515    1.0000 </r>
       <r>   -7.0515    1.0000 </r>
       <r>   -7.0515    1.0000 </r>
       <r>   -7.0515    1.0000 </r>
       <r>   -3.3298    1.0000 </r>
       <r>   -3.3298    1.0000 </r>
       <r>   -3.3298    1.0000 </r>
       <r>   -3.3298    1.0000 </r>
       <r>   -2.6439    1.0000 </r>
       <r>   -2.6439    1.0000 </r>
       <r>   -2.6439    1.0000 </r>
       <r>   -2.6439    1.0000 </r>
       <r>   -2.4979    1.0000 </r>
       <r>   -2.4979    1.0000 </r>
       <r>   -2.4979    1.0000 </r>
       <r>   -2.4979    1.0000 </r>
       <r>   -2.2639    1.0000 </r>
       <r>   -2.2639    1.0000 </r>
       <r>   -2.2639    1.0000 </r>
       <r>   -2.2639    1.0000 </r>
       <r>   -2.2245    1.0000 </r>
       <r>   -2.2245    1.0000 </r>
       <r>   -2.2245    1.0000 </r>
       <r>   -2.2245    1.0000 </r>
       <r>   -2.0050    1.0000 </r>
       <r>   -2.0050    1.0000 </r>
       <r>   -2.0050    1.0000 </r>
       <r>   -2.0050    1.0000 </r>
       <r>   -1.8024    1.0000 </r>
       <r>   -1.8024    1.0000 </r>
       <r>   -1.8024    1.0000 </r>
       <r>   -1.8024    1.0000 </r>
       <r>   -1.5834    1.0000 </r>
       <r>   -1.5834    1.0000 </r>
       <r>   -1.5834    1.0000 </r>
       <r>   -1.5834    1.0000 </r>
       <r>   -1.5546    1.0000 </r>
       <r>   -1.5546    1.0000 </r>
       <r>   -1.5546    1.0000 </r>
       <r>   -1.5546    1.0000 </r>
       <r>   -1.3544    1.0000 </r>
       <r>   -1.3544    1.0000 </r>
       <r>   -1.3544    1.0000 </r>
       <r>   -1.3544    1.0000 </r>
       <r>   -1.2676    1.0000 </r>
       <r>   -1.2676    1.0000 </r>
       <r>   -1.2676    1.0000 </r>
       <r>   -1.2676    1.0000 </r>
       <r>   -1.2274    1.0000 </r>
       <r>   -1.2274    1.0000 </r>
       <r>   -1.2274    1.0000 </r>
       <r>   -1.2274    1.0000 </r>
       <r>   -1.0782    1.0000 </r>
       <r>   -1.0782    1.0000 </r>
       <r>   -1.0782    1.0000 </r>
       <r>   -1.0782    1.0000 </r>
       <r>   -1.0432    1.0000 </r>
       <r>   -1.0432    1.0000 </r>
       <r>   -1.0432    1.0000 </r>
       <r>   -1.0432    1.0000 </r>
       <r>   -0.9972    1.0000 </r>
       <r>   -0.9972    1.0000 </r>
       <r>   -0.9972    1.0000 </r>
       <r>   -0.9972    1.0000 </r>
       <r>   -0.9674    1.0000 </r>
       <r>   -0.9674    1.0000 </r>
       <r>   -0.9674    1.0000 </r>
       <r>   -0.9674    1.0000 </r>
       <r>   -0.9207    1.0000 </r>
       <r>   -0.9207    1.0000 </r>
       <r>   -0.9207    1.0000 </r>
       <r>   -0.9207    1.0000 </r>
       <r>   -0.1340    1.0000 </r>
       <r>   -0.1340    1.0000 </r>
       <r>   -0.1340    1.0000 </r>
       <r>   -0.1340    1.0000 </r>
       <r>    3.3527    0.0000 </r>
       <r>    3.3527    0.0000 </r>
       <r>    3.3527    0.0000 </r>
       <r>    3.3527    0.0000 </r>
       <r>    4.7832    0.0000 </r>
       <r>    4.7832    0.0000 </r>
       <r>    4.7832    0.0000 </r>
       <r>    4.7832    0.0000 </r>
       <r>    4.8840    0.0000 </r>
       <r>    4.8840    0.0000 </r>
       <r>    4.8840    0.0000 </r>
       <r>    4.8840    0.0000 </r>
       <r>    5.2326    0.0000 </r>
       <r>    5.2326    0.0000 </r>
       <r>    5.2326    0.0000 </r>
       <r>    5.2326    0.0000 </r>
       <r>    5.2577    0.0000 </r>
       <r>    5.2577    0.0000 </r>
       <r>    5.2577    0.0000 </r>
       <r>    5.2577    0.0000 </r>
       <r>    5.7602    0.0000 </r>
       <r>    5.7602    0.0000 </r>
       <r>    5.7602    0.0000 </r>
       <r>    5.7602    0.0000 </r>
       <r>    6.3094    0.0000 </r>
       <r>    6.3094    0.0000 </r>
       <r>    6.3094    0.0000 </r>
       <r>    6.3094    0.0000 </r>
       <r>    6.3656    0.0000 </r>
       <r>    6.3656    0.0000 </r>
       <r>    6.3656    0.0000 </r>
       <r>    6.3656    0.0000 </r>
       <r>    6.4069    0.0000 </r>
       <r>    6.4069    0.0000 </r>
       <r>    6.4069    0.0000 </r>
       <r>    6.4069    0.0000 </r>
       <r>    6.5004    0.0000 </r>
       <r>    6.5004    0.0000 </r>
       <r>    6.5004    0.0000 </r>
       <r>    6.5005    0.0000 </r>
      </set>
      <set comment="kpoint 4">
       <r>  -21.0840    1.0000 </r>
       <r>  -21.0840    1.0000 </r>
       <r>  -21.0827    1.0000 </r>
       <r>  -21.0827    1.0000 </r>
       <r>  -21.0827    1.0000 </r>
       <r>  -21.0827    1.0000 </r>
       <r>  -21.0820    1.0000 </r>
       <r>  -21.0820    1.0000 </r>
       <r>  -16.2835    1.0000 </r>
       <r>  -16.2835    1.0000 </r>
       <r>  -16.2605    1.0000 </r>
       <r>  -16.2605    1.0000 </r>
       <r>  -16.2605    1.0000 </r>
       <r>  -16.2605    1.0000 </r>
       <r>  -16.2466    1.0000 </r>
       <r>  -16.2466    1.0000 </r>
       <r>  -16.2047    1.0000 </r>
       <r>  -16.2047    1.0000 </r>
       <r>  -16.1882    1.0000 </r>
       <r>  -16.1882    1.0000 </r>
       <r>  -16.1882    1.0000 </r>
       <r>  -16.1882    1.0000 </r>
       <r>  -16.1567    1.0000 </r>
       <r>  -16.1567    1.0000 </r>
       <r>  -16.0587    1.0000 </r>
       <r>  -16.0587    1.0000 </r>
       <r>  -16.0579    1.0000 </r>
       <r>  -16.0579    1.0000 </r>
       <r>  -16.0579    1.0000 </r>
       <r>  -16.0579    1.0000 </r>
       <r>  -16.0577    1.0000 </r>
       <r>  -16.0577    1.0000 </r>
       <r>  -16.0577    1.0000 </r>
       <r>  -16.0577    1.0000 </r>
       <r>  -16.0573    1.0000 </r>
       <r>  -16.0573    1.0000 </r>
       <r>  -16.0573    1.0000 </r>
       <r>  -16.0573    1.0000 </r>
       <r>  -16.0568    1.0000 </r>
       <r>  -16.0568    1.0000 </r>
       <r>  -16.0568    1.0000 </r>
       <r>  -16.0568    1.0000 </r>
       <r>  -16.0565    1.0000 </r>
       <r>  -16.0565    1.0000 </r>
       <r>  -16.0565    1.0000 </r>
       <r>  -16.0565    1.0000 </r>
       <r>  -16.0565    1.0000 </r>
       <r>  -16.0565    1.0000 </r>
       <r>  -14.3207    1.0000 </r>
       <r>  -14.3207    1.0000 </r>
       <r>  -14.1124    1.0000 </r>
       <r>  -14.1124    1.0000 </r>
       <r>  -14.1124    1.0000 </r>
       <r>  -14.1124    1.0000 </r>
       <r>  -13.9893    1.0000 </r>
       <r>  -13.9893    1.0000 </r>
       <r>  -13.9893    1.0000 </r>
       <r>  -13.9893    1.0000 </r>
       <r>  -13.9874    1.0000 </r>
       <r>  -13.9874    1.0000 </r>
       <r>  -13.9874    1.0000 </r>
       <r>  -13.9874    1.0000 </r>
       <r>  -13.9451    1.0000 </r>
       <r>  -13.9451    1.0000 </r>
       <r>  -13.7622    1.0000 </r>
       <r>  -13.7622    1.0000 </r>
       <r>  -13.7235    1.0000 </r>
       <r>  -13.7235    1.0000 </r>
       <r>  -13.7235    1.0000 </r>
       <r>  -13.7235    1.0000 </r>
       <r>  -13.6207    1.0000 </r>
       <r>  -13.6207    1.0000 </r>
       <r>   -7.9844    1.0000 </r>
       <r>   -7.9844    1.0000 </r>
       <r>   -7.4576    1.0000 </r>
       <r>   -7.4576    1.0000 </r>
       <r>   -7.4576    1.0000 </r>
       <r>   -7.4576    1.0000 </r>
       <r>   -7.4396    1.0000 </r>
       <r>   -7.4396    1.0000 </r>
       <r>   -7.4341    1.0000 </r>
       <r>   -7.4341    1.0000 </r>
       <r>   -7.4341    1.0000 </r>
       <r>   -7.4341    1.0000 </r>
       <r>   -7.4314    1.0000 </r>
       <r>   -7.4314    1.0000 </r>
       <r>   -7.4314    1.0000 </r>
       <r>   -7.4314    1.0000 </r>
       <r>   -7.4285    1.0000 </r>
       <r>   -7.4285    1.0000 </r>
       <r>   -7.4285    1.0000 </r>
       <r>   -7.4285    1.0000 </r>
       <r>   -7.4263    1.0000 </r>
       <r>   -7.4263    1.0000 </r>
       <r>   -7.4189    1.0000 </r>
       <r>   -7.4189    1.0000 </r>
       <r>   -7.4189    1.0000 </r>
       <r>   -7.4189    1.0000 </r>
       <r>   -7.3495    1.0000 </r>
       <r>   -7.3495    1.0000 </r>
       <r>   -7.3495    1.0000 </r>
       <r>   -7.3495    1.0000 </r>
       <r>   -6.6537    1.0000 </r>
       <r>   -6.6537    1.0000 </r>
       <r>   -3.3777    1.0000 </r>
       <r>   -3.3777    1.0000 </r>
       <r>   -3.3777    1.0000 </r>
       <r>   -3.3777    1.0000 </r>
       <r>   -3.2560    1.0000 </r>
       <r>   -3.2560    1.0000 </r>
       <r>   -3.2560    1.0000 </r>
       <r>   -3.2560    1.0000 </r>
       <r>   -2.4523    1.0000 </r>
       <r>   -2.4523    1.0000 </r>
       <r>   -2.4158    1.0000 </r>
       <r>   -2.4158    1.0000 </r>
       <r>   -2.4158    1.0000 </r>
       <r>   -2.4158    1.0000 </r>
       <r>   -2.2771    1.0000 </r>
       <r>   -2.2771    1.0000 </r>
       <r>   -2.0447    1.0000 </r>
       <r>   -2.0447    1.0000 </r>
       <r>   -2.0184    1.0000 </r>
       <r>   -2.0184    1.0000 </r>
       <r>   -2.0184    1.0000 </r>
       <r>   -2.0184    1.0000 </r>
       <r>   -1.8385    1.0000 </r>
       <r>   -1.8385    1.0000 </r>
       <r>   -1.8385    1.0000 </r>
       <r>   -1.8385    1.0000 </r>
       <r>   -1.5432    1.0000 </r>
       <r>   -1.5432    1.0000 </r>
       <r>   -1.5432    1.0000 </r>
       <r>   -1.5432    1.0000 </r>
       <r>   -1.4096    1.0000 </r>
       <r>   -1.4096    1.0000 </r>
       <r>   -1.4096    1.0000 </r>
       <r>   -1.4096    1.0000 </r>
       <r>   -1.3395    1.0000 </r>
       <r>   -1.3395    1.0000 </r>
       <r>   -1.3395    1.0000 </r>
       <r>   -1.3395    1.0000 </r>
       <r>   -1.3207    1.0000 </r>
       <r>   -1.3207    1.0000 </r>
       <r>   -1.3098    1.0000 </r>
       <r>   -1.3098    1.0000 </r>
       <r>   -1.3098    1.0000 </r>
       <r>   -1.3098    1.0000 </r>
       <r>   -1.3064    1.0000 </r>
       <r>   -1.3064    1.0000 </r>
       <r>   -1.2474    1.0000 </r>
       <r>   -1.2474    1.0000 </r>
       <r>   -1.2474    1.0000 </r>
       <r>   -1.2474    1.0000 </r>
       <r>   -1.1762    1.0000 </r>
       <r>   -1.1762    1.0000 </r>
       <r>   -1.1762    1.0000 </r>
       <r>   -1.1762    1.0000 </r>
       <r>   -1.0826    1.0000 </r>
       <r>   -1.0826    1.0000 </r>
       <r>   -1.0090    1.0000 </r>
       <r>   -1.0090    1.0000 </r>
       <r>   -1.0090    1.0000 </r>
       <r>   -1.0090    1.0000 </r>
       <r>   -0.9709    1.0000 </r>
       <r>   -0.9709    1.0000 </r>
       <r>   -0.9709    1.0000 </r>
       <r>   -0.9709    1.0000 </r>
       <r>   -0.7469    1.0000 </r>
       <r>   -0.7469    1.0000 </r>
       <r>   -0.2817    1.0000 </r>
       <r>   -0.2817    1.0000 </r>
       <r>   -0.2817    1.0000 </r>
       <r>   -0.2817    1.0000 </r>
       <r>    0.4427    1.0000 </r>
       <r>    0.4427    1.0000 </r>
       <r>    3.1070    0.0000 </r>
       <r>    3.1070    0.0000 </r>
       <r>    3.1070    0.0000 </r>
       <r>    3.1070    0.0000 </r>
       <r>    3.5978    0.0000 </r>
       <r>    3.5978    0.0000 </r>
       <r>    3.5978    0.0000 </r>
       <r>    3.5978    0.0000 </r>
       <r>    4.6370    0.0000 </r>
       <r>    4.6370    0.0000 </r>
       <r>    5.1100    0.0000 </r>
       <r>    5.1100    0.0000 </r>
       <r>    5.1192    0.0000 </r>
       <r>    5.1192    0.0000 </r>
       <r>    5.1192    0.0000 </r>
       <r>    5.1192    0.0000 </r>
       <r>    5.6207    0.0000 </r>
       <r>    5.6207    0.0000 </r>
       <r>    5.9477    0.0000 </r>
       <r>    5.9477    0.0000 </r>
       <r>    5.9770    0.0000 </r>
       <r>    5.9770    0.0000 </r>
       <r>    6.3821    0.0000 </r>
       <r>    6.3821    0.0000 </r>
       <r>    6.3821    0.0000 </r>
       <r>    6.3822    0.0000 </r>
       <r>    6.4728    0.0000 </r>
       <r>    6.4728    0.0000 </r>
       <r>    6.4728    0.0000 </r>
       <r>    6.4728    0.0000 </r>
       <r>    6.5995    0.0000 </r>
       <r>    6.5996    0.0000 </r>
       <r>    6.6289    0.0000 </r>
       <r>    6.6292    0.0000 </r>
       <r>    6.6305    0.0000 </r>
       <r>    6.6307    0.0000 </r>
       <r>    6.6371    0.0000 </r>
       <r>    6.6396    0.0000 </r>
       <r>    6.7190    0.0000 </r>
       <r>    6.7195    0.0000 </r>
      </set>
      <set comment="kpoint 5">
       <r>  -21.0834    1.0000 </r>
       <r>  -21.0834    1.0000 </r>
       <r>  -21.0834    1.0000 </r>
       <r>  -21.0834    1.0000 </r>
       <r>  -21.0824    1.0000 </r>
       <r>  -21.0824    1.0000 </r>
       <r>  -21.0824    1.0000 </r>
       <r>  -21.0824    1.0000 </r>
       <r>  -16.2653    1.0000 </r>
       <r>  -16.2653    1.0000 </r>
       <r>  -16.2653    1.0000 </r>
       <r>  -16.2653    1.0000 </r>
       <r>  -16.2248    1.0000 </r>
       <r>  -16.2248    1.0000 </r>
       <r>  -16.2248    1.0000 </r>
       <r>  -16.2248    1.0000 </r>
       <r>  -16.2248    1.0000 </r>
       <r>  -16.2248    1.0000 </r>
       <r>  -16.2248    1.0000 </r>
       <r>  -16.2248    1.0000 </r>
       <r>  -16.1813    1.0000 </r>
       <r>  -16.1813    1.0000 </r>
       <r>  -16.1813    1.0000 </r>
       <r>  -16.1813    1.0000 </r>
       <r>  -16.0580    1.0000 </r>
       <r>  -16.0580    1.0000 </r>
       <r>  -16.0580    1.0000 </r>
       <r>  -16.0580    1.0000 </r>
       <r>  -16.0578    1.0000 </r>
       <r>  -16.0578    1.0000 </r>
       <r>  -16.0578    1.0000 </r>
       <r>  -16.0578    1.0000 </r>
       <r>  -16.0573    1.0000 </r>
       <r>  -16.0573    1.0000 </r>
       <r>  -16.0573    1.0000 </r>
       <r>  -16.0573    1.0000 </r>
       <r>  -16.0573    1.0000 </r>
       <r>  -16.0573    1.0000 </r>
       <r>  -16.0573    1.0000 </r>
       <r>  -16.0573    1.0000 </r>
       <r>  -16.0568    1.0000 </r>
       <r>  -16.0568    1.0000 </r>
       <r>  -16.0568    1.0000 </r>
       <r>  -16.0568    1.0000 </r>
       <r>  -16.0566    1.0000 </r>
       <r>  -16.0566    1.0000 </r>
       <r>  -16.0566    1.0000 </r>
       <r>  -16.0566    1.0000 </r>
       <r>  -14.2580    1.0000 </r>
       <r>  -14.2580    1.0000 </r>
       <r>  -14.2580    1.0000 </r>
       <r>  -14.2580    1.0000 </r>
       <r>  -14.0792    1.0000 </r>
       <r>  -14.0792    1.0000 </r>
       <r>  -14.0792    1.0000 </r>
       <r>  -14.0792    1.0000 </r>
       <r>  -13.9884    1.0000 </r>
       <r>  -13.9884    1.0000 </r>
       <r>  -13.9884    1.0000 </r>
       <r>  -13.9884    1.0000 </r>
       <r>  -13.8071    1.0000 </r>
       <r>  -13.8071    1.0000 </r>
       <r>  -13.8071    1.0000 </r>
       <r>  -13.8071    1.0000 </r>
       <r>  -13.8037    1.0000 </r>
       <r>  -13.8037    1.0000 </r>
       <r>  -13.8037    1.0000 </r>
       <r>  -13.8037    1.0000 </r>
       <r>  -13.6982    1.0000 </r>
       <r>  -13.6982    1.0000 </r>
       <r>  -13.6982    1.0000 </r>
       <r>  -13.6982    1.0000 </r>
       <r>   -7.7063    1.0000 </r>
       <r>   -7.7063    1.0000 </r>
       <r>   -7.7063    1.0000 </r>
       <r>   -7.7063    1.0000 </r>
       <r>   -7.4456    1.0000 </r>
       <r>   -7.4456    1.0000 </r>
       <r>   -7.4456    1.0000 </r>
       <r>   -7.4456    1.0000 </r>
       <r>   -7.4453    1.0000 </r>
       <r>   -7.4453    1.0000 </r>
       <r>   -7.4453    1.0000 </r>
       <r>   -7.4453    1.0000 </r>
       <r>   -7.4377    1.0000 </r>
       <r>   -7.4377    1.0000 </r>
       <r>   -7.4377    1.0000 </r>
       <r>   -7.4377    1.0000 </r>
       <r>   -7.4277    1.0000 </r>
       <r>   -7.4277    1.0000 </r>
       <r>   -7.4277    1.0000 </r>
       <r>   -7.4277    1.0000 </r>
       <r>   -7.4224    1.0000 </r>
       <r>   -7.4224    1.0000 </r>
       <r>   -7.4224    1.0000 </r>
       <r>   -7.4224    1.0000 </r>
       <r>   -7.4215    1.0000 </r>
       <r>   -7.4215    1.0000 </r>
       <r>   -7.4215    1.0000 </r>
       <r>   -7.4215    1.0000 </r>
       <r>   -7.0566    1.0000 </r>
       <r>   -7.0566    1.0000 </r>
       <r>   -7.0566    1.0000 </r>
       <r>   -7.0566    1.0000 </r>
       <r>   -3.3195    1.0000 </r>
       <r>   -3.3195    1.0000 </r>
       <r>   -3.3195    1.0000 </r>
       <r>   -3.3195    1.0000 </r>
       <r>   -2.6435    1.0000 </r>
       <r>   -2.6435    1.0000 </r>
       <r>   -2.6435    1.0000 </r>
       <r>   -2.6435    1.0000 </r>
       <r>   -2.4974    1.0000 </r>
       <r>   -2.4974    1.0000 </r>
       <r>   -2.4974    1.0000 </r>
       <r>   -2.4974    1.0000 </r>
       <r>   -2.2654    1.0000 </r>
       <r>   -2.2654    1.0000 </r>
       <r>   -2.2654    1.0000 </r>
       <r>   -2.2654    1.0000 </r>
       <r>   -2.2279    1.0000 </r>
       <r>   -2.2279    1.0000 </r>
       <r>   -2.2279    1.0000 </r>
       <r>   -2.2279    1.0000 </r>
       <r>   -2.0033    1.0000 </r>
       <r>   -2.0033    1.0000 </r>
       <r>   -2.0033    1.0000 </r>
       <r>   -2.0033    1.0000 </r>
       <r>   -1.7975    1.0000 </r>
       <r>   -1.7975    1.0000 </r>
       <r>   -1.7975    1.0000 </r>
       <r>   -1.7975    1.0000 </r>
       <r>   -1.5887    1.0000 </r>
       <r>   -1.5887    1.0000 </r>
       <r>   -1.5887    1.0000 </r>
       <r>   -1.5887    1.0000 </r>
       <r>   -1.5631    1.0000 </r>
       <r>   -1.5631    1.0000 </r>
       <r>   -1.5631    1.0000 </r>
       <r>   -1.5631    1.0000 </r>
       <r>   -1.3469    1.0000 </r>
       <r>   -1.3469    1.0000 </r>
       <r>   -1.3469    1.0000 </r>
       <r>   -1.3469    1.0000 </r>
       <r>   -1.2624    1.0000 </r>
       <r>   -1.2624    1.0000 </r>
       <r>   -1.2624    1.0000 </r>
       <r>   -1.2624    1.0000 </r>
       <r>   -1.2301    1.0000 </r>
       <r>   -1.2301    1.0000 </r>
       <r>   -1.2301    1.0000 </r>
       <r>   -1.2301    1.0000 </r>
       <r>   -1.0872    1.0000 </r>
       <r>   -1.0872    1.0000 </r>
       <r>   -1.0872    1.0000 </r>
       <r>   -1.0872    1.0000 </r>
       <r>   -1.0280    1.0000 </r>
       <r>   -1.0280    1.0000 </r>
       <r>   -1.0280    1.0000 </r>
       <r>   -1.0280    1.0000 </r>
       <r>   -0.9987    1.0000 </r>
       <r>   -0.9987    1.0000 </r>
       <r>   -0.9987    1.0000 </r>
       <r>   -0.9987    1.0000 </r>
       <r>   -0.9922    1.0000 </r>
       <r>   -0.9922    1.0000 </r>
       <r>   -0.9922    1.0000 </r>
       <r>   -0.9922    1.0000 </r>
       <r>   -0.9020    1.0000 </r>
       <r>   -0.9020    1.0000 </r>
       <r>   -0.9020    1.0000 </r>
       <r>   -0.9020    1.0000 </r>
       <r>   -0.1473    1.0000 </r>
       <r>   -0.1473    1.0000 </r>
       <r>   -0.1473    1.0000 </r>
       <r>   -0.1473    1.0000 </r>
       <r>    3.3534    0.0000 </r>
       <r>    3.3534    0.0000 </r>
       <r>    3.3534    0.0000 </r>
       <r>    3.3534    0.0000 </r>
       <r>    4.7959    0.0000 </r>
       <r>    4.7959    0.0000 </r>
       <r>    4.7959    0.0000 </r>
       <r>    4.7959    0.0000 </r>
       <r>    4.8929    0.0000 </r>
       <r>    4.8929    0.0000 </r>
       <r>    4.8929    0.0000 </r>
       <r>    4.8929    0.0000 </r>
       <r>    5.2353    0.0000 </r>
       <r>    5.2353    0.0000 </r>
       <r>    5.2353    0.0000 </r>
       <r>    5.2353    0.0000 </r>
       <r>    5.2656    0.0000 </r>
       <r>    5.2656    0.0000 </r>
       <r>    5.2656    0.0000 </r>
       <r>    5.2656    0.0000 </r>
       <r>    5.7599    0.0000 </r>
       <r>    5.7599    0.0000 </r>
       <r>    5.7599    0.0000 </r>
       <r>    5.7599    0.0000 </r>
       <r>    6.2718    0.0000 </r>
       <r>    6.2718    0.0000 </r>
       <r>    6.2718    0.0000 </r>
       <r>    6.2718    0.0000 </r>
       <r>    6.3712    0.0000 </r>
       <r>    6.3712    0.0000 </r>
       <r>    6.3712    0.0000 </r>
       <r>    6.3712    0.0000 </r>
       <r>    6.4396    0.0000 </r>
       <r>    6.4396    0.0000 </r>
       <r>    6.4396    0.0000 </r>
       <r>    6.4396    0.0000 </r>
       <r>    6.4851    0.0000 </r>
       <r>    6.4851    0.0000 </r>
       <r>    6.4851    0.0000 </r>
       <r>    6.4851    0.0000 </r>
      </set>
      <set comment="kpoint 6">
       <r>  -21.0829    1.0000 </r>
       <r>  -21.0829    1.0000 </r>
       <r>  -21.0829    1.0000 </r>
       <r>  -21.0829    1.0000 </r>
       <r>  -21.0829    1.0000 </r>
       <r>  -21.0829    1.0000 </r>
       <r>  -21.0829    1.0000 </r>
       <r>  -21.0829    1.0000 </r>
       <r>  -16.2252    1.0000 </r>
       <r>  -16.2252    1.0000 </r>
       <r>  -16.2252    1.0000 </r>
       <r>  -16.2252    1.0000 </r>
       <r>  -16.2252    1.0000 </r>
       <r>  -16.2252    1.0000 </r>
       <r>  -16.2252    1.0000 </r>
       <r>  -16.2252    1.0000 </r>
       <r>  -16.2237    1.0000 </r>
       <r>  -16.2237    1.0000 </r>
       <r>  -16.2237    1.0000 </r>
       <r>  -16.2237    1.0000 </r>
       <r>  -16.2237    1.0000 </r>
       <r>  -16.2237    1.0000 </r>
       <r>  -16.2237    1.0000 </r>
       <r>  -16.2237    1.0000 </r>
       <r>  -16.0575    1.0000 </r>
       <r>  -16.0575    1.0000 </r>
       <r>  -16.0575    1.0000 </r>
       <r>  -16.0575    1.0000 </r>
       <r>  -16.0575    1.0000 </r>
       <r>  -16.0575    1.0000 </r>
       <r>  -16.0575    1.0000 </r>
       <r>  -16.0575    1.0000 </r>
       <r>  -16.0573    1.0000 </r>
       <r>  -16.0573    1.0000 </r>
       <r>  -16.0573    1.0000 </r>
       <r>  -16.0573    1.0000 </r>
       <r>  -16.0573    1.0000 </r>
       <r>  -16.0573    1.0000 </r>
       <r>  -16.0573    1.0000 </r>
       <r>  -16.0573    1.0000 </r>
       <r>  -16.0572    1.0000 </r>
       <r>  -16.0572    1.0000 </r>
       <r>  -16.0572    1.0000 </r>
       <r>  -16.0572    1.0000 </r>
       <r>  -16.0572    1.0000 </r>
       <r>  -16.0572    1.0000 </r>
       <r>  -16.0572    1.0000 </r>
       <r>  -16.0572    1.0000 </r>
       <r>  -14.2064    1.0000 </r>
       <r>  -14.2064    1.0000 </r>
       <r>  -14.2064    1.0000 </r>
       <r>  -14.2064    1.0000 </r>
       <r>  -14.2064    1.0000 </r>
       <r>  -14.2064    1.0000 </r>
       <r>  -14.2064    1.0000 </r>
       <r>  -14.2064    1.0000 </r>
       <r>  -13.8060    1.0000 </r>
       <r>  -13.8060    1.0000 </r>
       <r>  -13.8060    1.0000 </r>
       <r>  -13.8060    1.0000 </r>
       <r>  -13.8060    1.0000 </r>
       <r>  -13.8060    1.0000 </r>
       <r>  -13.8060    1.0000 </r>
       <r>  -13.8060    1.0000 </r>
       <r>  -13.8038    1.0000 </r>
       <r>  -13.8038    1.0000 </r>
       <r>  -13.8038    1.0000 </r>
       <r>  -13.8038    1.0000 </r>
       <r>  -13.8038    1.0000 </r>
       <r>  -13.8038    1.0000 </r>
       <r>  -13.8038    1.0000 </r>
       <r>  -13.8038    1.0000 </r>
       <r>   -7.4458    1.0000 </r>
       <r>   -7.4458    1.0000 </r>
       <r>   -7.4458    1.0000 </r>
       <r>   -7.4458    1.0000 </r>
       <r>   -7.4458    1.0000 </r>
       <r>   -7.4458    1.0000 </r>
       <r>   -7.4458    1.0000 </r>
       <r>   -7.4458    1.0000 </r>
       <r>   -7.4406    1.0000 </r>
       <r>   -7.4406    1.0000 </r>
       <r>   -7.4406    1.0000 </r>
       <r>   -7.4406    1.0000 </r>
       <r>   -7.4406    1.0000 </r>
       <r>   -7.4406    1.0000 </r>
       <r>   -7.4406    1.0000 </r>
       <r>   -7.4406    1.0000 </r>
       <r>   -7.4226    1.0000 </r>
       <r>   -7.4226    1.0000 </r>
       <r>   -7.4226    1.0000 </r>
       <r>   -7.4226    1.0000 </r>
       <r>   -7.4226    1.0000 </r>
       <r>   -7.4226    1.0000 </r>
       <r>   -7.4226    1.0000 </r>
       <r>   -7.4226    1.0000 </r>
       <r>   -7.4150    1.0000 </r>
       <r>   -7.4150    1.0000 </r>
       <r>   -7.4150    1.0000 </r>
       <r>   -7.4150    1.0000 </r>
       <r>   -7.4150    1.0000 </r>
       <r>   -7.4150    1.0000 </r>
       <r>   -7.4150    1.0000 </r>
       <r>   -7.4150    1.0000 </r>
       <r>   -2.5839    1.0000 </r>
       <r>   -2.5839    1.0000 </r>
       <r>   -2.5839    1.0000 </r>
       <r>   -2.5839    1.0000 </r>
       <r>   -2.5839    1.0000 </r>
       <r>   -2.5839    1.0000 </r>
       <r>   -2.5839    1.0000 </r>
       <r>   -2.5839    1.0000 </r>
       <r>   -2.5713    1.0000 </r>
       <r>   -2.5713    1.0000 </r>
       <r>   -2.5713    1.0000 </r>
       <r>   -2.5713    1.0000 </r>
       <r>   -2.5713    1.0000 </r>
       <r>   -2.5713    1.0000 </r>
       <r>   -2.5713    1.0000 </r>
       <r>   -2.5713    1.0000 </r>
       <r>   -2.1607    1.0000 </r>
       <r>   -2.1607    1.0000 </r>
       <r>   -2.1607    1.0000 </r>
       <r>   -2.1607    1.0000 </r>
       <r>   -2.1607    1.0000 </r>
       <r>   -2.1607    1.0000 </r>
       <r>   -2.1607    1.0000 </r>
       <r>   -2.1607    1.0000 </r>
       <r>   -1.6363    1.0000 </r>
       <r>   -1.6363    1.0000 </r>
       <r>   -1.6363    1.0000 </r>
       <r>   -1.6363    1.0000 </r>
       <r>   -1.6363    1.0000 </r>
       <r>   -1.6363    1.0000 </r>
       <r>   -1.6363    1.0000 </r>
       <r>   -1.6363    1.0000 </r>
       <r>   -1.6251    1.0000 </r>
       <r>   -1.6251    1.0000 </r>
       <r>   -1.6251    1.0000 </r>
       <r>   -1.6251    1.0000 </r>
       <r>   -1.6251    1.0000 </r>
       <r>   -1.6251    1.0000 </r>
       <r>   -1.6251    1.0000 </r>
       <r>   -1.6251    1.0000 </r>
[...]
        <r>  0.0007  0.0006  0.0003 </r>
        <r>  0.0023  0.0001  0.0082 </r>
        <r>  0.0007  0.0008  0.0004 </r>
        <r>  0.0127  0.0000  0.0054 </r>
        <r>  0.0161  0.0001  0.0046 </r>
        <r>  0.0003  0.0008  0.0005 </r>
        <r>  0.0004  0.0051  0.0001 </r>
        <r>  0.0000  0.0119  0.0001 </r>
        <r>  0.0001  0.0112  0.0001 </r>
        <r>  0.0007  0.0063  0.0000 </r>
        <r>  0.0004  0.0068  0.0000 </r>
        <r>  0.0002  0.0089  0.0001 </r>
        <r>  0.0001  0.0099  0.0001 </r>
        <r>  0.0006  0.0091  0.0000 </r>
        <r>  0.0001  0.0050  0.0004 </r>
        <r>  0.0007  0.0025  0.0015 </r>
        <r>  0.0008  0.0009  0.0017 </r>
        <r>  0.0004  0.0047  0.0008 </r>
        <r>  0.0008  0.0006  0.0017 </r>
        <r>  0.0003  0.0058  0.0003 </r>
        <r>  0.0001  0.0051  0.0003 </r>
        <r>  0.0009  0.0016  0.0021 </r>
        <r>  0.0002  0.0040  0.0004 </r>
        <r>  0.0005  0.0014  0.0015 </r>
        <r>  0.0012  0.0012  0.0022 </r>
        <r>  0.0002  0.0066  0.0004 </r>
        <r>  0.0008  0.0010  0.0020 </r>
        <r>  0.0002  0.0052  0.0004 </r>
        <r>  0.0001  0.0062  0.0003 </r>
        <r>  0.0010  0.0008  0.0018 </r>
        <r>  0.0000  0.0068  0.0000 </r>
        <r>  0.0003  0.0004  0.0009 </r>
        <r>  0.0004  0.0001  0.0010 </r>
        <r>  0.0000  0.0096  0.0000 </r>
        <r>  0.0013  0.0001  0.0031 </r>
        <r>  0.0001  0.0039  0.0001 </r>
        <r>  0.0000  0.0045  0.0001 </r>
        <r>  0.0019  0.0001  0.0034 </r>
       </set>
       <set comment="band 208">
        <r>  0.0004  0.0007  0.0003 </r>
        <r>  0.0117  0.0000  0.0059 </r>
        <r>  0.0083  0.0000  0.0068 </r>
        <r>  0.0001  0.0007  0.0004 </r>
        <r>  0.0082  0.0000  0.0068 </r>
        <r>  0.0006  0.0007  0.0002 </r>
        <r>  0.0002  0.0006  0.0003 </r>
        <r>  0.0063  0.0000  0.0073 </r>
        <r>  0.0004  0.0089  0.0000 </r>
        <r>  0.0003  0.0092  0.0001 </r>
        <r>  0.0003  0.0074  0.0001 </r>
        <r>  0.0003  0.0093  0.0000 </r>
        <r>  0.0004  0.0077  0.0001 </r>
        <r>  0.0003  0.0101  0.0000 </r>
        <r>  0.0001  0.0100  0.0001 </r>
        <r>  0.0004  0.0066  0.0001 </r>
        <r>  0.0011  0.0001  0.0023 </r>
        <r>  0.0000  0.0062  0.0001 </r>
        <r>  0.0000  0.0065  0.0001 </r>
        <r>  0.0009  0.0001  0.0019 </r>
        <r>  0.0000  0.0053  0.0000 </r>
        <r>  0.0012  0.0001  0.0024 </r>
        <r>  0.0007  0.0002  0.0018 </r>
        <r>  0.0000  0.0069  0.0000 </r>
        <r>  0.0011  0.0002  0.0023 </r>
        <r>  0.0000  0.0070  0.0001 </r>
        <r>  0.0000  0.0060  0.0001 </r>
        <r>  0.0009  0.0003  0.0022 </r>
        <r>  0.0000  0.0069  0.0001 </r>
        <r>  0.0011  0.0002  0.0023 </r>
        <r>  0.0008  0.0004  0.0020 </r>
        <r>  0.0001  0.0056  0.0001 </r>
        <r>  0.0011  0.0007  0.0024 </r>
        <r>  0.0000  0.0065  0.0001 </r>
        <r>  0.0001  0.0047  0.0002 </r>
        <r>  0.0011  0.0002  0.0023 </r>
        <r>  0.0001  0.0067  0.0002 </r>
        <r>  0.0010  0.0002  0.0019 </r>
        <r>  0.0006  0.0006  0.0016 </r>
        <r>  0.0000  0.0066  0.0002 </r>
       </set>
       <set comment="band 209">
        <r>  0.0000  0.0005  0.0098 </r>
        <r>  0.0000  0.0006  0.0067 </r>
        <r>  0.0000  0.0002  0.0207 </r>
        <r>  0.0000  0.0005  0.0183 </r>
        <r>  0.0000  0.0003  0.0199 </r>
        <r>  0.0000  0.0006  0.0196 </r>
        <r>  0.0000  0.0004  0.0152 </r>
        <r>  0.0000  0.0005  0.0354 </r>
        <r>  0.0000  0.0030  0.0003 </r>
        <r>  0.0000  0.0029  0.0002 </r>
        <r>  0.0000  0.0044  0.0001 </r>
        <r>  0.0000  0.0018  0.0003 </r>
        <r>  0.0000  0.0035  0.0002 </r>
        <r>  0.0000  0.0015  0.0004 </r>
        <r>  0.0000  0.0025  0.0002 </r>
        <r>  0.0000  0.0023  0.0002 </r>
        <r>  0.0003  0.0008  0.0011 </r>
        <r>  0.0001  0.0008  0.0007 </r>
        <r>  0.0008  0.0006  0.0017 </r>
        <r>  0.0007  0.0005  0.0016 </r>
        <r>  0.0003  0.0006  0.0014 </r>
        <r>  0.0000  0.0008  0.0005 </r>
        <r>  0.0005  0.0006  0.0012 </r>
        <r>  0.0005  0.0004  0.0015 </r>
        <r>  0.0000  0.0001  0.0026 </r>
        <r>  0.0000  0.0011  0.0006 </r>
        <r>  0.0000  0.0009  0.0002 </r>
        <r>  0.0000  0.0004  0.0012 </r>
        <r>  0.0000  0.0011  0.0002 </r>
        <r>  0.0000  0.0004  0.0027 </r>
        <r>  0.0000  0.0002  0.0007 </r>
        <r>  0.0000  0.0012  0.0004 </r>
        <r>  0.0001  0.0015  0.0004 </r>
        <r>  0.0006  0.0004  0.0019 </r>
        <r>  0.0000  0.0005  0.0005 </r>
        <r>  0.0001  0.0002  0.0007 </r>
        <r>  0.0014  0.0005  0.0035 </r>
        <r>  0.0000  0.0015  0.0003 </r>
        <r>  0.0004  0.0003  0.0010 </r>
        <r>  0.0002  0.0003  0.0012 </r>
       </set>
       <set comment="band 210">
        <r>  0.0000  0.0001  0.0155 </r>
        <r>  0.0000  0.0009  0.0120 </r>
        <r>  0.0000  0.0003  0.0099 </r>
        <r>  0.0000  0.0003  0.0094 </r>
        <r>  0.0000  0.0002  0.0111 </r>
        <r>  0.0000  0.0004  0.0590 </r>
        <r>  0.0000  0.0003  0.0218 </r>
        <r>  0.0000  0.0012  0.0072 </r>
        <r>  0.0000  0.0021  0.0001 </r>
        <r>  0.0000  0.0019  0.0003 </r>
        <r>  0.0000  0.0033  0.0003 </r>
        <r>  0.0000  0.0033  0.0002 </r>
        <r>  0.0000  0.0029  0.0003 </r>
        <r>  0.0000  0.0040  0.0002 </r>
        <r>  0.0000  0.0033  0.0003 </r>
        <r>  0.0000  0.0015  0.0002 </r>
        <r>  0.0002  0.0004  0.0010 </r>
        <r>  0.0006  0.0006  0.0016 </r>
        <r>  0.0001  0.0006  0.0007 </r>
        <r>  0.0005  0.0008  0.0013 </r>
        <r>  0.0009  0.0004  0.0024 </r>
        <r>  0.0007  0.0008  0.0015 </r>
        <r>  0.0000  0.0007  0.0006 </r>
        <r>  0.0001  0.0006  0.0004 </r>
        <r>  0.0000  0.0005  0.0008 </r>
        <r>  0.0001  0.0006  0.0012 </r>
        <r>  0.0001  0.0004  0.0009 </r>
        <r>  0.0000  0.0013  0.0012 </r>
        <r>  0.0000  0.0005  0.0004 </r>
        <r>  0.0000  0.0010  0.0011 </r>
        <r>  0.0001  0.0001  0.0008 </r>
        <r>  0.0000  0.0009  0.0020 </r>
        <r>  0.0001  0.0002  0.0006 </r>
        <r>  0.0001  0.0005  0.0004 </r>
        <r>  0.0003  0.0010  0.0010 </r>
        <r>  0.0002  0.0004  0.0007 </r>
        <r>  0.0003  0.0007  0.0007 </r>
        <r>  0.0006  0.0007  0.0024 </r>
        <r>  0.0011  0.0006  0.0026 </r>
        <r>  0.0001  0.0009  0.0012 </r>
       </set>
       <set comment="band 211">
        <r>  0.0000  0.0006  0.0125 </r>
        <r>  0.0000  0.0003  0.0353 </r>
        <r>  0.0000  0.0003  0.0371 </r>
        <r>  0.0000  0.0006  0.0160 </r>
        <r>  0.0000  0.0003  0.0063 </r>
        <r>  0.0000  0.0008  0.0078 </r>
        <r>  0.0000  0.0004  0.0143 </r>
        <r>  0.0000  0.0003  0.0167 </r>
        <r>  0.0000  0.0009  0.0003 </r>
        <r>  0.0000  0.0042  0.0002 </r>
        <r>  0.0000  0.0031  0.0003 </r>
        <r>  0.0000  0.0029  0.0002 </r>
        <r>  0.0000  0.0018  0.0002 </r>
        <r>  0.0000  0.0040  0.0004 </r>
        <r>  0.0000  0.0018  0.0003 </r>
        <r>  0.0000  0.0038  0.0001 </r>
        <r>  0.0002  0.0006  0.0007 </r>
        <r>  0.0005  0.0006  0.0012 </r>
        <r>  0.0004  0.0005  0.0013 </r>
        <r>  0.0004  0.0007  0.0012 </r>
        <r>  0.0000  0.0006  0.0009 </r>
        <r>  0.0003  0.0008  0.0012 </r>
        <r>  0.0004  0.0004  0.0012 </r>
        <r>  0.0009  0.0004  0.0019 </r>
        <r>  0.0000  0.0006  0.0005 </r>
        <r>  0.0000  0.0005  0.0019 </r>
        <r>  0.0001  0.0008  0.0004 </r>
        <r>  0.0001  0.0005  0.0014 </r>
        <r>  0.0002  0.0004  0.0018 </r>
        <r>  0.0000  0.0011  0.0008 </r>
        <r>  0.0000  0.0005  0.0013 </r>
        <r>  0.0001  0.0007  0.0005 </r>
        <r>  0.0001  0.0011  0.0005 </r>
        <r>  0.0012  0.0005  0.0034 </r>
        <r>  0.0006  0.0005  0.0018 </r>
        <r>  0.0003  0.0004  0.0012 </r>
        <r>  0.0001  0.0002  0.0010 </r>
        <r>  0.0002  0.0011  0.0005 </r>
        <r>  0.0000  0.0007  0.0007 </r>
        <r>  0.0000  0.0003  0.0005 </r>
       </set>
       <set comment="band 212">
        <r>  0.0000  0.0005  0.0244 </r>
        <r>  0.0000  0.0005  0.0163 </r>
        <r>  0.0000  0.0004  0.0112 </r>
        <r>  0.0000  0.0001  0.0308 </r>
        <r>  0.0000  0.0004  0.0223 </r>
        <r>  0.0000  0.0003  0.0127 </r>
        <r>  0.0000  0.0006  0.0119 </r>
        <r>  0.0000  0.0007  0.0169 </r>
        <r>  0.0000  0.0049  0.0003 </r>
        <r>  0.0000  0.0016  0.0002 </r>
        <r>  0.0000  0.0035  0.0002 </r>
        <r>  0.0000  0.0031  0.0002 </r>
        <r>  0.0000  0.0035  0.0002 </r>
        <r>  0.0000  0.0026  0.0003 </r>
        <r>  0.0000  0.0008  0.0002 </r>
        <r>  0.0000  0.0031  0.0003 </r>
        <r>  0.0005  0.0007  0.0012 </r>
        <r>  0.0005  0.0003  0.0015 </r>
        <r>  0.0005  0.0007  0.0013 </r>
        <r>  0.0001  0.0006  0.0008 </r>
        <r>  0.0002  0.0006  0.0008 </r>
        <r>  0.0005  0.0007  0.0014 </r>
        <r>  0.0003  0.0003  0.0013 </r>
        <r>  0.0003  0.0009  0.0013 </r>
        <r>  0.0003  0.0003  0.0017 </r>
        <r>  0.0001  0.0008  0.0006 </r>
        <r>  0.0001  0.0009  0.0006 </r>
        <r>  0.0003  0.0004  0.0016 </r>
        <r>  0.0001  0.0011  0.0004 </r>
        <r>  0.0003  0.0003  0.0019 </r>
        <r>  0.0000  0.0003  0.0015 </r>
        <r>  0.0001  0.0009  0.0006 </r>
        <r>  0.0003  0.0002  0.0011 </r>
        <r>  0.0006  0.0003  0.0014 </r>
        <r>  0.0005  0.0004  0.0025 </r>
        <r>  0.0000  0.0012  0.0003 </r>
        <r>  0.0001  0.0011  0.0005 </r>
        <r>  0.0001  0.0006  0.0019 </r>
        <r>  0.0002  0.0006  0.0007 </r>
        <r>  0.0001  0.0006  0.0009 </r>
       </set>
       <set comment="band 213">
        <r>  0.0000  0.0005  0.0284 </r>
        <r>  0.0000  0.0008  0.0119 </r>
        <r>  0.0000  0.0004  0.0318 </r>
        <r>  0.0000  0.0004  0.0157 </r>
        <r>  0.0000  0.0002  0.0160 </r>
        <r>  0.0000  0.0001  0.0114 </r>
        <r>  0.0000  0.0008  0.0225 </r>
        <r>  0.0000  0.0003  0.0088 </r>
        <r>  0.0000  0.0026  0.0002 </r>
        <r>  0.0000  0.0024  0.0003 </r>
        <r>  0.0000  0.0035  0.0002 </r>
        <r>  0.0000  0.0013  0.0003 </r>
        <r>  0.0000  0.0022  0.0002 </r>
        <r>  0.0000  0.0031  0.0003 </r>
        <r>  0.0000  0.0050  0.0002 </r>
        <r>  0.0000  0.0035  0.0003 </r>
        <r>  0.0002  0.0007  0.0006 </r>
        <r>  0.0003  0.0004  0.0014 </r>
        <r>  0.0003  0.0007  0.0010 </r>
        <r>  0.0000  0.0005  0.0008 </r>
        <r>  0.0003  0.0008  0.0008 </r>
        <r>  0.0004  0.0005  0.0017 </r>
        <r>  0.0004  0.0004  0.0017 </r>
        <r>  0.0002  0.0007  0.0013 </r>
        <r>  0.0001  0.0011  0.0008 </r>
        <r>  0.0001  0.0002  0.0008 </r>
        <r>  0.0002  0.0004  0.0018 </r>
        <r>  0.0002  0.0004  0.0004 </r>
        <r>  0.0007  0.0003  0.0029 </r>
        <r>  0.0001  0.0009  0.0006 </r>
        <r>  0.0004  0.0010  0.0011 </r>
        <r>  0.0002  0.0004  0.0009 </r>
        <r>  0.0006  0.0006  0.0024 </r>
        <r>  0.0002  0.0015  0.0009 </r>
        <r>  0.0003  0.0003  0.0008 </r>
        <r>  0.0003  0.0005  0.0019 </r>
        <r>  0.0001  0.0006  0.0010 </r>
        <r>  0.0001  0.0002  0.0008 </r>
        <r>  0.0000  0.0008  0.0006 </r>
        <r>  0.0005  0.0004  0.0012 </r>
       </set>
       <set comment="band 214">
        <r>  0.0000  0.0009  0.0181 </r>
        <r>  0.0000  0.0005  0.0387 </r>
        <r>  0.0000  0.0005  0.0061 </r>
        <r>  0.0000  0.0005  0.0268 </r>
        <r>  0.0000  0.0002  0.0148 </r>
        <r>  0.0000  0.0004  0.0077 </r>
        <r>  0.0000  0.0002  0.0147 </r>
        <r>  0.0000  0.0003  0.0197 </r>
        <r>  0.0000  0.0053  0.0003 </r>
        <r>  0.0000  0.0018  0.0003 </r>
        <r>  0.0000  0.0022  0.0002 </r>
        <r>  0.0000  0.0018  0.0002 </r>
        <r>  0.0000  0.0038  0.0001 </r>
        <r>  0.0000  0.0041  0.0003 </r>
        <r>  0.0000  0.0022  0.0002 </r>
        <r>  0.0000  0.0030  0.0004 </r>
        <r>  0.0003  0.0004  0.0009 </r>
        <r>  0.0002  0.0011  0.0020 </r>
        <r>  0.0000  0.0008  0.0009 </r>
        <r>  0.0001  0.0004  0.0012 </r>
        <r>  0.0001  0.0003  0.0006 </r>
        <r>  0.0004  0.0013  0.0023 </r>
        <r>  0.0003  0.0003  0.0012 </r>
        <r>  0.0005  0.0007  0.0011 </r>
        <r>  0.0003  0.0011  0.0013 </r>
        <r>  0.0012  0.0006  0.0024 </r>
        <r>  0.0000  0.0003  0.0004 </r>
        <r>  0.0000  0.0004  0.0007 </r>
        <r>  0.0001  0.0007  0.0006 </r>
        <r>  0.0008  0.0006  0.0017 </r>
        <r>  0.0004  0.0001  0.0011 </r>
        <r>  0.0000  0.0004  0.0014 </r>
        <r>  0.0001  0.0003  0.0014 </r>
        <r>  0.0004  0.0005  0.0026 </r>
        <r>  0.0002  0.0007  0.0007 </r>
        <r>  0.0001  0.0011  0.0006 </r>
        <r>  0.0001  0.0005  0.0003 </r>
        <r>  0.0002  0.0006  0.0014 </r>
        <r>  0.0002  0.0002  0.0009 </r>
        <r>  0.0001  0.0006  0.0006 </r>
       </set>
       <set comment="band 215">
        <r>  0.0000  0.0004  0.0113 </r>
        <r>  0.0000  0.0004  0.0163 </r>
        <r>  0.0000  0.0007  0.0209 </r>
        <r>  0.0000  0.0005  0.0299 </r>
        <r>  0.0000  0.0004  0.0254 </r>
        <r>  0.0000  0.0004  0.0148 </r>
        <r>  0.0000  0.0006  0.0067 </r>
        <r>  0.0000  0.0002  0.0213 </r>
        <r>  0.0000  0.0012  0.0003 </r>
        <r>  0.0000  0.0026  0.0005 </r>
        <r>  0.0000  0.0033  0.0003 </r>
        <r>  0.0000  0.0028  0.0002 </r>
        <r>  0.0000  0.0014  0.0003 </r>
        <r>  0.0000  0.0035  0.0003 </r>
        <r>  0.0000  0.0068  0.0002 </r>
        <r>  0.0000  0.0032  0.0002 </r>
        <r>  0.0002  0.0002  0.0017 </r>
        <r>  0.0001  0.0006  0.0005 </r>
        <r>  0.0001  0.0009  0.0005 </r>
        <r>  0.0001  0.0007  0.0014 </r>
        <r>  0.0002  0.0008  0.0004 </r>
        <r>  0.0002  0.0003  0.0014 </r>
        <r>  0.0003  0.0003  0.0017 </r>
        <r>  0.0002  0.0007  0.0014 </r>
        <r>  0.0004  0.0005  0.0010 </r>
        <r>  0.0000  0.0006  0.0011 </r>
        <r>  0.0003  0.0006  0.0013 </r>
        <r>  0.0005  0.0005  0.0012 </r>
        <r>  0.0003  0.0002  0.0012 </r>
        <r>  0.0002  0.0005  0.0007 </r>
        <r>  0.0002  0.0011  0.0007 </r>
        <r>  0.0013  0.0003  0.0025 </r>
        <r>  0.0001  0.0004  0.0006 </r>
        <r>  0.0004  0.0007  0.0016 </r>
        <r>  0.0003  0.0007  0.0014 </r>
        <r>  0.0000  0.0010  0.0017 </r>
        <r>  0.0001  0.0001  0.0015 </r>
        <r>  0.0000  0.0012  0.0003 </r>
        <r>  0.0000  0.0006  0.0003 </r>
        <r>  0.0007  0.0000  0.0020 </r>
       </set>
       <set comment="band 216">
        <r>  0.0000  0.0005  0.0167 </r>
        <r>  0.0000  0.0005  0.0156 </r>
        <r>  0.0000  0.0003  0.0384 </r>
        <r>  0.0000  0.0008  0.0144 </r>
        <r>  0.0000  0.0003  0.0285 </r>
        <r>  0.0000  0.0006  0.0116 </r>
        <r>  0.0000  0.0004  0.0101 </r>
        <r>  0.0000  0.0001  0.0108 </r>
        <r>  0.0000  0.0031  0.0005 </r>
        <r>  0.0000  0.0027  0.0001 </r>
        <r>  0.0000  0.0025  0.0002 </r>
        <r>  0.0000  0.0053  0.0002 </r>
        <r>  0.0000  0.0028  0.0004 </r>
        <r>  0.0000  0.0010  0.0002 </r>
        <r>  0.0000  0.0018  0.0004 </r>
        <r>  0.0000  0.0059  0.0002 </r>
        <r>  0.0003  0.0005  0.0029 </r>
        <r>  0.0001  0.0004  0.0005 </r>
        <r>  0.0004  0.0013  0.0012 </r>
        <r>  0.0000  0.0002  0.0004 </r>
        <r>  0.0002  0.0013  0.0009 </r>
        <r>  0.0000  0.0002  0.0004 </r>
        <r>  0.0003  0.0006  0.0031 </r>
        <r>  0.0000  0.0004  0.0005 </r>
        <r>  0.0008  0.0001  0.0023 </r>
        <r>  0.0001  0.0007  0.0005 </r>
        <r>  0.0005  0.0006  0.0011 </r>
        <r>  0.0006  0.0006  0.0013 </r>
        <r>  0.0002  0.0005  0.0006 </r>
        <r>  0.0000  0.0001  0.0007 </r>
        <r>  0.0011  0.0005  0.0026 </r>
        <r>  0.0005  0.0010  0.0010 </r>
        <r>  0.0002  0.0013  0.0013 </r>
        <r>  0.0000  0.0001  0.0006 </r>
        <r>  0.0004  0.0006  0.0031 </r>
        <r>  0.0001  0.0006  0.0004 </r>
        <r>  0.0000  0.0008  0.0007 </r>
        <r>  0.0000  0.0001  0.0004 </r>
        <r>  0.0003  0.0004  0.0017 </r>
        <r>  0.0001  0.0003  0.0005 </r>
       </set>
      </set>
     </set>
    </set>
   </array>
  </projected>
 </calculation>
 <structure name="finalpos" >
  <crystal>
   <varray name="basis" >
    <v>      11.73535200       0.00000000       0.00000000 </v>
    <v>       0.00000000      11.73535200       0.00000000 </v>
    <v>       0.00000000       0.00000000      11.73535200 </v>
   </varray>
   <i name="volume">   1616.17491673 </i>
   <varray name="rec_basis" >
    <v>       0.08521261       0.00000000       0.00000000 </v>
    <v>       0.00000000       0.08521261       0.00000000 </v>
    <v>       0.00000000       0.00000000       0.08521261 </v>
   </varray>
  </crystal>
  <varray name="positions" >
   <v>       0.25000000       0.25000000       0.25000000 </v>
   <v>       0.25000000       0.25000000       0.75000000 </v>
   <v>       0.25000000       0.75000000       0.25000000 </v>
   <v>       0.25000000       0.75000000       0.75000000 </v>
   <v>       0.75000000       0.25000000       0.25000000 </v>
   <v>       0.75000000       0.25000000       0.75000000 </v>
   <v>       0.75000000       0.75000000       0.25000000 </v>
   <v>       0.75000000       0.75000000       0.75000000 </v>
   <v>       0.00000000       0.00000000       0.00000000 </v>
   <v>       0.00000000       0.00000000       0.50000000 </v>
   <v>       0.00000000       0.50000000       0.00000000 </v>
   <v>       0.00000000       0.50000000       0.50000000 </v>
   <v>       0.50000000       0.00000000       0.00000000 </v>
   <v>       0.50000000       0.00000000       0.50000000 </v>
   <v>       0.50000000       0.50000000       0.00000000 </v>
   <v>       0.50000000       0.50000000       0.50000000 </v>
   <v>       0.98875000       0.25000000       0.00000000 </v>
   <v>       0.01125000       0.25000000       0.50000000 </v>
   <v>       0.01125000       0.75000000       0.00000000 </v>
   <v>       0.98875000       0.75000000       0.50000000 </v>
   <v>       0.51125000       0.25000000       0.00000000 </v>
   <v>       0.48875000       0.25000000       0.50000000 </v>
   <v>       0.48875000       0.75000000       0.00000000 </v>
   <v>       0.51125000       0.75000000       0.50000000 </v>
   <v>       0.00000000       0.00000000       0.25000000 </v>
   <v>       0.00000000       0.00000000       0.75000000 </v>
   <v>       0.00000000       0.50000000       0.25000000 </v>
   <v>       0.00000000       0.50000000       0.75000000 </v>
   <v>       0.50000000       0.00000000       0.25000000 </v>
   <v>       0.50000000       0.00000000       0.75000000 </v>
   <v>       0.50000000       0.50000000       0.25000000 </v>
   <v>       0.50000000       0.50000000       0.75000000 </v>
   <v>       0.25000000       0.01125000       0.00000000 </v>
   <v>       0.25000000       0.98875000       0.50000000 </v>
   <v>       0.25000000       0.48875000       0.00000000 </v>
   <v>       0.25000000       0.51125000       0.50000000 </v>
   <v>       0.75000000       0.98875000       0.00000000 </v>
   <v>       0.75000000       0.01125000       0.50000000 </v>
   <v>       0.75000000       0.51125000       0.00000000 </v>
   <v>       0.75000000       0.48875000       0.50000000 </v>
  </varray>
 </structure>
</modeling>
