  20  20   1   0
  0.3920366E+02  0.8411801E-09  0.1172695E-08  0.7948454E-09  0.5000000E-15
   1.0000000000000000E-004
  CAR 
 CsPbBr3 cubic bulk                      
      8.78531025    -21.98624210  301      0.70777775      1.00000000
    -21.986  0.0000E+00  0.0000E+00
    -21.884  0.0000E+00  0.0000E+00
    -21.781  0.0000E+00  0.0000E+00
    -21.679  0.0000E+00  0.0000E+00
    -21.576  0.0000E+00  0.0000E+00
    -21.473  0.0000E+00  0.0000E+00
    -21.371  0.0000E+00  0.0000E+00
    -21.268  0.0000E+00  0.0000E+00
    -21.166  0.0000E+00  0.0000E+00
    -21.063  0.0000E+00  0.0000E+00
    -20.961  0.0000E+00  0.0000E+00
    -20.858  0.0000E+00  0.0000E+00
    -20.755  0.0000E+00  0.0000E+00
    -20.653  0.0000E+00  0.0000E+00
    -20.550  0.7799E+02  0.8000E+01
    -20.448  0.0000E+00  0.8000E+01
    -20.345  0.0000E+00  0.8000E+01
    -20.243  0.0000E+00  0.8000E+01
    -20.140  0.0000E+00  0.8000E+01
    -20.037  0.0000E+00  0.8000E+01
    -19.935  0.0000E+00  0.8000E+01
    -19.832  0.0000E+00  0.8000E+01
    -19.730  0.0000E+00  0.8000E+01
    -19.627  0.0000E+00  0.8000E+01
    -19.525  0.0000E+00  0.8000E+01
    -19.422  0.0000E+00  0.8000E+01
    -19.319  0.0000E+00  0.8000E+01
    -19.217  0.0000E+00  0.8000E+01
    -19.114  0.0000E+00  0.8000E+01
    -19.012  0.0000E+00  0.8000E+01
    -18.909  0.0000E+00  0.8000E+01
    -18.807  0.0000E+00  0.8000E+01
    -18.704  0.0000E+00  0.8000E+01
    -18.601  0.0000E+00  0.8000E+01
    -18.499  0.0000E+00  0.8000E+01
    -18.396  0.0000E+00  0.8000E+01
    -18.294  0.0000E+00  0.8000E+01
    -18.191  0.0000E+00  0.8000E+01
    -18.089  0.0000E+00  0.8000E+01
    -17.986  0.0000E+00  0.8000E+01
    -17.883  0.0000E+00  0.8000E+01
    -17.781  0.0000E+00  0.8000E+01
    -17.678  0.0000E+00  0.8000E+01
    -17.576  0.0000E+00  0.8000E+01
    -17.473  0.0000E+00  0.8000E+01
    -17.371  0.0000E+00  0.8000E+01
    -17.268  0.0000E+00  0.8000E+01
    -17.165  0.0000E+00  0.8000E+01
    -17.063  0.0000E+00  0.8000E+01
    -16.960  0.0000E+00  0.8000E+01
    -16.858  0.0000E+00  0.8000E+01
    -16.755  0.0000E+00  0.8000E+01
    -16.653  0.0000E+00  0.8000E+01
    -16.550  0.0000E+00  0.8000E+01
    -16.447  0.0000E+00  0.8000E+01
    -16.345  0.1960E-07  0.8000E+01
    -16.242  0.9566E+02  0.1781E+02
    -16.140  0.4590E+02  0.2682E+02
    -16.037  0.0000E+00  0.4800E+02
    -15.935  0.0000E+00  0.4800E+02
    -15.832  0.0000E+00  0.4800E+02
    -15.729  0.0000E+00  0.4800E+02
    -15.627  0.0000E+00  0.4800E+02
    -15.524  0.0000E+00  0.4800E+02
    -15.422  0.0000E+00  0.4800E+02
    -15.319  0.0000E+00  0.4800E+02
    -15.217  0.0000E+00  0.4800E+02
    -15.114  0.0000E+00  0.4800E+02
    -15.011  0.0000E+00  0.4800E+02
    -14.909  0.0000E+00  0.4800E+02
    -14.806  0.0000E+00  0.4800E+02
    -14.704  0.0000E+00  0.4800E+02
    -14.601  0.0000E+00  0.4800E+02
    -14.498  0.0000E+00  0.4800E+02
    -14.396  0.0000E+00  0.4800E+02
    -14.293  0.9465E-13  0.4800E+02
    -14.191  0.3132E+01  0.4832E+02
    -14.088  0.1729E+02  0.5055E+02
    -13.986  0.3107E+02  0.5419E+02
    -13.883  0.4487E+02  0.5927E+02
    -13.780  0.4138E+02  0.6424E+02
    -13.678  0.4106E+02  0.6877E+02
    -13.575  0.1842E+02  0.7200E+02
    -13.473  0.0000E+00  0.7200E+02
    -13.370  0.0000E+00  0.7200E+02
    -13.268  0.0000E+00  0.7200E+02
    -13.165  0.0000E+00  0.7200E+02
    -13.062  0.0000E+00  0.7200E+02
    -12.960  0.0000E+00  0.7200E+02
    -12.857  0.0000E+00  0.7200E+02
    -12.755  0.0000E+00  0.7200E+02
    -12.652  0.0000E+00  0.7200E+02
    -12.550  0.0000E+00  0.7200E+02
    -12.447  0.0000E+00  0.7200E+02
    -12.344  0.0000E+00  0.7200E+02
    -12.242  0.0000E+00  0.7200E+02
    -12.139  0.0000E+00  0.7200E+02
    -12.037  0.0000E+00  0.7200E+02
    -11.934  0.0000E+00  0.7200E+02
    -11.832  0.0000E+00  0.7200E+02
    -11.729  0.0000E+00  0.7200E+02
    -11.626  0.0000E+00  0.7200E+02
    -11.524  0.0000E+00  0.7200E+02
    -11.421  0.0000E+00  0.7200E+02
    -11.319  0.0000E+00  0.7200E+02
    -11.216  0.0000E+00  0.7200E+02
    -11.114  0.0000E+00  0.7200E+02
    -11.011  0.0000E+00  0.7200E+02
    -10.908  0.0000E+00  0.7200E+02
    -10.806  0.0000E+00  0.7200E+02
    -10.703  0.0000E+00  0.7200E+02
    -10.601  0.0000E+00  0.7200E+02
    -10.498  0.0000E+00  0.7200E+02
    -10.396  0.0000E+00  0.7200E+02
    -10.293  0.0000E+00  0.7200E+02
    -10.190  0.0000E+00  0.7200E+02
    -10.088  0.0000E+00  0.7200E+02
     -9.985  0.0000E+00  0.7200E+02
     -9.883  0.0000E+00  0.7200E+02
     -9.780  0.0000E+00  0.7200E+02
     -9.678  0.0000E+00  0.7200E+02
     -9.575  0.0000E+00  0.7200E+02
     -9.472  0.0000E+00  0.7200E+02
     -9.370  0.0000E+00  0.7200E+02
     -9.267  0.0000E+00  0.7200E+02
     -9.165  0.0000E+00  0.7200E+02
     -9.062  0.0000E+00  0.7200E+02
     -8.960  0.0000E+00  0.7200E+02
     -8.857  0.0000E+00  0.7200E+02
     -8.754  0.0000E+00  0.7200E+02
     -8.652  0.0000E+00  0.7200E+02
     -8.549  0.0000E+00  0.7200E+02
     -8.447  0.0000E+00  0.7200E+02
     -8.344  0.0000E+00  0.7200E+02
     -8.242  0.0000E+00  0.7200E+02
     -8.139  0.0000E+00  0.7200E+02
     -8.036  0.1075E+01  0.7211E+02
     -7.934  0.0000E+00  0.7211E+02
     -7.831  0.3407E+01  0.7246E+02
     -7.729  0.1202E-02  0.7278E+02
     -7.626  0.4332E+01  0.7322E+02
     -7.524  0.9674E+01  0.7421E+02
     -7.421  0.1300E+02  0.7556E+02
     -7.318  0.5690E+01  0.7614E+02
     -7.216  0.1498E+01  0.7660E+02
     -7.113  0.7626E+01  0.7812E+02
     -7.011  0.5735E+02  0.8455E+02
     -6.908  0.1300E+03  0.1028E+03
     -6.806  0.4333E+01  0.1032E+03
     -6.703  0.6207E+01  0.1039E+03
     -6.600  0.0000E+00  0.1039E+03
     -6.498  0.0000E+00  0.1039E+03
     -6.395  0.3238E-07  0.1039E+03
     -6.293  0.1083E+01  0.1040E+03
     -6.190  0.0000E+00  0.1040E+03
     -6.088  0.0000E+00  0.1040E+03
     -5.985  0.0000E+00  0.1040E+03
     -5.882  0.0000E+00  0.1040E+03
     -5.780  0.0000E+00  0.1040E+03
     -5.677  0.0000E+00  0.1040E+03
     -5.575  0.0000E+00  0.1040E+03
     -5.472  0.0000E+00  0.1040E+03
     -5.370  0.0000E+00  0.1040E+03
     -5.267  0.0000E+00  0.1040E+03
     -5.164  0.0000E+00  0.1040E+03
     -5.062  0.0000E+00  0.1040E+03
     -4.959  0.0000E+00  0.1040E+03
     -4.857  0.0000E+00  0.1040E+03
     -4.754  0.0000E+00  0.1040E+03
     -4.652  0.0000E+00  0.1040E+03
     -4.549  0.0000E+00  0.1040E+03
     -4.446  0.0000E+00  0.1040E+03
     -4.344  0.0000E+00  0.1040E+03
     -4.241  0.0000E+00  0.1040E+03
     -4.139  0.0000E+00  0.1040E+03
     -4.036  0.0000E+00  0.1040E+03
     -3.934  0.0000E+00  0.1040E+03
     -3.831  0.0000E+00  0.1040E+03
     -3.728  0.0000E+00  0.1040E+03
     -3.626  0.0000E+00  0.1040E+03
     -3.523  0.0000E+00  0.1040E+03
     -3.421  0.0000E+00  0.1040E+03
     -3.318  0.0000E+00  0.1040E+03
     -3.216  0.1006E+01  0.1041E+03
     -3.113  0.1508E+02  0.1057E+03
     -3.010  0.1937E+02  0.1081E+03
     -2.908  0.4354E+01  0.1087E+03
     -2.805  0.6847E+01  0.1096E+03
     -2.703  0.1011E+02  0.1110E+03
     -2.600  0.1940E+02  0.1133E+03
     -2.498  0.6500E+01  0.1140E+03
     -2.395  0.5912E+01  0.1146E+03
     -2.292  0.1088E+02  0.1160E+03
     -2.190  0.1263E+02  0.1182E+03
     -2.087  0.9096E+01  0.1192E+03
     -1.985  0.1678E+02  0.1211E+03
     -1.882  0.2931E+02  0.1251E+03
     -1.780  0.5419E+01  0.1267E+03
     -1.677  0.8896E+01  0.1277E+03
     -1.574  0.2855E+02  0.1308E+03
     -1.472  0.3140E+02  0.1346E+03
     -1.369  0.3177E+02  0.1378E+03
     -1.267  0.4441E+02  0.1428E+03
     -1.164  0.5203E+02  0.1506E+03
     -1.062  0.4562E+02  0.1561E+03
     -0.959  0.6051E+02  0.1637E+03
     -0.856  0.2794E+02  0.1679E+03
     -0.754  0.1462E+01  0.1681E+03
     -0.651  0.1241E+02  0.1695E+03
     -0.549  0.2245E-03  0.1710E+03
     -0.446  0.1030E+02  0.1721E+03
     -0.344  0.1504E+02  0.1740E+03
     -0.241  0.2166E+01  0.1742E+03
     -0.138  0.4333E+01  0.1747E+03
     -0.036  0.0000E+00  0.1747E+03
      0.067  0.2421E+01  0.1749E+03
      0.169  0.7085E+01  0.1757E+03
      0.272  0.0000E+00  0.1759E+03
      0.374  0.0000E+00  0.1759E+03
      0.477  0.0000E+00  0.1759E+03
      0.580  0.0000E+00  0.1759E+03
      0.682  0.1083E+01  0.1760E+03
      0.785  0.0000E+00  0.1760E+03
      0.887  0.0000E+00  0.1760E+03
      0.990  0.0000E+00  0.1760E+03
      1.092  0.0000E+00  0.1760E+03
      1.195  0.0000E+00  0.1760E+03
      1.298  0.0000E+00  0.1760E+03
      1.400  0.0000E+00  0.1760E+03
      1.503  0.0000E+00  0.1760E+03
      1.605  0.0000E+00  0.1760E+03
      1.708  0.0000E+00  0.1760E+03
      1.810  0.0000E+00  0.1760E+03
      1.913  0.0000E+00  0.1760E+03
      2.016  0.0000E+00  0.1760E+03
      2.118  0.0000E+00  0.1760E+03
      2.221  0.0000E+00  0.1760E+03
      2.323  0.0000E+00  0.1760E+03
      2.426  0.0000E+00  0.1760E+03
      2.528  0.0000E+00  0.1760E+03
      2.631  0.0000E+00  0.1760E+03
      2.734  0.0000E+00  0.1760E+03
      2.836  0.0000E+00  0.1760E+03
      2.939  0.1133E+01  0.1761E+03
      3.041  0.1924E-14  0.1762E+03
      3.144  0.7578E+01  0.1770E+03
      3.246  0.4353E+01  0.1774E+03
      3.349  0.3250E+01  0.1782E+03
      3.452  0.6081E+01  0.1788E+03
      3.554  0.8184E+00  0.1801E+03
      3.657  0.2809E+00  0.1801E+03
      3.759  0.3250E+01  0.1809E+03
      3.862  0.6419E+01  0.1815E+03
      3.964  0.1091E+00  0.1818E+03
      4.067  0.6346E+01  0.1831E+03
      4.170  0.4333E+01  0.1840E+03
      4.272  0.1300E+02  0.1853E+03
      4.375  0.2073E+01  0.1855E+03
      4.477  0.4333E+01  0.1860E+03
      4.580  0.2167E+01  0.1862E+03
      4.682  0.8620E+01  0.1871E+03
      4.785  0.8666E+01  0.1880E+03
      4.888  0.8666E+01  0.1889E+03
      4.990  0.8666E+01  0.1898E+03
      5.093  0.6403E+01  0.1904E+03
      5.195  0.1092E+01  0.1906E+03
      5.298  0.1300E+02  0.1921E+03
      5.400  0.1083E+02  0.1932E+03
      5.503  0.1353E+02  0.1946E+03
      5.606  0.2166E+01  0.1952E+03
      5.708  0.2296E+01  0.1955E+03
      5.811  0.2166E+01  0.1961E+03
      5.913  0.1096E+01  0.1962E+03
      6.016  0.8753E+01  0.1973E+03
      6.118  0.6498E+01  0.1982E+03
      6.221  0.1626E+02  0.1999E+03
      6.324  0.1172E+02  0.2012E+03
      6.426  0.1422E+02  0.2029E+03
      6.529  0.1500E+02  0.2046E+03
      6.631  0.2029E+02  0.2075E+03
      6.734  0.9955E+01  0.2092E+03
      6.836  0.2531E+02  0.2127E+03
      6.939  0.1068E+02  0.2143E+03
      7.042  0.2327E+02  0.2173E+03
      7.144  0.1635E+02  0.2198E+03
      7.247  0.1986E+02  0.2221E+03
      7.349  0.9636E+01  0.2235E+03
      7.452  0.4333E+01  0.2240E+03
      7.554  0.0000E+00  0.2240E+03
      7.657  0.0000E+00  0.2240E+03
      7.760  0.0000E+00  0.2240E+03
      7.862  0.0000E+00  0.2240E+03
      7.965  0.0000E+00  0.2240E+03
      8.067  0.0000E+00  0.2240E+03
      8.170  0.0000E+00  0.2240E+03
      8.272  0.0000E+00  0.2240E+03
      8.375  0.0000E+00  0.2240E+03
      8.478  0.0000E+00  0.2240E+03
      8.580  0.0000E+00  0.2240E+03
      8.683  0.0000E+00  0.2240E+03
      8.785  0.0000E+00  0.2240E+03
      8.78531025    -21.98624210  301      0.70777775      1.00000000
    -21.986  0.0000E+00  0.0000E+00  0.0000E+00
    -21.884  0.0000E+00  0.0000E+00  0.0000E+00
    -21.781  0.0000E+00  0.0000E+00  0.0000E+00
    -21.679  0.0000E+00  0.0000E+00  0.0000E+00
    -21.576  0.0000E+00  0.0000E+00  0.0000E+00
    -21.473  0.0000E+00  0.0000E+00  0.0000E+00
    -21.371  0.0000E+00  0.0000E+00  0.0000E+00
    -21.268  0.0000E+00  0.0000E+00  0.0000E+00
    -21.166  0.0000E+00  0.0000E+00  0.0000E+00
    -21.063  0.0000E+00  0.0000E+00  0.0000E+00
    -20.961  0.0000E+00  0.0000E+00  0.0000E+00
    -20.858  0.0000E+00  0.0000E+00  0.0000E+00
    -20.755  0.0000E+00  0.0000E+00  0.0000E+00
    -20.653  0.0000E+00  0.0000E+00  0.0000E+00
    -20.550  0.1730E+02  0.8575E-05  0.2627E-05
    -20.448  0.0000E+00  0.0000E+00  0.0000E+00
    -20.345  0.0000E+00  0.0000E+00  0.0000E+00
    -20.243  0.0000E+00  0.0000E+00  0.0000E+00
    -20.140  0.0000E+00  0.0000E+00  0.0000E+00
    -20.037  0.0000E+00  0.0000E+00  0.0000E+00
    -19.935  0.0000E+00  0.0000E+00  0.0000E+00
    -19.832  0.0000E+00  0.0000E+00  0.0000E+00
    -19.730  0.0000E+00  0.0000E+00  0.0000E+00
    -19.627  0.0000E+00  0.0000E+00  0.0000E+00
    -19.525  0.0000E+00  0.0000E+00  0.0000E+00
    -19.422  0.0000E+00  0.0000E+00  0.0000E+00
    -19.319  0.0000E+00  0.0000E+00  0.0000E+00
    -19.217  0.0000E+00  0.0000E+00  0.0000E+00
    -19.114  0.0000E+00  0.0000E+00  0.0000E+00
    -19.012  0.0000E+00  0.0000E+00  0.0000E+00
    -18.909  0.0000E+00  0.0000E+00  0.0000E+00
    -18.807  0.0000E+00  0.0000E+00  0.0000E+00
    -18.704  0.0000E+00  0.0000E+00  0.0000E+00
    -18.601  0.0000E+00  0.0000E+00  0.0000E+00
    -18.499  0.0000E+00  0.0000E+00  0.0000E+00
    -18.396  0.0000E+00  0.0000E+00  0.0000E+00
    -18.294  0.0000E+00  0.0000E+00  0.0000E+00
    -18.191  0.0000E+00  0.0000E+00  0.0000E+00
    -18.089  0.0000E+00  0.0000E+00  0.0000E+00
    -17.986  0.0000E+00  0.0000E+00  0.0000E+00
    -17.883  0.0000E+00  0.0000E+00  0.0000E+00
    -17.781  0.0000E+00  0.0000E+00  0.0000E+00
    -17.678  0.0000E+00  0.0000E+00  0.0000E+00
    -17.576  0.0000E+00  0.0000E+00  0.0000E+00
    -17.473  0.0000E+00  0.0000E+00  0.0000E+00
    -17.371  0.0000E+00  0.0000E+00  0.0000E+00
    -17.268  0.0000E+00  0.0000E+00  0.0000E+00
    -17.165  0.0000E+00  0.0000E+00  0.0000E+00
    -17.063  0.0000E+00  0.0000E+00  0.0000E+00
    -16.960  0.0000E+00  0.0000E+00  0.0000E+00
    -16.858  0.0000E+00  0.0000E+00  0.0000E+00
    -16.755  0.0000E+00  0.0000E+00  0.0000E+00
    -16.653  0.0000E+00  0.0000E+00  0.0000E+00
    -16.550  0.0000E+00  0.0000E+00  0.0000E+00
    -16.447  0.0000E+00  0.0000E+00  0.0000E+00
    -16.345  0.4914E-13  0.3918E-13  0.6892E-14
    -16.242  0.1478E-03  0.1248E-03  0.2627E-04
    -16.140  0.1469E-04  0.9455E-05  0.1218E-05
    -16.037  0.0000E+00  0.0000E+00  0.0000E+00
    -15.935  0.0000E+00  0.0000E+00  0.0000E+00
    -15.832  0.0000E+00  0.0000E+00  0.0000E+00
    -15.729  0.0000E+00  0.0000E+00  0.0000E+00
    -15.627  0.0000E+00  0.0000E+00  0.0000E+00
    -15.524  0.0000E+00  0.0000E+00  0.0000E+00
    -15.422  0.0000E+00  0.0000E+00  0.0000E+00
    -15.319  0.0000E+00  0.0000E+00  0.0000E+00
    -15.217  0.0000E+00  0.0000E+00  0.0000E+00
    -15.114  0.0000E+00  0.0000E+00  0.0000E+00
    -15.011  0.0000E+00  0.0000E+00  0.0000E+00
    -14.909  0.0000E+00  0.0000E+00  0.0000E+00
    -14.806  0.0000E+00  0.0000E+00  0.0000E+00
    -14.704  0.0000E+00  0.0000E+00  0.0000E+00
    -14.601  0.0000E+00  0.0000E+00  0.0000E+00
    -14.498  0.0000E+00  0.0000E+00  0.0000E+00
    -14.396  0.0000E+00  0.0000E+00  0.0000E+00
    -14.293  0.4992E-16  0.2810E-18  0.6490E-19
    -14.191  0.1320E-02  0.1935E-03  0.4032E-05
    -14.088  0.3446E-02  0.3219E-02  0.6517E-04
    -13.986  0.1189E-02  0.6169E-02  0.2427E-03
    -13.883  0.3752E-02  0.7350E-02  0.6020E-03
    -13.780  0.7389E-03  0.4136E-02  0.4214E-03
    -13.678  0.1010E-02  0.3468E-02  0.5476E-03
    -13.575  0.7264E-03  0.1425E-02  0.1975E-03
    -13.473  0.0000E+00  0.0000E+00  0.0000E+00
    -13.370  0.0000E+00  0.0000E+00  0.0000E+00
    -13.268  0.0000E+00  0.0000E+00  0.0000E+00
    -13.165  0.0000E+00  0.0000E+00  0.0000E+00
    -13.062  0.0000E+00  0.0000E+00  0.0000E+00
    -12.960  0.0000E+00  0.0000E+00  0.0000E+00
    -12.857  0.0000E+00  0.0000E+00  0.0000E+00
    -12.755  0.0000E+00  0.0000E+00  0.0000E+00
    -12.652  0.0000E+00  0.0000E+00  0.0000E+00
    -12.550  0.0000E+00  0.0000E+00  0.0000E+00
    -12.447  0.0000E+00  0.0000E+00  0.0000E+00
    -12.344  0.0000E+00  0.0000E+00  0.0000E+00
    -12.242  0.0000E+00  0.0000E+00  0.0000E+00
    -12.139  0.0000E+00  0.0000E+00  0.0000E+00
    -12.037  0.0000E+00  0.0000E+00  0.0000E+00
    -11.934  0.0000E+00  0.0000E+00  0.0000E+00
    -11.832  0.0000E+00  0.0000E+00  0.0000E+00
    -11.729  0.0000E+00  0.0000E+00  0.0000E+00
    -11.626  0.0000E+00  0.0000E+00  0.0000E+00
    -11.524  0.0000E+00  0.0000E+00  0.0000E+00
    -11.421  0.0000E+00  0.0000E+00  0.0000E+00
    -11.319  0.0000E+00  0.0000E+00  0.0000E+00
    -11.216  0.0000E+00  0.0000E+00  0.0000E+00
    -11.114  0.0000E+00  0.0000E+00  0.0000E+00
    -11.011  0.0000E+00  0.0000E+00  0.0000E+00
    -10.908  0.0000E+00  0.0000E+00  0.0000E+00
    -10.806  0.0000E+00  0.0000E+00  0.0000E+00
    -10.703  0.0000E+00  0.0000E+00  0.0000E+00
    -10.601  0.0000E+00  0.0000E+00  0.0000E+00
    -10.498  0.0000E+00  0.0000E+00  0.0000E+00
    -10.396  0.0000E+00  0.0000E+00  0.0000E+00
    -10.293  0.0000E+00  0.0000E+00  0.0000E+00
    -10.190  0.0000E+00  0.0000E+00  0.0000E+00
    -10.088  0.0000E+00  0.0000E+00  0.0000E+00
     -9.985  0.0000E+00  0.0000E+00  0.0000E+00
     -9.883  0.0000E+00  0.0000E+00  0.0000E+00
     -9.780  0.0000E+00  0.0000E+00  0.0000E+00
     -9.678  0.0000E+00  0.0000E+00  0.0000E+00
     -9.575  0.0000E+00  0.0000E+00  0.0000E+00
     -9.472  0.0000E+00  0.0000E+00  0.0000E+00
     -9.370  0.0000E+00  0.0000E+00  0.0000E+00
     -9.267  0.0000E+00  0.0000E+00  0.0000E+00
     -9.165  0.0000E+00  0.0000E+00  0.0000E+00
     -9.062  0.0000E+00  0.0000E+00  0.0000E+00
     -8.960  0.0000E+00  0.0000E+00  0.0000E+00
     -8.857  0.0000E+00  0.0000E+00  0.0000E+00
     -8.754  0.0000E+00  0.0000E+00  0.0000E+00
     -8.652  0.0000E+00  0.0000E+00  0.0000E+00
     -8.549  0.0000E+00  0.0000E+00  0.0000E+00
     -8.447  0.0000E+00  0.0000E+00  0.0000E+00
     -8.344  0.0000E+00  0.0000E+00  0.0000E+00
     -8.242  0.0000E+00  0.0000E+00  0.0000E+00
     -8.139  0.0000E+00  0.0000E+00  0.0000E+00
     -8.036  0.4030E-17  0.8976E-05  0.8820E-05
     -7.934  0.0000E+00  0.0000E+00  0.0000E+00
     -7.831  0.6140E-11  0.2289E-02  0.2358E-04
     -7.729  0.3769E-20  0.1517E-05  0.9703E-08
     -7.626  0.4708E-09  0.5465E-02  0.3496E-04
     -7.524  0.1391E-04  0.3122E-01  0.5898E-04
     -7.421  0.2221E-04  0.5815E-01  0.7204E-04
     -7.318  0.4915E-05  0.4954E-01  0.4173E-04
     -7.216  0.5993E-05  0.3532E-01  0.7030E-05
     -7.113  0.5912E-04  0.2905E+00  0.2225E-04
     -7.011  0.2494E-04  0.1053E+02  0.5069E-04
     -6.908  0.5114E-04  0.2442E+02  0.7042E-04
     -6.806  0.2659E-04  0.1746E+00  0.3579E-04
     -6.703  0.6997E-04  0.7182E-01  0.3023E-04
     -6.600  0.0000E+00  0.0000E+00  0.0000E+00
     -6.498  0.0000E+00  0.0000E+00  0.0000E+00
     -6.395  0.4603E-12  0.1256E-09  0.2089E-13
     -6.293  0.1540E-04  0.4202E-02  0.6987E-06
     -6.190  0.0000E+00  0.0000E+00  0.0000E+00
     -6.088  0.0000E+00  0.0000E+00  0.0000E+00
     -5.985  0.0000E+00  0.0000E+00  0.0000E+00
     -5.882  0.0000E+00  0.0000E+00  0.0000E+00
     -5.780  0.0000E+00  0.0000E+00  0.0000E+00
     -5.677  0.0000E+00  0.0000E+00  0.0000E+00
     -5.575  0.0000E+00  0.0000E+00  0.0000E+00
     -5.472  0.0000E+00  0.0000E+00  0.0000E+00
     -5.370  0.0000E+00  0.0000E+00  0.0000E+00
     -5.267  0.0000E+00  0.0000E+00  0.0000E+00
     -5.164  0.0000E+00  0.0000E+00  0.0000E+00
     -5.062  0.0000E+00  0.0000E+00  0.0000E+00
     -4.959  0.0000E+00  0.0000E+00  0.0000E+00
     -4.857  0.0000E+00  0.0000E+00  0.0000E+00
     -4.754  0.0000E+00  0.0000E+00  0.0000E+00
     -4.652  0.0000E+00  0.0000E+00  0.0000E+00
     -4.549  0.0000E+00  0.0000E+00  0.0000E+00
     -4.446  0.0000E+00  0.0000E+00  0.0000E+00
     -4.344  0.0000E+00  0.0000E+00  0.0000E+00
     -4.241  0.0000E+00  0.0000E+00  0.0000E+00
     -4.139  0.0000E+00  0.0000E+00  0.0000E+00
     -4.036  0.0000E+00  0.0000E+00  0.0000E+00
     -3.934  0.0000E+00  0.0000E+00  0.0000E+00
     -3.831  0.0000E+00  0.0000E+00  0.0000E+00
     -3.728  0.0000E+00  0.0000E+00  0.0000E+00
     -3.626  0.0000E+00  0.0000E+00  0.0000E+00
     -3.523  0.0000E+00  0.0000E+00  0.0000E+00
     -3.421  0.0000E+00  0.0000E+00  0.0000E+00
     -3.318  0.0000E+00  0.0000E+00  0.0000E+00
     -3.216  0.6524E-12  0.1556E-02  0.1840E-04
     -3.113  0.1687E-03  0.2176E-01  0.1425E-02
     -3.010  0.4263E-03  0.2214E-01  0.2745E-02
     -2.908  0.2382E-05  0.2511E-02  0.7313E-03
     -2.805  0.3793E-03  0.1304E-01  0.5828E-03
     -2.703  0.8567E-04  0.1404E-01  0.9884E-03
     -2.600  0.8265E-03  0.2522E-01  0.1945E-02
     -2.498  0.1788E-15  0.3480E-02  0.4008E-03
     -2.395  0.1273E-03  0.1260E-01  0.8223E-03
     -2.292  0.1194E-02  0.1753E-01  0.1013E-02
     -2.190  0.2687E-02  0.1279E-01  0.2306E-02
     -2.087  0.4215E-02  0.9305E-02  0.1076E-02
     -1.985  0.1041E-01  0.1870E-01  0.2635E-02
     -1.882  0.1781E-01  0.4804E-01  0.7329E-02
     -1.780  0.2339E-02  0.1798E-01  0.8919E-03
     -1.677  0.5276E-03  0.6487E-01  0.2056E-02
     -1.574  0.4059E-02  0.1111E+00  0.1069E-01
     -1.472  0.1746E-02  0.1161E+00  0.1421E-01
     -1.369  0.3971E-02  0.8959E-01  0.1506E-01
     -1.267  0.4424E-02  0.7937E-01  0.2451E-01
     -1.164  0.6493E-02  0.9066E-01  0.1822E-01
     -1.062  0.3580E-02  0.7180E-01  0.1323E-01
     -0.959  0.1900E-02  0.1225E+00  0.1831E-01
     -0.856  0.1539E-02  0.2816E-01  0.5621E-02
     -0.754  0.3748E-04  0.2339E-02  0.5228E-03
     -0.651  0.7205E-03  0.2022E-01  0.4756E-02
     -0.549  0.1266E-07  0.2301E-06  0.2715E-07
     -0.446  0.7879E-03  0.6530E-02  0.1178E-02
     -0.344  0.7308E-03  0.5922E-02  0.1903E-02
     -0.241  0.3591E-14  0.7973E-03  0.2558E-03
     -0.138  0.4344E-15  0.3254E-02  0.4292E-04
     -0.036  0.0000E+00  0.0000E+00  0.0000E+00
      0.067  0.3580E-05  0.5204E-03  0.3892E-03
      0.169  0.2480E-06  0.1578E-02  0.1250E-02
      0.272  0.0000E+00  0.0000E+00  0.0000E+00
      0.374  0.0000E+00  0.0000E+00  0.0000E+00
      0.477  0.0000E+00  0.0000E+00  0.0000E+00
      0.580  0.0000E+00  0.0000E+00  0.0000E+00
      0.682  0.6234E-16  0.4006E-04  0.1244E-03
      0.785  0.0000E+00  0.0000E+00  0.0000E+00
      0.887  0.0000E+00  0.0000E+00  0.0000E+00
      0.990  0.0000E+00  0.0000E+00  0.0000E+00
      1.092  0.0000E+00  0.0000E+00  0.0000E+00
      1.195  0.0000E+00  0.0000E+00  0.0000E+00
      1.298  0.0000E+00  0.0000E+00  0.0000E+00
      1.400  0.0000E+00  0.0000E+00  0.0000E+00
      1.503  0.0000E+00  0.0000E+00  0.0000E+00
      1.605  0.0000E+00  0.0000E+00  0.0000E+00
      1.708  0.0000E+00  0.0000E+00  0.0000E+00
      1.810  0.0000E+00  0.0000E+00  0.0000E+00
      1.913  0.0000E+00  0.0000E+00  0.0000E+00
      2.016  0.0000E+00  0.0000E+00  0.0000E+00
      2.118  0.0000E+00  0.0000E+00  0.0000E+00
      2.221  0.0000E+00  0.0000E+00  0.0000E+00
      2.323  0.0000E+00  0.0000E+00  0.0000E+00
      2.426  0.0000E+00  0.0000E+00  0.0000E+00
      2.528  0.0000E+00  0.0000E+00  0.0000E+00
      2.631  0.0000E+00  0.0000E+00  0.0000E+00
      2.734  0.0000E+00  0.0000E+00  0.0000E+00
      2.836  0.0000E+00  0.0000E+00  0.0000E+00
      2.939  0.1562E-05  0.5417E-04  0.1070E-02
      3.041  0.8261E-30  0.2937E-19  0.2130E-17
      3.144  0.6239E-03  0.1217E-02  0.4370E-02
      3.246  0.1452E-04  0.9254E-03  0.2446E-02
      3.349  0.3450E-03  0.5587E-03  0.1806E-02
      3.452  0.6359E-03  0.1848E-02  0.1426E-02
      3.554  0.4899E-04  0.1504E-03  0.2373E-03
      3.657  0.5654E-04  0.1267E-03  0.1606E-03
      3.759  0.6456E-07  0.8428E-03  0.1973E-02
      3.862  0.3322E-03  0.1275E-02  0.6840E-02
      3.964  0.9087E-05  0.3093E-04  0.1117E-03
      4.067  0.7775E-03  0.1251E-02  0.5279E-02
      4.170  0.2820E-03  0.1689E-02  0.3563E-02
      4.272  0.7676E-03  0.3072E-02  0.5927E-02
      4.375  0.1698E-03  0.8895E-03  0.6396E-03
      4.477  0.1107E-03  0.1383E-02  0.1338E-02
      4.580  0.3579E-04  0.4052E-03  0.3152E-02
      4.682  0.8412E-03  0.3061E-02  0.1049E-01
      4.785  0.5470E-05  0.4065E-02  0.8903E-02
      4.888  0.1275E-02  0.1912E-02  0.4258E-02
      4.990  0.2067E-02  0.3689E-02  0.5787E-02
      5.093  0.1479E-02  0.1309E-02  0.8048E-02
      5.195  0.1190E-01  0.9851E-05  0.5118E-03
      5.298  0.1365E-02  0.4056E-02  0.1749E-01
      5.400  0.3771E-02  0.5261E-02  0.1521E-01
      5.503  0.2253E-01  0.1089E-01  0.1043E-01
      5.606  0.1399E-02  0.2483E-03  0.5229E-02
      5.708  0.7521E-03  0.3394E-03  0.2920E-02
      5.811  0.1813E-01  0.3059E-02  0.5980E-02
      5.913  0.7488E-04  0.3847E-04  0.3179E-02
      6.016  0.4600E-03  0.1211E-02  0.2070E-01
      6.118  0.1490E-12  0.5413E-03  0.1531E-01
      6.221  0.3716E-01  0.2088E-01  0.8375E-01
      6.324  0.5869E-01  0.1402E-01  0.1062E+00
      6.426  0.7259E-02  0.5079E-02  0.1894E+00
      6.529  0.2732E-01  0.2003E-01  0.3057E+00
      6.631  0.4982E-01  0.2983E-01  0.5294E+00
      6.734  0.1938E-01  0.4576E-02  0.2725E+00
      6.836  0.3647E-01  0.3987E-01  0.6759E+00
      6.939  0.3185E-01  0.1143E-01  0.2467E+00
      7.042  0.7933E-02  0.5884E-01  0.7086E+00
      7.144  0.6601E-02  0.1915E-01  0.6600E+00
      7.247  0.3057E-01  0.3673E-01  0.6336E+00
      7.349  0.6968E-02  0.3939E-01  0.2113E+00
      7.452  0.5666E-05  0.4432E-02  0.9846E-01
      7.554  0.0000E+00  0.0000E+00  0.0000E+00
      7.657  0.0000E+00  0.0000E+00  0.0000E+00
      7.760  0.0000E+00  0.0000E+00  0.0000E+00
      7.862  0.0000E+00  0.0000E+00  0.0000E+00
      7.965  0.0000E+00  0.0000E+00  0.0000E+00
      8.067  0.0000E+00  0.0000E+00  0.0000E+00
      8.170  0.0000E+00  0.0000E+00  0.0000E+00
      8.272  0.0000E+00  0.0000E+00  0.0000E+00
      8.375  0.0000E+00  0.0000E+00  0.0000E+00
      8.478  0.0000E+00  0.0000E+00  0.0000E+00
      8.580  0.0000E+00  0.0000E+00  0.0000E+00
      8.683  0.0000E+00  0.0000E+00  0.0000E+00
      8.785  0.0000E+00  0.0000E+00  0.0000E+00
      8.78531025    -21.98624210  301      0.70777775      1.00000000
    -21.986  0.0000E+00  0.0000E+00  0.0000E+00
    -21.884  0.0000E+00  0.0000E+00  0.0000E+00
    -21.781  0.0000E+00  0.0000E+00  0.0000E+00
    -21.679  0.0000E+00  0.0000E+00  0.0000E+00
    -21.576  0.0000E+00  0.0000E+00  0.0000E+00
    -21.473  0.0000E+00  0.0000E+00  0.0000E+00
    -21.371  0.0000E+00  0.0000E+00  0.0000E+00
    -21.268  0.0000E+00  0.0000E+00  0.0000E+00
    -21.166  0.0000E+00  0.0000E+00  0.0000E+00
    -21.063  0.0000E+00  0.0000E+00  0.0000E+00
    -20.961  0.0000E+00  0.0000E+00  0.0000E+00
    -20.858  0.0000E+00  0.0000E+00  0.0000E+00
    -20.755  0.0000E+00  0.0000E+00  0.0000E+00
    -20.653  0.0000E+00  0.0000E+00  0.0000E+00
    -20.550  0.1730E+02  0.8571E-05  0.2631E-05
    -20.448  0.0000E+00  0.0000E+00  0.0000E+00
    -20.345  0.0000E+00  0.0000E+00  0.0000E+00
    -20.243  0.0000E+00  0.0000E+00  0.0000E+00
    -20.140  0.0000E+00  0.0000E+00  0.0000E+00
    -20.037  0.0000E+00  0.0000E+00  0.0000E+00
    -19.935  0.0000E+00  0.0000E+00  0.0000E+00
    -19.832  0.0000E+00  0.0000E+00  0.0000E+00
    -19.730  0.0000E+00  0.0000E+00  0.0000E+00
    -19.627  0.0000E+00  0.0000E+00  0.0000E+00
    -19.525  0.0000E+00  0.0000E+00  0.0000E+00
    -19.422  0.0000E+00  0.0000E+00  0.0000E+00
    -19.319  0.0000E+00  0.0000E+00  0.0000E+00
    -19.217  0.0000E+00  0.0000E+00  0.0000E+00
    -19.114  0.0000E+00  0.0000E+00  0.0000E+00
    -19.012  0.0000E+00  0.0000E+00  0.0000E+00
    -18.909  0.0000E+00  0.0000E+00  0.0000E+00
    -18.807  0.0000E+00  0.0000E+00  0.0000E+00
    -18.704  0.0000E+00  0.0000E+00  0.0000E+00
    -18.601  0.0000E+00  0.0000E+00  0.0000E+00
    -18.499  0.0000E+00  0.0000E+00  0.0000E+00
    -18.396  0.0000E+00  0.0000E+00  0.0000E+00
    -18.294  0.0000E+00  0.0000E+00  0.0000E+00
    -18.191  0.0000E+00  0.0000E+00  0.0000E+00
    -18.089  0.0000E+00  0.0000E+00  0.0000E+00
    -17.986  0.0000E+00  0.0000E+00  0.0000E+00
    -17.883  0.0000E+00  0.0000E+00  0.0000E+00
    -17.781  0.0000E+00  0.0000E+00  0.0000E+00
    -17.678  0.0000E+00  0.0000E+00  0.0000E+00
    -17.576  0.0000E+00  0.0000E+00  0.0000E+00
    -17.473  0.0000E+00  0.0000E+00  0.0000E+00
    -17.371  0.0000E+00  0.0000E+00  0.0000E+00
    -17.268  0.0000E+00  0.0000E+00  0.0000E+00
    -17.165  0.0000E+00  0.0000E+00  0.0000E+00
    -17.063  0.0000E+00  0.0000E+00  0.0000E+00
    -16.960  0.0000E+00  0.0000E+00  0.0000E+00
    -16.858  0.0000E+00  0.0000E+00  0.0000E+00
    -16.755  0.0000E+00  0.0000E+00  0.0000E+00
    -16.653  0.0000E+00  0.0000E+00  0.0000E+00
    -16.550  0.0000E+00  0.0000E+00  0.0000E+00
    -16.447  0.0000E+00  0.0000E+00  0.0000E+00
    -16.345  0.7116E-14  0.3957E-13  0.7391E-14
    -16.242  0.1516E-03  0.1072E-03  0.2556E-04
    -16.140  0.1463E-04  0.1345E-04  0.1264E-05
    -16.037  0.0000E+00  0.0000E+00  0.0000E+00
    -15.935  0.0000E+00  0.0000E+00  0.0000E+00
    -15.832  0.0000E+00  0.0000E+00  0.0000E+00
    -15.729  0.0000E+00  0.0000E+00  0.0000E+00
    -15.627  0.0000E+00  0.0000E+00  0.0000E+00
    -15.524  0.0000E+00  0.0000E+00  0.0000E+00
    -15.422  0.0000E+00  0.0000E+00  0.0000E+00
    -15.319  0.0000E+00  0.0000E+00  0.0000E+00
    -15.217  0.0000E+00  0.0000E+00  0.0000E+00
    -15.114  0.0000E+00  0.0000E+00  0.0000E+00
    -15.011  0.0000E+00  0.0000E+00  0.0000E+00
    -14.909  0.0000E+00  0.0000E+00  0.0000E+00
    -14.806  0.0000E+00  0.0000E+00  0.0000E+00
    -14.704  0.0000E+00  0.0000E+00  0.0000E+00
    -14.601  0.0000E+00  0.0000E+00  0.0000E+00
    -14.498  0.0000E+00  0.0000E+00  0.0000E+00
    -14.396  0.0000E+00  0.0000E+00  0.0000E+00
    -14.293  0.4992E-16  0.2810E-18  0.6490E-19
    -14.191  0.1320E-02  0.1935E-03  0.4032E-05
    -14.088  0.3994E-02  0.2492E-02  0.7085E-04
    -13.986  0.1134E-02  0.8045E-02  0.2762E-03
    -13.883  0.1786E-02  0.4717E-02  0.4220E-03
    -13.780  0.1797E-02  0.5103E-02  0.6982E-03
    -13.678  0.1525E-02  0.3679E-02  0.4954E-03
    -13.575  0.7465E-03  0.1405E-02  0.1856E-03
    -13.473  0.0000E+00  0.0000E+00  0.0000E+00
    -13.370  0.0000E+00  0.0000E+00  0.0000E+00
    -13.268  0.0000E+00  0.0000E+00  0.0000E+00
    -13.165  0.0000E+00  0.0000E+00  0.0000E+00
    -13.062  0.0000E+00  0.0000E+00  0.0000E+00
    -12.960  0.0000E+00  0.0000E+00  0.0000E+00
    -12.857  0.0000E+00  0.0000E+00  0.0000E+00