       N       E                     dE             d eps       ncg     rms          rms(c)
DAV:   1     0.675171279443E+03    0.67517E+03   -0.56426E+04  1824   0.929E+02
DAV:   2    -0.570206576288E+03   -0.12454E+04   -0.11872E+04  2144   0.287E+02
DAV:   3    -0.748650268583E+03   -0.17844E+03   -0.17722E+03  2440   0.129E+02
DAV:   4    -0.754443063932E+03   -0.57928E+01   -0.57732E+01  2176   0.303E+01
DAV:   5    -0.754712409388E+03   -0.26935E+00   -0.26916E+00  2392   0.527E+00    0.720E+00
DAV:   6    -0.715001094971E+03    0.39711E+02   -0.11777E+01  2376   0.282E+01    0.512E+00
DAV:   7    -0.714772502778E+03    0.22859E+00   -0.37656E+00  2256   0.485E+00    0.259E+00
DAV:   8    -0.714863519523E+03   -0.91017E-01   -0.17953E-01  2160   0.170E+00    0.148E+00
DAV:   9    -0.714900793601E+03   -0.37274E-01   -0.74167E-02  2000   0.115E+00    0.320E-01
DAV:  10    -0.714901476452E+03   -0.68285E-03   -0.43401E-03  2536   0.313E-01    0.179E-01
DAV:  11    -0.714902755372E+03   -0.12789E-02   -0.14928E-03  2008   0.157E-01    0.647E-02
DAV:  12    -0.714902839258E+03   -0.83886E-04   -0.42016E-04  2224   0.887E-02    0.226E-02
DAV:  13    -0.714902840726E+03   -0.14673E-05   -0.40213E-05  2240   0.245E-02    0.711E-03
DAV:  14    -0.714902853803E+03   -0.13077E-04   -0.32238E-06  1864   0.600E-03    0.217E-03
DAV:  15    -0.714902856710E+03   -0.29071E-05   -0.90292E-07  1336   0.349E-03    0.122E-03
DAV:  16    -0.714902856404E+03    0.30610E-06   -0.17003E-07  1216   0.174E-03
   1 F= -.71490286E+03 E0= -.71490286E+03  d E =-.409612E-16
