 vasp.5.4.4.18Apr17-6-g9f103f2a35 (build Jun 22 2020 09:27:21) complex           
 executed on tx2_gcc-7.3_libsci-1 date 2021.09.20  15:14:56
 running on   64 total cores
 distrk:  each k-point on   64 cores,    1 groups
 distr:  one band on NCORES_PER_BAND=   8 cores,    8 groups


--------------------------------------------------------------------------------------------------------


 INCAR:
 POTCAR:    PAW_PBE Cs_sv 08Apr2002               
 POTCAR:    PAW_PBE Pb_d 06Sep2000                
 POTCAR:    PAW_PBE Br 06Sep2000                  
 POTCAR:    PAW_PBE Cs_sv 08Apr2002               
   SHA256 =  c1463496f0f6037ed62c6012a8013a89ee9ad6ffb38599dcd6c079e7ed31779b Cs
   COPYR  = (c) Copyright 08Apr2002 Georg Kresse                                
   COPYR  = This file is part of the software VASP. Any use, copying, and all ot
   COPYR  = If you do not have a valid VASP license, you may not use, copy or di
   VRHFIN =Cs: 5s5p6s                                                           
   LEXCH  = PE                                                                  
   EATOM  =   555.6835 eV,   40.8416 Ry                                         
                                                                                
   TITEL  = PAW_PBE Cs_sv 08Apr2002                                             
   LULTRA =        F    use ultrasoft PP ?                                      
   IUNSCR =        1    unscreen: 0-lin 1-nonlin 2-no                           
   RPACOR =    2.200    partial core radius                                     
   POMASS =  132.900; ZVAL   =    9.000    mass and valenz                      
   RCORE  =    2.500    outmost cutoff radius                                   
   RWIGS  =    2.500; RWIGS  =    1.323    wigner-seitz radius (au A)           
   ENMAX  =  220.318; ENMIN  =  165.238 eV                                      
   RCLOC  =    2.207    cutoff for local pot                                    
   LCOR   =        T    correct aug charges                                     
   LPAW   =        T    paw PP                                                  
   EAUG   =  407.933                                                            
   DEXC   =    0.000                                                            
   RMAX   =    2.554    core radius for proj-oper                               
   RAUG   =    1.300    factor for augmentation sphere                          
   RDEP   =    2.590    radius for radial grids                                 
   RDEPT  =    2.117    core radius for aug-charge                              
                                                                                
   Atomic configuration                                                         
   13 entries                                                                   
     n  l   j            E        occ.                                          
     1  0  0.50    -35790.1377   2.0000                                         
     2  0  0.50     -5613.6201   2.0000                                         
     2  1  1.50     -5035.0101   6.0000                                         
     3  0  0.50     -1167.0767   2.0000                                         
     3  1  1.50      -980.9754   6.0000                                         
     3  2  2.50      -708.0703  10.0000                                         
     4  0  0.50      -220.2386   2.0000                                         
     4  1  1.50      -160.7596   6.0000                                         
     4  2  2.50       -74.2354  10.0000                                         
     5  0  0.50       -26.7287   2.0000                                         
     6  0  0.50        -2.0862   1.0000                                         
     5  1  1.50       -13.5159   6.0000                                         
     5  2  2.50        -0.4136   0.0000                                         
   Description                                                                  
     l       E           TYP  RCUT    TYP  RCUT                                 
     0    -26.7287425     23  1.900                                             
     0     -2.0862306     23  1.900                                             
     1    -13.5158719     23  2.500                                             
     1     -2.7211652     23  2.500                                             
     2     -0.4136171     23  2.500                                             
  local pseudopotential read in
  partial core-charges read in
  partial kinetic energy density read in
  atomic valenz-charges read in
  non local Contribution for L=           0  read in
    real space projection operators read in
  non local Contribution for L=           0  read in
    real space projection operators read in
  non local Contribution for L=           1  read in
    real space projection operators read in
  non local Contribution for L=           1  read in
    real space projection operators read in
  non local Contribution for L=           2  read in
    real space projection operators read in
    PAW grid and wavefunctions read in

   number of l-projection  operators is LMAX  =           5
   number of lm-projection operators is LMMAX =          13

 POTCAR:    PAW_PBE Pb_d 06Sep2000                
   SHA256 =  fb885b08f0fba73a15f6a6b0e39bd200c13ec96ef97cf3ecd8e63bade5137abd Pb
   COPYR  = (c) Copyright 06Sep2000 Georg Kresse                                
   COPYR  = This file is part of the software VASP. Any use, copying, and all ot
   COPYR  = If you do not have a valid VASP license, you may not use, copy or di
   VRHFIN =Pb:                                                                  
   LEXCH  = PE                                                                  
   EATOM  =  1661.6185 eV,  122.1255 Ry                                         
                                                                                
   TITEL  = PAW_PBE Pb_d 06Sep2000                                              
   LULTRA =        F    use ultrasoft PP ?                                      
   IUNSCR =        1    unscreen: 0-lin 1-nonlin 2-no                           
   RPACOR =    2.200    partial core radius                                     
   POMASS =  207.200; ZVAL   =   14.000    mass and valenz                      
   RCORE  =    2.500    outmost cutoff radius                                   
   RWIGS  =    3.260; RWIGS  =    1.725    wigner-seitz radius (au A)           
   ENMAX  =  237.835; ENMIN  =  178.376 eV                                      
   ICORE  =        3    local potential                                         
   LCOR   =        T    correct aug charges                                     
   LPAW   =        T    paw PP                                                  
   EAUG   =  391.914                                                            
   DEXC   =    0.000                                                            
   RMAX   =    2.565    core radius for proj-oper                               
   RAUG   =    1.300    factor for augmentation sphere                          
   RDEP   =    2.643    radius for radial grids                                 
   RDEPT  =    2.092    core radius for aug-charge                              
                                                                                
   Atomic configuration                                                         
   16 entries                                                                   
     n  l   j            E        occ.                                          
     1  0  0.50    -88091.8466   2.0000                                         
     2  0  0.50    -15753.4197   2.0000                                         
     2  1  1.50    -13508.1797   6.0000                                         
     3  0  0.50     -3781.7194   2.0000                                         
     3  1  1.50     -3138.2529   6.0000                                         
     3  2  2.50     -2483.2977  10.0000                                         
     4  0  0.50      -856.2895   2.0000                                         
     4  1  1.50      -645.4942   6.0000                                         
     4  2  2.50      -401.8768  10.0000                                         
     4  3  3.50      -132.9059  14.0000                                         
     5  0  0.50      -144.0950   2.0000                                         
     5  1  1.50       -85.7879   6.0000                                         
     5  2  2.50       -21.1769  10.0000                                         
     6  0  0.50       -12.0372   2.0000                                         
     6  1  1.50        -3.4971   2.0000                                         
     5  3  2.50        -2.7212   0.0000                                         
   Description                                                                  
     l       E           TYP  RCUT    TYP  RCUT                                 
     2    -21.1768523     23  2.500                                             
     2      1.3605826     23  2.500                                             
     0    -12.0371562     23  2.500                                             
     0     13.6058260     23  2.500                                             
     1     -3.4971339     23  2.500                                             
     1     13.6058260     23  2.500                                             
     3     -1.3605826      7  2.500                                             
  local pseudopotential read in
  partial core-charges read in
  partial kinetic energy density read in
  atomic valenz-charges read in
  non local Contribution for L=           2  read in
    real space projection operators read in
  non local Contribution for L=           2  read in
    real space projection operators read in
  non local Contribution for L=           0  read in
    real space projection operators read in
  non local Contribution for L=           0  read in
    real space projection operators read in
  non local Contribution for L=           1  read in
    real space projection operators read in
  non local Contribution for L=           1  read in
    real space projection operators read in
    PAW grid and wavefunctions read in

   number of l-projection  operators is LMAX  =           6
   number of lm-projection operators is LMMAX =          18

 POTCAR:    PAW_PBE Br 06Sep2000                  
   SHA256 =  96a73d2954943bbee26f4990d676cc6c3bf44b8dd2c75cd4b3b825d8403f0103 Br
   COPYR  = (c) Copyright 06Sep2000 Georg Kresse                                
   COPYR  = This file is part of the software VASP. Any use, copying, and all ot
   COPYR  = If you do not have a valid VASP license, you may not use, copy or di
   VRHFIN =Br: s2p5                                                             
   LEXCH  = PE                                                                  
   EATOM  =   368.4488 eV,   27.0802 Ry                                         
                                                                                
   TITEL  = PAW_PBE Br 06Sep2000                                                
   LULTRA =        F    use ultrasoft PP ?                                      
   IUNSCR =        1    unscreen: 0-lin 1-nonlin 2-no                           
   RPACOR =    1.900    partial core radius                                     
   POMASS =   79.904; ZVAL   =    7.000    mass and valenz                      
   RCORE  =    2.100    outmost cutoff radius                                   
   RWIGS  =    2.200; RWIGS  =    1.164    wigner-seitz radius (au A)           
   ENMAX  =  216.285; ENMIN  =  162.214 eV                                      
   ICORE  =        3    local potential                                         
   LCOR   =        T    correct aug charges                                     
   LPAW   =        T    paw PP                                                  
   EAUG   =  503.852                                                            
   DEXC   =    0.000                                                            
   RMAX   =    2.139    core radius for proj-oper                               
   RAUG   =    1.300    factor for augmentation sphere                          
   RDEP   =    2.186    radius for radial grids                                 
   RDEPT  =    1.890    core radius for aug-charge                              
                                                                                
   Atomic configuration                                                         
   10 entries                                                                   
     n  l   j            E        occ.                                          
     1  0  0.50    -13316.2796   2.0000                                         
     2  0  0.50     -1732.8239   2.0000                                         
     2  1  1.50     -1528.2193   6.0000                                         
     3  0  0.50      -238.0460   2.0000                                         
     3  1  1.50      -173.4609   6.0000                                         
     3  2  2.50       -66.7132  10.0000                                         
     4  0  0.50       -20.1334   2.0000                                         
     4  1  0.50        -7.8591   5.0000                                         
     4  2  2.50        -8.1635   0.0000                                         
     4  3  2.50        -8.1635   0.0000                                         
   Description                                                                  
     l       E           TYP  RCUT    TYP  RCUT                                 
     0    -20.1333652     23  2.100                                             
     0    -21.4939478     23  2.100                                             
     1     -7.8591052     23  2.100                                             
     1     -3.1608434     23  2.100                                             
     2     -8.1634956     23  2.100                                             
     3     -1.3605826      7  2.100                                             
  local pseudopotential read in
  partial core-charges read in
  partial kinetic energy density read in
  atomic valenz-charges read in
  non local Contribution for L=           0  read in
    real space projection operators read in
  non local Contribution for L=           0  read in
    real space projection operators read in
  non local Contribution for L=           1  read in
    real space projection operators read in
  non local Contribution for L=           1  read in
    real space projection operators read in
  non local Contribution for L=           2  read in
    real space projection operators read in
    PAW grid and wavefunctions read in

   number of l-projection  operators is LMAX  =           5
   number of lm-projection operators is LMMAX =          13

 Optimization of the real space projectors (new method)

 maximal supplied QI-value         = 15.12
 optimisation between [QCUT,QGAM] = [  8.77, 17.69] = [ 21.53, 87.61] Ry 
 Optimized for a Real-space Cutoff    1.85 Angstroem

   l    n(q)    QCUT    max X(q) W(low)/X(q) W(high)/X(q)  e(spline) 
   0     10     8.768    25.322    0.81E-04    0.51E-04    0.48E-06
   0     10     8.768    99.187    0.78E-04    0.50E-04    0.47E-06
   1      9     8.768    11.761    0.21E-03    0.20E-03    0.37E-06
   1      9     8.768     8.275    0.24E-03    0.22E-03    0.41E-06
   2      9     8.768     3.829    0.23E-04    0.15E-03    0.18E-06
 Optimization of the real space projectors (new method)

 maximal supplied QI-value         = 15.12
 optimisation between [QCUT,QGAM] = [  8.77, 17.69] = [ 21.53, 87.61] Ry 
 Optimized for a Real-space Cutoff    1.59 Angstroem

   l    n(q)    QCUT    max X(q) W(low)/X(q) W(high)/X(q)  e(spline) 
   2      7     8.768     3.846    0.48E-04    0.11E-03    0.11E-06
   2      7     8.768     8.593    0.20E-03    0.22E-04    0.24E-06
   0      8     8.768    20.082    0.68E-04    0.88E-04    0.41E-07
   0      8     8.768     8.597    0.89E-04    0.13E-03    0.59E-07
   1      8     8.768    33.223    0.15E-03    0.53E-04    0.87E-07
   1      8     8.768    15.899    0.14E-03    0.44E-04    0.78E-07
 Optimization of the real space projectors (new method)

 maximal supplied QI-value         = 17.95
 optimisation between [QCUT,QGAM] = [  8.80, 17.59] = [ 21.67, 86.68] Ry 
 Optimized for a Real-space Cutoff    1.59 Angstroem

   l    n(q)    QCUT    max X(q) W(low)/X(q) W(high)/X(q)  e(spline) 
   0      8     8.797   175.082    0.82E-04    0.14E-03    0.89E-07
   0      8     8.797   174.004    0.79E-04    0.14E-03    0.86E-07
   1      8     8.797    54.315    0.16E-03    0.14E-04    0.30E-06
   1      8     8.797    42.441    0.16E-03    0.14E-04    0.30E-06
   2      7     8.797     3.596    0.92E-04    0.15E-03    0.85E-07
  PAW_PBE Cs_sv 08Apr2002               :
 energy of atom  1       EATOM= -555.6835
 kinetic energy error for atom=    0.0069 (will be added to EATOM!!)
  PAW_PBE Pb_d 06Sep2000                :
 energy of atom  2       EATOM=-1661.6185
 kinetic energy error for atom=    0.0498 (will be added to EATOM!!)
  PAW_PBE Br 06Sep2000                  :
 energy of atom  3       EATOM= -368.4488
 kinetic energy error for atom=    0.0072 (will be added to EATOM!!)


 POSCAR: Cs4 Pb4 Br12                            
  positions in direct lattice
  velocities in cartesian coordinates

 METAGGA = SCAN     LMAXTAU =  6    LMIXTAU =  F

 exchange correlation table for  LEXCH =        8
   RHO(1)=    0.500       N(1)  =     2000
   RHO(2)=  100.500       N(2)  =     4000

 VTST: version 3.2, (02/03/18)

 CHAIN: initializing optimizer
 
 OPT: Using VASP Conjugate-Gradient optimizer
 CHAIN: Read ICHAIN            0

 POSCAR: Cs4 Pb4 Br12                            
  positions in direct lattice
  velocities in cartesian coordinates



--------------------------------------------------------------------------------------------------------


 ion  position               nearest neighbor table
   1  0.069  0.250  0.477-
   2  0.431  0.750  0.977-
   3  0.569  0.250  0.023-
   4  0.931  0.750  0.523-
   5  0.000  0.000  0.000-  10 2.98  11 2.98  15 2.99  18 2.99  17 2.99  16 2.99
   6  0.500  0.000  0.500-   9 2.98  12 2.98  16 2.99  17 2.99  15 2.99  18 2.99
   7  0.500  0.500  0.500-   9 2.98  12 2.98  13 2.99  19 2.99  14 2.99  20 2.99
   8  0.000  0.500  0.000-  10 2.98  11 2.98  14 2.99  20 2.99  19 2.99  13 2.99
   9  0.503  0.750  0.433-   6 2.98   7 2.98
  10  0.997  0.250  0.933-   5 2.98   8 2.98
  11  0.003  0.750  0.067-   5 2.98   8 2.98
  12  0.497  0.250  0.567-   6 2.98   7 2.98
  13  0.302  0.466  0.192-   7 2.99   8 2.99
  14  0.198  0.534  0.692-   8 2.99   7 2.99
  15  0.802  0.034  0.308-   5 2.99   6 2.99
  16  0.698  0.966  0.808-   6 2.99   5 2.99
  17  0.302  0.034  0.192-   6 2.99   5 2.99
  18  0.198  0.966  0.692-   5 2.99   6 2.99
  19  0.698  0.534  0.808-   7 2.99   8 2.99
  20  0.802  0.466  0.308-   8 2.99   7 2.99

  LATTYP: Found a simple orthorhombic cell.
 ALAT       =     7.9484543141
 B/A-ratio  =     1.0582939512
 C/A-ratio  =     1.4753743720
  
  Lattice vectors:
  
 A1 = (   0.0000000000,   0.0000000000,   7.9484543141)
 A2 = (  -8.4118011224,   0.0000000000,  -0.0000000000)
 A3 = (   0.0000000000, -11.7269457921,   0.0000000000)


Analysis of symmetry for initial positions (statically):
=====================================================================
 Subroutine PRICEL returns:
 Original cell was already a primitive cell.
 

 Routine SETGRP: Setting up the symmetry group for a 
 simple orthorhombic supercell.


 Subroutine GETGRP returns: Found  8 space group operations
 (whereof  2 operations were pure point group operations)
 out of a pool of  8 trial point group operations.


The static configuration has the point symmetry S_2 .
 The point group associated with its full space group is D_2h.


Analysis of symmetry for dynamics (positions and initial velocities):
=====================================================================
 Subroutine PRICEL returns:
 Original cell was already a primitive cell.
 

 Routine SETGRP: Setting up the symmetry group for a 
 simple orthorhombic supercell.


 Subroutine GETGRP returns: Found  8 space group operations
 (whereof  2 operations were pure point group operations)
 out of a pool of  8 trial point group operations.


The dynamic configuration has the point symmetry S_2 .
 The point group associated with its full space group is D_2h.


 Subroutine INISYM returns: Found  8 space group operations
 (whereof  2 operations are pure point group operations),
 and found     1 'primitive' translations



 KPOINTS: 1x1x1                                   

Automatic generation of k-mesh.
Space group operators:
 irot       det(A)        alpha          n_x          n_y          n_z        tau_x        tau_y        tau_z
    1     1.000000     0.000000     1.000000     0.000000     0.000000     0.000000     0.000000     0.000000
    2    -1.000000     0.000000     1.000000     0.000000     0.000000     0.000000     0.000000     0.000000
    3     1.000000   180.000000     0.000000     1.000000     0.000000     0.000000    -0.500000     0.000000
    4    -1.000000   180.000000     0.000000     1.000000     0.000000     0.000000    -0.500000     0.000000
    5     1.000000   179.999999     1.000000     0.000000     0.000000    -0.500000    -0.500000     0.500000
    6    -1.000000   179.999999     1.000000     0.000000     0.000000    -0.500000    -0.500000     0.500000
    7     1.000000   180.000000    -0.000000     0.000000     1.000000    -0.500000     0.000000     0.500000
    8    -1.000000   180.000000    -0.000000     0.000000     1.000000    -0.500000     0.000000     0.500000
 
 Subroutine IBZKPT returns following result:
 ===========================================
 
 Found      8 irreducible k-points:
 
 Following reciprocal coordinates:
            Coordinates               Weight
  0.000000  0.000000  0.000000      1.000000
  0.333333  0.000000  0.000000      2.000000
  0.000000  0.500000  0.000000      1.000000
  0.333333  0.500000  0.000000      2.000000
  0.000000  0.000000  0.333333      2.000000
  0.333333  0.000000  0.333333      4.000000
  0.000000  0.500000  0.333333      2.000000
  0.333333  0.500000  0.333333      4.000000
 
 Following cartesian coordinates:
            Coordinates               Weight
  0.000000  0.000000  0.000000      1.000000
  0.039627  0.000000  0.000000      2.000000
  0.000000  0.042637  0.000000      1.000000
  0.039627  0.042637  0.000000      2.000000
  0.000000  0.000000  0.041937      2.000000
  0.039627  0.000000  0.041937      4.000000
  0.000000  0.042637  0.041937      2.000000
  0.039627  0.042637  0.041937      4.000000
 


--------------------------------------------------------------------------------------------------------




 Dimension of arrays:
   k-points           NKPTS =      8   k-points in BZ     NKDIM =      8   number of bands    NBANDS=    112
   number of dos      NEDOS =    301   number of ions     NIONS =     20
   non local maximal  LDIM  =      6   non local SUM 2l+1 LMDIM =     18
   total plane-waves  NPLWV = 161280
   max r-space proj   IRMAX =   5487   max aug-charges    IRDMAX=  87556
   dimension x,y,z NGX =    48 NGY =   70 NGZ =   48
   dimension x,y,z NGXF=    96 NGYF=  140 NGZF=   96
   support grid    NGXF=   192 NGYF=  280 NGZF=  192
   ions per type =               4   4  12
   NGX,Y,Z   is equivalent  to a cutoff of   9.49,  9.92, 10.04 a.u.
   NGXF,Y,Z  is equivalent  to a cutoff of  18.97, 19.85, 20.08 a.u.

 SYSTEM =  CsPbBr3 cubic bulk                      
 POSCAR =  Cs4 Pb4 Br12                            

 Startparameter for this run:
   NWRITE =      2    write-flag & timer
   PREC   = accura    normal or accurate (medium, high low for compatibility)
   ISTART =      0    job   : 0-new  1-cont  2-samecut
   ICHARG =      2    charge: 1-file 2-atom 10-const
   ISPIN  =      1    spin polarized calculation?
   LNONCOLLINEAR =      F non collinear calculations
   LSORBIT =      F    spin-orbit coupling
   INIWAV =      1    electr: 0-lowe 1-rand  2-diag
   LASPH  =      T    aspherical Exc in radial PAW
   METAGGA=      F    non-selfconsistent MetaGGA calc.

 Electronic Relaxation 1
   ENCUT  =  300.0 eV  22.05 Ry    4.70 a.u.  11.88 16.56 11.23*2*pi/ulx,y,z
   ENINI  =  300.0     initial cutoff
   ENAUG  =  503.9 eV  augmentation charge cutoff
   NELM   =    200;   NELMIN=  2; NELMDL=  0     # of ELM steps 
   EDIFF  = 0.1E-05   stopping-criterion for ELM
   LREAL  =      T    real-space projection
   NLSPLINE    = F    spline interpolate recip. space projectors
   LCOMPAT=      F    compatible to vasp.4.4
   GGA_COMPAT  = T    GGA compatible to vasp.4.4-vasp.4.6
   LMAXPAW     = -100 max onsite density
   LMAXMIX     =    2 max onsite mixed and CHGCAR
   VOSKOWN=      0    Vosko Wilk Nusair interpolation
   ROPT   =   -0.00025  -0.00025  -0.00025
 Ionic relaxation
   EDIFFG = -.1E-01   stopping-criterion for IOM
   NSW    =      0    number of steps for IOM
   NBLOCK =      1;   KBLOCK =      1    inner block; outer block 
   IBRION =     -1    ionic relax: 0-MD 1-quasi-New 2-CG
   NFREE  =      1    steps in history (QN), initial steepest desc. (CG)
   ISIF   =      3    stress and relaxation
   IWAVPR =     10    prediction:  0-non 1-charg 2-wave 3-comb
   ISYM   =      2    0-nonsym 1-usesym 2-fastsym
   LCORR  =      T    Harris-Foulkes like correction to forces

   POTIM  = 0.5000    time-step for ionic-motion
   TEIN   =    0.0    initial temperature
   TEBEG  =    0.0;   TEEND  =   0.0 temperature during run
   SMASS  =  -3.00    Nose mass-parameter (am)
   estimated Nose-frequenzy (Omega)   =  0.10E-29 period in steps =****** mass=  -0.162E-26a.u.
   SCALEE = 1.0000    scale energy and forces
   NPACO  =    256;   APACO  = 16.0  distance and # of slots for P.C.
   PSTRESS=    0.0 pullay stress

  Mass of Ions in am
   POMASS = 132.90207.20 79.90
  Ionic Valenz
   ZVAL   =   9.00 14.00  7.00
  Atomic Wigner-Seitz radii
   RWIGS  =  -1.00 -1.00 -1.00
  virtual crystal weights 
   VCA    =   1.00  1.00  1.00
   NELECT =     176.0000    total number of electrons
   NUPDOWN=      -1.0000    fix difference up-down

 DOS related values:
   EMIN   =  10.00;   EMAX   =-10.00  energy-range for DOS
   EFERMI =   0.00
   ISMEAR =     0;   SIGMA  =   0.01  broadening in eV -4-tet -1-fermi 0-gaus

 Electronic relaxation 2 (details)
   IALGO  =     38    algorithm
   LDIAG  =      T    sub-space diagonalisation (order eigenvalues)
   LSUBROT=      F    optimize rotation matrix (better conditioning)
   TURBO    =      0    0=normal 1=particle mesh
   IRESTART =      0    0=no restart 2=restart with 2 vectors
   NREBOOT  =      0    no. of reboots
   NMIN     =      0    reboot dimension
   EREF     =   0.00    reference energy to select bands
   IMIX   =      4    mixing-type and parameters
     AMIX     =   0.40;   BMIX     =  1.00
     AMIX_MAG =   1.60;   BMIX_MAG =  1.00
     AMIN     =   0.10
     WC   =   100.;   INIMIX=   1;  MIXPRE=   1;  MAXMIX= -45

 Intra band minimization:
   WEIMIN = 0.0000     energy-eigenvalue tresh-hold
   EBREAK =  0.22E-08  absolut break condition
   DEPER  =   0.30     relativ break condition  

   TIME   =   0.40     timestep for ELM

  volume/ion in A,a.u.               =      39.20       264.56
  Fermi-wavevector in a.u.,A,eV,Ry     =   0.994932  1.880149 13.468274  0.989890
  Thomas-Fermi vector in A             =   2.126918

 Write flags
   LWAVE        =      F    write WAVECAR
   LDOWNSAMPLE  =      F    k-point downsampling of WAVECAR
   LCHARG       =      T    write CHGCAR
   LVTOT        =      F    write LOCPOT, total local potential
   LVHAR        =      T    write LOCPOT, Hartree potential only
   LELF         =      F    write electronic localiz. function (ELF)
   LORBIT       =     10    0 simple, 1 ext, 2 COOP (PROOUT), +10 PAW based schemes


 Dipole corrections
   LMONO  =      F    monopole corrections only (constant potential shift)
   LDIPOL =      F    correct potential (dipole corrections)
   IDIPOL =      0    1-x, 2-y, 3-z, 4-all directions 
   EPSILON=  1.0000000 bulk dielectric constant

 Exchange correlation treatment:
   GGA     =    --    GGA type
   LEXCH   =     8    internal setting for exchange type
   VOSKOWN=      0    Vosko Wilk Nusair interpolation
   LHFCALC =     F    Hartree Fock is set to
   LHFONE  =     F    Hartree Fock one center treatment
   AEXX    =    0.0000 exact exchange contribution

 Linear response parameters
   LEPSILON=     F    determine dielectric tensor
   LRPA    =     F    only Hartree local field effects (RPA)
   LNABLA  =     F    use nabla operator in PAW spheres
   LVEL    =     F    velocity operator in full k-point grid
   LINTERFAST=   F  fast interpolation
   KINTER  =     0    interpolate to denser k-point grid
   CSHIFT  =0.1000    complex shift for real part using Kramers Kronig
   OMEGAMAX=  -1.0    maximum frequency
   DEG_THRESHOLD= 0.2000000E-02 threshold for treating states as degnerate
   RTIME   =   -0.100 relaxation time in fs
  (WPLASMAI=    0.000 imaginary part of plasma frequency in eV, 0.658/RTIME)
   DFIELD  = 0.0000000 0.0000000 0.0000000 field for delta impulse in time

 Orbital magnetization related:
   ORBITALMAG=     F  switch on orbital magnetization
   LCHIMAG   =     F  perturbation theory with respect to B field
   DQ        =  0.001000  dq finite difference perturbation B field
   LLRAUG    =     F  two centre corrections for induced B field



--------------------------------------------------------------------------------------------------------


 Static calculation
 charge density and potential will be updated during run
 non-spin polarized calculation
 Variant of blocked Davidson
 Davidson routine will perform the subspace rotation
 perform sub-space diagonalisation
    after iterative eigenvector-optimisation
 modified Broyden-mixing scheme, WC =      100.0
 initial mixing is a Kerker type mixing with AMIX =  0.4000 and BMIX =      1.0000
 Hartree-type preconditioning will be used
 using additional bands           24
 real space projection scheme for non local part
 use partial core corrections
 calculate Harris-corrections to forces   (improved forces if not selfconsistent)
 use gradient corrections 
 use of overlap-Matrix (Vanderbilt PP)
 Gauss-broadening in eV      SIGMA  =   0.01


--------------------------------------------------------------------------------------------------------


  energy-cutoff  :      300.00
  volume of cell :      784.07
      direct lattice vectors                 reciprocal lattice vectors
     8.411801122  0.000000000  0.000000000     0.118880604  0.000000000 -0.000000000
     0.000000000 11.726945792  0.000000000     0.000000000  0.085273695  0.000000000
     0.000000000  0.000000000  7.948454314    -0.000000000  0.000000000  0.125810624

  length of vectors
     8.411801122 11.726945792  7.948454314     0.118880604  0.085273695  0.125810624



 k-points in units of 2pi/SCALE and weight: 1x1x1                                   
   0.00000000  0.00000000  0.00000000       0.056
   0.03962687  0.00000000  0.00000000       0.111
   0.00000000  0.04263685  0.00000000       0.056
   0.03962687  0.04263685  0.00000000       0.111
   0.00000000  0.00000000  0.04193687       0.111
   0.03962687  0.00000000  0.04193687       0.222
   0.00000000  0.04263685  0.04193687       0.111
   0.03962687  0.04263685  0.04193687       0.222

 k-points in reciprocal lattice and weights: 1x1x1                                   
   0.00000000  0.00000000  0.00000000       0.056
   0.33333333  0.00000000  0.00000000       0.111
   0.00000000  0.50000000  0.00000000       0.056
   0.33333333  0.50000000  0.00000000       0.111
   0.00000000  0.00000000  0.33333333       0.111
   0.33333333  0.00000000  0.33333333       0.222
   0.00000000  0.50000000  0.33333333       0.111
   0.33333333  0.50000000  0.33333333       0.222

 position of ions in fractional coordinates (direct lattice) 
   0.06906683  0.25000000  0.47687365
   0.43093317  0.75000000  0.97687365
   0.56906683  0.25000000  0.02312635
   0.93093317  0.75000000  0.52312635
   0.00000000  0.00000000  0.00000000
   0.50000000  0.00000000  0.50000000
   0.50000000  0.50000000  0.50000000
   0.00000000  0.50000000  0.00000000
   0.50345581  0.75000000  0.43328244
   0.99654419  0.25000000  0.93328244
   0.00345581  0.75000000  0.06671756
   0.49654419  0.25000000  0.56671756
   0.30234455  0.46552137  0.19184867
   0.19765545  0.53447863  0.69184867
   0.80234455  0.03447863  0.30815133
   0.69765545  0.96552137  0.80815133
   0.30234455  0.03447863  0.19184867
   0.19765545  0.96552137  0.69184867
   0.69765545  0.53447863  0.80815133
   0.80234455  0.46552137  0.30815133

 position of ions in cartesian coordinates  (Angst):
   0.58097648  2.93173645  3.79040842
   3.62492408  8.79520934  7.76463558
   4.78687704  2.93173645  0.18381874
   7.83082464  8.79520934  4.15804590
   0.00000000  0.00000000  0.00000000
   4.20590056  0.00000000  3.97422716
   4.20590056  5.86347290  3.97422716
   0.00000000  5.86347290  0.00000000
   4.23497015  8.79520934  3.44392564
   8.38273153  2.93173645  7.41815280
   0.02906959  8.79520934  0.53030151
   4.17683097  2.93173645  4.50452867
   2.54326225  5.45914387  1.52490036
   1.66263831  6.26780192  5.49912751
   6.74916281  0.40432902  2.44932680
   5.86853887 11.32261677  6.42355396
   2.54326225  0.40432902  1.52490036
   1.66263831 11.32261677  5.49912751
   5.86853887  6.26780192  6.42355396
   6.74916281  5.45914387  2.44932680



--------------------------------------------------------------------------------------------------------


 k-point  1 :   0.0000 0.0000 0.0000  plane waves:    9265
 k-point  2 :   0.3333 0.0000 0.0000  plane waves:    9232
 k-point  3 :   0.0000 0.5000 0.0000  plane waves:    9246
 k-point  4 :   0.3333 0.5000 0.0000  plane waves:    9264
 k-point  5 :   0.0000 0.0000 0.3333  plane waves:    9250
 k-point  6 :   0.3333 0.0000 0.3333  plane waves:    9266
 k-point  7 :   0.0000 0.5000 0.3333  plane waves:    9202
 k-point  8 :   0.3333 0.5000 0.3333  plane waves:    9256

 maximum and minimum number of plane-waves per node :      1172     1137

 maximum number of plane-waves:      9266
 maximum index in each direction: 
   IXMAX=   11   IYMAX=   16   IZMAX=   11
   IXMIN=  -12   IYMIN=  -17   IZMIN=  -11


 real space projection operators:
  total allocation   :       8158.12 KBytes
  max/ min on nodes  :       1071.31        977.59


 parallel 3D FFT for wavefunctions:
    minimum data exchange during FFTs selected (reduces bandwidth)
 parallel 3D FFT for charge:
    minimum data exchange during FFTs selected (reduces bandwidth)


 total amount of memory used by VASP MPI-rank0    42379. kBytes
=======================================================================

   base      :      30000. kBytes
   nonlr-proj:       3063. kBytes
   fftplans  :       3667. kBytes
   grid      :       3424. kBytes
   one-center:         46. kBytes
   wavefun   :       2179. kBytes

     INWAV:  cpu time    0.0000: real time    0.0000
 Broyden mixing: mesh for mixing (old mesh)
   NGX = 23   NGY = 33   NGZ = 23
  (NGX  = 96   NGY  =140   NGZ  = 96)
  gives a total of  17457 points

 initial charge density was supplied:
 charge density of overlapping atoms calculated
 number of electron     176.0000000 magnetization 
 keeping initial charge density in first step


--------------------------------------------------------------------------------------------------------


 Maximum index for non-local projection operator          646
 Maximum index for augmentation-charges         2413 (set IRDMAX)


--------------------------------------------------------------------------------------------------------


 First call to EWALD:  gamma=   0.192
 Maximum number of real-space cells 3x 2x 3
 Maximum number of reciprocal cells 3x 3x 2

    FEWALD:  cpu time    0.0021: real time    0.0021


--------------------------------------- Iteration      1(   1)  ---------------------------------------


    POTLOK:  cpu time    0.1297: real time    0.1520
    SETDIJ:  cpu time    1.1562: real time    1.1563
     EDDAV:  cpu time    3.9335: real time    3.9386
       DOS:  cpu time    0.0005: real time    0.0005
    --------------------------------------------
      LOOP:  cpu time    5.2199: real time    5.2474

 eigenvalue-minimisations  :  1824
 total energy-change (2. order) : 0.6751713E+03  (-0.5642628E+04)
 number of electron     176.0000000 magnetization 
 augmentation part      176.0000000 magnetization 

 Free energy of the ion-electron system (eV)
  ---------------------------------------------------
  alpha Z        PSCENC =       460.17252594
  Ewald energy   TEWEN  =     -9311.44415736
  -Hartree energ DENC   =     -3606.85311390
  -exchange      EXHF   =         0.00000000
  -V(xc)+E(xc)   XCENC  =       462.62091320
  PAW double counting   =     10816.98087266   -11353.96092700
  entropy T*S    EENTRO =        -0.00000002
  eigenvalues    EBANDS =       -82.62493336
  atomic energy  EATOM  =     13290.28009929
  Solvation  Ediel_sol  =         0.00000000
  ---------------------------------------------------
  free energy    TOTEN  =       675.17127944 eV

  energy without entropy =      675.17127946  energy(sigma->0) =      675.17127945


--------------------------------------------------------------------------------------------------------




--------------------------------------- Iteration      1(   2)  ---------------------------------------


     EDDAV:  cpu time    4.3662: real time    4.4009
       DOS:  cpu time    0.0003: real time    0.0003
    --------------------------------------------
      LOOP:  cpu time    4.3665: real time    4.4012

 eigenvalue-minimisations  :  2144
 total energy-change (2. order) :-0.1245378E+04  (-0.1187153E+04)
 number of electron     176.0000000 magnetization 
 augmentation part      176.0000000 magnetization 

 Free energy of the ion-electron system (eV)
  ---------------------------------------------------
  alpha Z        PSCENC =       460.17252594
  Ewald energy   TEWEN  =     -9311.44415736
  -Hartree energ DENC   =     -3606.85311390
  -exchange      EXHF   =         0.00000000
  -V(xc)+E(xc)   XCENC  =       462.62091320
  PAW double counting   =     10816.98087266   -11353.96092700
  entropy T*S    EENTRO =        -0.00000000
  eigenvalues    EBANDS =     -1328.00278911
  atomic energy  EATOM  =     13290.28009929
  Solvation  Ediel_sol  =         0.00000000
  ---------------------------------------------------
  free energy    TOTEN  =      -570.20657629 eV

  energy without entropy =     -570.20657629  energy(sigma->0) =     -570.20657629


--------------------------------------------------------------------------------------------------------




--------------------------------------- Iteration      1(   3)  ---------------------------------------


     EDDAV:  cpu time    4.7660: real time    4.8213
       DOS:  cpu time    0.0003: real time    0.0003
    --------------------------------------------
      LOOP:  cpu time    4.7663: real time    4.8216

 eigenvalue-minimisations  :  2440
 total energy-change (2. order) :-0.1784437E+03  (-0.1772204E+03)
 number of electron     176.0000000 magnetization 
 augmentation part      176.0000000 magnetization 

 Free energy of the ion-electron system (eV)
  ---------------------------------------------------
  alpha Z        PSCENC =       460.17252594
  Ewald energy   TEWEN  =     -9311.44415736
  -Hartree energ DENC   =     -3606.85311390
  -exchange      EXHF   =         0.00000000
  -V(xc)+E(xc)   XCENC  =       462.62091320
  PAW double counting   =     10816.98087266   -11353.96092700
  entropy T*S    EENTRO =        -0.00000000
  eigenvalues    EBANDS =     -1506.44648140
  atomic energy  EATOM  =     13290.28009929
  Solvation  Ediel_sol  =         0.00000000
  ---------------------------------------------------
  free energy    TOTEN  =      -748.65026858 eV

  energy without entropy =     -748.65026858  energy(sigma->0) =     -748.65026858


--------------------------------------------------------------------------------------------------------




--------------------------------------- Iteration      1(   4)  ---------------------------------------


     EDDAV:  cpu time    4.4203: real time    4.4603
       DOS:  cpu time    0.0003: real time    0.0003
    --------------------------------------------
      LOOP:  cpu time    4.4206: real time    4.4606

 eigenvalue-minimisations  :  2176
 total energy-change (2. order) :-0.5792795E+01  (-0.5773247E+01)
 number of electron     176.0000000 magnetization 
 augmentation part      176.0000000 magnetization 

 Free energy of the ion-electron system (eV)
  ---------------------------------------------------
  alpha Z        PSCENC =       460.17252594
  Ewald energy   TEWEN  =     -9311.44415736
  -Hartree energ DENC   =     -3606.85311390
  -exchange      EXHF   =         0.00000000
  -V(xc)+E(xc)   XCENC  =       462.62091320
  PAW double counting   =     10816.98087266   -11353.96092700
  entropy T*S    EENTRO =        -0.00000000
  eigenvalues    EBANDS =     -1512.23927675
  atomic energy  EATOM  =     13290.28009929
  Solvation  Ediel_sol  =         0.00000000
  ---------------------------------------------------
  free energy    TOTEN  =      -754.44306393 eV

  energy without entropy =     -754.44306393  energy(sigma->0) =     -754.44306393


--------------------------------------------------------------------------------------------------------




--------------------------------------- Iteration      1(   5)  ---------------------------------------


     EDDAV:  cpu time    4.7049: real time    4.7425
       DOS:  cpu time    0.0007: real time    0.0007
    CHARGE:  cpu time    0.8670: real time    0.8671
    MIXING:  cpu time    0.0006: real time    0.0006
    --------------------------------------------
      LOOP:  cpu time    5.5732: real time    5.6109

 eigenvalue-minimisations  :  2392
 total energy-change (2. order) :-0.2693455E+00  (-0.2691644E+00)
 number of electron     176.0000001 magnetization 
 augmentation part       -3.2607530 magnetization 

 Broyden mixing:
  rms(total) = 0.72003E+00    rms(broyden)= 0.71979E+00
  rms(prec ) = 0.98013E+00
  weight for this iteration     100.00

 Free energy of the ion-electron system (eV)
  ---------------------------------------------------
  alpha Z        PSCENC =       460.17252594
  Ewald energy   TEWEN  =     -9311.44415736
  -Hartree energ DENC   =     -3606.85311390
  -exchange      EXHF   =         0.00000000
  -V(xc)+E(xc)   XCENC  =       462.62091320
  PAW double counting   =     10816.98087266   -11353.96092700
  entropy T*S    EENTRO =        -0.00000000
  eigenvalues    EBANDS =     -1512.50862221
  atomic energy  EATOM  =     13290.28009929
  Solvation  Ediel_sol  =         0.00000000
  ---------------------------------------------------
  free energy    TOTEN  =      -754.71240939 eV

  energy without entropy =     -754.71240939  energy(sigma->0) =     -754.71240939


--------------------------------------------------------------------------------------------------------




--------------------------------------- Iteration      1(   6)  ---------------------------------------


    POTLOK:  cpu time    0.1321: real time    0.1684
    SETDIJ:  cpu time    1.1560: real time    1.1561
     EDDAV:  cpu time    4.6600: real time    4.6602
       DOS:  cpu time    0.0004: real time    0.0004
    CHARGE:  cpu time    0.8412: real time    0.8412
    MIXING:  cpu time    0.0007: real time    0.0007
    --------------------------------------------
      LOOP:  cpu time    6.7905: real time    6.8271

 eigenvalue-minimisations  :  2376
 total energy-change (2. order) : 0.3971131E+02  (-0.1177685E+01)
 number of electron     176.0000001 magnetization 
 augmentation part       -2.5451261 magnetization 

 Broyden mixing:
  rms(total) = 0.51224E+00    rms(broyden)= 0.51217E+00
  rms(prec ) = 0.62877E+00
  weight for this iteration     100.00

 eigenvalues of (default mixing * dielectric matrix)
  average eigenvalue GAMMA=   1.2037
  1.2037

 Free energy of the ion-electron system (eV)
  ---------------------------------------------------
  alpha Z        PSCENC =       460.17252594
  Ewald energy   TEWEN  =     -9311.44415736
  -Hartree energ DENC   =     -3596.72326228
  -exchange      EXHF   =         0.00000000
  -V(xc)+E(xc)   XCENC  =       477.96726594
  PAW double counting   =     10982.92062906   -11519.21717658
  entropy T*S    EENTRO =        -0.00000000
  eigenvalues    EBANDS =     -1498.95701898
  atomic energy  EATOM  =     13290.28009929
  Solvation  Ediel_sol  =         0.00000000
  ---------------------------------------------------
  free energy    TOTEN  =      -715.00109497 eV

  energy without entropy =     -715.00109497  energy(sigma->0) =     -715.00109497


--------------------------------------------------------------------------------------------------------




--------------------------------------- Iteration      1(   7)  ---------------------------------------


    POTLOK:  cpu time    0.1636: real time    0.1893
    SETDIJ:  cpu time    1.1569: real time    1.1569
     EDDAV:  cpu time    4.4996: real time    4.4997
       DOS:  cpu time    0.0004: real time    0.0004
    CHARGE:  cpu time    0.8398: real time    0.8398
    MIXING:  cpu time    0.0007: real time    0.0007
    --------------------------------------------
      LOOP:  cpu time    6.6610: real time    6.6870

 eigenvalue-minimisations  :  2256
 total energy-change (2. order) : 0.2285922E+00  (-0.3765625E+00)
 number of electron     176.0000001 magnetization 
 augmentation part       -2.2856294 magnetization 

 Broyden mixing:
  rms(total) = 0.25877E+00    rms(broyden)= 0.25875E+00
  rms(prec ) = 0.28238E+00
  weight for this iteration     100.00

 eigenvalues of (default mixing * dielectric matrix)
  average eigenvalue GAMMA=   1.3232
  1.3232  1.3232

 Free energy of the ion-electron system (eV)
  ---------------------------------------------------
  alpha Z        PSCENC =       460.17252594
  Ewald energy   TEWEN  =     -9311.44415736
  -Hartree energ DENC   =     -3616.52928519
  -exchange      EXHF   =         0.00000000
  -V(xc)+E(xc)   XCENC  =       480.58564054
  PAW double counting   =     11308.09066110   -11843.65934490
  entropy T*S    EENTRO =        -0.00000000
  eigenvalues    EBANDS =     -1482.26864220
  atomic energy  EATOM  =     13290.28009929
  Solvation  Ediel_sol  =         0.00000000
  ---------------------------------------------------
  free energy    TOTEN  =      -714.77250278 eV

  energy without entropy =     -714.77250278  energy(sigma->0) =     -714.77250278


--------------------------------------------------------------------------------------------------------




--------------------------------------- Iteration      1(   8)  ---------------------------------------


    POTLOK:  cpu time    0.1374: real time    0.1797
    SETDIJ:  cpu time    1.1561: real time    1.1562
     EDDAV:  cpu time    4.3669: real time    4.3671
       DOS:  cpu time    0.0004: real time    0.0004
    CHARGE:  cpu time    0.8399: real time    0.8400
    MIXING:  cpu time    0.0007: real time    0.0007
    --------------------------------------------
      LOOP:  cpu time    6.5014: real time    6.5441

 eigenvalue-minimisations  :  2160
 total energy-change (2. order) :-0.9101675E-01  (-0.1795301E-01)
 number of electron     176.0000001 magnetization 
 augmentation part       -2.3255161 magnetization 

 Broyden mixing:
  rms(total) = 0.14830E+00    rms(broyden)= 0.14830E+00
  rms(prec ) = 0.16311E+00
  weight for this iteration     100.00

 eigenvalues of (default mixing * dielectric matrix)
  average eigenvalue GAMMA=   1.7234
  1.1086  1.3043  2.7573

 Free energy of the ion-electron system (eV)
  ---------------------------------------------------
  alpha Z        PSCENC =       460.17252594
  Ewald energy   TEWEN  =     -9311.44415736
  -Hartree energ DENC   =     -3618.89015911
  -exchange      EXHF   =         0.00000000
  -V(xc)+E(xc)   XCENC  =       480.97762680
  PAW double counting   =     11438.29446034   -11974.07529752
  entropy T*S    EENTRO =        -0.00000000
  eigenvalues    EBANDS =     -1480.17861791
  atomic energy  EATOM  =     13290.28009929
  Solvation  Ediel_sol  =         0.00000000
  ---------------------------------------------------
  free energy    TOTEN  =      -714.86351952 eV

  energy without entropy =     -714.86351952  energy(sigma->0) =     -714.86351952


--------------------------------------------------------------------------------------------------------




--------------------------------------- Iteration      1(   9)  ---------------------------------------


    POTLOK:  cpu time    0.1285: real time    0.1854
    SETDIJ:  cpu time    1.1535: real time    1.1535
     EDDAV:  cpu time    4.1558: real time    4.1559
       DOS:  cpu time    0.0006: real time    0.0006
    CHARGE:  cpu time    0.8454: real time    0.8454
    MIXING:  cpu time    0.0008: real time    0.0008
    --------------------------------------------
      LOOP:  cpu time    6.2846: real time    6.3417

 eigenvalue-minimisations  :  2000
 total energy-change (2. order) :-0.3727408E-01  (-0.7416660E-02)
 number of electron     176.0000001 magnetization 
 augmentation part       -2.3470175 magnetization 

 Broyden mixing:
  rms(total) = 0.31960E-01    rms(broyden)= 0.31957E-01
  rms(prec ) = 0.34301E-01
  weight for this iteration     100.00

 eigenvalues of (default mixing * dielectric matrix)
  average eigenvalue GAMMA=   1.4706
  2.5668  1.2434  1.2434  0.8289

 Free energy of the ion-electron system (eV)
  ---------------------------------------------------
  alpha Z        PSCENC =       460.17252594
  Ewald energy   TEWEN  =     -9311.44415736
  -Hartree energ DENC   =     -3621.44404550
  -exchange      EXHF   =         0.00000000
  -V(xc)+E(xc)   XCENC  =       481.97851418
  PAW double counting   =     11620.11396010   -12156.33939037
  entropy T*S    EENTRO =        -0.00000000
  eigenvalues    EBANDS =     -1478.21829988
  atomic energy  EATOM  =     13290.28009929
  Solvation  Ediel_sol  =         0.00000000
  ---------------------------------------------------
  free energy    TOTEN  =      -714.90079360 eV

  energy without entropy =     -714.90079360  energy(sigma->0) =     -714.90079360


--------------------------------------------------------------------------------------------------------




--------------------------------------- Iteration      1(  10)  ---------------------------------------


    POTLOK:  cpu time    0.1270: real time    0.1735
    SETDIJ:  cpu time    1.1553: real time    1.1554
     EDDAV:  cpu time    4.8646: real time    4.8647
       DOS:  cpu time    0.0004: real time    0.0004
    CHARGE:  cpu time    0.8467: real time    0.8467
    MIXING:  cpu time    0.0008: real time    0.0008
    --------------------------------------------
      LOOP:  cpu time    6.9947: real time    7.0415

 eigenvalue-minimisations  :  2536
 total energy-change (2. order) :-0.6828508E-03  (-0.4340081E-03)
 number of electron     176.0000001 magnetization 
 augmentation part       -2.3404043 magnetization 

 Broyden mixing:
  rms(total) = 0.17852E-01    rms(broyden)= 0.17852E-01
  rms(prec ) = 0.19868E-01
  weight for this iteration     100.00

 eigenvalues of (default mixing * dielectric matrix)
  average eigenvalue GAMMA=   1.5883
  2.4076  2.4076  1.1329  1.1329  0.8605

 Free energy of the ion-electron system (eV)
  ---------------------------------------------------
  alpha Z        PSCENC =       460.17252594
  Ewald energy   TEWEN  =     -9311.44415736
  -Hartree energ DENC   =     -3620.50727721
  -exchange      EXHF   =         0.00000000
  -V(xc)+E(xc)   XCENC  =       481.86941600
  PAW double counting   =     11600.57679629   -12136.82782178
  entropy T*S    EENTRO =        -0.00000000
  eigenvalues    EBANDS =     -1479.02105761
  atomic energy  EATOM  =     13290.28009929
  Solvation  Ediel_sol  =         0.00000000
  ---------------------------------------------------
  free energy    TOTEN  =      -714.90147645 eV

  energy without entropy =     -714.90147645  energy(sigma->0) =     -714.90147645


--------------------------------------------------------------------------------------------------------




--------------------------------------- Iteration      1(  11)  ---------------------------------------


    POTLOK:  cpu time    0.1675: real time    0.1728
    SETDIJ:  cpu time    1.1551: real time    1.1552
     EDDAV:  cpu time    4.1631: real time    4.1633
       DOS:  cpu time    0.0004: real time    0.0004
    CHARGE:  cpu time    0.8409: real time    0.8410
    MIXING:  cpu time    0.0008: real time    0.0008
    --------------------------------------------
      LOOP:  cpu time    6.3278: real time    6.3334

 eigenvalue-minimisations  :  2008
 total energy-change (2. order) :-0.1278920E-02  (-0.1492800E-03)
 number of electron     176.0000001 magnetization 
 augmentation part       -2.3396890 magnetization 

 Broyden mixing:
  rms(total) = 0.64671E-02    rms(broyden)= 0.64667E-02
  rms(prec ) = 0.78917E-02
  weight for this iteration     100.00

 eigenvalues of (default mixing * dielectric matrix)
  average eigenvalue GAMMA=   1.5812
  2.5901  2.5901  1.2303  1.2303  0.9234  0.9234

 Free energy of the ion-electron system (eV)
  ---------------------------------------------------
  alpha Z        PSCENC =       460.17252594
  Ewald energy   TEWEN  =     -9311.44415736
  -Hartree energ DENC   =     -3619.22572077
  -exchange      EXHF   =         0.00000000
  -V(xc)+E(xc)   XCENC  =       481.82172931
  PAW double counting   =     11585.57890063   -12121.96494162
  entropy T*S    EENTRO =        -0.00000000
  eigenvalues    EBANDS =     -1480.12119078
  atomic energy  EATOM  =     13290.28009929
  Solvation  Ediel_sol  =         0.00000000
  ---------------------------------------------------
  free energy    TOTEN  =      -714.90275537 eV

  energy without entropy =     -714.90275537  energy(sigma->0) =     -714.90275537


--------------------------------------------------------------------------------------------------------




--------------------------------------- Iteration      1(  12)  ---------------------------------------


    POTLOK:  cpu time    0.1344: real time    0.1826
    SETDIJ:  cpu time    1.1536: real time    1.1537
     EDDAV:  cpu time    4.4502: real time    4.4504
       DOS:  cpu time    0.0004: real time    0.0004
    CHARGE:  cpu time    0.8439: real time    0.8439
    MIXING:  cpu time    0.0008: real time    0.0008
    --------------------------------------------
      LOOP:  cpu time    6.5834: real time    6.6318

 eigenvalue-minimisations  :  2224
 total energy-change (2. order) :-0.8388642E-04  (-0.4201633E-04)
 number of electron     176.0000001 magnetization 
 augmentation part       -2.3414430 magnetization 

 Broyden mixing:
  rms(total) = 0.22633E-02    rms(broyden)= 0.22626E-02
  rms(prec ) = 0.25674E-02
  weight for this iteration     100.00

 eigenvalues of (default mixing * dielectric matrix)
  average eigenvalue GAMMA=   1.6330
  3.0593  2.2974  1.9109  1.1695  1.0634  0.9652  0.9652

 Free energy of the ion-electron system (eV)
  ---------------------------------------------------
  alpha Z        PSCENC =       460.17252594
  Ewald energy   TEWEN  =     -9311.44415736
  -Hartree energ DENC   =     -3619.33474454
  -exchange      EXHF   =         0.00000000
  -V(xc)+E(xc)   XCENC  =       481.88131150
  PAW double counting   =     11590.77540991   -12127.21434118
  entropy T*S    EENTRO =        -0.00000000
  eigenvalues    EBANDS =     -1480.01894282
  atomic energy  EATOM  =     13290.28009929
  Solvation  Ediel_sol  =         0.00000000
  ---------------------------------------------------
  free energy    TOTEN  =      -714.90283926 eV

  energy without entropy =     -714.90283926  energy(sigma->0) =     -714.90283926


--------------------------------------------------------------------------------------------------------




--------------------------------------- Iteration      1(  13)  ---------------------------------------


    POTLOK:  cpu time    0.1366: real time    0.1734
    SETDIJ:  cpu time    1.1525: real time    1.1525
     EDDAV:  cpu time    4.4666: real time    4.4667
       DOS:  cpu time    0.0004: real time    0.0004
    CHARGE:  cpu time    0.8365: real time    0.8366
    MIXING:  cpu time    0.0010: real time    0.0010
    --------------------------------------------
      LOOP:  cpu time    6.5936: real time    6.6307

 eigenvalue-minimisations  :  2240
 total energy-change (2. order) :-0.1467266E-05  (-0.4021302E-05)
 number of electron     176.0000001 magnetization 
 augmentation part       -2.3413742 magnetization 

 Broyden mixing:
  rms(total) = 0.71078E-03    rms(broyden)= 0.70933E-03
  rms(prec ) = 0.77081E-03
  weight for this iteration     100.00

 eigenvalues of (default mixing * dielectric matrix)
  average eigenvalue GAMMA=   1.6253
  2.9494  2.3556  2.1694  1.2830  1.2830  0.9451  1.0084  1.0084

 Free energy of the ion-electron system (eV)
  ---------------------------------------------------
  alpha Z        PSCENC =       460.17252594
  Ewald energy   TEWEN  =     -9311.44415736
  -Hartree energ DENC   =     -3619.48526922
  -exchange      EXHF   =         0.00000000
  -V(xc)+E(xc)   XCENC  =       481.89468113
  PAW double counting   =     11589.69812469   -12126.14231101
  entropy T*S    EENTRO =        -0.00000000
  eigenvalues    EBANDS =     -1479.87653418
  atomic energy  EATOM  =     13290.28009929
  Solvation  Ediel_sol  =         0.00000000
  ---------------------------------------------------
  free energy    TOTEN  =      -714.90284073 eV

  energy without entropy =     -714.90284073  energy(sigma->0) =     -714.90284073


--------------------------------------------------------------------------------------------------------




--------------------------------------- Iteration      1(  14)  ---------------------------------------


    POTLOK:  cpu time    0.1476: real time    0.1769
    SETDIJ:  cpu time    1.1534: real time    1.1535
     EDDAV:  cpu time    4.0055: real time    4.0057
       DOS:  cpu time    0.0004: real time    0.0004
    CHARGE:  cpu time    0.8357: real time    0.8358
    MIXING:  cpu time    0.0009: real time    0.0009
    --------------------------------------------
      LOOP:  cpu time    6.1435: real time    6.1732

 eigenvalue-minimisations  :  1864
 total energy-change (2. order) :-0.1307725E-04  (-0.3223767E-06)
 number of electron     176.0000001 magnetization 
 augmentation part       -2.3411891 magnetization 

 Broyden mixing:
  rms(total) = 0.21719E-03    rms(broyden)= 0.21259E-03
  rms(prec ) = 0.25734E-03
  weight for this iteration     100.00

 eigenvalues of (default mixing * dielectric matrix)
  average eigenvalue GAMMA=   1.6316
  2.7820  2.7820  2.1375  1.8721  0.9951  0.9951  0.9063  1.1645  1.0500

 Free energy of the ion-electron system (eV)
  ---------------------------------------------------
  alpha Z        PSCENC =       460.17252594
  Ewald energy   TEWEN  =     -9311.44415736
  -Hartree energ DENC   =     -3619.49675243
  -exchange      EXHF   =         0.00000000
  -V(xc)+E(xc)   XCENC  =       481.89429614
  PAW double counting   =     11589.35342776   -12125.79789748
  entropy T*S    EENTRO =        -0.00000000
  eigenvalues    EBANDS =     -1479.86439566
  atomic energy  EATOM  =     13290.28009929
  Solvation  Ediel_sol  =         0.00000000
  ---------------------------------------------------
  free energy    TOTEN  =      -714.90285380 eV

  energy without entropy =     -714.90285380  energy(sigma->0) =     -714.90285380


--------------------------------------------------------------------------------------------------------




--------------------------------------- Iteration      1(  15)  ---------------------------------------


    POTLOK:  cpu time    0.1599: real time    0.1768
    SETDIJ:  cpu time    1.1533: real time    1.1534
     EDDAV:  cpu time    3.3334: real time    3.3336
       DOS:  cpu time    0.0004: real time    0.0004
    CHARGE:  cpu time    0.8373: real time    0.8372
    MIXING:  cpu time    0.0009: real time    0.0010
    --------------------------------------------
      LOOP:  cpu time    5.4852: real time    5.5024

 eigenvalue-minimisations  :  1336
 total energy-change (2. order) :-0.2907059E-05  (-0.9029249E-07)
 number of electron     176.0000001 magnetization 
 augmentation part       -2.3411770 magnetization 

 Broyden mixing:
  rms(total) = 0.12181E-03    rms(broyden)= 0.11346E-03
  rms(prec ) = 0.12646E-03
  weight for this iteration     100.00

 eigenvalues of (default mixing * dielectric matrix)
  average eigenvalue GAMMA=   1.5929
  2.8884  2.8884  2.1389  2.1389  1.1410  1.1410  1.0194  1.0194  0.9276  0.6257

 Free energy of the ion-electron system (eV)
  ---------------------------------------------------
  alpha Z        PSCENC =       460.17252594
  Ewald energy   TEWEN  =     -9311.44415736
  -Hartree energ DENC   =     -3619.48640210
  -exchange      EXHF   =         0.00000000
  -V(xc)+E(xc)   XCENC  =       481.89348301
  PAW double counting   =     11589.26591628   -12125.70790545
  entropy T*S    EENTRO =        -0.00000000
  eigenvalues    EBANDS =     -1479.87641632
  atomic energy  EATOM  =     13290.28009929
  Solvation  Ediel_sol  =         0.00000000
  ---------------------------------------------------
  free energy    TOTEN  =      -714.90285671 eV

  energy without entropy =     -714.90285671  energy(sigma->0) =     -714.90285671


--------------------------------------------------------------------------------------------------------




--------------------------------------- Iteration      1(  16)  ---------------------------------------


    POTLOK:  cpu time    0.1691: real time    0.1814
    SETDIJ:  cpu time    1.1532: real time    1.1532
     EDDAV:  cpu time    3.1832: real time    3.1833
       DOS:  cpu time    0.0003: real time    0.0003
    --------------------------------------------
      LOOP:  cpu time    4.5058: real time    4.5182

 eigenvalue-minimisations  :  1216
 total energy-change (2. order) : 0.3060957E-06  (-0.1700264E-07)
 number of electron     176.0000001 magnetization 
 augmentation part       -2.3411770 magnetization 

 Free energy of the ion-electron system (eV)
  ---------------------------------------------------
  alpha Z        PSCENC =       460.17252594
  Ewald energy   TEWEN  =     -9311.44415736
  -Hartree energ DENC   =     -3619.48435714
  -exchange      EXHF   =         0.00000000
  -V(xc)+E(xc)   XCENC  =       481.89353742
  PAW double counting   =     11589.28490423   -12125.72717776
  entropy T*S    EENTRO =        -0.00000000
  eigenvalues    EBANDS =     -1479.87823102
  atomic energy  EATOM  =     13290.28009929
  Solvation  Ediel_sol  =         0.00000000
  ---------------------------------------------------
  free energy    TOTEN  =      -714.90285640 eV

  energy without entropy =     -714.90285640  energy(sigma->0) =     -714.90285640


--------------------------------------------------------------------------------------------------------




 average (electrostatic) potential at core
  the test charge radii are     1.1312  1.1541  1.0178
  (the norm of the test charge is              1.0000)
       1 -55.0487       2 -55.0487       3 -55.0487       4 -55.0487       5-101.4656
       6-101.4656       7-101.4656       8-101.4656       9 -68.8623      10 -68.8623
      11 -68.8623      12 -68.8623      13 -68.8545      14 -68.8545      15 -68.8545
      16 -68.8545      17 -68.8545      18 -68.8545      19 -68.8545      20 -68.8545



 E-fermi :   0.7078     XC(G=0):  -8.1853     alpha+bet : -7.2194


 k-point     1 :       0.0000    0.0000    0.0000
  band No.  band energies     occupation 
      1     -20.5875      2.00000
      2     -20.5855      2.00000
      3     -20.5828      2.00000
      4     -20.5815      2.00000
      5     -16.3053      2.00000
      6     -16.2951      2.00000
      7     -16.2951      2.00000
      8     -16.2772      2.00000
      9     -16.2424      2.00000
     10     -16.2069      2.00000
     11     -16.1995      2.00000
     12     -16.1994      2.00000
     13     -16.1352      2.00000
     14     -16.1347      2.00000
     15     -16.1340      2.00000
     16     -16.1336      2.00000
     17     -16.1321      2.00000
     18     -16.1317      2.00000
     19     -16.1309      2.00000
     20     -16.1303      2.00000
     21     -16.1225      2.00000
     22     -16.1221      2.00000
     23     -16.1211      2.00000
     24     -16.1206      2.00000
     25     -14.2413      2.00000
     26     -14.0535      2.00000
     27     -13.9142      2.00000
     28     -13.9136      2.00000
     29     -13.9011      2.00000
     30     -13.8947      2.00000
     31     -13.8739      2.00000
     32     -13.8663      2.00000
     33     -13.8416      2.00000
     34     -13.6149      2.00000
     35     -13.6112      2.00000
     36     -13.6082      2.00000
     37      -8.0536      2.00000
     38      -7.5341      2.00000
     39      -7.0513      2.00000
     40      -7.0331      2.00000
     41      -7.0307      2.00000
     42      -7.0290      2.00000
     43      -7.0224      2.00000
     44      -7.0075      2.00000
     45      -7.0067      2.00000
     46      -6.9963      2.00000
     47      -6.9907      2.00000
     48      -6.9844      2.00000
     49      -6.9694      2.00000
     50      -6.9612      2.00000
     51      -6.9292      2.00000
     52      -6.3570      2.00000
     53      -3.2260      2.00000
     54      -3.1760      2.00000
     55      -3.1465      2.00000
     56      -3.0487      2.00000
     57      -3.0347      2.00000
     58      -2.9928      2.00000
     59      -2.0432      2.00000
     60      -1.8093      2.00000
     61      -1.7598      2.00000
     62      -1.7351      2.00000
     63      -1.7331      2.00000
     64      -1.6479      2.00000
     65      -1.5087      2.00000
     66      -1.4013      2.00000
     67      -1.3937      2.00000
     68      -1.3851      2.00000
     69      -1.2870      2.00000
     70      -1.2839      2.00000
     71      -1.2770      2.00000
     72      -1.2768      2.00000
     73      -1.2557      2.00000
     74      -1.2344      2.00000
     75      -1.2152      2.00000
     76      -1.2078      2.00000
     77      -1.1901      2.00000
     78      -1.0341      2.00000
     79      -0.9930      2.00000
     80      -0.9853      2.00000
     81      -0.9465      2.00000
     82      -0.9179      2.00000
     83      -0.8995      2.00000
     84      -0.8525      2.00000
     85      -0.6604      2.00000
     86      -0.4407      2.00000
     87       0.0324      2.00000
     88       0.6533      2.00000
     89       2.8985      0.00000
     90       2.9506      0.00000
     91       3.0969      0.00000
     92       3.3070      0.00000
     93       3.5493      0.00000
     94       3.6974      0.00000
     95       5.1214      0.00000
     96       5.8910      0.00000
     97       6.0397      0.00000
     98       6.0432      0.00000
     99       6.1957      0.00000
    100       6.2272      0.00000
    101       6.3210      0.00000
    102       6.3630      0.00000
    103       6.4904      0.00000
    104       6.6251      0.00000
    105       6.6541      0.00000
    106       6.7632      0.00000
    107       6.8071      0.00000
    108       6.9288      0.00000
    109       7.0385      0.00000
    110       7.1343      0.00000
    111       7.1601      0.00000
    112       7.2889      0.00000

 k-point     2 :       0.3333    0.0000    0.0000
  band No.  band energies     occupation 
      1     -20.5864      2.00000
      2     -20.5844      2.00000
      3     -20.5838      2.00000
      4     -20.5824      2.00000
      5     -16.2981      2.00000
      6     -16.2839      2.00000
      7     -16.2724      2.00000
      8     -16.2723      2.00000
      9     -16.2333      2.00000
     10     -16.2248      2.00000
     11     -16.2247      2.00000
     12     -16.2156      2.00000
     13     -16.1352      2.00000
     14     -16.1348      2.00000
     15     -16.1338      2.00000
     16     -16.1336      2.00000
     17     -16.1318      2.00000
     18     -16.1313      2.00000
     19     -16.1312      2.00000
     20     -16.1307      2.00000
     21     -16.1221      2.00000
     22     -16.1216      2.00000
     23     -16.1214      2.00000
     24     -16.1210      2.00000
     25     -14.1911      2.00000
     26     -14.0547      2.00000
     27     -14.0166      2.00000
     28     -13.9374      2.00000
     29     -13.9135      2.00000
     30     -13.9107      2.00000
     31     -13.8080      2.00000
     32     -13.8011      2.00000
     33     -13.7212      2.00000
     34     -13.6767      2.00000
     35     -13.6722      2.00000
     36     -13.6390      2.00000
     37      -7.8392      2.00000
     38      -7.3496      2.00000
     39      -7.3176      2.00000
     40      -7.0593      2.00000
     41      -7.0233      2.00000
     42      -7.0192      2.00000
     43      -7.0129      2.00000
     44      -6.9997      2.00000
     45      -6.9968      2.00000
     46      -6.9855      2.00000
     47      -6.9841      2.00000
     48      -6.9683      2.00000
     49      -6.9663      2.00000
     50      -6.9587      2.00000
     51      -6.9480      2.00000
     52      -6.7150      2.00000
     53      -3.1612      2.00000
     54      -3.0624      2.00000
     55      -2.8571      2.00000
     56      -2.7273      2.00000
     57      -2.6310      2.00000
     58      -2.6121      2.00000
     59      -2.1273      2.00000
     60      -2.0080      2.00000
     61      -1.9621      2.00000
     62      -1.8688      2.00000
     63      -1.8675      2.00000
     64      -1.8241      2.00000
     65      -1.6818      2.00000
     66      -1.5635      2.00000
     67      -1.5295      2.00000
     68      -1.4937      2.00000
     69      -1.3346      2.00000
     70      -1.2979      2.00000
     71      -1.2879      2.00000
     72      -1.2587      2.00000
     73      -1.2478      2.00000
     74      -1.2295      2.00000
     75      -1.1787      2.00000
     76      -1.1739      2.00000
     77      -1.1151      2.00000
     78      -1.0623      2.00000
     79      -1.0618      2.00000
     80      -1.0222      2.00000
     81      -0.9757      2.00000
     82      -0.9686      2.00000
     83      -0.9077      2.00000
     84      -0.8617      2.00000
     85      -0.6357      2.00000
     86      -0.4832      2.00000
     87      -0.3123      2.00000
     88       0.1216      2.00000
     89       3.1225      0.00000
     90       3.4728      0.00000
     91       3.6904      0.00000
     92       3.9786      0.00000
     93       4.0567      0.00000
     94       4.3626      0.00000
     95       5.2140      0.00000
     96       5.3624      0.00000
     97       5.4386      0.00000
     98       5.5348      0.00000
     99       6.0283      0.00000
    100       6.0402      0.00000
    101       6.3817      0.00000
    102       6.3960      0.00000
    103       6.6156      0.00000
    104       6.6510      0.00000
    105       6.6589      0.00000
    106       6.6643      0.00000
    107       6.6817      0.00000
    108       6.9396      0.00000
    109       7.0816      0.00000
    110       7.1854      0.00000
    111       7.3114      0.00000
    112       7.3378      0.00000

 k-point     3 :       0.0000    0.5000    0.0000
  band No.  band energies     occupation 
      1     -20.5865      2.00000
      2     -20.5865      2.00000
      3     -20.5821      2.00000
      4     -20.5821      2.00000
      5     -16.2950      2.00000
      6     -16.2950      2.00000
      7     -16.2741      2.00000
      8     -16.2741      2.00000
      9     -16.2428      2.00000
     10     -16.2428      2.00000
     11     -16.1994      2.00000
     12     -16.1994      2.00000
     13     -16.1347      2.00000
     14     -16.1347      2.00000
     15     -16.1341      2.00000
     16     -16.1341      2.00000
     17     -16.1318      2.00000
     18     -16.1318      2.00000
     19     -16.1306      2.00000
     20     -16.1306      2.00000
     21     -16.1222      2.00000
     22     -16.1222      2.00000
     23     -16.1208      2.00000
     24     -16.1208      2.00000
     25     -14.1829      2.00000
     26     -14.1829      2.00000
     27     -13.9011      2.00000
     28     -13.9011      2.00000
     29     -13.8737      2.00000
     30     -13.8737      2.00000
     31     -13.8702      2.00000
     32     -13.8702      2.00000
     33     -13.7283      2.00000
     34     -13.7283      2.00000
     35     -13.6096      2.00000
     36     -13.6096      2.00000
     37      -7.8142      2.00000
     38      -7.8142      2.00000
     39      -7.0425      2.00000
     40      -7.0425      2.00000
     41      -7.0266      2.00000
     42      -7.0266      2.00000
     43      -6.9987      2.00000
     44      -6.9987      2.00000
     45      -6.9869      2.00000
     46      -6.9869      2.00000
     47      -6.9829      2.00000
     48      -6.9829      2.00000
     49      -6.9684      2.00000
     50      -6.9684      2.00000
     51      -6.7340      2.00000
     52      -6.7340      2.00000
     53      -3.1341      2.00000
     54      -3.1341      2.00000
     55      -3.0928      2.00000
     56      -3.0928      2.00000
     57      -2.3512      2.00000
     58      -2.3512      2.00000
     59      -2.2067      2.00000
     60      -2.2067      2.00000
     61      -1.9073      2.00000
     62      -1.9073      2.00000
     63      -1.6860      2.00000
     64      -1.6860      2.00000
     65      -1.6479      2.00000
     66      -1.6479      2.00000
     67      -1.3641      2.00000
     68      -1.3641      2.00000
     69      -1.3459      2.00000
     70      -1.3459      2.00000
     71      -1.2611      2.00000
     72      -1.2611      2.00000
     73      -1.2126      2.00000
     74      -1.2126      2.00000
     75      -1.1902      2.00000
     76      -1.1902      2.00000
     77      -1.0596      2.00000
     78      -1.0596      2.00000
     79      -1.0374      2.00000
     80      -1.0374      2.00000
     81      -0.9831      2.00000
     82      -0.9831      2.00000
     83      -0.9430      2.00000
     84      -0.9430      2.00000
     85      -0.6772      2.00000
     86      -0.6772      2.00000
     87       0.1736      2.00000
     88       0.1736      2.00000
     89       3.1153      0.00000
     90       3.1153      0.00000
     91       3.3200      0.00000
     92       3.3200      0.00000
     93       4.5178      0.00000
     94       4.5178      0.00000
     95       5.0807      0.00000
     96       5.0807      0.00000
     97       5.7824      0.00000
     98       5.7824      0.00000
     99       6.1946      0.00000
    100       6.1946      0.00000
    101       6.3080      0.00000
    102       6.3080      0.00000
    103       6.4368      0.00000
    104       6.4368      0.00000
    105       6.5707      0.00000
    106       6.5707      0.00000
    107       6.8555      0.00000
    108       6.8555      0.00000
    109       7.0501      0.00000
    110       7.0504      0.00000
    111       7.1836      0.00000
    112       7.1989      0.00000

 k-point     4 :       0.3333    0.5000    0.0000
  band No.  band energies     occupation 
      1     -20.5854      2.00000
      2     -20.5854      2.00000
      3     -20.5832      2.00000
      4     -20.5832      2.00000
      5     -16.2725      2.00000
      6     -16.2725      2.00000
      7     -16.2661      2.00000
      8     -16.2661      2.00000
      9     -16.2504      2.00000
     10     -16.2504      2.00000
     11     -16.2247      2.00000
     12     -16.2247      2.00000
     13     -16.1346      2.00000
     14     -16.1346      2.00000
     15     -16.1343      2.00000
     16     -16.1343      2.00000
     17     -16.1316      2.00000
     18     -16.1316      2.00000
     19     -16.1310      2.00000
     20     -16.1310      2.00000
     21     -16.1220      2.00000
     22     -16.1220      2.00000
     23     -16.1213      2.00000
     24     -16.1213      2.00000
     25     -14.1387      2.00000
     26     -14.1387      2.00000
     27     -14.0235      2.00000
     28     -14.0235      2.00000
     29     -13.8052      2.00000
     30     -13.8052      2.00000
     31     -13.7877      2.00000
     32     -13.7877      2.00000
     33     -13.7402      2.00000
     34     -13.7402      2.00000
     35     -13.6745      2.00000
     36     -13.6745      2.00000
     37      -7.5988      2.00000
     38      -7.5988      2.00000
     39      -7.1182      2.00000
     40      -7.1182      2.00000
     41      -7.0259      2.00000
     42      -7.0259      2.00000
     43      -7.0236      2.00000
     44      -7.0236      2.00000
     45      -6.9916      2.00000
     46      -6.9916      2.00000
     47      -6.9799      2.00000
     48      -6.9799      2.00000
     49      -6.9731      2.00000
     50      -6.9731      2.00000
     51      -6.9275      2.00000
     52      -6.9275      2.00000
     53      -2.7954      2.00000
     54      -2.7954      2.00000
     55      -2.7115      2.00000
     56      -2.7115      2.00000
     57      -2.3222      2.00000
     58      -2.3222      2.00000
     59      -2.2574      2.00000
     60      -2.2574      2.00000
     61      -2.0461      2.00000
     62      -2.0461      2.00000
     63      -1.9362      2.00000
     64      -1.9362      2.00000
     65      -1.6088      2.00000
     66      -1.6088      2.00000
     67      -1.5354      2.00000
     68      -1.5354      2.00000
     69      -1.4167      2.00000
     70      -1.4167      2.00000
     71      -1.3831      2.00000
     72      -1.3831      2.00000
     73      -1.2501      2.00000
     74      -1.2501      2.00000
     75      -1.2258      2.00000
     76      -1.2258      2.00000
     77      -1.0047      2.00000
     78      -1.0047      2.00000
     79      -0.9896      2.00000
     80      -0.9896      2.00000
     81      -0.9624      2.00000
     82      -0.9624      2.00000
     83      -0.9437      2.00000
     84      -0.9437      2.00000
     85      -0.6322      2.00000
     86      -0.6322      2.00000
     87      -0.3605      2.00000
     88      -0.3605      2.00000
     89       3.8622      0.00000
     90       3.8622      0.00000
     91       4.1377      0.00000
     92       4.1377      0.00000
     93       4.6661      0.00000
     94       4.6661      0.00000
     95       4.9147      0.00000
     96       4.9147      0.00000
     97       5.3524      0.00000
     98       5.3524      0.00000
     99       5.5110      0.00000
    100       5.5110      0.00000
    101       6.2842      0.00000
    102       6.2842      0.00000
    103       6.5147      0.00000
    104       6.5147      0.00000
    105       6.7466      0.00000
    106       6.7466      0.00000
[...]
     60      -2.2601      2.00000
     61      -2.0891      2.00000
     62      -2.0891      2.00000
     63      -1.9043      2.00000
     64      -1.9043      2.00000
     65      -1.5711      2.00000
     66      -1.5711      2.00000
     67      -1.5299      2.00000
     68      -1.5299      2.00000
     69      -1.3986      2.00000
     70      -1.3986      2.00000
     71      -1.3212      2.00000
     72      -1.3212      2.00000
     73      -1.2144      2.00000
     74      -1.2144      2.00000
     75      -1.1970      2.00000
     76      -1.1970      2.00000
     77      -1.0603      2.00000
     78      -1.0603      2.00000
     79      -1.0007      2.00000
     80      -1.0007      2.00000
     81      -0.9918      2.00000
     82      -0.9918      2.00000
     83      -0.9479      2.00000
     84      -0.9479      2.00000
     85      -0.7259      2.00000
     86      -0.7259      2.00000
     87      -0.4429      2.00000
     88      -0.4429      2.00000
     89       3.9800      0.00000
     90       3.9800      0.00000
     91       4.0131      0.00000
     92       4.0131      0.00000
     93       4.6485      0.00000
     94       4.6485      0.00000
     95       4.9243      0.00000
     96       4.9243      0.00000
     97       5.3740      0.00000
     98       5.3740      0.00000
     99       5.4856      0.00000
    100       5.4856      0.00000
    101       6.2730      0.00000
    102       6.2730      0.00000
    103       6.4761      0.00000
    104       6.4761      0.00000
    105       6.6539      0.00000
    106       6.6539      0.00000
    107       6.8317      0.00000
    108       6.8317      0.00000
    109       7.0490      0.00000
    110       7.0490      0.00000
    111       7.2459      0.00000
    112       7.2460      0.00000

 k-point     8 :       0.3333    0.5000    0.3333
  band No.  band energies     occupation 
      1     -20.5849      2.00000
      2     -20.5849      2.00000
      3     -20.5836      2.00000
      4     -20.5836      2.00000
      5     -16.2817      2.00000
      6     -16.2817      2.00000
      7     -16.2677      2.00000
      8     -16.2677      2.00000
      9     -16.2413      2.00000
     10     -16.2413      2.00000
     11     -16.2236      2.00000
     12     -16.2236      2.00000
     13     -16.1345      2.00000
     14     -16.1345      2.00000
     15     -16.1343      2.00000
     16     -16.1343      2.00000
     17     -16.1314      2.00000
     18     -16.1314      2.00000
     19     -16.1311      2.00000
     20     -16.1311      2.00000
     21     -16.1217      2.00000
     22     -16.1217      2.00000
     23     -16.1214      2.00000
     24     -16.1214      2.00000
     25     -14.0881      2.00000
     26     -14.0881      2.00000
     27     -13.9974      2.00000
     28     -13.9974      2.00000
     29     -13.8969      2.00000
     30     -13.8969      2.00000
     31     -13.8089      2.00000
     32     -13.8089      2.00000
     33     -13.7118      2.00000
     34     -13.7118      2.00000
     35     -13.6775      2.00000
     36     -13.6775      2.00000
     37      -7.4604      2.00000
     38      -7.4604      2.00000
     39      -7.2092      2.00000
     40      -7.2092      2.00000
     41      -7.0193      2.00000
     42      -7.0193      2.00000
     43      -7.0002      2.00000
     44      -7.0002      2.00000
     45      -6.9854      2.00000
     46      -6.9854      2.00000
     47      -6.9799      2.00000
     48      -6.9799      2.00000
     49      -6.9697      2.00000
     50      -6.9697      2.00000
     51      -6.9453      2.00000
     52      -6.9453      2.00000
     53      -3.0257      2.00000
     54      -3.0257      2.00000
     55      -2.6647      2.00000
     56      -2.6647      2.00000
     57      -2.3984      2.00000
     58      -2.3984      2.00000
     59      -2.2745      2.00000
     60      -2.2745      2.00000
     61      -2.0378      2.00000
     62      -2.0378      2.00000
     63      -1.8891      2.00000
     64      -1.8891      2.00000
     65      -1.6125      2.00000
     66      -1.6125      2.00000
     67      -1.5281      2.00000
     68      -1.5281      2.00000
     69      -1.3754      2.00000
     70      -1.3754      2.00000
     71      -1.2894      2.00000
     72      -1.2894      2.00000
     73      -1.2332      2.00000
     74      -1.2332      2.00000
     75      -1.1276      2.00000
     76      -1.1276      2.00000
     77      -1.0896      2.00000
     78      -1.0896      2.00000
     79      -1.0286      2.00000
     80      -1.0286      2.00000
     81      -0.9776      2.00000
     82      -0.9776      2.00000
     83      -0.9234      2.00000
     84      -0.9234      2.00000
     85      -0.6405      2.00000
     86      -0.6405      2.00000
     87      -0.3710      2.00000
     88      -0.3710      2.00000
     89       3.4577      0.00000
     90       3.4577      0.00000
     91       4.2434      0.00000
     92       4.2434      0.00000
     93       4.7121      0.00000
     94       4.7121      0.00000
     95       4.8428      0.00000
     96       4.8428      0.00000
     97       5.2726      0.00000
     98       5.2726      0.00000
     99       5.9718      0.00000
    100       5.9718      0.00000
    101       6.5317      0.00000
    102       6.5317      0.00000
    103       6.6129      0.00000
    104       6.6129      0.00000
    105       6.8072      0.00000
    106       6.8072      0.00000
    107       6.9691      0.00000
    108       6.9691      0.00000
    109       7.0102      0.00000
    110       7.0102      0.00000
    111       7.1835      0.00000
    112       7.1835      0.00000


--------------------------------------------------------------------------------------------------------


 soft charge-density along one line, spin component           1
         0         1         2         3         4         5         6         7         8         9
 total charge-density along one line

 pseudopotential strength for first ion, spin component:           1
 17.872  -4.678   0.000  -0.001  -0.000  -0.000   0.002   0.000
 -4.678   1.233  -0.000   0.000   0.000   0.000  -0.000  -0.000
  0.000  -0.000   2.223  -0.000   0.000  -2.651   0.000  -0.000
 -0.001   0.000  -0.000   2.225  -0.001   0.000  -2.652   0.001
 -0.000   0.000   0.000  -0.001   2.224  -0.000   0.001  -2.651
 -0.000   0.000  -2.651   0.000  -0.000   3.125  -0.000   0.000
  0.002  -0.000   0.000  -2.652   0.001  -0.000   3.127  -0.001
  0.000  -0.000  -0.000   0.001  -2.651   0.000  -0.001   3.126
  0.000  -0.000   0.000  -0.000  -0.000  -0.001   0.000   0.000
 -0.000   0.000   0.000   0.000  -0.000  -0.000  -0.000   0.000
  0.001  -0.000   0.000  -0.002   0.000  -0.000   0.003  -0.000
 -0.001   0.000  -0.000  -0.000   0.000   0.000   0.000  -0.000
  0.000  -0.000  -0.000  -0.000  -0.001   0.000   0.000   0.001
 total augmentation occupancy for first ion, spin component:           1
  1.912  -0.139   0.000  -0.000   0.000   0.000  -0.001  -0.000   0.000   0.000   0.001  -0.001   0.000
 -0.139   0.126   0.000  -0.004  -0.001   0.000   0.001   0.001   0.000   0.000  -0.002   0.005   0.000
  0.000   0.000   2.016   0.000   0.000   0.003   0.000   0.000   0.002   0.001   0.000  -0.000   0.000
 -0.000  -0.004   0.000   2.019  -0.003   0.000   0.005  -0.002   0.000   0.000  -0.005  -0.000  -0.000
  0.000  -0.001   0.000  -0.003   2.018  -0.000  -0.002   0.004   0.000   0.000   0.000   0.001  -0.003
  0.000   0.000   0.003   0.000  -0.000   0.009   0.000   0.000  -0.002  -0.002   0.000   0.000   0.000
 -0.001   0.001   0.000   0.005  -0.002   0.000   0.008   0.001   0.000   0.000   0.003  -0.001   0.000
 -0.000   0.001   0.000  -0.002   0.004   0.000   0.001   0.009   0.000  -0.000  -0.001  -0.001   0.003
  0.000   0.000   0.002   0.000   0.000  -0.002   0.000   0.000   0.007   0.002   0.000  -0.000   0.000
  0.000   0.000   0.001   0.000   0.000  -0.002   0.000  -0.000   0.002   0.005   0.000   0.000   0.000
  0.001  -0.002   0.000  -0.005   0.000   0.000   0.003  -0.001   0.000   0.000   0.006  -0.002  -0.001
 -0.001   0.005  -0.000  -0.000   0.001   0.000  -0.001  -0.001  -0.000   0.000  -0.002   0.004   0.001
  0.000   0.000   0.000  -0.000  -0.003   0.000   0.000   0.003   0.000   0.000  -0.001   0.001   0.005


------------------------ aborting loop because EDIFF is reached ----------------------------------------





 total charge     

# of ion       s       p       d       tot
------------------------------------------
    1        1.786   4.719   0.020   6.526
    2        1.786   4.719   0.020   6.526
    3        1.786   4.719   0.020   6.526
    4        1.786   4.719   0.020   6.526
    5        1.554   0.427   9.835  11.816
    6        1.554   0.427   9.835  11.816
    7        1.554   0.427   9.835  11.816
    8        1.554   0.427   9.835  11.816
    9        1.614   3.288   0.007   4.910
   10        1.614   3.289   0.007   4.910
   11        1.614   3.289   0.007   4.910
   12        1.614   3.288   0.007   4.910
   13        1.615   3.274   0.007   4.897
   14        1.614   3.297   0.006   4.917
   15        1.614   3.297   0.006   4.917
   16        1.615   3.274   0.007   4.897
   17        1.615   3.274   0.007   4.897
   18        1.614   3.297   0.006   4.917
   19        1.615   3.274   0.007   4.897
   20        1.614   3.297   0.006   4.917
--------------------------------------------------
tot         32.737  60.024  39.498 132.259

    CHARGE:  cpu time    0.1316: real time    0.1316
    FORLOC:  cpu time    0.0033: real time    0.0033
    FORNL :  cpu time    0.5504: real time    0.5504
    STRESS:  cpu time   12.2261: real time   12.2266
    FORCOR:  cpu time    0.1073: real time    0.1073
    FORHAR:  cpu time    0.0106: real time    0.0106
    MIXING:  cpu time    0.0009: real time    0.0009
    OFIELD:  cpu time    0.0000: real time    0.0000

  FORCE on cell =-STRESS in cart. coord.  units (eV):
  Direction    XX          YY          ZZ          XY          YZ          ZX
  --------------------------------------------------------------------------------------
  Alpha Z   460.17253   460.17253   460.17253
  Ewald   -3084.75303 -3033.78843 -3192.92946    -0.00000     0.00000    -0.00000
  Hartree  1225.05276  1238.69755  1155.74110    -0.00000    -0.00000    -0.00000
  E(xc)    -739.32326  -739.31701  -739.41471    -0.00000     0.00000    -0.03105
  Local   -1419.74610 -1483.56452 -1243.28337     0.00000     0.00000     0.00000
  n-local   901.35662   901.52290   900.64157     0.00000    -0.00001     0.04150
  augment   406.40247   405.99446   405.91904     0.00000    -0.00004    -0.00002
  Kinetic  2252.00390  2251.80016  2254.37571    -0.00000     0.00001    -1.56004
  Fock        0.00000     0.00000     0.00000     0.00000     0.00000     0.00000
  -------------------------------------------------------------------------------------
  Total       1.16589     1.51765     1.22241     0.00000     0.00000    -0.00000
  in kB       2.38239     3.10117     2.49788     0.00000     0.00000    -0.00000
  external pressure =        2.66 kB  Pullay stress =        0.00 kB


 VOLUME and BASIS-vectors are now :
 -----------------------------------------------------------------------------
  energy-cutoff  :      300.00
  volume of cell :      784.07
      direct lattice vectors                 reciprocal lattice vectors
     8.411801122  0.000000000  0.000000000     0.118880604  0.000000000 -0.000000000
     0.000000000 11.726945792  0.000000000     0.000000000  0.085273695  0.000000000
     0.000000000  0.000000000  7.948454314    -0.000000000  0.000000000  0.125810624

  length of vectors
     8.411801122 11.726945792  7.948454314     0.118880604  0.085273695  0.125810624


 FORCES acting on ions
    electron-ion (+dipol)            ewald-force                    non-local-force                 convergence-correction
 -----------------------------------------------------------------------------------------------
   0.280E+02 0.212E-12 -.134E+02   -.280E+02 0.213E-13 0.134E+02   -.669E-01 0.000E+00 -.904E-01   -.760E-04 -.157E-12 0.173E-03
   -.280E+02 -.856E-12 -.134E+02   0.280E+02 0.320E-13 0.134E+02   0.669E-01 0.000E+00 -.904E-01   0.760E-04 0.176E-12 0.173E-03
   0.280E+02 -.357E-11 0.134E+02   -.280E+02 -.142E-13 -.134E+02   -.669E-01 0.000E+00 0.904E-01   -.760E-04 -.129E-12 -.173E-03
   -.280E+02 -.791E-11 0.134E+02   0.280E+02 0.213E-13 -.134E+02   0.669E-01 0.000E+00 0.904E-01   0.760E-04 0.194E-12 -.173E-03
   0.782E-14 -.211E-14 -.246E-13   -.293E-13 0.135E-12 -.115E-13   0.000E+00 0.000E+00 0.218E-23   -.171E-12 -.163E-13 0.777E-13
   0.263E-11 -.621E-12 -.836E-11   -.426E-13 0.158E-12 0.293E-13   0.000E+00 0.000E+00 -.634E-23   -.281E-13 -.327E-13 -.340E-13
   0.335E-11 -.173E-11 -.605E-11   -.426E-13 -.249E-13 0.568E-13   0.000E+00 0.000E+00 0.168E-23   -.511E-13 0.675E-14 -.925E-13
   0.678E-14 0.118E-11 -.242E-13   0.142E-13 -.604E-13 -.284E-13   0.000E+00 0.000E+00 -.191E-23   -.167E-12 -.607E-13 0.123E-12
   0.114E+02 -.382E-12 0.369E+02   -.115E+02 -.462E-13 -.372E+02   0.115E+00 0.000E+00 0.250E+00   -.817E-04 0.724E-13 -.127E-03
   -.114E+02 -.228E-11 0.369E+02   0.115E+02 -.284E-13 -.372E+02   -.115E+00 0.000E+00 0.250E+00   0.817E-04 -.136E-12 -.127E-03
   0.114E+02 0.373E-13 -.369E+02   -.115E+02 -.284E-13 0.372E+02   0.115E+00 0.000E+00 -.250E+00   -.817E-04 0.850E-13 0.127E-03
   -.114E+02 -.170E-11 -.369E+02   0.115E+02 -.639E-13 0.372E+02   -.115E+00 0.000E+00 -.250E+00   0.817E-04 -.129E-12 0.127E-03
   -.217E+02 0.175E+02 0.278E+02   0.219E+02 -.176E+02 -.280E+02   -.194E+00 0.149E+00 0.247E+00   -.552E-04 0.838E-04 0.509E-05
   0.217E+02 -.175E+02 0.278E+02   -.219E+02 0.176E+02 -.280E+02   0.194E+00 -.149E+00 0.247E+00   0.552E-04 -.838E-04 0.509E-05
   -.217E+02 -.175E+02 -.278E+02   0.219E+02 0.176E+02 0.280E+02   -.194E+00 -.149E+00 -.247E+00   -.552E-04 -.838E-04 -.509E-05
   0.217E+02 0.175E+02 -.278E+02   -.219E+02 -.176E+02 0.280E+02   0.194E+00 0.149E+00 -.247E+00   0.552E-04 0.838E-04 -.509E-05
   -.217E+02 -.175E+02 0.278E+02   0.219E+02 0.176E+02 -.280E+02   -.194E+00 -.149E+00 0.247E+00   -.552E-04 -.838E-04 0.509E-05
   0.217E+02 0.175E+02 0.278E+02   -.219E+02 -.176E+02 -.280E+02   0.194E+00 0.149E+00 0.247E+00   0.552E-04 0.838E-04 0.509E-05
   0.217E+02 -.175E+02 -.278E+02   -.219E+02 0.176E+02 0.280E+02   0.194E+00 -.149E+00 -.247E+00   0.552E-04 -.838E-04 -.509E-05
   -.217E+02 0.175E+02 -.278E+02   0.219E+02 -.176E+02 0.280E+02   -.194E+00 0.149E+00 -.247E+00   -.552E-04 0.838E-04 -.509E-05
 -----------------------------------------------------------------------------------------------
   0.945E-11 -.167E-10 -.475E-11   -.249E-13 -.142E-13 -.142E-13   0.000E+00 0.000E+00 0.000E+00   -.391E-12 -.161E-12 0.102E-12


 POSITION                                       TOTAL-FORCE (eV/Angst)
 -----------------------------------------------------------------------------------
      0.58098      2.93174      3.79041        -0.007012     -0.000000      0.007172
      3.62492      8.79521      7.76464         0.007012     -0.000000      0.007172
      4.78688      2.93174      0.18382        -0.007012     -0.000000     -0.007172
      7.83082      8.79521      4.15805         0.007012     -0.000000     -0.007172
      0.00000      0.00000      0.00000         0.000000     -0.000000      0.000000
      4.20590      0.00000      3.97423         0.000000     -0.000000      0.000000
      4.20590      5.86347      3.97423         0.000000     -0.000000      0.000000
      0.00000      5.86347      0.00000         0.000000     -0.000000      0.000000
      4.23497      8.79521      3.44393         0.002750     -0.000000     -0.019112
      8.38273      2.93174      7.41815        -0.002750     -0.000000     -0.019112
      0.02907      8.79521      0.53030         0.002750     -0.000000      0.019112
      4.17683      2.93174      4.50453        -0.002750     -0.000000      0.019112
      2.54326      5.45914      1.52490         0.000754     -0.007439      0.004069
      1.66264      6.26780      5.49913        -0.000754      0.007439      0.004069
      6.74916      0.40433      2.44933         0.000754      0.007439     -0.004069
      5.86854     11.32262      6.42355        -0.000754     -0.007439     -0.004069
      2.54326      0.40433      1.52490         0.000754      0.007439      0.004069
      1.66264     11.32262      5.49913        -0.000754     -0.007439      0.004069
      5.86854      6.26780      6.42355        -0.000754      0.007439     -0.004069
      6.74916      5.45914      2.44933         0.000754     -0.007439     -0.004069
 -----------------------------------------------------------------------------------
    total drift:                                0.000000     -0.000000     -0.000000


--------------------------------------------------------------------------------------------------------



  FREE ENERGIE OF THE ION-ELECTRON SYSTEM (eV)
  ---------------------------------------------------
  free  energy   TOTEN  =      -714.90285640 eV

  energy  without entropy=     -714.90285640  energy(sigma->0) =     -714.90285640



--------------------------------------------------------------------------------------------------------


    POTLOK:  cpu time    1.2605: real time    1.2606


--------------------------------------------------------------------------------------------------------


 stress matrix after NEB project (eV)
      1.16589      0.00000     -0.00000
      0.00000      1.51765      0.00000
      0.00000      0.00000      1.22241
  FORCES: max atom, RMS     0.019309    0.011121
  FORCE total and by dimension    0.049734    0.019112
  Stress total and by dimension    2.270871    1.517649
     LOOP+:  cpu time  110.8989: real time  111.6135
    4ORBIT:  cpu time    0.0000: real time    0.0000



 total charge     

# of ion       s       p       d       tot
------------------------------------------
    1        1.786   4.719   0.020   6.526
    2        1.786   4.719   0.020   6.526
    3        1.786   4.719   0.020   6.526
    4        1.786   4.719   0.020   6.526
    5        1.554   0.427   9.835  11.816
    6        1.554   0.427   9.835  11.816
    7        1.554   0.427   9.835  11.816
    8        1.554   0.427   9.835  11.816
    9        1.614   3.288   0.007   4.910
   10        1.614   3.289   0.007   4.910
   11        1.614   3.289   0.007   4.910
   12        1.614   3.288   0.007   4.910
   13        1.615   3.274   0.007   4.897
   14        1.614   3.297   0.006   4.917
   15        1.614   3.297   0.006   4.917
   16        1.615   3.274   0.007   4.897
   17        1.615   3.274   0.007   4.897
   18        1.614   3.297   0.006   4.917
   19        1.615   3.274   0.007   4.897
   20        1.614   3.297   0.006   4.917
--------------------------------------------------
tot         32.737  60.024  39.498 132.259


 total amount of memory used by VASP MPI-rank0    42379. kBytes
=======================================================================

   base      :      30000. kBytes
   nonlr-proj:       3063. kBytes
   fftplans  :       3667. kBytes
   grid      :       3424. kBytes
   one-center:         46. kBytes
   wavefun   :       2179. kBytes

  
  
 General timing and accounting informations for this job:
 ========================================================
  
                  Total CPU time used (sec):      120.688
                            User time (sec):      119.500
                          System time (sec):        1.188
                         Elapsed time (sec):      122.104
  
                   Maximum memory used (kb):       78148.
                   Average memory used (kb):           0.
  
                          Minor page faults:        18870
                          Major page faults:            1
                 Voluntary context switches:         1822
