<?xml version="1.0" encoding="ISO-8859-1"?>
<modeling>
 <generator>
  <i name="program" type="string">vasp </i>
  <i name="version" type="string">5.4.4.18Apr17-6-g9f103f2a35  </i>
  <i name="subversion" type="string">(build Jun 22 2020 09:27:21) complex            parallel </i>
  <i name="platform" type="string">tx2_gcc-7.3_libsci-18.07_cray-fftw-3.3.8 </i>
  <i name="date" type="string">2021 09 20 </i>
  <i name="time" type="string">15:14:56 </i>
 </generator>
 <incar>
  <i type="string" name="SYSTEM"> CsPbBr3 cubic bulk</i>
  <i type="string" name="PREC">accurate</i>
  <i type="string" name="ALGO"> Normal   ! Electronic minimisation algo</i>
  <i type="logical" name="ADDGRID"> T  </i>
  <i type="int" name="NELM">   200</i>
  <i type="int" name="IBRION">     2</i>
  <i name="EDIFF">      0.00000100</i>
  <i name="EDIFFG">     -0.01000000</i>
  <i type="int" name="NSW">     0</i>
  <i type="int" name="ISIF">     3</i>
  <i type="int" name="ISYM">     2</i>
  <i name="ENCUT">    300.00000000</i>
  <i name="POTIM">      0.50000000</i>
  <i type="string" name="LREAL"> AUTO</i>
  <i type="int" name="ISMEAR">     0</i>
  <i name="SIGMA">      0.01000000</i>
  <i name="PSTRESS">      0.00000000</i>
  <i type="logical" name="LWAVE"> F  </i>
  <i type="logical" name="LCHARG"> T  </i>
  <i type="logical" name="LVHAR"> T  </i>
  <i type="int" name="LORBIT">    10</i>
  <i type="logical" name="LASPH"> T  </i>
  <v type="int" name="KPOINT_BSE">    -1     0     0     0</v>
  <i type="int" name="NELM">   200</i>
  <i type="string" name="METAGGA"> SCAN       ! PBE exchange-correlation</i>
  <i type="logical" name="LASPH"> T  </i>
 </incar>
 <structure name="primitive_cell" >
  <crystal>
   <varray name="basis" >
    <v>       8.41180112       0.00000000       0.00000000 </v>
    <v>       0.00000000      11.72694579       0.00000000 </v>
    <v>       0.00000000       0.00000000       7.94845431 </v>
   </varray>
   <i name="volume">    784.07317565 </i>
   <varray name="rec_basis" >
    <v>       0.11888060       0.00000000      -0.00000000 </v>
    <v>       0.00000000       0.08527370       0.00000000 </v>
    <v>      -0.00000000       0.00000000       0.12581062 </v>
   </varray>
  </crystal>
  <varray name="positions" >
   <v>       0.06906683       0.25000000       0.47687365 </v>
   <v>      -0.19765545       0.03447863       0.30815133 </v>
   <v>      -0.19765545       0.46552137       0.30815133 </v>
   <v>       0.49654419       0.25000000      -0.43328244 </v>
   <v>      -0.00345581       0.25000000      -0.06671756 </v>
   <v>       0.19765545      -0.46552137      -0.30815133 </v>
   <v>       0.19765545      -0.03447863      -0.30815133 </v>
   <v>       0.30234455       0.46552137       0.19184867 </v>
   <v>       0.30234455       0.03447863       0.19184867 </v>
   <v>      -0.50000000       0.00000000      -0.50000000 </v>
   <v>      -0.50000000      -0.50000000      -0.50000000 </v>
   <v>       0.00000000       0.00000000       0.00000000 </v>
   <v>       0.00000000      -0.50000000       0.00000000 </v>
   <v>      -0.30234455      -0.03447863      -0.19184867 </v>
   <v>      -0.30234455      -0.46552137      -0.19184867 </v>
   <v>      -0.43093317       0.25000000       0.02312635 </v>
   <v>      -0.06906683      -0.25000000      -0.47687365 </v>
   <v>       0.00345581      -0.25000000       0.06671756 </v>
   <v>      -0.49654419      -0.25000000       0.43328244 </v>
   <v>       0.43093317      -0.25000000      -0.02312635 </v>
  </varray>
 </structure>
 <varray name="primitive_index" >
  <v type="int" >        1 </v>
  <v type="int" >       15 </v>
  <v type="int" >       20 </v>
  <v type="int" >       12 </v>
  <v type="int" >       10 </v>
  <v type="int" >       14 </v>
  <v type="int" >       18 </v>
  <v type="int" >       13 </v>
  <v type="int" >       17 </v>
  <v type="int" >        6 </v>
  <v type="int" >        7 </v>
  <v type="int" >        5 </v>
  <v type="int" >        8 </v>
  <v type="int" >       16 </v>
  <v type="int" >       19 </v>
  <v type="int" >        3 </v>
  <v type="int" >        4 </v>
  <v type="int" >       11 </v>
  <v type="int" >        9 </v>
  <v type="int" >        2 </v>
 </varray>
 <kpoints>
  <generation param="Gamma">
   <v type="int" name="divisions">       3        2        3 </v>
   <v name="usershift">      0.00000000       0.00000000       0.00000000 </v>
   <v name="genvec1">      0.33333333       0.00000000       0.00000000 </v>
   <v name="genvec2">      0.00000000       0.50000000       0.00000000 </v>
   <v name="genvec3">      0.00000000       0.00000000       0.33333333 </v>
   <v name="shift">      0.00000000       0.00000000       0.00000000 </v>
  </generation>
  <varray name="kpointlist" >
   <v>       0.00000000       0.00000000       0.00000000 </v>
   <v>       0.33333333       0.00000000       0.00000000 </v>
   <v>       0.00000000       0.50000000       0.00000000 </v>
   <v>       0.33333333       0.50000000       0.00000000 </v>
   <v>       0.00000000       0.00000000       0.33333333 </v>
   <v>       0.33333333       0.00000000       0.33333333 </v>
   <v>       0.00000000       0.50000000       0.33333333 </v>
   <v>       0.33333333       0.50000000       0.33333333 </v>
  </varray>
  <varray name="weights" >
   <v>       0.05555556 </v>
   <v>       0.11111111 </v>
   <v>       0.05555556 </v>
   <v>       0.11111111 </v>
   <v>       0.11111111 </v>
   <v>       0.22222222 </v>
   <v>       0.11111111 </v>
   <v>       0.22222222 </v>
  </varray>
 </kpoints>
 <parameters>
  <separator name="general" >
   <i type="string" name="SYSTEM">CsPbBr3 cubic bulk</i>
   <i type="logical" name="LCOMPAT"> F  </i>
  </separator>
  <separator name="electronic" >
   <i type="string" name="PREC">accura</i>
   <i name="ENMAX">    300.00000000</i>
   <i name="ENAUG">    503.85200000</i>
   <i name="EDIFF">      0.00000100</i>
   <i type="int" name="IALGO">    38</i>
   <i type="int" name="IWAVPR">    10</i>
   <i type="int" name="NBANDS">   112</i>
   <i name="NELECT">    176.00000000</i>
   <i type="int" name="TURBO">     0</i>
   <i type="int" name="IRESTART">     0</i>
   <i type="int" name="NREBOOT">     0</i>
   <i type="int" name="NMIN">     0</i>
   <i name="EREF">      0.00000000</i>
   <separator name="electronic smearing" >
    <i type="int" name="ISMEAR">     0</i>
    <i name="SIGMA">      0.01000000</i>
    <i name="KSPACING">      0.50000000</i>
    <i type="logical" name="KGAMMA"> T  </i>
   </separator>
   <separator name="electronic projectors" >
    <i type="logical" name="LREAL"> T  </i>
    <v name="ROPT">     -0.00025000     -0.00025000     -0.00025000</v>
    <i type="int" name="LMAXPAW">  -100</i>
    <i type="int" name="LMAXMIX">     2</i>
    <i type="logical" name="NLSPLINE"> F  </i>
   </separator>
   <separator name="electronic startup" >
    <i type="int" name="ISTART">     0</i>
    <i type="int" name="ICHARG">     2</i>
    <i type="int" name="INIWAV">     1</i>
   </separator>
   <separator name="electronic spin" >
    <i type="int" name="ISPIN">     1</i>
    <i type="logical" name="LNONCOLLINEAR"> F  </i>
    <v name="MAGMOM">      1.00000000      1.00000000      1.00000000      1.00000000      1.00000000      1.00000000      1.00000000      1.00000000      1.00000000      1.00000000      1.00000000      1.00000000      1.00000000      1.00000000      1.00000000      1.00000000      1.00000000      1.00000000      1.00000000      1.00000000
</v>
    <i name="NUPDOWN">     -1.00000000</i>
    <i type="logical" name="LSORBIT"> F  </i>
    <v name="SAXIS">      0.00000000      0.00000000      1.00000000</v>
    <i type="logical" name="LSPIRAL"> F  </i>
    <v name="QSPIRAL">      0.00000000      0.00000000      0.00000000</v>
    <i type="logical" name="LZEROZ"> F  </i>
   </separator>
   <separator name="electronic exchange-correlation" >
    <i type="logical" name="LASPH"> T  </i>
    <i type="logical" name="LMETAGGA"> F  </i>
   </separator>
   <separator name="electronic convergence" >
    <i type="int" name="NELM">   200</i>
    <i type="int" name="NELMDL">     0</i>
    <i type="int" name="NELMIN">     2</i>
    <i name="ENINI">    300.00000000</i>
    <separator name="electronic convergence detail" >
     <i type="logical" name="LDIAG"> T  </i>
     <i type="logical" name="LSUBROT"> F  </i>
     <i name="WEIMIN">      0.00000000</i>
     <i name="EBREAK">      0.00000000</i>
     <i name="DEPER">      0.30000000</i>
     <i type="int" name="NRMM">     4</i>
     <i name="TIME">      0.40000000</i>
    </separator>
   </separator>
   <separator name="electronic mixer" >
    <i name="AMIX">      0.40000000</i>
    <i name="BMIX">      1.00000000</i>
    <i name="AMIN">      0.10000000</i>
    <i name="AMIX_MAG">      1.60000000</i>
    <i name="BMIX_MAG">      1.00000000</i>
    <separator name="electronic mixer details" >
     <i type="int" name="IMIX">     4</i>
     <i type="logical" name="MIXFIRST"> F  </i>
     <i type="int" name="MAXMIX">   -45</i>
     <i name="WC">    100.00000000</i>
     <i type="int" name="INIMIX">     1</i>
     <i type="int" name="MIXPRE">     1</i>
     <i type="int" name="MREMOVE">     5</i>
    </separator>
   </separator>
   <separator name="electronic dipolcorrection" >
    <i type="logical" name="LDIPOL"> F  </i>
    <i type="logical" name="LMONO"> F  </i>
    <i type="int" name="IDIPOL">     0</i>
    <i name="EPSILON">      1.00000000</i>
    <v name="DIPOL">   -100.00000000   -100.00000000   -100.00000000</v>
    <i name="EFIELD">      0.00000000</i>
   </separator>
  </separator>
  <separator name="grids" >
   <i type="int" name="NGX">    48</i>
   <i type="int" name="NGY">    70</i>
   <i type="int" name="NGZ">    48</i>
   <i type="int" name="NGXF">    96</i>
   <i type="int" name="NGYF">   140</i>
   <i type="int" name="NGZF">    96</i>
   <i type="logical" name="ADDGRID"> T  </i>
  </separator>
  <separator name="ionic" >
   <i type="int" name="NSW">     0</i>
   <i type="int" name="IBRION">    -1</i>
   <i type="int" name="MDALGO">     0</i>
   <i type="int" name="ISIF">     3</i>
   <i name="PSTRESS">      0.00000000</i>
   <i name="EDIFFG">     -0.01000000</i>
   <i type="int" name="NFREE">     1</i>
   <i name="POTIM">      0.50000000</i>
   <i name="SMASS">     -3.00000000</i>
   <i name="SCALEE">      1.00000000</i>
  </separator>
  <separator name="ionic md" >
   <i name="TEBEG">      0.00010000</i>
   <i name="TEEND">      0.00010000</i>
   <i type="int" name="NBLOCK">     1</i>
   <i type="int" name="KBLOCK">     1</i>
   <i type="int" name="NPACO">   256</i>
   <i name="APACO">     16.00000000</i>
  </separator>
  <separator name="symmetry" >
   <i type="int" name="ISYM">     2</i>
   <i name="SYMPREC">      0.00001000</i>
  </separator>
  <separator name="dos" >
   <i type="int" name="LORBIT">    10</i>
   <v name="RWIGS">     -1.00000000     -1.00000000     -1.00000000</v>
   <i type="int" name="NEDOS">   301</i>
   <i name="EMIN">     10.00000000</i>
   <i name="EMAX">    -10.00000000</i>
   <i name="EFERMI">      0.00000000</i>
  </separator>
  <separator name="writing" >
   <i type="int" name="NWRITE">     2</i>
   <i type="logical" name="LWAVE"> F  </i>
   <i type="logical" name="LDOWNSAMPLE"> F  </i>
   <i type="logical" name="LCHARG"> T  </i>
   <i type="logical" name="LPARD"> F  </i>
   <i type="logical" name="LVTOT"> F  </i>
   <i type="logical" name="LVHAR"> T  </i>
   <i type="logical" name="LELF"> F  </i>
   <i type="logical" name="LOPTICS"> F  </i>
   <v name="STM">      0.00000000      0.00000000      0.00000000      0.00000000      0.00000000      0.00000000      0.00000000</v>
  </separator>
  <separator name="performance" >
   <i type="int" name="NPAR">     8</i>
   <i type="int" name="NSIM">     4</i>
   <i type="int" name="NBLK">    -1</i>
   <i type="logical" name="LPLANE"> T  </i>
   <i type="logical" name="LSCALAPACK"> T  </i>
   <i type="logical" name="LSCAAWARE"> F  </i>
   <i type="logical" name="LSCALU"> F  </i>
   <i type="logical" name="LASYNC"> F  </i>
   <i type="logical" name="LORBITALREAL"> F  </i>
  </separator>
  <separator name="miscellaneous" >
   <i type="int" name="IDIOT">     3</i>
   <i type="int" name="ISPECIAL">     0</i>
   <i type="logical" name="LMUSIC"> F  </i>
   <v name="POMASS">    132.90000000    207.20000000     79.90400000</v>
   <v name="DARWINR">      0.00000000      0.00000000      0.00000000</v>
   <v name="DARWINV">      1.00000000      1.00000000      1.00000000</v>
   <i type="logical" name="LCORR"> T  </i>
  </separator>
  <i type="logical" name="GGA_COMPAT"> T  </i>
  <i type="logical" name="LBERRY"> F  </i>
  <i type="int" name="ICORELEVEL">     0</i>
  <i type="logical" name="LDAU"> F  </i>
  <i type="int" name="I_CONSTRAINED_M">     0</i>
  <separator name="electronic exchange-correlation" >
   <i type="string" name="GGA">--</i>
   <i type="int" name="VOSKOWN">     0</i>
   <i type="logical" name="LHFCALC"> F  </i>
   <i type="string" name="PRECFOCK"></i>
   <i type="logical" name="LSYMGRAD"> F  </i>
   <i type="logical" name="LHFONE"> F  </i>
   <i type="logical" name="LRHFCALC"> F  </i>
   <i type="logical" name="LTHOMAS"> F  </i>
   <i type="logical" name="LMODELHF"> F  </i>
   <i name="ENCUT4O">     -1.00000000</i>
   <i type="int" name="EXXOEP">     0</i>
   <i type="int" name="FOURORBIT">     0</i>
   <i name="AEXX">      0.00000000</i>
   <i name="HFALPHA">      0.00000000</i>
   <i name="MCALPHA">      0.00000000</i>
   <i name="ALDAX">      1.00000000</i>
   <i name="AGGAX">      1.00000000</i>
   <i name="ALDAC">      1.00000000</i>
   <i name="AGGAC">      1.00000000</i>
   <i type="int" name="NKREDX">     1</i>
   <i type="int" name="NKREDY">     1</i>
   <i type="int" name="NKREDZ">     1</i>
   <i type="logical" name="SHIFTRED"> F  </i>
   <i type="logical" name="ODDONLY"> F  </i>
   <i type="logical" name="EVENONLY"> F  </i>
   <i type="int" name="LMAXFOCK">     0</i>
   <i type="int" name="NMAXFOCKAE">     0</i>
   <i type="logical" name="LFOCKAEDFT"> F  </i>
   <i name="HFSCREEN">      0.00000000</i>
   <i name="HFSCREENC">      0.00000000</i>
   <i type="int" name="NBANDSGWLOW">     0</i>
  </separator>
  <separator name="vdW DFT" >
   <i type="logical" name="LUSE_VDW"> F  </i>
   <i name="Zab_VDW">     -0.84910000</i>
   <i name="PARAM1">      0.12340000</i>
   <i name="PARAM2">      1.00000000</i>
   <i name="PARAM3">      0.00000000</i>
  </separator>
  <separator name="model GW" >
   <i type="int" name="MODEL_GW">     0</i>
   <i name="MODEL_EPS0">     23.52219527</i>
   <i name="MODEL_ALPHA">      1.00000000</i>
  </separator>
  <separator name="linear response parameters" >
   <i type="logical" name="LEPSILON"> F  </i>
   <i type="logical" name="LRPA"> F  </i>
   <i type="logical" name="LNABLA"> F  </i>
   <i type="logical" name="LVEL"> F  </i>
   <i type="int" name="KINTER">     0</i>
   <i name="CSHIFT">      0.10000000</i>
   <i name="OMEGAMAX">     -1.00000000</i>
   <i name="DEG_THRESHOLD">      0.00200000</i>
   <i name="RTIME">     -0.10000000</i>
   <i name="WPLASMAI">      0.00000000</i>
   <v name="DFIELD">      0.00000000      0.00000000      0.00000000</v>
   <v name="WPLASMA">      0.00000000      0.00000000      0.00000000      0.00000000      0.00000000      0.00000000      0.00000000      0.00000000      0.00000000</v>
  </separator>
  <separator name="orbital magnetization" >
   <i type="logical" name="NUCIND"> F  </i>
   <v name="MAGPOS">      0.00000000      0.00000000      0.00000000</v>
   <i type="logical" name="LNICSALL"> T  </i>
   <i type="logical" name="ORBITALMAG"> F  </i>
   <i type="logical" name="LMAGBLOCH"> F  </i>
   <i type="logical" name="LCHIMAG"> F  </i>
   <i type="logical" name="LGAUGE"> T  </i>
   <i type="int" name="MAGATOM">     0</i>
   <v name="MAGDIPOL">      0.00000000      0.00000000      0.00000000</v>
   <v name="AVECCONST">      0.00000000      0.00000000      0.00000000</v>
  </separator>
  <separator name="response functions" >
   <i type="logical" name="LADDER"> F  </i>
   <i type="logical" name="LRPAFORCE"> F  </i>
   <i type="logical" name="LFXC"> F  </i>
   <i type="logical" name="LHARTREE"> T  </i>
   <i type="int" name="IBSE">     0</i>
   <v type="int" name="KPOINT">    -1     0     0     0</v>
   <i type="logical" name="LTCTE"> F  </i>
   <i type="logical" name="LTETE"> F  </i>
   <i type="logical" name="LTRIPLET"> F  </i>
   <i type="logical" name="LFXCEPS"> F  </i>
   <i type="logical" name="LFXHEG"> F  </i>
   <i type="int" name="NATURALO">     2</i>
   <i type="logical" name="L2ORDER"> F  </i>
   <i type="logical" name="LMP2LT"> F  </i>
   <i type="logical" name="LUSEW"> F  </i>
   <i name="ENCUTGW">     -2.00000000</i>
   <i name="ENCUTGWSOFT">     -2.00000000</i>
   <i name="ENCUTLF">     -1.00000000</i>
   <i type="int" name="LMAXMP2">    -1</i>
   <i name="SCISSOR">      0.00000000</i>
   <i type="int" name="NOMEGA">     0</i>
   <i type="int" name="NOMEGAR">     0</i>
   <i type="int" name="NBANDSGW">    -1</i>
   <i type="int" name="NBANDSO">    -1</i>
   <i type="int" name="NBANDSV">    -1</i>
   <i type="int" name="NELM">   200</i>
   <i type="int" name="NELMHF">     1</i>
   <i type="int" name="DIM">     3</i>
   <i type="int" name="ANTIRES">     0</i>
   <i name="OMEGAMAX">    -30.00000000</i>
   <i name="OMEGAMIN">    -30.00000000</i>
   <i name="OMEGATL">   -200.00000000</i>
   <i type="int" name="OMEGAGRID">   140</i>
   <i name="CSHIFT">     -0.10000000</i>
   <i type="logical" name="SELFENERGY"> F  </i>
   <i type="logical" name="LSPECTRAL"> F  </i>
   <i type="logical" name="LSPECTRALGW"> F  </i>
   <i type="logical" name="LSINGLES"> F  </i>
   <i type="logical" name="LFERMIGW"> F  </i>
   <i type="logical" name="ODDONLYGW"> F  </i>
   <i type="logical" name="EVENONLYGW"> F  </i>
   <i type="int" name="NKREDLFX">     1</i>
   <i type="int" name="NKREDLFY">     1</i>
   <i type="int" name="NKREDLFZ">     1</i>
   <i type="int" name="MAXMEM">  2800</i>
   <i type="int" name="TELESCOPE">     0</i>
   <i type="int" name="TAUPAR">     1</i>
   <i type="int" name="OMEGAPAR">    -1</i>
   <i name="LAMBDA">      1.00000000</i>
  </separator>
  <separator name="External order field" >
   <i name="OFIELD_KAPPA">      0.00000000</i>
   <v name="OFIELD_K">      0.00000000      0.00000000      0.00000000</v>
   <i name="OFIELD_Q6_NEAR">      0.00000000</i>
   <i name="OFIELD_Q6_FAR">      0.00000000</i>
   <i name="OFIELD_A">      0.00000000</i>
  </separator>
 </parameters>
 <atominfo>
  <atoms>      20 </atoms>
  <types>       3 </types>
  <array name="atoms" >
   <dimension dim="1">ion</dimension>
   <field type="string">element</field>
   <field type="int">atomtype</field>
   <set>
    <rc><c>Cs</c><c>   1</c></rc>
    <rc><c>Cs</c><c>   1</c></rc>
    <rc><c>Cs</c><c>   1</c></rc>
    <rc><c>Cs</c><c>   1</c></rc>
    <rc><c>Pb</c><c>   2</c></rc>
    <rc><c>Pb</c><c>   2</c></rc>
    <rc><c>Pb</c><c>   2</c></rc>
    <rc><c>Pb</c><c>   2</c></rc>
    <rc><c>Br</c><c>   3</c></rc>
    <rc><c>Br</c><c>   3</c></rc>
    <rc><c>Br</c><c>   3</c></rc>
    <rc><c>Br</c><c>   3</c></rc>
    <rc><c>Br</c><c>   3</c></rc>
    <rc><c>Br</c><c>   3</c></rc>
    <rc><c>Br</c><c>   3</c></rc>
    <rc><c>Br</c><c>   3</c></rc>
    <rc><c>Br</c><c>   3</c></rc>
    <rc><c>Br</c><c>   3</c></rc>
    <rc><c>Br</c><c>   3</c></rc>
    <rc><c>Br</c><c>   3</c></rc>
   </set>
  </array>
  <array name="atomtypes" >
   <dimension dim="1">type</dimension>
   <field type="int">atomspertype</field>
   <field type="string">element</field>
   <field>mass</field>
   <field>valence</field>
   <field type="string">pseudopotential</field>
   <set>
    <rc><c>   4</c><c>Cs</c><c>    132.90000000</c><c>      9.00000000</c><c>  PAW_PBE Cs_sv 08Apr2002               </c></rc>
    <rc><c>   4</c><c>Pb</c><c>    207.20000000</c><c>     14.00000000</c><c>  PAW_PBE Pb_d 06Sep2000                </c></rc>
    <rc><c>  12</c><c>Br</c><c>     79.90400000</c><c>      7.00000000</c><c>  PAW_PBE Br 06Sep2000                  </c></rc>
   </set>
  </array>
 </atominfo>
 <structure name="initialpos" >
  <crystal>
   <varray name="basis" >
    <v>       8.41180112       0.00000000       0.00000000 </v>
    <v>       0.00000000      11.72694579       0.00000000 </v>
    <v>       0.00000000       0.00000000       7.94845431 </v>
   </varray>
   <i name="volume">    784.07317565 </i>
   <varray name="rec_basis" >
    <v>       0.11888060       0.00000000      -0.00000000 </v>
    <v>       0.00000000       0.08527370       0.00000000 </v>
    <v>      -0.00000000       0.00000000       0.12581062 </v>
   </varray>
  </crystal>
  <varray name="positions" >
   <v>       0.06906683       0.25000000       0.47687365 </v>
   <v>       0.43093317       0.75000000       0.97687365 </v>
   <v>       0.56906683       0.25000000       0.02312635 </v>
   <v>       0.93093317       0.75000000       0.52312635 </v>
   <v>       0.00000000       0.00000000       0.00000000 </v>
   <v>       0.50000000       0.00000000       0.50000000 </v>
   <v>       0.50000000       0.50000000       0.50000000 </v>
   <v>       0.00000000       0.50000000       0.00000000 </v>
   <v>       0.50345581       0.75000000       0.43328244 </v>
   <v>       0.99654419       0.25000000       0.93328244 </v>
   <v>       0.00345581       0.75000000       0.06671756 </v>
   <v>       0.49654419       0.25000000       0.56671756 </v>
   <v>       0.30234455       0.46552137       0.19184867 </v>
   <v>       0.19765545       0.53447863       0.69184867 </v>
   <v>       0.80234455       0.03447863       0.30815133 </v>
   <v>       0.69765545       0.96552137       0.80815133 </v>
   <v>       0.30234455       0.03447863       0.19184867 </v>
   <v>       0.19765545       0.96552137       0.69184867 </v>
   <v>       0.69765545       0.53447863       0.80815133 </v>
   <v>       0.80234455       0.46552137       0.30815133 </v>
  </varray>
 </structure>
 <calculation>
  <scstep>
   <time name="dav">    3.93    3.94</time>
   <time name="total">    5.22    5.25</time>
   <energy>
    <i name="alphaZ">    460.17252594 </i>
    <i name="ewald">  -9311.44415736 </i>
    <i name="hartreedc">  -3606.85311390 </i>
    <i name="XCdc">    462.62091320 </i>
    <i name="pawpsdc">  10816.98087266 </i>
    <i name="pawaedc"> -11353.96092700 </i>
    <i name="eentropy">     -0.00000002 </i>
    <i name="bandstr">    -82.62493336 </i>
    <i name="atom">  13290.28009929 </i>
    <i name="e_fr_energy">    675.17127944 </i>
    <i name="e_wo_entrp">    675.17127946 </i>
    <i name="e_0_energy">    675.17127945 </i>
   </energy>
  </scstep>
  <scstep>
   <time name="dav">    4.37    4.40</time>
   <time name="total">    4.37    4.40</time>
   <energy>
    <i name="e_fr_energy">   -570.20657629 </i>
    <i name="e_wo_entrp">   -570.20657629 </i>
    <i name="e_0_energy">   -570.20657629 </i>
   </energy>
  </scstep>
  <scstep>
   <time name="dav">    4.77    4.82</time>
   <time name="total">    4.77    4.82</time>
   <energy>
    <i name="e_fr_energy">   -748.65026858 </i>
    <i name="e_wo_entrp">   -748.65026858 </i>
    <i name="e_0_energy">   -748.65026858 </i>
   </energy>
  </scstep>
  <scstep>
   <time name="dav">    4.42    4.46</time>
   <time name="total">    4.42    4.46</time>
   <energy>
    <i name="e_fr_energy">   -754.44306393 </i>
    <i name="e_wo_entrp">   -754.44306393 </i>
    <i name="e_0_energy">   -754.44306393 </i>
   </energy>
  </scstep>
  <scstep>
   <time name="dav">    4.70    4.74</time>
   <time name="total">    5.57    5.61</time>
   <energy>
    <i name="e_fr_energy">   -754.71240939 </i>
    <i name="e_wo_entrp">   -754.71240939 </i>
    <i name="e_0_energy">   -754.71240939 </i>
   </energy>
  </scstep>
  <scstep>
   <time name="dav">    4.66    4.66</time>
   <time name="total">    6.79    6.83</time>
   <energy>
    <i name="e_fr_energy">   -715.00109497 </i>
    <i name="e_wo_entrp">   -715.00109497 </i>
    <i name="e_0_energy">   -715.00109497 </i>
   </energy>
  </scstep>
  <scstep>
   <time name="dav">    4.50    4.50</time>
   <time name="total">    6.66    6.69</time>
   <energy>
    <i name="e_fr_energy">   -714.77250278 </i>
    <i name="e_wo_entrp">   -714.77250278 </i>
    <i name="e_0_energy">   -714.77250278 </i>
   </energy>
  </scstep>
  <scstep>
   <time name="dav">    4.37    4.37</time>
   <time name="total">    6.50    6.54</time>
   <energy>
    <i name="e_fr_energy">   -714.86351952 </i>
    <i name="e_wo_entrp">   -714.86351952 </i>
    <i name="e_0_energy">   -714.86351952 </i>
   </energy>
  </scstep>
  <scstep>
   <time name="dav">    4.16    4.16</time>
   <time name="total">    6.28    6.34</time>
   <energy>
    <i name="e_fr_energy">   -714.90079360 </i>
    <i name="e_wo_entrp">   -714.90079360 </i>
    <i name="e_0_energy">   -714.90079360 </i>
   </energy>
  </scstep>
  <scstep>
   <time name="dav">    4.86    4.86</time>
   <time name="total">    6.99    7.04</time>
   <energy>
    <i name="e_fr_energy">   -714.90147645 </i>
    <i name="e_wo_entrp">   -714.90147645 </i>
    <i name="e_0_energy">   -714.90147645 </i>
   </energy>
  </scstep>
  <scstep>
   <time name="dav">    4.16    4.16</time>
   <time name="total">    6.33    6.33</time>
   <energy>
    <i name="e_fr_energy">   -714.90275537 </i>
    <i name="e_wo_entrp">   -714.90275537 </i>
    <i name="e_0_energy">   -714.90275537 </i>
   </energy>
  </scstep>
  <scstep>
   <time name="dav">    4.45    4.45</time>
   <time name="total">    6.58    6.63</time>
   <energy>
    <i name="e_fr_energy">   -714.90283926 </i>
    <i name="e_wo_entrp">   -714.90283926 </i>
    <i name="e_0_energy">   -714.90283926 </i>
   </energy>
  </scstep>
  <scstep>
   <time name="dav">    4.47    4.47</time>
   <time name="total">    6.59    6.63</time>
   <energy>
    <i name="e_fr_energy">   -714.90284073 </i>
    <i name="e_wo_entrp">   -714.90284073 </i>
    <i name="e_0_energy">   -714.90284073 </i>
   </energy>
  </scstep>
  <scstep>
   <time name="dav">    4.01    4.01</time>
   <time name="total">    6.14    6.17</time>
   <energy>
    <i name="e_fr_energy">   -714.90285380 </i>
    <i name="e_wo_entrp">   -714.90285380 </i>
    <i name="e_0_energy">   -714.90285380 </i>
   </energy>
  </scstep>
  <scstep>
   <time name="dav">    3.33    3.33</time>
   <time name="total">    5.49    5.50</time>
   <energy>
    <i name="e_fr_energy">   -714.90285671 </i>
    <i name="e_wo_entrp">   -714.90285671 </i>
    <i name="e_0_energy">   -714.90285671 </i>
   </energy>
  </scstep>
  <scstep>
   <time name="dav">    3.18    3.18</time>
   <time name="total">    4.51    4.52</time>
   <energy>
    <i name="alphaZ">    460.17252594 </i>
    <i name="ewald">  -9311.44415736 </i>
    <i name="hartreedc">  -3619.48435714 </i>
    <i name="XCdc">    481.89353742 </i>
    <i name="pawpsdc">  11589.28490423 </i>
    <i name="pawaedc"> -12125.72717776 </i>
    <i name="eentropy">     -0.00000000 </i>
    <i name="bandstr">  -1479.87823102 </i>
    <i name="atom">  13290.28009929 </i>
    <i name="e_fr_energy">   -714.90285640 </i>
    <i name="e_wo_entrp">   -714.90285640 </i>
    <i name="e_0_energy">   -714.90285640 </i>
   </energy>
  </scstep>
  <structure>
   <crystal>
    <varray name="basis" >
     <v>       8.41180112       0.00000000       0.00000000 </v>
     <v>       0.00000000      11.72694579       0.00000000 </v>
     <v>       0.00000000       0.00000000       7.94845431 </v>
    </varray>
    <i name="volume">    784.07317565 </i>
    <varray name="rec_basis" >
     <v>       0.11888060       0.00000000      -0.00000000 </v>
     <v>       0.00000000       0.08527370       0.00000000 </v>
     <v>      -0.00000000       0.00000000       0.12581062 </v>
    </varray>
   </crystal>
   <varray name="positions" >
    <v>       0.06906683       0.25000000       0.47687365 </v>
    <v>       0.43093317       0.75000000       0.97687365 </v>
    <v>       0.56906683       0.25000000       0.02312635 </v>
    <v>       0.93093317       0.75000000       0.52312635 </v>
    <v>       0.00000000       0.00000000       0.00000000 </v>
    <v>       0.50000000       0.00000000       0.50000000 </v>
    <v>       0.50000000       0.50000000       0.50000000 </v>
    <v>       0.00000000       0.50000000       0.00000000 </v>
    <v>       0.50345581       0.75000000       0.43328244 </v>
    <v>       0.99654419       0.25000000       0.93328244 </v>
    <v>       0.00345581       0.75000000       0.06671756 </v>
    <v>       0.49654419       0.25000000       0.56671756 </v>
    <v>       0.30234455       0.46552137       0.19184867 </v>
    <v>       0.19765545       0.53447863       0.69184867 </v>
    <v>       0.80234455       0.03447863       0.30815133 </v>
    <v>       0.69765545       0.96552137       0.80815133 </v>
    <v>       0.30234455       0.03447863       0.19184867 </v>
    <v>       0.19765545       0.96552137       0.69184867 </v>
    <v>       0.69765545       0.53447863       0.80815133 </v>
    <v>       0.80234455       0.46552137       0.30815133 </v>
   </varray>
  </structure>
  <varray name="forces" >
   <v>      -0.00701162      -0.00000000       0.00717241 </v>
   <v>       0.00701162      -0.00000000       0.00717241 </v>
   <v>      -0.00701162      -0.00000000      -0.00717241 </v>
   <v>       0.00701162      -0.00000000      -0.00717241 </v>
   <v>       0.00000000      -0.00000000       0.00000000 </v>
   <v>       0.00000000      -0.00000000       0.00000000 </v>
   <v>       0.00000000      -0.00000000       0.00000000 </v>
   <v>       0.00000000      -0.00000000       0.00000000 </v>
   <v>       0.00274975      -0.00000000      -0.01911216 </v>
   <v>      -0.00274975      -0.00000000      -0.01911216 </v>
   <v>       0.00274975      -0.00000000       0.01911216 </v>
   <v>      -0.00274975      -0.00000000       0.01911216 </v>
   <v>       0.00075407      -0.00743936       0.00406864 </v>
   <v>      -0.00075407       0.00743936       0.00406864 </v>
   <v>       0.00075407       0.00743936      -0.00406864 </v>
   <v>      -0.00075407      -0.00743936      -0.00406864 </v>
   <v>       0.00075407       0.00743936       0.00406864 </v>
   <v>      -0.00075407      -0.00743936       0.00406864 </v>
   <v>      -0.00075407       0.00743936      -0.00406864 </v>
   <v>       0.00075407      -0.00743936      -0.00406864 </v>
  </varray>
  <varray name="stress" >
   <v>       2.38238848       0.00000000      -0.00000000 </v>
   <v>       0.00000000       3.10116899       0.00000000 </v>
   <v>       0.00000000       0.00000000       2.49787722 </v>
  </varray>
  <energy>
   <i name="e_fr_energy">   -714.90285640 </i>
   <i name="e_wo_entrp">   -714.90285640 </i>
   <i name="e_0_energy">     -0.00000000 </i>
  </energy>
  <time name="totalsc">  110.90  111.61</time>
  <eigenvalues>
   <array>
    <dimension dim="1">band</dimension>
    <dimension dim="2">kpoint</dimension>
    <dimension dim="3">spin</dimension>
    <field>eigene</field>
    <field>occ</field>
    <set>
     <set comment="spin 1">
      <set comment="kpoint 1">
       <r>  -20.5875    1.0000 </r>
       <r>  -20.5855    1.0000 </r>
       <r>  -20.5828    1.0000 </r>
       <r>  -20.5815    1.0000 </r>
       <r>  -16.3053    1.0000 </r>
       <r>  -16.2951    1.0000 </r>
       <r>  -16.2951    1.0000 </r>
       <r>  -16.2772    1.0000 </r>
       <r>  -16.2424    1.0000 </r>
       <r>  -16.2069    1.0000 </r>
       <r>  -16.1995    1.0000 </r>
       <r>  -16.1994    1.0000 </r>
       <r>  -16.1352    1.0000 </r>
       <r>  -16.1347    1.0000 </r>
       <r>  -16.1340    1.0000 </r>
       <r>  -16.1336    1.0000 </r>
       <r>  -16.1321    1.0000 </r>
       <r>  -16.1317    1.0000 </r>
       <r>  -16.1309    1.0000 </r>
       <r>  -16.1303    1.0000 </r>
       <r>  -16.1225    1.0000 </r>
       <r>  -16.1221    1.0000 </r>
       <r>  -16.1211    1.0000 </r>
       <r>  -16.1206    1.0000 </r>
       <r>  -14.2413    1.0000 </r>
       <r>  -14.0535    1.0000 </r>
       <r>  -13.9142    1.0000 </r>
       <r>  -13.9136    1.0000 </r>
       <r>  -13.9011    1.0000 </r>
       <r>  -13.8947    1.0000 </r>
       <r>  -13.8739    1.0000 </r>
       <r>  -13.8663    1.0000 </r>
       <r>  -13.8416    1.0000 </r>
       <r>  -13.6149    1.0000 </r>
       <r>  -13.6112    1.0000 </r>
       <r>  -13.6082    1.0000 </r>
       <r>   -8.0536    1.0000 </r>
       <r>   -7.5341    1.0000 </r>
       <r>   -7.0513    1.0000 </r>
       <r>   -7.0331    1.0000 </r>
       <r>   -7.0307    1.0000 </r>
       <r>   -7.0290    1.0000 </r>
       <r>   -7.0224    1.0000 </r>
       <r>   -7.0075    1.0000 </r>
       <r>   -7.0067    1.0000 </r>
       <r>   -6.9963    1.0000 </r>
       <r>   -6.9907    1.0000 </r>
       <r>   -6.9844    1.0000 </r>
       <r>   -6.9694    1.0000 </r>
       <r>   -6.9612    1.0000 </r>
       <r>   -6.9292    1.0000 </r>
       <r>   -6.3570    1.0000 </r>
       <r>   -3.2260    1.0000 </r>
       <r>   -3.1760    1.0000 </r>
       <r>   -3.1465    1.0000 </r>
       <r>   -3.0487    1.0000 </r>
       <r>   -3.0347    1.0000 </r>
       <r>   -2.9928    1.0000 </r>
       <r>   -2.0432    1.0000 </r>
       <r>   -1.8093    1.0000 </r>
       <r>   -1.7598    1.0000 </r>
       <r>   -1.7351    1.0000 </r>
       <r>   -1.7331    1.0000 </r>
       <r>   -1.6479    1.0000 </r>
       <r>   -1.5087    1.0000 </r>
       <r>   -1.4013    1.0000 </r>
       <r>   -1.3937    1.0000 </r>
       <r>   -1.3851    1.0000 </r>
       <r>   -1.2870    1.0000 </r>
       <r>   -1.2839    1.0000 </r>
       <r>   -1.2770    1.0000 </r>
       <r>   -1.2768    1.0000 </r>
       <r>   -1.2557    1.0000 </r>
       <r>   -1.2344    1.0000 </r>
       <r>   -1.2152    1.0000 </r>
       <r>   -1.2078    1.0000 </r>
       <r>   -1.1901    1.0000 </r>
       <r>   -1.0341    1.0000 </r>
       <r>   -0.9930    1.0000 </r>
       <r>   -0.9853    1.0000 </r>
       <r>   -0.9465    1.0000 </r>
       <r>   -0.9179    1.0000 </r>
       <r>   -0.8995    1.0000 </r>
       <r>   -0.8525    1.0000 </r>
       <r>   -0.6604    1.0000 </r>
       <r>   -0.4407    1.0000 </r>
       <r>    0.0324    1.0000 </r>
       <r>    0.6533    1.0000 </r>
       <r>    2.8985    0.0000 </r>
       <r>    2.9506    0.0000 </r>
       <r>    3.0969    0.0000 </r>
       <r>    3.3070    0.0000 </r>
       <r>    3.5493    0.0000 </r>
       <r>    3.6974    0.0000 </r>
       <r>    5.1214    0.0000 </r>
       <r>    5.8910    0.0000 </r>
       <r>    6.0397    0.0000 </r>
       <r>    6.0432    0.0000 </r>
       <r>    6.1957    0.0000 </r>
       <r>    6.2272    0.0000 </r>
       <r>    6.3210    0.0000 </r>
       <r>    6.3630    0.0000 </r>
       <r>    6.4904    0.0000 </r>
       <r>    6.6251    0.0000 </r>
       <r>    6.6541    0.0000 </r>
       <r>    6.7632    0.0000 </r>
       <r>    6.8071    0.0000 </r>
       <r>    6.9288    0.0000 </r>
       <r>    7.0385    0.0000 </r>
       <r>    7.1343    0.0000 </r>
       <r>    7.1601    0.0000 </r>
       <r>    7.2889    0.0000 </r>
      </set>
      <set comment="kpoint 2">
       <r>  -20.5864    1.0000 </r>
       <r>  -20.5844    1.0000 </r>
       <r>  -20.5838    1.0000 </r>
       <r>  -20.5824    1.0000 </r>
       <r>  -16.2981    1.0000 </r>
       <r>  -16.2839    1.0000 </r>
       <r>  -16.2724    1.0000 </r>
       <r>  -16.2723    1.0000 </r>
       <r>  -16.2333    1.0000 </r>
       <r>  -16.2248    1.0000 </r>
       <r>  -16.2247    1.0000 </r>
       <r>  -16.2156    1.0000 </r>
       <r>  -16.1352    1.0000 </r>
       <r>  -16.1348    1.0000 </r>
       <r>  -16.1338    1.0000 </r>
       <r>  -16.1336    1.0000 </r>
       <r>  -16.1318    1.0000 </r>
       <r>  -16.1313    1.0000 </r>
       <r>  -16.1312    1.0000 </r>
       <r>  -16.1307    1.0000 </r>
       <r>  -16.1221    1.0000 </r>
       <r>  -16.1216    1.0000 </r>
       <r>  -16.1214    1.0000 </r>
       <r>  -16.1210    1.0000 </r>
       <r>  -14.1911    1.0000 </r>
       <r>  -14.0547    1.0000 </r>
       <r>  -14.0166    1.0000 </r>
       <r>  -13.9374    1.0000 </r>
       <r>  -13.9135    1.0000 </r>
       <r>  -13.9107    1.0000 </r>
       <r>  -13.8080    1.0000 </r>
       <r>  -13.8011    1.0000 </r>
       <r>  -13.7212    1.0000 </r>
       <r>  -13.6767    1.0000 </r>
       <r>  -13.6722    1.0000 </r>
       <r>  -13.6390    1.0000 </r>
       <r>   -7.8392    1.0000 </r>
       <r>   -7.3496    1.0000 </r>
       <r>   -7.3176    1.0000 </r>
       <r>   -7.0593    1.0000 </r>
       <r>   -7.0233    1.0000 </r>
       <r>   -7.0192    1.0000 </r>
       <r>   -7.0129    1.0000 </r>
       <r>   -6.9997    1.0000 </r>
       <r>   -6.9968    1.0000 </r>
       <r>   -6.9855    1.0000 </r>
       <r>   -6.9841    1.0000 </r>
       <r>   -6.9683    1.0000 </r>
       <r>   -6.9663    1.0000 </r>
       <r>   -6.9587    1.0000 </r>
       <r>   -6.9480    1.0000 </r>
       <r>   -6.7150    1.0000 </r>
       <r>   -3.1612    1.0000 </r>
       <r>   -3.0624    1.0000 </r>
       <r>   -2.8571    1.0000 </r>
       <r>   -2.7273    1.0000 </r>
       <r>   -2.6310    1.0000 </r>
       <r>   -2.6121    1.0000 </r>
       <r>   -2.1273    1.0000 </r>
       <r>   -2.0080    1.0000 </r>
       <r>   -1.9621    1.0000 </r>
       <r>   -1.8688    1.0000 </r>
       <r>   -1.8675    1.0000 </r>
       <r>   -1.8241    1.0000 </r>
       <r>   -1.6818    1.0000 </r>
       <r>   -1.5635    1.0000 </r>
       <r>   -1.5295    1.0000 </r>
       <r>   -1.4937    1.0000 </r>
       <r>   -1.3346    1.0000 </r>
       <r>   -1.2979    1.0000 </r>
       <r>   -1.2879    1.0000 </r>
       <r>   -1.2587    1.0000 </r>
       <r>   -1.2478    1.0000 </r>
       <r>   -1.2295    1.0000 </r>
       <r>   -1.1787    1.0000 </r>
       <r>   -1.1739    1.0000 </r>
       <r>   -1.1151    1.0000 </r>
       <r>   -1.0623    1.0000 </r>
       <r>   -1.0618    1.0000 </r>
       <r>   -1.0222    1.0000 </r>
       <r>   -0.9757    1.0000 </r>
       <r>   -0.9686    1.0000 </r>
       <r>   -0.9077    1.0000 </r>
       <r>   -0.8617    1.0000 </r>
       <r>   -0.6357    1.0000 </r>
       <r>   -0.4832    1.0000 </r>
       <r>   -0.3123    1.0000 </r>
       <r>    0.1216    1.0000 </r>
       <r>    3.1225    0.0000 </r>
       <r>    3.4728    0.0000 </r>
       <r>    3.6904    0.0000 </r>
       <r>    3.9786    0.0000 </r>
       <r>    4.0567    0.0000 </r>
       <r>    4.3626    0.0000 </r>
       <r>    5.2140    0.0000 </r>
       <r>    5.3624    0.0000 </r>
       <r>    5.4386    0.0000 </r>
       <r>    5.5348    0.0000 </r>
       <r>    6.0283    0.0000 </r>
       <r>    6.0402    0.0000 </r>
       <r>    6.3817    0.0000 </r>
       <r>    6.3960    0.0000 </r>
       <r>    6.6156    0.0000 </r>
       <r>    6.6510    0.0000 </r>
       <r>    6.6589    0.0000 </r>
       <r>    6.6643    0.0000 </r>
       <r>    6.6817    0.0000 </r>
       <r>    6.9396    0.0000 </r>
       <r>    7.0816    0.0000 </r>
       <r>    7.1854    0.0000 </r>
       <r>    7.3114    0.0000 </r>
       <r>    7.3378    0.0000 </r>
      </set>
      <set comment="kpoint 3">
       <r>  -20.5865    1.0000 </r>
       <r>  -20.5865    1.0000 </r>
       <r>  -20.5821    1.0000 </r>
       <r>  -20.5821    1.0000 </r>
       <r>  -16.2950    1.0000 </r>
       <r>  -16.2950    1.0000 </r>
       <r>  -16.2741    1.0000 </r>
       <r>  -16.2741    1.0000 </r>
       <r>  -16.2428    1.0000 </r>
       <r>  -16.2428    1.0000 </r>
       <r>  -16.1994    1.0000 </r>
       <r>  -16.1994    1.0000 </r>
       <r>  -16.1347    1.0000 </r>
       <r>  -16.1347    1.0000 </r>
       <r>  -16.1341    1.0000 </r>
       <r>  -16.1341    1.0000 </r>
       <r>  -16.1318    1.0000 </r>
       <r>  -16.1318    1.0000 </r>
       <r>  -16.1306    1.0000 </r>
       <r>  -16.1306    1.0000 </r>
       <r>  -16.1222    1.0000 </r>
       <r>  -16.1222    1.0000 </r>
       <r>  -16.1208    1.0000 </r>
       <r>  -16.1208    1.0000 </r>
       <r>  -14.1829    1.0000 </r>
       <r>  -14.1829    1.0000 </r>
       <r>  -13.9011    1.0000 </r>
       <r>  -13.9011    1.0000 </r>
       <r>  -13.8737    1.0000 </r>
       <r>  -13.8737    1.0000 </r>
       <r>  -13.8702    1.0000 </r>
       <r>  -13.8702    1.0000 </r>
       <r>  -13.7283    1.0000 </r>
       <r>  -13.7283    1.0000 </r>
       <r>  -13.6096    1.0000 </r>
       <r>  -13.6096    1.0000 </r>
       <r>   -7.8142    1.0000 </r>
       <r>   -7.8142    1.0000 </r>
       <r>   -7.0425    1.0000 </r>
       <r>   -7.0425    1.0000 </r>
       <r>   -7.0266    1.0000 </r>
       <r>   -7.0266    1.0000 </r>
       <r>   -6.9987    1.0000 </r>
       <r>   -6.9987    1.0000 </r>
       <r>   -6.9869    1.0000 </r>
       <r>   -6.9869    1.0000 </r>
       <r>   -6.9829    1.0000 </r>
       <r>   -6.9829    1.0000 </r>
       <r>   -6.9684    1.0000 </r>
       <r>   -6.9684    1.0000 </r>
       <r>   -6.7340    1.0000 </r>
       <r>   -6.7340    1.0000 </r>
       <r>   -3.1341    1.0000 </r>
       <r>   -3.1341    1.0000 </r>
       <r>   -3.0928    1.0000 </r>
       <r>   -3.0928    1.0000 </r>
       <r>   -2.3512    1.0000 </r>
       <r>   -2.3512    1.0000 </r>
       <r>   -2.2067    1.0000 </r>
       <r>   -2.2067    1.0000 </r>
       <r>   -1.9073    1.0000 </r>
       <r>   -1.9073    1.0000 </r>
       <r>   -1.6860    1.0000 </r>
       <r>   -1.6860    1.0000 </r>
       <r>   -1.6479    1.0000 </r>
       <r>   -1.6479    1.0000 </r>
       <r>   -1.3641    1.0000 </r>
       <r>   -1.3641    1.0000 </r>
       <r>   -1.3459    1.0000 </r>
       <r>   -1.3459    1.0000 </r>
       <r>   -1.2611    1.0000 </r>
       <r>   -1.2611    1.0000 </r>
       <r>   -1.2126    1.0000 </r>
       <r>   -1.2126    1.0000 </r>
       <r>   -1.1902    1.0000 </r>
       <r>   -1.1902    1.0000 </r>
       <r>   -1.0596    1.0000 </r>
       <r>   -1.0596    1.0000 </r>
       <r>   -1.0374    1.0000 </r>
       <r>   -1.0374    1.0000 </r>
       <r>   -0.9831    1.0000 </r>
       <r>   -0.9831    1.0000 </r>
       <r>   -0.9430    1.0000 </r>
       <r>   -0.9430    1.0000 </r>
       <r>   -0.6772    1.0000 </r>
       <r>   -0.6772    1.0000 </r>
       <r>    0.1736    1.0000 </r>
       <r>    0.1736    1.0000 </r>
       <r>    3.1153    0.0000 </r>
       <r>    3.1153    0.0000 </r>
       <r>    3.3200    0.0000 </r>
       <r>    3.3200    0.0000 </r>
       <r>    4.5178    0.0000 </r>
       <r>    4.5178    0.0000 </r>
       <r>    5.0807    0.0000 </r>
       <r>    5.0807    0.0000 </r>
       <r>    5.7824    0.0000 </r>
       <r>    5.7824    0.0000 </r>
       <r>    6.1946    0.0000 </r>
       <r>    6.1946    0.0000 </r>
       <r>    6.3080    0.0000 </r>
       <r>    6.3080    0.0000 </r>
       <r>    6.4368    0.0000 </r>
       <r>    6.4368    0.0000 </r>
       <r>    6.5707    0.0000 </r>
       <r>    6.5707    0.0000 </r>
       <r>    6.8555    0.0000 </r>
       <r>    6.8555    0.0000 </r>
       <r>    7.0501    0.0000 </r>
       <r>    7.0504    0.0000 </r>
       <r>    7.1836    0.0000 </r>
       <r>    7.1989    0.0000 </r>
      </set>
      <set comment="kpoint 4">
       <r>  -20.5854    1.0000 </r>
       <r>  -20.5854    1.0000 </r>
       <r>  -20.5832    1.0000 </r>
       <r>  -20.5832    1.0000 </r>
       <r>  -16.2725    1.0000 </r>
       <r>  -16.2725    1.0000 </r>
       <r>  -16.2661    1.0000 </r>
       <r>  -16.2661    1.0000 </r>
       <r>  -16.2504    1.0000 </r>
       <r>  -16.2504    1.0000 </r>
       <r>  -16.2247    1.0000 </r>
       <r>  -16.2247    1.0000 </r>
       <r>  -16.1346    1.0000 </r>
       <r>  -16.1346    1.0000 </r>
       <r>  -16.1343    1.0000 </r>
       <r>  -16.1343    1.0000 </r>
       <r>  -16.1316    1.0000 </r>
       <r>  -16.1316    1.0000 </r>
       <r>  -16.1310    1.0000 </r>
       <r>  -16.1310    1.0000 </r>
       <r>  -16.1220    1.0000 </r>
       <r>  -16.1220    1.0000 </r>
       <r>  -16.1213    1.0000 </r>
       <r>  -16.1213    1.0000 </r>
       <r>  -14.1387    1.0000 </r>
       <r>  -14.1387    1.0000 </r>
       <r>  -14.0235    1.0000 </r>
       <r>  -14.0235    1.0000 </r>
       <r>  -13.8052    1.0000 </r>
       <r>  -13.8052    1.0000 </r>
       <r>  -13.7877    1.0000 </r>
       <r>  -13.7877    1.0000 </r>
       <r>  -13.7402    1.0000 </r>
       <r>  -13.7402    1.0000 </r>
       <r>  -13.6745    1.0000 </r>
       <r>  -13.6745    1.0000 </r>
       <r>   -7.5988    1.0000 </r>
       <r>   -7.5988    1.0000 </r>
       <r>   -7.1182    1.0000 </r>
       <r>   -7.1182    1.0000 </r>
       <r>   -7.0259    1.0000 </r>
       <r>   -7.0259    1.0000 </r>
       <r>   -7.0236    1.0000 </r>
       <r>   -7.0236    1.0000 </r>
       <r>   -6.9916    1.0000 </r>
       <r>   -6.9916    1.0000 </r>
       <r>   -6.9799    1.0000 </r>
       <r>   -6.9799    1.0000 </r>
       <r>   -6.9731    1.0000 </r>
       <r>   -6.9731    1.0000 </r>
       <r>   -6.9275    1.0000 </r>
       <r>   -6.9275    1.0000 </r>
       <r>   -2.7954    1.0000 </r>
       <r>   -2.7954    1.0000 </r>
       <r>   -2.7115    1.0000 </r>
       <r>   -2.7115    1.0000 </r>
       <r>   -2.3222    1.0000 </r>
       <r>   -2.3222    1.0000 </r>
       <r>   -2.2574    1.0000 </r>
       <r>   -2.2574    1.0000 </r>
       <r>   -2.0461    1.0000 </r>
       <r>   -2.0461    1.0000 </r>
       <r>   -1.9362    1.0000 </r>
       <r>   -1.9362    1.0000 </r>
       <r>   -1.6088    1.0000 </r>
       <r>   -1.6088    1.0000 </r>
       <r>   -1.5354    1.0000 </r>
       <r>   -1.5354    1.0000 </r>
       <r>   -1.4167    1.0000 </r>
       <r>   -1.4167    1.0000 </r>
       <r>   -1.3831    1.0000 </r>
       <r>   -1.3831    1.0000 </r>
       <r>   -1.2501    1.0000 </r>
       <r>   -1.2501    1.0000 </r>
       <r>   -1.2258    1.0000 </r>
       <r>   -1.2258    1.0000 </r>
       <r>   -1.0047    1.0000 </r>
       <r>   -1.0047    1.0000 </r>
       <r>   -0.9896    1.0000 </r>
       <r>   -0.9896    1.0000 </r>
       <r>   -0.9624    1.0000 </r>
       <r>   -0.9624    1.0000 </r>
       <r>   -0.9437    1.0000 </r>
       <r>   -0.9437    1.0000 </r>
       <r>   -0.6322    1.0000 </r>
       <r>   -0.6322    1.0000 </r>
       <r>   -0.3605    1.0000 </r>
       <r>   -0.3605    1.0000 </r>
       <r>    3.8622    0.0000 </r>
       <r>    3.8622    0.0000 </r>
       <r>    4.1377    0.0000 </r>
       <r>    4.1377    0.0000 </r>
       <r>    4.6661    0.0000 </r>
       <r>    4.6661    0.0000 </r>
       <r>    4.9147    0.0000 </r>
       <r>    4.9147    0.0000 </r>
       <r>    5.3524    0.0000 </r>
       <r>    5.3524    0.0000 </r>
       <r>    5.5110    0.0000 </r>
       <r>    5.5110    0.0000 </r>
       <r>    6.2842    0.0000 </r>
       <r>    6.2842    0.0000 </r>
       <r>    6.5147    0.0000 </r>
       <r>    6.5147    0.0000 </r>
       <r>    6.7466    0.0000 </r>
       <r>    6.7466    0.0000 </r>
       <r>    6.8127    0.0000 </r>
       <r>    6.8127    0.0000 </r>
       <r>    6.9591    0.0000 </r>
       <r>    6.9591    0.0000 </r>
       <r>    7.0871    0.0000 </r>
       <r>    7.0877    0.0000 </r>
      </set>
      <set comment="kpoint 5">
       <r>  -20.5864    1.0000 </r>
       <r>  -20.5849    1.0000 </r>
       <r>  -20.5833    1.0000 </r>
       <r>  -20.5823    1.0000 </r>
       <r>  -16.2980    1.0000 </r>
       <r>  -16.2840    1.0000 </r>
       <r>  -16.2726    1.0000 </r>
       <r>  -16.2724    1.0000 </r>
       <r>  -16.2332    1.0000 </r>
       <r>  -16.2249    1.0000 </r>
       <r>  -16.2249    1.0000 </r>
       <r>  -16.2156    1.0000 </r>
       <r>  -16.1351    1.0000 </r>
       <r>  -16.1348    1.0000 </r>
       <r>  -16.1341    1.0000 </r>
       <r>  -16.1337    1.0000 </r>
       <r>  -16.1318    1.0000 </r>
       <r>  -16.1313    1.0000 </r>
       <r>  -16.1312    1.0000 </r>
       <r>  -16.1307    1.0000 </r>
       <r>  -16.1221    1.0000 </r>
       <r>  -16.1217    1.0000 </r>
       <r>  -16.1214    1.0000 </r>
       <r>  -16.1210    1.0000 </r>
       <r>  -14.1869    1.0000 </r>
       <r>  -14.0406    1.0000 </r>
       <r>  -14.0102    1.0000 </r>
       <r>  -13.9167    1.0000 </r>
       <r>  -13.9147    1.0000 </r>
       <r>  -13.9124    1.0000 </r>
       <r>  -13.8321    1.0000 </r>
       <r>  -13.8225    1.0000 </r>
       <r>  -13.7145    1.0000 </r>
       <r>  -13.6836    1.0000 </r>
       <r>  -13.6794    1.0000 </r>
       <r>  -13.6368    1.0000 </r>
       <r>   -7.8350    1.0000 </r>
       <r>   -7.3329    1.0000 </r>
       <r>   -7.3124    1.0000 </r>
       <r>   -7.0296    1.0000 </r>
       <r>   -7.0244    1.0000 </r>
       <r>   -7.0189    1.0000 </r>
       <r>   -7.0168    1.0000 </r>
       <r>   -6.9968    1.0000 </r>
       <r>   -6.9940    1.0000 </r>
       <r>   -6.9930    1.0000 </r>
       <r>   -6.9814    1.0000 </r>
       <r>   -6.9726    1.0000 </r>
       <r>   -6.9685    1.0000 </r>
       <r>   -6.9570    1.0000 </r>
       <r>   -6.9468    1.0000 </r>
       <r>   -6.7125    1.0000 </r>
       <r>   -3.1634    1.0000 </r>
       <r>   -3.0628    1.0000 </r>
       <r>   -2.8914    1.0000 </r>
       <r>   -2.7577    1.0000 </r>
       <r>   -2.6223    1.0000 </r>
       <r>   -2.5346    1.0000 </r>
       <r>   -2.1968    1.0000 </r>
       <r>   -1.9736    1.0000 </r>
       <r>   -1.9576    1.0000 </r>
       <r>   -1.9039    1.0000 </r>
       <r>   -1.8471    1.0000 </r>
       <r>   -1.7341    1.0000 </r>
       <r>   -1.6763    1.0000 </r>
       <r>   -1.5889    1.0000 </r>
       <r>   -1.4966    1.0000 </r>
       <r>   -1.4906    1.0000 </r>
       <r>   -1.3309    1.0000 </r>
       <r>   -1.3138    1.0000 </r>
       <r>   -1.2918    1.0000 </r>
       <r>   -1.2469    1.0000 </r>
       <r>   -1.1875    1.0000 </r>
       <r>   -1.1842    1.0000 </r>
       <r>   -1.1626    1.0000 </r>
       <r>   -1.1614    1.0000 </r>
       <r>   -1.1488    1.0000 </r>
       <r>   -1.1157    1.0000 </r>
       <r>   -1.0626    1.0000 </r>
       <r>   -1.0489    1.0000 </r>
       <r>   -1.0134    1.0000 </r>
       <r>   -0.9786    1.0000 </r>
       <r>   -0.9100    1.0000 </r>
       <r>   -0.8712    1.0000 </r>
       <r>   -0.7571    1.0000 </r>
       <r>   -0.5225    1.0000 </r>
       <r>   -0.3558    1.0000 </r>
       <r>    0.0646    1.0000 </r>
       <r>    3.1216    0.0000 </r>
       <r>    3.4641    0.0000 </r>
       <r>    3.8110    0.0000 </r>
       <r>    3.8378    0.0000 </r>
       <r>    4.2167    0.0000 </r>
       <r>    4.2194    0.0000 </r>
       <r>    5.2500    0.0000 </r>
       <r>    5.2658    0.0000 </r>
       <r>    5.4663    0.0000 </r>
       <r>    5.6438    0.0000 </r>
       <r>    5.9309    0.0000 </r>
       <r>    6.0456    0.0000 </r>
       <r>    6.3325    0.0000 </r>
       <r>    6.3490    0.0000 </r>
       <r>    6.3772    0.0000 </r>
       <r>    6.6153    0.0000 </r>
       <r>    6.6944    0.0000 </r>
       <r>    6.8290    0.0000 </r>
       <r>    6.8396    0.0000 </r>
       <r>    7.0622    0.0000 </r>
       <r>    7.0826    0.0000 </r>
       <r>    7.1872    0.0000 </r>
       <r>    7.2055    0.0000 </r>
       <r>    7.2567    0.0000 </r>
      </set>
      <set comment="kpoint 6">
       <r>  -20.5857    1.0000 </r>
       <r>  -20.5846    1.0000 </r>
       <r>  -20.5837    1.0000 </r>
       <r>  -20.5829    1.0000 </r>
       <r>  -16.3029    1.0000 </r>
       <r>  -16.2937    1.0000 </r>
       <r>  -16.2717    1.0000 </r>
       <r>  -16.2528    1.0000 </r>
       <r>  -16.2518    1.0000 </r>
       <r>  -16.2310    1.0000 </r>
       <r>  -16.2178    1.0000 </r>
       <r>  -16.2049    1.0000 </r>
       <r>  -16.1350    1.0000 </r>
       <r>  -16.1349    1.0000 </r>
       <r>  -16.1340    1.0000 </r>
       <r>  -16.1338    1.0000 </r>
       <r>  -16.1317    1.0000 </r>
       <r>  -16.1314    1.0000 </r>
       <r>  -16.1310    1.0000 </r>
       <r>  -16.1308    1.0000 </r>
       <r>  -16.1220    1.0000 </r>
       <r>  -16.1216    1.0000 </r>
       <r>  -16.1214    1.0000 </r>
       <r>  -16.1212    1.0000 </r>
       <r>  -14.1358    1.0000 </r>
       <r>  -14.0344    1.0000 </r>
       <r>  -13.9705    1.0000 </r>
       <r>  -13.9198    1.0000 </r>
       <r>  -13.9146    1.0000 </r>
       <r>  -13.8983    1.0000 </r>
       <r>  -13.8903    1.0000 </r>
       <r>  -13.8326    1.0000 </r>
       <r>  -13.7914    1.0000 </r>
       <r>  -13.7356    1.0000 </r>
       <r>  -13.6386    1.0000 </r>
       <r>  -13.6028    1.0000 </r>
       <r>   -7.7043    1.0000 </r>
       <r>   -7.4562    1.0000 </r>
       <r>   -7.1734    1.0000 </r>
       <r>   -7.0218    1.0000 </r>
       <r>   -7.0136    1.0000 </r>
       <r>   -7.0082    1.0000 </r>
       <r>   -7.0003    1.0000 </r>
       <r>   -6.9982    1.0000 </r>
       <r>   -6.9877    1.0000 </r>
       <r>   -6.9802    1.0000 </r>
       <r>   -6.9794    1.0000 </r>
       <r>   -6.9775    1.0000 </r>
       <r>   -6.9668    1.0000 </r>
       <r>   -6.9585    1.0000 </r>
       <r>   -6.9481    1.0000 </r>
       <r>   -6.8319    1.0000 </r>
       <r>   -3.1535    1.0000 </r>
       <r>   -3.1127    1.0000 </r>
       <r>   -3.0844    1.0000 </r>
       <r>   -2.9400    1.0000 </r>
       <r>   -2.7017    1.0000 </r>
       <r>   -2.5528    1.0000 </r>
       <r>   -2.1171    1.0000 </r>
       <r>   -1.9752    1.0000 </r>
       <r>   -1.9659    1.0000 </r>
       <r>   -1.9598    1.0000 </r>
       <r>   -1.8716    1.0000 </r>
       <r>   -1.6129    1.0000 </r>
       <r>   -1.5996    1.0000 </r>
       <r>   -1.5368    1.0000 </r>
       <r>   -1.4138    1.0000 </r>
       <r>   -1.3776    1.0000 </r>
       <r>   -1.3283    1.0000 </r>
       <r>   -1.2844    1.0000 </r>
       <r>   -1.2683    1.0000 </r>
       <r>   -1.2506    1.0000 </r>
       <r>   -1.2488    1.0000 </r>
       <r>   -1.2307    1.0000 </r>
       <r>   -1.1902    1.0000 </r>
       <r>   -1.1575    1.0000 </r>
       <r>   -1.1305    1.0000 </r>
       <r>   -1.1279    1.0000 </r>
       <r>   -1.1034    1.0000 </r>
       <r>   -1.0780    1.0000 </r>
       <r>   -1.0522    1.0000 </r>
       <r>   -0.9824    1.0000 </r>
       <r>   -0.9242    1.0000 </r>
       <r>   -0.8863    1.0000 </r>
       <r>   -0.6817    1.0000 </r>
       <r>   -0.4908    1.0000 </r>
       <r>   -0.1952    1.0000 </r>
       <r>    0.1067    1.0000 </r>
       <r>    3.2009    0.0000 </r>
       <r>    3.2648    0.0000 </r>
       <r>    3.3749    0.0000 </r>
       <r>    3.6674    0.0000 </r>
       <r>    4.0890    0.0000 </r>
       <r>    4.4427    0.0000 </r>
       <r>    5.0193    0.0000 </r>
       <r>    5.4532    0.0000 </r>
       <r>    5.7215    0.0000 </r>
       <r>    6.1715    0.0000 </r>
       <r>    6.1868    0.0000 </r>
       <r>    6.2089    0.0000 </r>
       <r>    6.3883    0.0000 </r>
       <r>    6.5276    0.0000 </r>
       <r>    6.5624    0.0000 </r>
       <r>    6.7499    0.0000 </r>
       <r>    6.8177    0.0000 </r>
       <r>    6.8602    0.0000 </r>
       <r>    6.8959    0.0000 </r>
       <r>    7.0146    0.0000 </r>
       <r>    7.1317    0.0000 </r>
       <r>    7.1428    0.0000 </r>
       <r>    7.2877    0.0000 </r>
       <r>    7.3866    0.0000 </r>
      </set>
      <set comment="kpoint 7">
       <r>  -20.5855    1.0000 </r>
       <r>  -20.5855    1.0000 </r>
       <r>  -20.5829    1.0000 </r>
       <r>  -20.5829    1.0000 </r>
       <r>  -16.2725    1.0000 </r>
       <r>  -16.2725    1.0000 </r>
       <r>  -16.2660    1.0000 </r>
       <r>  -16.2660    1.0000 </r>
       <r>  -16.2502    1.0000 </r>
       <r>  -16.2502    1.0000 </r>
       <r>  -16.2248    1.0000 </r>
       <r>  -16.2248    1.0000 </r>
       <r>  -16.1345    1.0000 </r>
       <r>  -16.1345    1.0000 </r>
       <r>  -16.1342    1.0000 </r>
       <r>  -16.1342    1.0000 </r>
       <r>  -16.1315    1.0000 </r>
       <r>  -16.1315    1.0000 </r>
       <r>  -16.1309    1.0000 </r>
       <r>  -16.1309    1.0000 </r>
       <r>  -16.1218    1.0000 </r>
       <r>  -16.1218    1.0000 </r>
       <r>  -16.1212    1.0000 </r>
       <r>  -16.1212    1.0000 </r>
       <r>  -14.1345    1.0000 </r>
       <r>  -14.1345    1.0000 </r>
       <r>  -14.0105    1.0000 </r>
       <r>  -14.0105    1.0000 </r>
       <r>  -13.8281    1.0000 </r>
       <r>  -13.8281    1.0000 </r>
       <r>  -13.7808    1.0000 </r>
       <r>  -13.7808    1.0000 </r>
       <r>  -13.7380    1.0000 </r>
       <r>  -13.7380    1.0000 </r>
       <r>  -13.6816    1.0000 </r>
       <r>  -13.6816    1.0000 </r>
       <r>   -7.5941    1.0000 </r>
       <r>   -7.5941    1.0000 </r>
       <r>   -7.0961    1.0000 </r>
       <r>   -7.0961    1.0000 </r>
       <r>   -7.0345    1.0000 </r>
       <r>   -7.0345    1.0000 </r>
       <r>   -7.0067    1.0000 </r>
       <r>   -7.0067    1.0000 </r>
       <r>   -6.9856    1.0000 </r>
       <r>   -6.9856    1.0000 </r>
       <r>   -6.9802    1.0000 </r>
       <r>   -6.9802    1.0000 </r>
       <r>   -6.9612    1.0000 </r>
       <r>   -6.9612    1.0000 </r>
       <r>   -6.9546    1.0000 </r>
       <r>   -6.9546    1.0000 </r>
       <r>   -2.8310    1.0000 </r>
       <r>   -2.8310    1.0000 </r>
       <r>   -2.6715    1.0000 </r>
       <r>   -2.6715    1.0000 </r>
       <r>   -2.3392    1.0000 </r>
       <r>   -2.3392    1.0000 </r>
       <r>   -2.2601    1.0000 </r>
       <r>   -2.2601    1.0000 </r>
       <r>   -2.0891    1.0000 </r>
       <r>   -2.0891    1.0000 </r>
       <r>   -1.9043    1.0000 </r>
       <r>   -1.9043    1.0000 </r>
       <r>   -1.5711    1.0000 </r>
       <r>   -1.5711    1.0000 </r>
       <r>   -1.5299    1.0000 </r>
       <r>   -1.5299    1.0000 </r>
       <r>   -1.3986    1.0000 </r>
       <r>   -1.3986    1.0000 </r>
       <r>   -1.3212    1.0000 </r>
       <r>   -1.3212    1.0000 </r>
       <r>   -1.2144    1.0000 </r>
       <r>   -1.2144    1.0000 </r>
       <r>   -1.1970    1.0000 </r>
       <r>   -1.1970    1.0000 </r>
       <r>   -1.0603    1.0000 </r>
       <r>   -1.0603    1.0000 </r>
       <r>   -1.0007    1.0000 </r>
       <r>   -1.0007    1.0000 </r>
       <r>   -0.9918    1.0000 </r>
       <r>   -0.9918    1.0000 </r>
       <r>   -0.9479    1.0000 </r>
       <r>   -0.9479    1.0000 </r>
       <r>   -0.7259    1.0000 </r>
       <r>   -0.7259    1.0000 </r>
       <r>   -0.4429    1.0000 </r>
       <r>   -0.4429    1.0000 </r>
       <r>    3.9800    0.0000 </r>
       <r>    3.9800    0.0000 </r>
       <r>    4.0131    0.0000 </r>
       <r>    4.0131    0.0000 </r>
       <r>    4.6485    0.0000 </r>
       <r>    4.6485    0.0000 </r>
       <r>    4.9243    0.0000 </r>
       <r>    4.9243    0.0000 </r>
       <r>    5.3740    0.0000 </r>
       <r>    5.3740    0.0000 </r>
       <r>    5.4856    0.0000 </r>
       <r>    5.4856    0.0000 </r>
       <r>    6.2730    0.0000 </r>
       <r>    6.2730    0.0000 </r>
       <r>    6.4761    0.0000 </r>
       <r>    6.4761    0.0000 </r>
       <r>    6.6539    0.0000 </r>
       <r>    6.6539    0.0000 </r>
       <r>    6.8317    0.0000 </r>
       <r>    6.8317    0.0000 </r>
       <r>    7.0490    0.0000 </r>
       <r>    7.0490    0.0000 </r>
       <r>    7.2459    0.0000 </r>
       <r>    7.2460    0.0000 </r>
      </set>
      <set comment="kpoint 8">
       <r>  -20.5849    1.0000 </r>
       <r>  -20.5849    1.0000 </r>
       <r>  -20.5836    1.0000 </r>
       <r>  -20.5836    1.0000 </r>
       <r>  -16.2817    1.0000 </r>
       <r>  -16.2817    1.0000 </r>
       <r>  -16.2677    1.0000 </r>
       <r>  -16.2677    1.0000 </r>
       <r>  -16.2413    1.0000 </r>
       <r>  -16.2413    1.0000 </r>
       <r>  -16.2236    1.0000 </r>
       <r>  -16.2236    1.0000 </r>
       <r>  -16.1345    1.0000 </r>
       <r>  -16.1345    1.0000 </r>
       <r>  -16.1343    1.0000 </r>
       <r>  -16.1343    1.0000 </r>
       <r>  -16.1314    1.0000 </r>
       <r>  -16.1314    1.0000 </r>
       <r>  -16.1311    1.0000 </r>
       <r>  -16.1311    1.0000 </r>
       <r>  -16.1217    1.0000 </r>
       <r>  -16.1217    1.0000 </r>
       <r>  -16.1214    1.0000 </r>
       <r>  -16.1214    1.0000 </r>
       <r>  -14.0881    1.0000 </r>
       <r>  -14.0881    1.0000 </r>
       <r>  -13.9974    1.0000 </r>
       <r>  -13.9974    1.0000 </r>
       <r>  -13.8969    1.0000 </r>
       <r>  -13.8969    1.0000 </r>
       <r>  -13.8089    1.0000 </r>
       <r>  -13.8089    1.0000 </r>
       <r>  -13.7118    1.0000 </r>
       <r>  -13.7118    1.0000 </r>
       <r>  -13.6775    1.0000 </r>
       <r>  -13.6775    1.0000 </r>
       <r>   -7.4604    1.0000 </r>
       <r>   -7.4604    1.0000 </r>
       <r>   -7.2092    1.0000 </r>
       <r>   -7.2092    1.0000 </r>
       <r>   -7.0193    1.0000 </r>
       <r>   -7.0193    1.0000 </r>
       <r>   -7.0002    1.0000 </r>
       <r>   -7.0002    1.0000 </r>
       <r>   -6.9854    1.0000 </r>
       <r>   -6.9854    1.0000 </r>
       <r>   -6.9799    1.0000 </r>
       <r>   -6.9799    1.0000 </r>
       <r>   -6.9697    1.0000 </r>
       <r>   -6.9697    1.0000 </r>
       <r>   -6.9453    1.0000 </r>
       <r>   -6.9453    1.0000 </r>
       <r>   -3.0257    1.0000 </r>
       <r>   -3.0257    1.0000 </r>
       <r>   -2.6647    1.0000 </r>
       <r>   -2.6647    1.0000 </r>
       <r>   -2.3984    1.0000 </r>
       <r>   -2.3984    1.0000 </r>
       <r>   -2.2745    1.0000 </r>
       <r>   -2.2745    1.0000 </r>
       <r>   -2.0378    1.0000 </r>
       <r>   -2.0378    1.0000 </r>
       <r>   -1.8891    1.0000 </r>
       <r>   -1.8891    1.0000 </r>
       <r>   -1.6125    1.0000 </r>
       <r>   -1.6125    1.0000 </r>
       <r>   -1.5281    1.0000 </r>
       <r>   -1.5281    1.0000 </r>
       <r>   -1.3754    1.0000 </r>
       <r>   -1.3754    1.0000 </r>
       <r>   -1.2894    1.0000 </r>
       <r>   -1.2894    1.0000 </r>
       <r>   -1.2332    1.0000 </r>
       <r>   -1.2332    1.0000 </r>
       <r>   -1.1276    1.0000 </r>
       <r>   -1.1276    1.0000 </r>
       <r>   -1.0896    1.0000 </r>
       <r>   -1.0896    1.0000 </r>
       <r>   -1.0286    1.0000 </r>
       <r>   -1.0286    1.0000 </r>
       <r>   -0.9776    1.0000 </r>
       <r>   -0.9776    1.0000 </r>
       <r>   -0.9234    1.0000 </r>
       <r>   -0.9234    1.0000 </r>
       <r>   -0.6405    1.0000 </r>
       <r>   -0.6405    1.0000 </r>
       <r>   -0.3710    1.0000 </r>
       <r>   -0.3710    1.0000 </r>
       <r>    3.4577    0.0000 </r>
       <r>    3.4577    0.0000 </r>
       <r>    4.2434    0.0000 </r>
       <r>    4.2434    0.0000 </r>
       <r>    4.7121    0.0000 </r>
       <r>    4.7121    0.0000 </r>
       <r>    4.8428    0.0000 </r>
       <r>    4.8428    0.0000 </r>
       <r>    5.2726    0.0000 </r>
       <r>    5.2726    0.0000 </r>
       <r>    5.9718    0.0000 </r>
       <r>    5.9718    0.0000 </r>
       <r>    6.5317    0.0000 </r>
       <r>    6.5317    0.0000 </r>
       <r>    6.6129    0.0000 </r>
       <r>    6.6129    0.0000 </r>
       <r>    6.8072    0.0000 </r>
       <r>    6.8072    0.0000 </r>
       <r>    6.9691    0.0000 </r>
       <r>    6.9691    0.0000 </r>
       <r>    7.0102    0.0000 </r>
       <r>    7.0102    0.0000 </r>
       <r>    7.1835    0.0000 </r>
       <r>    7.1835    0.0000 </r>
      </set>
     </set>
    </set>
   </array>
  </eigenvalues>
  <separator name="orbital magnetization" >
   <v name="MAGDIPOLOUT">      0.00000000      0.00000000      0.00000000</v>
  </separator>
  <dos>
   <i name="efermi">      0.70777775 </i>
   <total>
    <array>
     <dimension dim="1">gridpoints</dimension>
     <dimension dim="2">spin</dimension>
     <field>energy</field>
     <field>total</field>
     <field>integrated</field>
     <set>
      <set comment="spin 1">
       <r>   -21.9862     0.0000     0.0000 </r>
       <r>   -21.8837     0.0000     0.0000 </r>
       <r>   -21.7811     0.0000     0.0000 </r>
       <r>   -21.6785     0.0000     0.0000 </r>
       <r>   -21.5760     0.0000     0.0000 </r>
       <r>   -21.4734     0.0000     0.0000 </r>
       <r>   -21.3708     0.0000     0.0000 </r>
       <r>   -21.2682     0.0000     0.0000 </r>
       <r>   -21.1657     0.0000     0.0000 </r>
       <r>   -21.0631     0.0000     0.0000 </r>
       <r>   -20.9605     0.0000     0.0000 </r>
       <r>   -20.8580     0.0000     0.0000 </r>
       <r>   -20.7554     0.0000     0.0000 </r>
       <r>   -20.6528     0.0000     0.0000 </r>
       <r>   -20.5502    77.9940     8.0000 </r>
       <r>   -20.4477     0.0000     8.0000 </r>
       <r>   -20.3451     0.0000     8.0000 </r>
       <r>   -20.2425     0.0000     8.0000 </r>
       <r>   -20.1399     0.0000     8.0000 </r>
       <r>   -20.0374     0.0000     8.0000 </r>
       <r>   -19.9348     0.0000     8.0000 </r>
       <r>   -19.8322     0.0000     8.0000 </r>
       <r>   -19.7297     0.0000     8.0000 </r>
       <r>   -19.6271     0.0000     8.0000 </r>
       <r>   -19.5245     0.0000     8.0000 </r>
       <r>   -19.4219     0.0000     8.0000 </r>
       <r>   -19.3194     0.0000     8.0000 </r>
       <r>   -19.2168     0.0000     8.0000 </r>
       <r>   -19.1142     0.0000     8.0000 </r>
       <r>   -19.0117     0.0000     8.0000 </r>
       <r>   -18.9091     0.0000     8.0000 </r>
       <r>   -18.8065     0.0000     8.0000 </r>
       <r>   -18.7039     0.0000     8.0000 </r>
       <r>   -18.6014     0.0000     8.0000 </r>
       <r>   -18.4988     0.0000     8.0000 </r>
       <r>   -18.3962     0.0000     8.0000 </r>
       <r>   -18.2937     0.0000     8.0000 </r>
       <r>   -18.1911     0.0000     8.0000 </r>
       <r>   -18.0885     0.0000     8.0000 </r>
       <r>   -17.9859     0.0000     8.0000 </r>
       <r>   -17.8834     0.0000     8.0000 </r>
       <r>   -17.7808     0.0000     8.0000 </r>
       <r>   -17.6782     0.0000     8.0000 </r>
       <r>   -17.5757     0.0000     8.0000 </r>
       <r>   -17.4731     0.0000     8.0000 </r>
       <r>   -17.3705     0.0000     8.0000 </r>
       <r>   -17.2679     0.0000     8.0000 </r>
       <r>   -17.1654     0.0000     8.0000 </r>
       <r>   -17.0628     0.0000     8.0000 </r>
       <r>   -16.9602     0.0000     8.0000 </r>
       <r>   -16.8577     0.0000     8.0000 </r>
       <r>   -16.7551     0.0000     8.0000 </r>
       <r>   -16.6525     0.0000     8.0000 </r>
       <r>   -16.5499     0.0000     8.0000 </r>
       <r>   -16.4474     0.0000     8.0000 </r>
       <r>   -16.3448     0.0000     8.0000 </r>
       <r>   -16.2422    95.6616    17.8122 </r>
       <r>   -16.1396    45.9045    26.8198 </r>
       <r>   -16.0371     0.0000    48.0000 </r>
       <r>   -15.9345     0.0000    48.0000 </r>
       <r>   -15.8319     0.0000    48.0000 </r>
       <r>   -15.7294     0.0000    48.0000 </r>
       <r>   -15.6268     0.0000    48.0000 </r>
       <r>   -15.5242     0.0000    48.0000 </r>
       <r>   -15.4216     0.0000    48.0000 </r>
       <r>   -15.3191     0.0000    48.0000 </r>
       <r>   -15.2165     0.0000    48.0000 </r>
       <r>   -15.1139     0.0000    48.0000 </r>
       <r>   -15.0114     0.0000    48.0000 </r>
       <r>   -14.9088     0.0000    48.0000 </r>
       <r>   -14.8062     0.0000    48.0000 </r>
       <r>   -14.7036     0.0000    48.0000 </r>
       <r>   -14.6011     0.0000    48.0000 </r>
       <r>   -14.4985     0.0000    48.0000 </r>
       <r>   -14.3959     0.0000    48.0000 </r>
       <r>   -14.2934     0.0000    48.0000 </r>
       <r>   -14.1908     3.1315    48.3212 </r>
       <r>   -14.0882    17.2889    50.5511 </r>
       <r>   -13.9856    31.0689    54.1868 </r>
       <r>   -13.8831    44.8710    59.2692 </r>
       <r>   -13.7805    41.3848    64.2449 </r>
       <r>   -13.6779    41.0596    68.7671 </r>
       <r>   -13.5754    18.4151    72.0000 </r>
       <r>   -13.4728     0.0000    72.0000 </r>
       <r>   -13.3702     0.0000    72.0000 </r>
       <r>   -13.2676     0.0000    72.0000 </r>
       <r>   -13.1651     0.0000    72.0000 </r>
       <r>   -13.0625     0.0000    72.0000 </r>
       <r>   -12.9599     0.0000    72.0000 </r>
       <r>   -12.8573     0.0000    72.0000 </r>
       <r>   -12.7548     0.0000    72.0000 </r>
       <r>   -12.6522     0.0000    72.0000 </r>
       <r>   -12.5496     0.0000    72.0000 </r>
       <r>   -12.4471     0.0000    72.0000 </r>
       <r>   -12.3445     0.0000    72.0000 </r>
       <r>   -12.2419     0.0000    72.0000 </r>
       <r>   -12.1393     0.0000    72.0000 </r>
       <r>   -12.0368     0.0000    72.0000 </r>
       <r>   -11.9342     0.0000    72.0000 </r>
       <r>   -11.8316     0.0000    72.0000 </r>
       <r>   -11.7291     0.0000    72.0000 </r>
       <r>   -11.6265     0.0000    72.0000 </r>
       <r>   -11.5239     0.0000    72.0000 </r>
       <r>   -11.4213     0.0000    72.0000 </r>
       <r>   -11.3188     0.0000    72.0000 </r>
       <r>   -11.2162     0.0000    72.0000 </r>
       <r>   -11.1136     0.0000    72.0000 </r>
       <r>   -11.0111     0.0000    72.0000 </r>
       <r>   -10.9085     0.0000    72.0000 </r>
       <r>   -10.8059     0.0000    72.0000 </r>
       <r>   -10.7033     0.0000    72.0000 </r>
       <r>   -10.6008     0.0000    72.0000 </r>
       <r>   -10.4982     0.0000    72.0000 </r>
       <r>   -10.3956     0.0000    72.0000 </r>
       <r>   -10.2931     0.0000    72.0000 </r>
       <r>   -10.1905     0.0000    72.0000 </r>
       <r>   -10.0879     0.0000    72.0000 </r>
       <r>    -9.9853     0.0000    72.0000 </r>
       <r>    -9.8828     0.0000    72.0000 </r>
       <r>    -9.7802     0.0000    72.0000 </r>
       <r>    -9.6776     0.0000    72.0000 </r>
       <r>    -9.5750     0.0000    72.0000 </r>
       <r>    -9.4725     0.0000    72.0000 </r>
       <r>    -9.3699     0.0000    72.0000 </r>
       <r>    -9.2673     0.0000    72.0000 </r>
       <r>    -9.1648     0.0000    72.0000 </r>
       <r>    -9.0622     0.0000    72.0000 </r>
       <r>    -8.9596     0.0000    72.0000 </r>
       <r>    -8.8570     0.0000    72.0000 </r>
       <r>    -8.7545     0.0000    72.0000 </r>
       <r>    -8.6519     0.0000    72.0000 </r>
       <r>    -8.5493     0.0000    72.0000 </r>
       <r>    -8.4468     0.0000    72.0000 </r>
       <r>    -8.3442     0.0000    72.0000 </r>
       <r>    -8.2416     0.0000    72.0000 </r>
       <r>    -8.1390     0.0000    72.0000 </r>
       <r>    -8.0365     1.0748    72.1102 </r>
       <r>    -7.9339     0.0000    72.1111 </r>
       <r>    -7.8313     3.4066    72.4605 </r>
       <r>    -7.7288     0.0012    72.7779 </r>
       <r>    -7.6262     4.3321    73.2222 </r>
       <r>    -7.5236     9.6743    74.2146 </r>
       <r>    -7.4210    12.9990    75.5556 </r>
       <r>    -7.3185     5.6902    76.1392 </r>
       <r>    -7.2159     1.4978    76.5981 </r>
       <r>    -7.1133     7.6262    78.1156 </r>
       <r>    -7.0108    57.3544    84.5496 </r>
       <r>    -6.9082   129.9688   102.7762 </r>
       <r>    -6.8056     4.3326   103.2222 </r>
       <r>    -6.7030     6.2072   103.8589 </r>
       <r>    -6.6005     0.0000   103.8889 </r>
       <r>    -6.4979     0.0000   103.8889 </r>
       <r>    -6.3953     0.0000   103.8889 </r>
       <r>    -6.2928     1.0833   104.0000 </r>
       <r>    -6.1902     0.0000   104.0000 </r>
       <r>    -6.0876     0.0000   104.0000 </r>
       <r>    -5.9850     0.0000   104.0000 </r>
       <r>    -5.8825     0.0000   104.0000 </r>
       <r>    -5.7799     0.0000   104.0000 </r>
       <r>    -5.6773     0.0000   104.0000 </r>
       <r>    -5.5747     0.0000   104.0000 </r>
       <r>    -5.4722     0.0000   104.0000 </r>
       <r>    -5.3696     0.0000   104.0000 </r>
       <r>    -5.2670     0.0000   104.0000 </r>
       <r>    -5.1645     0.0000   104.0000 </r>
       <r>    -5.0619     0.0000   104.0000 </r>
       <r>    -4.9593     0.0000   104.0000 </r>
       <r>    -4.8567     0.0000   104.0000 </r>
       <r>    -4.7542     0.0000   104.0000 </r>
       <r>    -4.6516     0.0000   104.0000 </r>
       <r>    -4.5490     0.0000   104.0000 </r>
       <r>    -4.4465     0.0000   104.0000 </r>
       <r>    -4.3439     0.0000   104.0000 </r>
       <r>    -4.2413     0.0000   104.0000 </r>
       <r>    -4.1387     0.0000   104.0000 </r>
       <r>    -4.0362     0.0000   104.0000 </r>
       <r>    -3.9336     0.0000   104.0000 </r>
       <r>    -3.8310     0.0000   104.0000 </r>
       <r>    -3.7285     0.0000   104.0000 </r>
       <r>    -3.6259     0.0000   104.0000 </r>
       <r>    -3.5233     0.0000   104.0000 </r>
       <r>    -3.4207     0.0000   104.0000 </r>
       <r>    -3.3182     0.0000   104.0000 </r>
       <r>    -3.2156     1.0063   104.1032 </r>
       <r>    -3.1130    15.0843   105.6583 </r>
       <r>    -3.0105    19.3714   108.0981 </r>
       <r>    -2.9079     4.3543   108.6689 </r>
       <r>    -2.8053     6.8474   109.5912 </r>
       <r>    -2.7027    10.1094   111.0369 </r>
       <r>    -2.6002    19.3981   113.3230 </r>
       <r>    -2.4976     6.4995   114.0000 </r>
       <r>    -2.3950     5.9117   114.6064 </r>
       <r>    -2.2924    10.8811   116.0050 </r>
       <r>    -2.1899    12.6261   118.1840 </r>
       <r>    -2.0873     9.0958   119.1552 </r>
       <r>    -1.9847    16.7754   121.0540 </r>
       <r>    -1.8822    29.3099   125.1177 </r>
       <r>    -1.7796     5.4190   126.6670 </r>
       <r>    -1.6770     8.8960   127.6903 </r>
       <r>    -1.5744    28.5499   130.8173 </r>
       <r>    -1.4719    31.4030   134.5544 </r>
       <r>    -1.3693    31.7704   137.8143 </r>
       <r>    -1.2667    44.4147   142.7780 </r>
       <r>    -1.1642    52.0344   150.5595 </r>
       <r>    -1.0616    45.6170   156.1235 </r>
       <r>    -0.9590    60.5118   163.6513 </r>
       <r>    -0.8564    27.9384   167.8657 </r>
       <r>    -0.7539     1.4619   168.1499 </r>
       <r>    -0.6513    12.4099   169.4951 </r>
       <r>    -0.5487     0.0002   171.0000 </r>
       <r>    -0.4462    10.3007   172.0566 </r>
       <r>    -0.3436    15.0395   173.9871 </r>
       <r>    -0.2410     2.1665   174.2222 </r>
       <r>    -0.1384     4.3330   174.6667 </r>
       <r>    -0.0359     0.0000   174.6667 </r>
       <r>     0.0667     2.4211   174.9150 </r>
       <r>     0.1693     7.0854   175.7268 </r>
       <r>     0.2718     0.0000   175.8889 </r>
       <r>     0.3744     0.0000   175.8889 </r>
       <r>     0.4770     0.0000   175.8889 </r>
       <r>     0.5796     0.0000   175.8889 </r>
       <r>     0.6821     1.0832   176.0000 </r>
       <r>     0.7847     0.0000   176.0000 </r>
       <r>     0.8873     0.0000   176.0000 </r>
       <r>     0.9899     0.0000   176.0000 </r>
       <r>     1.0924     0.0000   176.0000 </r>
       <r>     1.1950     0.0000   176.0000 </r>
       <r>     1.2976     0.0000   176.0000 </r>
       <r>     1.4001     0.0000   176.0000 </r>
       <r>     1.5027     0.0000   176.0000 </r>
       <r>     1.6053     0.0000   176.0000 </r>
       <r>     1.7079     0.0000   176.0000 </r>
       <r>     1.8104     0.0000   176.0000 </r>
       <r>     1.9130     0.0000   176.0000 </r>
       <r>     2.0156     0.0000   176.0000 </r>
       <r>     2.1181     0.0000   176.0000 </r>
       <r>     2.2207     0.0000   176.0000 </r>
       <r>     2.3233     0.0000   176.0000 </r>
       <r>     2.4259     0.0000   176.0000 </r>
       <r>     2.5284     0.0000   176.0000 </r>
       <r>     2.6310     0.0000   176.0000 </r>
       <r>     2.7336     0.0000   176.0000 </r>
       <r>     2.8361     0.0000   176.0000 </r>
       <r>     2.9387     1.1329   176.1162 </r>
       <r>     3.0413     0.0000   176.2222 </r>
       <r>     3.1439     7.5781   176.9995 </r>
       <r>     3.2464     4.3533   177.4465 </r>
       <r>     3.3490     3.2503   178.2223 </r>
       <r>     3.4516     6.0807   178.8460 </r>
       <r>     3.5541     0.8184   180.0839 </r>
       <r>     3.6567     0.2809   180.1399 </r>
       <r>     3.7593     3.2498   180.8889 </r>
       <r>     3.8619     6.4189   181.5473 </r>
       <r>     3.9644     0.1091   181.7890 </r>
       <r>     4.0670     6.3457   183.0953 </r>
       <r>     4.1696     4.3330   184.0000 </r>
       <r>     4.2721    12.9988   185.3333 </r>
       <r>     4.3747     2.0730   185.5460 </r>
       <r>     4.4773     4.3330   186.0000 </r>
       <r>     4.5799     2.1665   186.2222 </r>
       <r>     4.6824     8.6202   187.1064 </r>
       <r>     4.7850     8.6659   188.0000 </r>
       <r>     4.8876     8.6663   188.8889 </r>
       <r>     4.9902     8.6658   189.7778 </r>
       <r>     5.0927     6.4034   190.4346 </r>
       <r>     5.1953     1.0922   190.5565 </r>
       <r>     5.2979    12.9975   192.1110 </r>
       <r>     5.4004    10.8321   193.2222 </r>
       <r>     5.5030    13.5281   194.6098 </r>
       <r>     5.6056     2.1665   195.2222 </r>
       <r>     5.7082     2.2965   195.4578 </r>
       <r>     5.8107     2.1664   196.1111 </r>
       <r>     5.9133     1.0960   196.2235 </r>
       <r>     6.0159     8.7533   197.3423 </r>
       <r>     6.1184     6.4984   198.2222 </r>
       <r>     6.2210    16.2637   199.8904 </r>
       <r>     6.3236    11.7229   201.2024 </r>
       <r>     6.4262    14.2234   202.9034 </r>
       <r>     6.5287    14.9960   204.6493 </r>
       <r>     6.6313    20.2909   207.5257 </r>
       <r>     6.7339     9.9545   209.2434 </r>
       <r>     6.8364    25.3052   212.7067 </r>
       <r>     6.9390    10.6837   214.3182 </r>
       <r>     7.0416    23.2723   217.2760 </r>
       <r>     7.1442    16.3478   219.7879 </r>
       <r>     7.2467    19.8625   222.1484 </r>
       <r>     7.3493     9.6357   223.5439 </r>
       <r>     7.4519     4.3330   224.0000 </r>
       <r>     7.5544     0.0000   224.0000 </r>
       <r>     7.6570     0.0000   224.0000 </r>
       <r>     7.7596     0.0000   224.0000 </r>
       <r>     7.8622     0.0000   224.0000 </r>
       <r>     7.9647     0.0000   224.0000 </r>
       <r>     8.0673     0.0000   224.0000 </r>
       <r>     8.1699     0.0000   224.0000 </r>
       <r>     8.2725     0.0000   224.0000 </r>
       <r>     8.3750     0.0000   224.0000 </r>
       <r>     8.4776     0.0000   224.0000 </r>
       <r>     8.5802     0.0000   224.0000 </r>
       <r>     8.6827     0.0000   224.0000 </r>
       <r>     8.7853     0.0000   224.0000 </r>
      </set>
     </set>
    </array>
   </total>
   <partial>
    <array>
     <dimension dim="1">gridpoints</dimension>
     <dimension dim="2">spin</dimension>
     <dimension dim="3">ion</dimension>
     <field>energy</field>
     <field>  s  </field>
     <field>  p  </field>
     <field>  d  </field>
     <set>
      <set comment="ion 1">
       <set comment="spin 1">
        <r>   -21.9862     0.0000     0.0000     0.0000 </r>
        <r>   -21.8837     0.0000     0.0000     0.0000 </r>
        <r>   -21.7811     0.0000     0.0000     0.0000 </r>
        <r>   -21.6785     0.0000     0.0000     0.0000 </r>
        <r>   -21.5760     0.0000     0.0000     0.0000 </r>
        <r>   -21.4734     0.0000     0.0000     0.0000 </r>
        <r>   -21.3708     0.0000     0.0000     0.0000 </r>
        <r>   -21.2682     0.0000     0.0000     0.0000 </r>
        <r>   -21.1657     0.0000     0.0000     0.0000 </r>
        <r>   -21.0631     0.0000     0.0000     0.0000 </r>
[...]
        <r>  0.0000  0.0002  0.0004 </r>
        <r>  0.0002  0.0072  0.0002 </r>
        <r>  0.0000  0.0046  0.0004 </r>
        <r>  0.0029  0.1780  0.0017 </r>
        <r>  0.0030  0.1589  0.0019 </r>
        <r>  0.0004  0.0053  0.0018 </r>
        <r>  0.0002  0.0044  0.0010 </r>
        <r>  0.0001  0.0030  0.0014 </r>
        <r>  0.0007  0.0065  0.0012 </r>
        <r>  0.0140  0.0350  0.0078 </r>
        <r>  0.0009  0.0135  0.0008 </r>
        <r>  0.0000  0.0005  0.0001 </r>
        <r>  0.0005  0.0012  0.0004 </r>
        <r>  0.0005  0.0021  0.0002 </r>
        <r>  0.0000  0.0003  0.0000 </r>
        <r>  0.0140  0.0341  0.0080 </r>
        <r>  0.0010  0.0137  0.0009 </r>
       </set>
       <set comment="band 93">
        <r>  0.0000  0.0001  0.0003 </r>
        <r>  0.0005  0.0003  0.0007 </r>
        <r>  0.0000  0.0001  0.0008 </r>
        <r>  0.0000  0.0008  0.0017 </r>
        <r>  0.0023  0.1183  0.0012 </r>
        <r>  0.0016  0.0751  0.0010 </r>
        <r>  0.0027  0.0469  0.0013 </r>
        <r>  0.0037  0.0729  0.0018 </r>
        <r>  0.0092  0.0018  0.0037 </r>
        <r>  0.0002  0.0733  0.0005 </r>
        <r>  0.0124  0.0028  0.0054 </r>
        <r>  0.0001  0.0516  0.0007 </r>
        <r>  0.0003  0.0062  0.0009 </r>
        <r>  0.0000  0.0012  0.0016 </r>
        <r>  0.0000  0.0014  0.0025 </r>
        <r>  0.0008  0.0050  0.0014 </r>
        <r>  0.0006  0.0085  0.0014 </r>
        <r>  0.0000  0.0017  0.0025 </r>
        <r>  0.0006  0.0027  0.0009 </r>
        <r>  0.0000  0.0008  0.0016 </r>
       </set>
       <set comment="band 94">
        <r>  0.0000  0.0008  0.0017 </r>
        <r>  0.0000  0.0001  0.0008 </r>
        <r>  0.0005  0.0003  0.0007 </r>
        <r>  0.0000  0.0001  0.0003 </r>
        <r>  0.0037  0.0729  0.0018 </r>
        <r>  0.0027  0.0469  0.0013 </r>
        <r>  0.0016  0.0751  0.0010 </r>
        <r>  0.0023  0.1183  0.0012 </r>
        <r>  0.0001  0.0516  0.0007 </r>
        <r>  0.0124  0.0028  0.0054 </r>
        <r>  0.0002  0.0733  0.0005 </r>
        <r>  0.0092  0.0018  0.0037 </r>
        <r>  0.0008  0.0050  0.0014 </r>
        <r>  0.0000  0.0014  0.0025 </r>
        <r>  0.0000  0.0012  0.0016 </r>
        <r>  0.0003  0.0062  0.0009 </r>
        <r>  0.0006  0.0027  0.0009 </r>
        <r>  0.0000  0.0008  0.0016 </r>
        <r>  0.0006  0.0085  0.0014 </r>
        <r>  0.0000  0.0017  0.0025 </r>
       </set>
       <set comment="band 95">
        <r>  0.0000  0.0001  0.0005 </r>
        <r>  0.0001  0.0010  0.0012 </r>
        <r>  0.0000  0.0002  0.0004 </r>
        <r>  0.0003  0.0003  0.0004 </r>
        <r>  0.0027  0.0383  0.0013 </r>
        <r>  0.0042  0.0677  0.0020 </r>
        <r>  0.0022  0.1354  0.0011 </r>
        <r>  0.0015  0.0767  0.0009 </r>
        <r>  0.0126  0.0024  0.0058 </r>
        <r>  0.0002  0.0417  0.0007 </r>
        <r>  0.0078  0.0015  0.0034 </r>
        <r>  0.0004  0.0696  0.0003 </r>
        <r>  0.0007  0.0074  0.0026 </r>
        <r>  0.0002  0.0053  0.0010 </r>
        <r>  0.0002  0.0053  0.0008 </r>
        <r>  0.0002  0.0044  0.0017 </r>
        <r>  0.0004  0.0036  0.0012 </r>
        <r>  0.0001  0.0020  0.0006 </r>
        <r>  0.0004  0.0083  0.0031 </r>
        <r>  0.0003  0.0086  0.0012 </r>
       </set>
       <set comment="band 96">
        <r>  0.0003  0.0003  0.0004 </r>
        <r>  0.0000  0.0002  0.0004 </r>
        <r>  0.0001  0.0010  0.0012 </r>
        <r>  0.0000  0.0001  0.0005 </r>
        <r>  0.0015  0.0767  0.0009 </r>
        <r>  0.0022  0.1354  0.0011 </r>
        <r>  0.0042  0.0677  0.0020 </r>
        <r>  0.0027  0.0383  0.0013 </r>
        <r>  0.0004  0.0696  0.0003 </r>
        <r>  0.0078  0.0015  0.0034 </r>
        <r>  0.0002  0.0417  0.0007 </r>
        <r>  0.0126  0.0024  0.0058 </r>
        <r>  0.0002  0.0044  0.0017 </r>
        <r>  0.0002  0.0053  0.0008 </r>
        <r>  0.0002  0.0053  0.0010 </r>
        <r>  0.0007  0.0074  0.0026 </r>
        <r>  0.0004  0.0083  0.0031 </r>
        <r>  0.0003  0.0086  0.0012 </r>
        <r>  0.0004  0.0036  0.0012 </r>
        <r>  0.0001  0.0020  0.0006 </r>
       </set>
       <set comment="band 97">
        <r>  0.0000  0.0000  0.0019 </r>
        <r>  0.0001  0.0005  0.0009 </r>
        <r>  0.0000  0.0001  0.0031 </r>
        <r>  0.0003  0.0005  0.0009 </r>
        <r>  0.0032  0.1038  0.0010 </r>
        <r>  0.0023  0.0776  0.0010 </r>
        <r>  0.0019  0.0496  0.0008 </r>
        <r>  0.0015  0.0719  0.0012 </r>
        <r>  0.0006  0.0048  0.0005 </r>
        <r>  0.0001  0.0122  0.0036 </r>
        <r>  0.0035  0.0035  0.0017 </r>
        <r>  0.0000  0.0020  0.0032 </r>
        <r>  0.0019  0.0307  0.0016 </r>
        <r>  0.0000  0.0008  0.0018 </r>
        <r>  0.0001  0.0021  0.0023 </r>
        <r>  0.0044  0.0431  0.0017 </r>
        <r>  0.0033  0.0455  0.0021 </r>
        <r>  0.0001  0.0014  0.0026 </r>
        <r>  0.0031  0.0283  0.0012 </r>
        <r>  0.0001  0.0015  0.0015 </r>
       </set>
       <set comment="band 98">
        <r>  0.0003  0.0005  0.0009 </r>
        <r>  0.0000  0.0001  0.0031 </r>
        <r>  0.0001  0.0005  0.0009 </r>
        <r>  0.0000  0.0000  0.0019 </r>
        <r>  0.0015  0.0719  0.0012 </r>
        <r>  0.0019  0.0496  0.0008 </r>
        <r>  0.0023  0.0776  0.0010 </r>
        <r>  0.0032  0.1038  0.0010 </r>
        <r>  0.0000  0.0020  0.0032 </r>
        <r>  0.0035  0.0035  0.0017 </r>
        <r>  0.0001  0.0122  0.0036 </r>
        <r>  0.0006  0.0048  0.0005 </r>
        <r>  0.0044  0.0431  0.0017 </r>
        <r>  0.0001  0.0021  0.0023 </r>
        <r>  0.0000  0.0008  0.0018 </r>
        <r>  0.0019  0.0307  0.0016 </r>
        <r>  0.0031  0.0283  0.0012 </r>
        <r>  0.0001  0.0015  0.0015 </r>
        <r>  0.0033  0.0455  0.0021 </r>
        <r>  0.0001  0.0014  0.0026 </r>
       </set>
       <set comment="band 99">
        <r>  0.0000  0.0000  0.0036 </r>
        <r>  0.0000  0.0002  0.0023 </r>
        <r>  0.0000  0.0001  0.0026 </r>
        <r>  0.0000  0.0003  0.0012 </r>
        <r>  0.0000  0.0536  0.0005 </r>
        <r>  0.0001  0.0619  0.0007 </r>
        <r>  0.0001  0.0996  0.0006 </r>
        <r>  0.0000  0.0866  0.0006 </r>
        <r>  0.0006  0.0014  0.0010 </r>
        <r>  0.0000  0.0003  0.0043 </r>
        <r>  0.0001  0.0040  0.0004 </r>
        <r>  0.0000  0.0019  0.0045 </r>
        <r>  0.0000  0.0013  0.0031 </r>
        <r>  0.0000  0.0589  0.0022 </r>
        <r>  0.0001  0.0388  0.0010 </r>
        <r>  0.0001  0.0008  0.0022 </r>
        <r>  0.0000  0.0011  0.0018 </r>
        <r>  0.0000  0.0367  0.0016 </r>
        <r>  0.0001  0.0009  0.0035 </r>
        <r>  0.0001  0.0610  0.0016 </r>
       </set>
       <set comment="band 100">
        <r>  0.0000  0.0003  0.0012 </r>
        <r>  0.0000  0.0001  0.0026 </r>
        <r>  0.0000  0.0002  0.0023 </r>
        <r>  0.0000  0.0000  0.0036 </r>
        <r>  0.0000  0.0866  0.0006 </r>
        <r>  0.0001  0.0996  0.0006 </r>
        <r>  0.0001  0.0619  0.0007 </r>
        <r>  0.0000  0.0536  0.0005 </r>
        <r>  0.0000  0.0019  0.0045 </r>
        <r>  0.0001  0.0040  0.0004 </r>
        <r>  0.0000  0.0003  0.0043 </r>
        <r>  0.0006  0.0014  0.0010 </r>
        <r>  0.0001  0.0008  0.0022 </r>
        <r>  0.0001  0.0388  0.0010 </r>
        <r>  0.0000  0.0589  0.0022 </r>
        <r>  0.0000  0.0013  0.0031 </r>
        <r>  0.0001  0.0009  0.0035 </r>
        <r>  0.0001  0.0610  0.0016 </r>
        <r>  0.0000  0.0011  0.0018 </r>
        <r>  0.0000  0.0367  0.0016 </r>
       </set>
       <set comment="band 101">
        <r>  0.0078  0.0041  0.0062 </r>
        <r>  0.0014  0.0012  0.0133 </r>
        <r>  0.0108  0.0050  0.0168 </r>
        <r>  0.0010  0.0014  0.0154 </r>
        <r>  0.0001  0.0040  0.0002 </r>
        <r>  0.0003  0.0112  0.0003 </r>
        <r>  0.0003  0.0070  0.0006 </r>
        <r>  0.0001  0.0037  0.0003 </r>
        <r>  0.0003  0.0065  0.0009 </r>
        <r>  0.0033  0.0059  0.0037 </r>
        <r>  0.0004  0.0062  0.0007 </r>
        <r>  0.0020  0.0047  0.0041 </r>
        <r>  0.0023  0.0051  0.0023 </r>
        <r>  0.0050  0.0017  0.0018 </r>
        <r>  0.0037  0.0029  0.0029 </r>
        <r>  0.0000  0.0026  0.0002 </r>
        <r>  0.0014  0.0025  0.0012 </r>
        <r>  0.0024  0.0014  0.0019 </r>
        <r>  0.0009  0.0052  0.0013 </r>
        <r>  0.0062  0.0032  0.0027 </r>
       </set>
       <set comment="band 102">
        <r>  0.0010  0.0014  0.0154 </r>
        <r>  0.0108  0.0050  0.0168 </r>
        <r>  0.0014  0.0012  0.0133 </r>
        <r>  0.0078  0.0041  0.0062 </r>
        <r>  0.0001  0.0037  0.0003 </r>
        <r>  0.0003  0.0070  0.0006 </r>
        <r>  0.0003  0.0112  0.0003 </r>
        <r>  0.0001  0.0040  0.0002 </r>
        <r>  0.0020  0.0047  0.0041 </r>
        <r>  0.0004  0.0062  0.0007 </r>
        <r>  0.0033  0.0059  0.0037 </r>
        <r>  0.0003  0.0065  0.0009 </r>
        <r>  0.0000  0.0026  0.0002 </r>
        <r>  0.0037  0.0029  0.0029 </r>
        <r>  0.0050  0.0017  0.0018 </r>
        <r>  0.0023  0.0051  0.0023 </r>
        <r>  0.0009  0.0052  0.0013 </r>
        <r>  0.0062  0.0032  0.0027 </r>
        <r>  0.0014  0.0025  0.0012 </r>
        <r>  0.0024  0.0014  0.0019 </r>
       </set>
       <set comment="band 103">
        <r>  0.0000  0.0004  0.0022 </r>
        <r>  0.0000  0.0001  0.0488 </r>
        <r>  0.0000  0.0011  0.0034 </r>
        <r>  0.0074  0.0023  0.0482 </r>
        <r>  0.0001  0.0097  0.0004 </r>
        <r>  0.0000  0.0026  0.0003 </r>
        <r>  0.0000  0.0026  0.0003 </r>
        <r>  0.0002  0.0097  0.0004 </r>
        <r>  0.0005  0.0153  0.0065 </r>
        <r>  0.0000  0.0028  0.0005 </r>
        <r>  0.0011  0.0101  0.0066 </r>
        <r>  0.0000  0.0009  0.0001 </r>
        <r>  0.0010  0.0050  0.0012 </r>
        <r>  0.0009  0.0047  0.0016 </r>
        <r>  0.0001  0.0010  0.0013 </r>
        <r>  0.0007  0.0034  0.0024 </r>
        <r>  0.0010  0.0051  0.0012 </r>
        <r>  0.0009  0.0047  0.0016 </r>
        <r>  0.0007  0.0033  0.0024 </r>
        <r>  0.0000  0.0010  0.0013 </r>
       </set>
       <set comment="band 104">
        <r>  0.0074  0.0023  0.0482 </r>
        <r>  0.0000  0.0011  0.0034 </r>
        <r>  0.0000  0.0001  0.0488 </r>
        <r>  0.0000  0.0004  0.0022 </r>
        <r>  0.0002  0.0097  0.0004 </r>
        <r>  0.0000  0.0026  0.0003 </r>
        <r>  0.0000  0.0026  0.0003 </r>
        <r>  0.0001  0.0097  0.0004 </r>
        <r>  0.0000  0.0009  0.0001 </r>
        <r>  0.0011  0.0101  0.0066 </r>
        <r>  0.0000  0.0028  0.0005 </r>
        <r>  0.0005  0.0153  0.0065 </r>
        <r>  0.0007  0.0034  0.0024 </r>
        <r>  0.0001  0.0010  0.0013 </r>
        <r>  0.0009  0.0047  0.0016 </r>
        <r>  0.0010  0.0050  0.0012 </r>
        <r>  0.0007  0.0033  0.0024 </r>
        <r>  0.0000  0.0010  0.0013 </r>
        <r>  0.0010  0.0051  0.0012 </r>
        <r>  0.0009  0.0047  0.0016 </r>
       </set>
       <set comment="band 105">
        <r>  0.0005  0.0004  0.0318 </r>
        <r>  0.0017  0.0020  0.0275 </r>
        <r>  0.0015  0.0018  0.0274 </r>
        <r>  0.0006  0.0003  0.0323 </r>
        <r>  0.0001  0.0013  0.0012 </r>
        <r>  0.0005  0.0029  0.0006 </r>
        <r>  0.0000  0.0091  0.0012 </r>
        <r>  0.0000  0.0075  0.0005 </r>
        <r>  0.0007  0.0024  0.0024 </r>
        <r>  0.0003  0.0038  0.0019 </r>
        <r>  0.0003  0.0041  0.0020 </r>
        <r>  0.0006  0.0022  0.0022 </r>
        <r>  0.0018  0.0024  0.0032 </r>
        <r>  0.0024  0.0015  0.0032 </r>
        <r>  0.0000  0.0019  0.0021 </r>
        <r>  0.0006  0.0037  0.0032 </r>
        <r>  0.0007  0.0033  0.0032 </r>
        <r>  0.0001  0.0019  0.0021 </r>
        <r>  0.0017  0.0028  0.0032 </r>
        <r>  0.0024  0.0014  0.0032 </r>
       </set>
       <set comment="band 106">
        <r>  0.0006  0.0003  0.0323 </r>
        <r>  0.0015  0.0018  0.0274 </r>
        <r>  0.0017  0.0020  0.0275 </r>
        <r>  0.0005  0.0004  0.0318 </r>
        <r>  0.0000  0.0075  0.0005 </r>
        <r>  0.0000  0.0091  0.0012 </r>
        <r>  0.0005  0.0029  0.0006 </r>
        <r>  0.0001  0.0013  0.0012 </r>
        <r>  0.0006  0.0022  0.0022 </r>
        <r>  0.0003  0.0041  0.0020 </r>
        <r>  0.0003  0.0038  0.0019 </r>
        <r>  0.0007  0.0024  0.0024 </r>
        <r>  0.0006  0.0037  0.0032 </r>
        <r>  0.0000  0.0019  0.0021 </r>
        <r>  0.0024  0.0015  0.0032 </r>
        <r>  0.0018  0.0024  0.0032 </r>
        <r>  0.0017  0.0028  0.0032 </r>
        <r>  0.0024  0.0014  0.0032 </r>
        <r>  0.0007  0.0033  0.0032 </r>
        <r>  0.0001  0.0019  0.0021 </r>
       </set>
       <set comment="band 107">
        <r>  0.0000  0.0013  0.0297 </r>
        <r>  0.0018  0.0019  0.0182 </r>
        <r>  0.0001  0.0003  0.0352 </r>
        <r>  0.0003  0.0047  0.0410 </r>
        <r>  0.0001  0.0037  0.0010 </r>
        <r>  0.0001  0.0071  0.0006 </r>
        <r>  0.0002  0.0049  0.0015 </r>
        <r>  0.0002  0.0096  0.0013 </r>
        <r>  0.0001  0.0037  0.0004 </r>
        <r>  0.0001  0.0037  0.0008 </r>
        <r>  0.0017  0.0067  0.0024 </r>
        <r>  0.0000  0.0019  0.0020 </r>
        <r>  0.0004  0.0023  0.0020 </r>
        <r>  0.0007  0.0035  0.0061 </r>
        <r>  0.0009  0.0024  0.0029 </r>
        <r>  0.0008  0.0027  0.0043 </r>
        <r>  0.0002  0.0033  0.0018 </r>
        <r>  0.0002  0.0036  0.0041 </r>
        <r>  0.0010  0.0017  0.0045 </r>
        <r>  0.0014  0.0022  0.0050 </r>
       </set>
       <set comment="band 108">
        <r>  0.0003  0.0047  0.0410 </r>
        <r>  0.0001  0.0003  0.0352 </r>
        <r>  0.0018  0.0019  0.0182 </r>
        <r>  0.0000  0.0013  0.0297 </r>
        <r>  0.0002  0.0096  0.0013 </r>
        <r>  0.0002  0.0049  0.0015 </r>
        <r>  0.0001  0.0071  0.0006 </r>
        <r>  0.0001  0.0037  0.0010 </r>
        <r>  0.0000  0.0019  0.0020 </r>
        <r>  0.0017  0.0067  0.0024 </r>
        <r>  0.0001  0.0037  0.0008 </r>
        <r>  0.0001  0.0037  0.0004 </r>
        <r>  0.0008  0.0027  0.0043 </r>
        <r>  0.0009  0.0024  0.0029 </r>
        <r>  0.0007  0.0035  0.0061 </r>
        <r>  0.0004  0.0023  0.0020 </r>
        <r>  0.0010  0.0017  0.0045 </r>
        <r>  0.0014  0.0022  0.0050 </r>
        <r>  0.0002  0.0033  0.0018 </r>
        <r>  0.0002  0.0036  0.0041 </r>
       </set>
       <set comment="band 109">
        <r>  0.0007  0.0039  0.0325 </r>
        <r>  0.0002  0.0026  0.0262 </r>
        <r>  0.0004  0.0047  0.0322 </r>
        <r>  0.0003  0.0019  0.0197 </r>
        <r>  0.0000  0.0029  0.0007 </r>
        <r>  0.0001  0.0066  0.0001 </r>
        <r>  0.0000  0.0025  0.0016 </r>
        <r>  0.0000  0.0064  0.0006 </r>
        <r>  0.0018  0.0038  0.0024 </r>
        <r>  0.0000  0.0072  0.0034 </r>
        <r>  0.0000  0.0044  0.0021 </r>
        <r>  0.0039  0.0031  0.0038 </r>
        <r>  0.0006  0.0027  0.0031 </r>
        <r>  0.0000  0.0035  0.0013 </r>
        <r>  0.0005  0.0040  0.0034 </r>
        <r>  0.0024  0.0027  0.0028 </r>
        <r>  0.0025  0.0036  0.0039 </r>
        <r>  0.0004  0.0039  0.0022 </r>
        <r>  0.0005  0.0018  0.0020 </r>
        <r>  0.0001  0.0037  0.0026 </r>
       </set>
       <set comment="band 110">
        <r>  0.0003  0.0019  0.0197 </r>
        <r>  0.0004  0.0047  0.0322 </r>
        <r>  0.0002  0.0026  0.0262 </r>
        <r>  0.0007  0.0039  0.0325 </r>
        <r>  0.0000  0.0064  0.0006 </r>
        <r>  0.0000  0.0025  0.0016 </r>
        <r>  0.0001  0.0066  0.0001 </r>
        <r>  0.0000  0.0029  0.0007 </r>
        <r>  0.0039  0.0031  0.0038 </r>
        <r>  0.0000  0.0044  0.0021 </r>
        <r>  0.0000  0.0072  0.0034 </r>
        <r>  0.0018  0.0038  0.0024 </r>
        <r>  0.0024  0.0027  0.0028 </r>
        <r>  0.0005  0.0040  0.0034 </r>
        <r>  0.0000  0.0035  0.0013 </r>
        <r>  0.0006  0.0027  0.0031 </r>
        <r>  0.0005  0.0018  0.0020 </r>
        <r>  0.0001  0.0037  0.0026 </r>
        <r>  0.0025  0.0036  0.0039 </r>
        <r>  0.0004  0.0039  0.0022 </r>
       </set>
       <set comment="band 111">
        <r>  0.0035  0.0024  0.0333 </r>
        <r>  0.0010  0.0020  0.0228 </r>
        <r>  0.0013  0.0022  0.0256 </r>
        <r>  0.0027  0.0021  0.0352 </r>
        <r>  0.0001  0.0018  0.0021 </r>
        <r>  0.0001  0.0064  0.0018 </r>
        <r>  0.0001  0.0060  0.0003 </r>
        <r>  0.0000  0.0082  0.0009 </r>
        <r>  0.0001  0.0076  0.0012 </r>
        <r>  0.0008  0.0038  0.0030 </r>
        <r>  0.0006  0.0030  0.0030 </r>
        <r>  0.0002  0.0096  0.0014 </r>
        <r>  0.0003  0.0015  0.0025 </r>
        <r>  0.0010  0.0056  0.0019 </r>
        <r>  0.0003  0.0026  0.0051 </r>
        <r>  0.0011  0.0044  0.0035 </r>
        <r>  0.0011  0.0048  0.0034 </r>
        <r>  0.0003  0.0023  0.0047 </r>
        <r>  0.0003  0.0011  0.0026 </r>
        <r>  0.0011  0.0059  0.0023 </r>
       </set>
       <set comment="band 112">
        <r>  0.0027  0.0021  0.0353 </r>
        <r>  0.0012  0.0022  0.0255 </r>
        <r>  0.0010  0.0020  0.0228 </r>
        <r>  0.0034  0.0024  0.0333 </r>
        <r>  0.0000  0.0082  0.0009 </r>
        <r>  0.0001  0.0060  0.0003 </r>
        <r>  0.0001  0.0064  0.0018 </r>
        <r>  0.0001  0.0018  0.0021 </r>
        <r>  0.0002  0.0096  0.0014 </r>
        <r>  0.0006  0.0030  0.0030 </r>
        <r>  0.0008  0.0038  0.0030 </r>
        <r>  0.0001  0.0076  0.0012 </r>
        <r>  0.0011  0.0044  0.0035 </r>
        <r>  0.0003  0.0026  0.0051 </r>
        <r>  0.0010  0.0056  0.0019 </r>
        <r>  0.0003  0.0015  0.0025 </r>
        <r>  0.0003  0.0011  0.0026 </r>
        <r>  0.0011  0.0059  0.0023 </r>
        <r>  0.0011  0.0048  0.0034 </r>
        <r>  0.0003  0.0023  0.0047 </r>
       </set>
      </set>
     </set>
    </set>
   </array>
  </projected>
 </calculation>
 <structure name="finalpos" >
  <crystal>
   <varray name="basis" >
    <v>       8.41180112       0.00000000       0.00000000 </v>
    <v>       0.00000000      11.72694579       0.00000000 </v>
    <v>       0.00000000       0.00000000       7.94845431 </v>
   </varray>
   <i name="volume">    784.07317565 </i>
   <varray name="rec_basis" >
    <v>       0.11888060       0.00000000      -0.00000000 </v>
    <v>       0.00000000       0.08527370       0.00000000 </v>
    <v>      -0.00000000       0.00000000       0.12581062 </v>
   </varray>
  </crystal>
  <varray name="positions" >
   <v>       0.06906683       0.25000000       0.47687365 </v>
   <v>       0.43093317       0.75000000       0.97687365 </v>
   <v>       0.56906683       0.25000000       0.02312635 </v>
   <v>       0.93093317       0.75000000       0.52312635 </v>
   <v>       0.00000000       0.00000000       0.00000000 </v>
   <v>       0.50000000       0.00000000       0.50000000 </v>
   <v>       0.50000000       0.50000000       0.50000000 </v>
   <v>       0.00000000       0.50000000       0.00000000 </v>
   <v>       0.50345581       0.75000000       0.43328244 </v>
   <v>       0.99654419       0.25000000       0.93328244 </v>
   <v>       0.00345581       0.75000000       0.06671756 </v>
   <v>       0.49654419       0.25000000       0.56671756 </v>
   <v>       0.30234455       0.46552137       0.19184867 </v>
   <v>       0.19765545       0.53447863       0.69184867 </v>
   <v>       0.80234455       0.03447863       0.30815133 </v>
   <v>       0.69765545       0.96552137       0.80815133 </v>
   <v>       0.30234455       0.03447863       0.19184867 </v>
   <v>       0.19765545       0.96552137       0.69184867 </v>
   <v>       0.69765545       0.53447863       0.80815133 </v>
   <v>       0.80234455       0.46552137       0.30815133 </v>
  </varray>
 </structure>
</modeling>
