CsPbBr3 cubic bulk                      
           1
     8.411801    0.000000    0.000000
     0.000000   11.726946    0.000000
     0.000000    0.000000    7.948454
   Cs   Pb   Br
   4   4  12
Direct configuration=     1
   0.06906683  0.25000000  0.47687365
   0.43093317  0.75000000  0.97687365
   0.56906683  0.25000000  0.02312635
   0.93093317  0.75000000  0.52312635
   0.00000000  0.00000000  0.00000000
   0.50000000  0.00000000  0.50000000
   0.50000000  0.50000000  0.50000000
   0.00000000  0.50000000  0.00000000
   0.50345581  0.75000000  0.43328244
   0.99654419  0.25000000  0.93328244
   0.00345581  0.75000000  0.06671756
   0.49654419  0.25000000  0.56671756
   0.30234455  0.46552137  0.19184867
   0.19765545  0.53447863  0.69184867
   0.80234455  0.03447863  0.30815133
   0.69765545  0.96552137  0.80815133
   0.30234455  0.03447863  0.19184867
   0.19765545  0.96552137  0.69184867
   0.69765545  0.53447863  0.80815133
   0.80234455  0.46552137  0.30815133
