  20  20   1   0
  0.4096169E+02  0.7970590E-09  0.1223436E-08  0.8401100E-09  0.5000000E-15
   1.0000000000000000E-004
  CAR 
 CsPbBr3 cubic bulk                      
      8.48662349    -22.37086372  301      0.38653310      1.00000000
    -22.371  0.0000E+00  0.0000E+00
    -22.268  0.0000E+00  0.0000E+00
    -22.165  0.0000E+00  0.0000E+00
    -22.062  0.0000E+00  0.0000E+00
    -21.959  0.0000E+00  0.0000E+00
    -21.857  0.0000E+00  0.0000E+00
    -21.754  0.0000E+00  0.0000E+00
    -21.651  0.0000E+00  0.0000E+00
    -21.548  0.0000E+00  0.0000E+00
    -21.445  0.0000E+00  0.0000E+00
    -21.342  0.0000E+00  0.0000E+00
    -21.239  0.0000E+00  0.0000E+00
    -21.137  0.0000E+00  0.0000E+00
    -21.034  0.0000E+00  0.0000E+00
    -20.931  0.7778E+02  0.8000E+01
    -20.828  0.0000E+00  0.8000E+01
    -20.725  0.0000E+00  0.8000E+01
    -20.622  0.0000E+00  0.8000E+01
    -20.519  0.0000E+00  0.8000E+01
    -20.417  0.0000E+00  0.8000E+01
    -20.314  0.0000E+00  0.8000E+01
    -20.211  0.0000E+00  0.8000E+01
    -20.108  0.0000E+00  0.8000E+01
    -20.005  0.0000E+00  0.8000E+01
    -19.902  0.0000E+00  0.8000E+01
    -19.799  0.0000E+00  0.8000E+01
    -19.697  0.0000E+00  0.8000E+01
    -19.594  0.0000E+00  0.8000E+01
    -19.491  0.0000E+00  0.8000E+01
    -19.388  0.0000E+00  0.8000E+01
    -19.285  0.0000E+00  0.8000E+01
    -19.182  0.0000E+00  0.8000E+01
    -19.079  0.0000E+00  0.8000E+01
    -18.977  0.0000E+00  0.8000E+01
    -18.874  0.0000E+00  0.8000E+01
    -18.771  0.0000E+00  0.8000E+01
    -18.668  0.0000E+00  0.8000E+01
    -18.565  0.0000E+00  0.8000E+01
    -18.462  0.0000E+00  0.8000E+01
    -18.359  0.0000E+00  0.8000E+01
    -18.257  0.0000E+00  0.8000E+01
    -18.154  0.0000E+00  0.8000E+01
    -18.051  0.0000E+00  0.8000E+01
    -17.948  0.0000E+00  0.8000E+01
    -17.845  0.0000E+00  0.8000E+01
    -17.742  0.0000E+00  0.8000E+01
    -17.639  0.0000E+00  0.8000E+01
    -17.537  0.0000E+00  0.8000E+01
    -17.434  0.0000E+00  0.8000E+01
    -17.331  0.0000E+00  0.8000E+01
    -17.228  0.0000E+00  0.8000E+01
    -17.125  0.0000E+00  0.8000E+01
    -17.022  0.0000E+00  0.8000E+01
    -16.919  0.0000E+00  0.8000E+01
    -16.817  0.0000E+00  0.8000E+01
    -16.714  0.0000E+00  0.8000E+01
    -16.611  0.9193E-08  0.8000E+01
    -16.508  0.1036E+03  0.1865E+02
    -16.405  0.2094E+03  0.4453E+02
    -16.302  0.0000E+00  0.4800E+02
    -16.199  0.0000E+00  0.4800E+02
    -16.097  0.0000E+00  0.4800E+02
    -15.994  0.0000E+00  0.4800E+02
    -15.891  0.0000E+00  0.4800E+02
    -15.788  0.0000E+00  0.4800E+02
    -15.685  0.0000E+00  0.4800E+02
    -15.582  0.0000E+00  0.4800E+02
    -15.479  0.0000E+00  0.4800E+02
    -15.376  0.0000E+00  0.4800E+02
    -15.274  0.0000E+00  0.4800E+02
    -15.171  0.0000E+00  0.4800E+02
    -15.068  0.0000E+00  0.4800E+02
    -14.965  0.0000E+00  0.4800E+02
    -14.862  0.0000E+00  0.4800E+02
    -14.759  0.0000E+00  0.4800E+02
    -14.656  0.0000E+00  0.4800E+02
    -14.554  0.0000E+00  0.4800E+02
    -14.451  0.0000E+00  0.4800E+02
    -14.348  0.1080E+01  0.4811E+02
    -14.245  0.1967E+02  0.5013E+02
    -14.142  0.2395E+02  0.5357E+02
    -14.039  0.3351E+02  0.5745E+02
    -13.936  0.5951E+02  0.6390E+02
    -13.834  0.4977E+02  0.7012E+02
    -13.731  0.9722E+01  0.7200E+02
    -13.628  0.0000E+00  0.7200E+02
    -13.525  0.0000E+00  0.7200E+02
    -13.422  0.0000E+00  0.7200E+02
    -13.319  0.0000E+00  0.7200E+02
    -13.216  0.0000E+00  0.7200E+02
    -13.114  0.0000E+00  0.7200E+02
    -13.011  0.0000E+00  0.7200E+02
    -12.908  0.0000E+00  0.7200E+02
    -12.805  0.0000E+00  0.7200E+02
    -12.702  0.0000E+00  0.7200E+02
    -12.599  0.0000E+00  0.7200E+02
    -12.496  0.0000E+00  0.7200E+02
    -12.394  0.0000E+00  0.7200E+02
    -12.291  0.0000E+00  0.7200E+02
    -12.188  0.0000E+00  0.7200E+02
    -12.085  0.0000E+00  0.7200E+02
    -11.982  0.0000E+00  0.7200E+02
    -11.879  0.0000E+00  0.7200E+02
    -11.776  0.0000E+00  0.7200E+02
    -11.674  0.0000E+00  0.7200E+02
    -11.571  0.0000E+00  0.7200E+02
    -11.468  0.0000E+00  0.7200E+02
    -11.365  0.0000E+00  0.7200E+02
    -11.262  0.0000E+00  0.7200E+02
    -11.159  0.0000E+00  0.7200E+02
    -11.056  0.0000E+00  0.7200E+02
    -10.954  0.0000E+00  0.7200E+02
    -10.851  0.0000E+00  0.7200E+02
    -10.748  0.0000E+00  0.7200E+02
    -10.645  0.0000E+00  0.7200E+02
    -10.542  0.0000E+00  0.7200E+02
    -10.439  0.0000E+00  0.7200E+02
    -10.336  0.0000E+00  0.7200E+02
    -10.234  0.0000E+00  0.7200E+02
    -10.131  0.0000E+00  0.7200E+02
    -10.028  0.0000E+00  0.7200E+02
     -9.925  0.0000E+00  0.7200E+02
     -9.822  0.0000E+00  0.7200E+02
     -9.719  0.0000E+00  0.7200E+02
     -9.616  0.0000E+00  0.7200E+02
     -9.514  0.0000E+00  0.7200E+02
     -9.411  0.0000E+00  0.7200E+02
     -9.308  0.0000E+00  0.7200E+02
     -9.205  0.0000E+00  0.7200E+02
     -9.102  0.0000E+00  0.7200E+02
     -8.999  0.0000E+00  0.7200E+02
     -8.896  0.0000E+00  0.7200E+02
     -8.794  0.0000E+00  0.7200E+02
     -8.691  0.0000E+00  0.7200E+02
     -8.588  0.0000E+00  0.7200E+02
     -8.485  0.0000E+00  0.7200E+02
     -8.382  0.0000E+00  0.7200E+02
     -8.279  0.0000E+00  0.7200E+02
     -8.176  0.1080E+01  0.7211E+02
     -8.074  0.0000E+00  0.7211E+02
     -7.971  0.6385E+01  0.7277E+02
     -7.868  0.5637E-02  0.7278E+02
     -7.765  0.9720E+01  0.7422E+02
     -7.662  0.1124E+01  0.7434E+02
     -7.559  0.7934E+01  0.7593E+02
     -7.456  0.4619E+01  0.7648E+02
     -7.354  0.9394E+02  0.8655E+02
     -7.251  0.9268E+02  0.1020E+03
     -7.148  0.4132E-01  0.1027E+03
     -7.045  0.4321E+01  0.1032E+03
     -6.942  0.4489E+01  0.1037E+03
     -6.839  0.0000E+00  0.1039E+03
     -6.736  0.0000E+00  0.1039E+03
     -6.634  0.1070E+01  0.1040E+03
     -6.531  0.0000E+00  0.1040E+03
     -6.428  0.0000E+00  0.1040E+03
     -6.325  0.0000E+00  0.1040E+03
     -6.222  0.0000E+00  0.1040E+03
     -6.119  0.0000E+00  0.1040E+03
     -6.016  0.0000E+00  0.1040E+03
     -5.914  0.0000E+00  0.1040E+03
     -5.811  0.0000E+00  0.1040E+03
     -5.708  0.0000E+00  0.1040E+03
     -5.605  0.0000E+00  0.1040E+03
     -5.502  0.0000E+00  0.1040E+03
     -5.399  0.0000E+00  0.1040E+03
     -5.296  0.0000E+00  0.1040E+03
     -5.194  0.0000E+00  0.1040E+03
     -5.091  0.0000E+00  0.1040E+03
     -4.988  0.0000E+00  0.1040E+03
     -4.885  0.0000E+00  0.1040E+03
     -4.782  0.0000E+00  0.1040E+03
     -4.679  0.0000E+00  0.1040E+03
     -4.576  0.0000E+00  0.1040E+03
     -4.474  0.0000E+00  0.1040E+03
     -4.371  0.0000E+00  0.1040E+03
     -4.268  0.0000E+00  0.1040E+03
     -4.165  0.0000E+00  0.1040E+03
     -4.062  0.0000E+00  0.1040E+03
     -3.959  0.0000E+00  0.1040E+03
     -3.856  0.0000E+00  0.1040E+03
     -3.754  0.0000E+00  0.1040E+03
     -3.651  0.0000E+00  0.1040E+03
     -3.548  0.0000E+00  0.1040E+03
     -3.445  0.4437E-14  0.1040E+03
     -3.342  0.3312E+01  0.1043E+03
     -3.239  0.4514E+01  0.1049E+03
     -3.136  0.1886E+02  0.1073E+03
     -3.034  0.1474E+02  0.1092E+03
     -2.931  0.9745E+01  0.1102E+03
     -2.828  0.9054E+01  0.1114E+03
     -2.725  0.1674E+02  0.1135E+03
     -2.622  0.2160E+01  0.1140E+03
     -2.519  0.5052E+01  0.1145E+03
     -2.416  0.6045E+01  0.1157E+03
     -2.313  0.1472E+01  0.1179E+03
     -2.211  0.1997E+02  0.1205E+03
     -2.108  0.1687E+02  0.1225E+03
     -2.005  0.2344E+02  0.1261E+03
     -1.902  0.7023E+01  0.1271E+03
     -1.799  0.1880E+02  0.1290E+03
     -1.696  0.2569E+02  0.1332E+03
     -1.593  0.1388E+02  0.1354E+03
     -1.491  0.3919E+02  0.1401E+03
     -1.388  0.5052E+02  0.1466E+03
     -1.285  0.5801E+02  0.1535E+03
     -1.182  0.6052E+02  0.1606E+03
     -1.079  0.4461E+02  0.1665E+03
     -0.976  0.1366E+02  0.1680E+03
     -0.873  0.2213E+02  0.1703E+03
     -0.771  0.4322E+01  0.1710E+03
     -0.668  0.1072E+02  0.1721E+03
     -0.565  0.1728E+02  0.1742E+03
     -0.462  0.4321E+01  0.1747E+03
     -0.359  0.0000E+00  0.1747E+03
     -0.256  0.3345E+01  0.1750E+03
     -0.153  0.2637E+01  0.1756E+03
     -0.051  0.3161E+00  0.1757E+03
      0.052  0.0000E+00  0.1759E+03
      0.155  0.0000E+00  0.1759E+03
      0.258  0.0000E+00  0.1759E+03
      0.361  0.1080E+01  0.1760E+03
      0.464  0.0000E+00  0.1760E+03
      0.567  0.0000E+00  0.1760E+03
      0.669  0.0000E+00  0.1760E+03
      0.772  0.0000E+00  0.1760E+03
      0.875  0.0000E+00  0.1760E+03
      0.978  0.0000E+00  0.1760E+03
      1.081  0.0000E+00  0.1760E+03
      1.184  0.0000E+00  0.1760E+03
      1.287  0.0000E+00  0.1760E+03
      1.389  0.0000E+00  0.1760E+03
      1.492  0.0000E+00  0.1760E+03
      1.595  0.0000E+00  0.1760E+03
      1.698  0.0000E+00  0.1760E+03
      1.801  0.0000E+00  0.1760E+03
      1.904  0.0000E+00  0.1760E+03
      2.007  0.0000E+00  0.1760E+03
      2.109  0.0000E+00  0.1760E+03
      2.212  0.0000E+00  0.1760E+03
      2.315  0.0000E+00  0.1760E+03
      2.418  0.3603E-03  0.1760E+03
      2.521  0.1080E+01  0.1761E+03
      2.624  0.6765E-05  0.1761E+03
      2.727  0.5401E+01  0.1767E+03
      2.829  0.4321E+01  0.1771E+03
      2.932  0.3241E+01  0.1774E+03
      3.035  0.4375E+01  0.1779E+03
      3.138  0.7562E+01  0.1791E+03
      3.241  0.9176E+01  0.1801E+03
      3.344  0.1080E+01  0.1802E+03
      3.447  0.5548E+01  0.1808E+03
      3.549  0.1976E-06  0.1809E+03
      3.652  0.6482E+01  0.1816E+03
      3.755  0.5392E+01  0.1821E+03
      3.858  0.6482E+01  0.1831E+03
      3.961  0.1297E+02  0.1844E+03
      4.064  0.8642E+01  0.1856E+03
      4.167  0.1180E+02  0.1868E+03
      4.269  0.8641E+01  0.1880E+03
      4.372  0.8634E+01  0.1889E+03
      4.475  0.8642E+01  0.1898E+03
      4.578  0.1791E+01  0.1900E+03
      4.681  0.1080E+01  0.1901E+03
      4.784  0.0000E+00  0.1901E+03
      4.887  0.4321E+01  0.1906E+03
      4.989  0.2463E+01  0.1908E+03
      5.092  0.1809E+02  0.1929E+03
      5.195  0.1672E-01  0.1932E+03
      5.298  0.1046E+02  0.1950E+03
      5.401  0.5401E+01  0.1956E+03
      5.504  0.8607E+01  0.1964E+03
      5.607  0.7495E+01  0.1975E+03
      5.709  0.7205E+01  0.1983E+03
      5.812  0.2438E+02  0.2013E+03
      5.915  0.6498E+01  0.2020E+03
      6.018  0.1504E+02  0.2038E+03
      6.121  0.1490E+02  0.2053E+03
      6.224  0.8646E+01  0.2063E+03
      6.327  0.1590E+02  0.2080E+03
      6.429  0.1596E+02  0.2101E+03
      6.532  0.2773E+02  0.2131E+03
      6.635  0.2692E+02  0.2162E+03
      6.738  0.2997E+02  0.2200E+03
      6.841  0.1146E+02  0.2213E+03
      6.944  0.1411E+02  0.2235E+03
      7.047  0.2649E-06  0.2236E+03
      7.149  0.4321E+01  0.2240E+03
      7.252  0.0000E+00  0.2240E+03
      7.355  0.0000E+00  0.2240E+03
      7.458  0.0000E+00  0.2240E+03
      7.561  0.0000E+00  0.2240E+03
      7.664  0.0000E+00  0.2240E+03
      7.767  0.0000E+00  0.2240E+03
      7.869  0.0000E+00  0.2240E+03
      7.972  0.0000E+00  0.2240E+03
      8.075  0.0000E+00  0.2240E+03
      8.178  0.0000E+00  0.2240E+03
      8.281  0.0000E+00  0.2240E+03
      8.384  0.0000E+00  0.2240E+03
      8.487  0.0000E+00  0.2240E+03
      8.48662349    -22.37086372  301      0.38653310      1.00000000
    -22.371  0.0000E+00  0.0000E+00  0.0000E+00
    -22.268  0.0000E+00  0.0000E+00  0.0000E+00
    -22.165  0.0000E+00  0.0000E+00  0.0000E+00
    -22.062  0.0000E+00  0.0000E+00  0.0000E+00
    -21.959  0.0000E+00  0.0000E+00  0.0000E+00
    -21.857  0.0000E+00  0.0000E+00  0.0000E+00
    -21.754  0.0000E+00  0.0000E+00  0.0000E+00
    -21.651  0.0000E+00  0.0000E+00  0.0000E+00
    -21.548  0.0000E+00  0.0000E+00  0.0000E+00
    -21.445  0.0000E+00  0.0000E+00  0.0000E+00
    -21.342  0.0000E+00  0.0000E+00  0.0000E+00
    -21.239  0.0000E+00  0.0000E+00  0.0000E+00
    -21.137  0.0000E+00  0.0000E+00  0.0000E+00
    -21.034  0.0000E+00  0.0000E+00  0.0000E+00
    -20.931  0.1726E+02  0.8723E-05  0.1498E-04
    -20.828  0.0000E+00  0.0000E+00  0.0000E+00
    -20.725  0.0000E+00  0.0000E+00  0.0000E+00
    -20.622  0.0000E+00  0.0000E+00  0.0000E+00
    -20.519  0.0000E+00  0.0000E+00  0.0000E+00
    -20.417  0.0000E+00  0.0000E+00  0.0000E+00
    -20.314  0.0000E+00  0.0000E+00  0.0000E+00
    -20.211  0.0000E+00  0.0000E+00  0.0000E+00
    -20.108  0.0000E+00  0.0000E+00  0.0000E+00
    -20.005  0.0000E+00  0.0000E+00  0.0000E+00
    -19.902  0.0000E+00  0.0000E+00  0.0000E+00
    -19.799  0.0000E+00  0.0000E+00  0.0000E+00
    -19.697  0.0000E+00  0.0000E+00  0.0000E+00
    -19.594  0.0000E+00  0.0000E+00  0.0000E+00
    -19.491  0.0000E+00  0.0000E+00  0.0000E+00
    -19.388  0.0000E+00  0.0000E+00  0.0000E+00
    -19.285  0.0000E+00  0.0000E+00  0.0000E+00
    -19.182  0.0000E+00  0.0000E+00  0.0000E+00
    -19.079  0.0000E+00  0.0000E+00  0.0000E+00
    -18.977  0.0000E+00  0.0000E+00  0.0000E+00
    -18.874  0.0000E+00  0.0000E+00  0.0000E+00
    -18.771  0.0000E+00  0.0000E+00  0.0000E+00
    -18.668  0.0000E+00  0.0000E+00  0.0000E+00
    -18.565  0.0000E+00  0.0000E+00  0.0000E+00
    -18.462  0.0000E+00  0.0000E+00  0.0000E+00
    -18.359  0.0000E+00  0.0000E+00  0.0000E+00
    -18.257  0.0000E+00  0.0000E+00  0.0000E+00
    -18.154  0.0000E+00  0.0000E+00  0.0000E+00
    -18.051  0.0000E+00  0.0000E+00  0.0000E+00
    -17.948  0.0000E+00  0.0000E+00  0.0000E+00
    -17.845  0.0000E+00  0.0000E+00  0.0000E+00
    -17.742  0.0000E+00  0.0000E+00  0.0000E+00
    -17.639  0.0000E+00  0.0000E+00  0.0000E+00
    -17.537  0.0000E+00  0.0000E+00  0.0000E+00
    -17.434  0.0000E+00  0.0000E+00  0.0000E+00
    -17.331  0.0000E+00  0.0000E+00  0.0000E+00
    -17.228  0.0000E+00  0.0000E+00  0.0000E+00
    -17.125  0.0000E+00  0.0000E+00  0.0000E+00
    -17.022  0.0000E+00  0.0000E+00  0.0000E+00
    -16.919  0.0000E+00  0.0000E+00  0.0000E+00
    -16.817  0.0000E+00  0.0000E+00  0.0000E+00
    -16.714  0.0000E+00  0.0000E+00  0.0000E+00
    -16.611  0.4084E-13  0.1713E-13  0.1136E-14
    -16.508  0.1041E-03  0.7744E-04  0.1317E-04
    -16.405  0.2792E-04  0.1613E-04  0.1846E-05
    -16.302  0.0000E+00  0.0000E+00  0.0000E+00
    -16.199  0.0000E+00  0.0000E+00  0.0000E+00
    -16.097  0.0000E+00  0.0000E+00  0.0000E+00
    -15.994  0.0000E+00  0.0000E+00  0.0000E+00
    -15.891  0.0000E+00  0.0000E+00  0.0000E+00
    -15.788  0.0000E+00  0.0000E+00  0.0000E+00
    -15.685  0.0000E+00  0.0000E+00  0.0000E+00
    -15.582  0.0000E+00  0.0000E+00  0.0000E+00
    -15.479  0.0000E+00  0.0000E+00  0.0000E+00
    -15.376  0.0000E+00  0.0000E+00  0.0000E+00
    -15.274  0.0000E+00  0.0000E+00  0.0000E+00
    -15.171  0.0000E+00  0.0000E+00  0.0000E+00
    -15.068  0.0000E+00  0.0000E+00  0.0000E+00
    -14.965  0.0000E+00  0.0000E+00  0.0000E+00
    -14.862  0.0000E+00  0.0000E+00  0.0000E+00
    -14.759  0.0000E+00  0.0000E+00  0.0000E+00
    -14.656  0.0000E+00  0.0000E+00  0.0000E+00
    -14.554  0.0000E+00  0.0000E+00  0.0000E+00
    -14.451  0.0000E+00  0.0000E+00  0.0000E+00
    -14.348  0.3480E-03  0.8346E-06  0.2822E-05
    -14.245  0.3074E-02  0.2288E-02  0.4529E-04
    -14.142  0.5713E-03  0.3102E-02  0.1314E-03
    -14.039  0.2345E-02  0.5174E-02  0.3362E-03
    -13.936  0.1088E-02  0.4223E-02  0.3730E-03
    -13.834  0.1120E-02  0.3258E-02  0.3861E-03
    -13.731  0.3764E-03  0.6707E-03  0.6252E-04
    -13.628  0.0000E+00  0.0000E+00  0.0000E+00
    -13.525  0.0000E+00  0.0000E+00  0.0000E+00
    -13.422  0.0000E+00  0.0000E+00  0.0000E+00
    -13.319  0.0000E+00  0.0000E+00  0.0000E+00
    -13.216  0.0000E+00  0.0000E+00  0.0000E+00
    -13.114  0.0000E+00  0.0000E+00  0.0000E+00
    -13.011  0.0000E+00  0.0000E+00  0.0000E+00
    -12.908  0.0000E+00  0.0000E+00  0.0000E+00
    -12.805  0.0000E+00  0.0000E+00  0.0000E+00
    -12.702  0.0000E+00  0.0000E+00  0.0000E+00
    -12.599  0.0000E+00  0.0000E+00  0.0000E+00
    -12.496  0.0000E+00  0.0000E+00  0.0000E+00
    -12.394  0.0000E+00  0.0000E+00  0.0000E+00
    -12.291  0.0000E+00  0.0000E+00  0.0000E+00
    -12.188  0.0000E+00  0.0000E+00  0.0000E+00
    -12.085  0.0000E+00  0.0000E+00  0.0000E+00
    -11.982  0.0000E+00  0.0000E+00  0.0000E+00
    -11.879  0.0000E+00  0.0000E+00  0.0000E+00
    -11.776  0.0000E+00  0.0000E+00  0.0000E+00
    -11.674  0.0000E+00  0.0000E+00  0.0000E+00
    -11.571  0.0000E+00  0.0000E+00  0.0000E+00
    -11.468  0.0000E+00  0.0000E+00  0.0000E+00
    -11.365  0.0000E+00  0.0000E+00  0.0000E+00
    -11.262  0.0000E+00  0.0000E+00  0.0000E+00
    -11.159  0.0000E+00  0.0000E+00  0.0000E+00
    -11.056  0.0000E+00  0.0000E+00  0.0000E+00
    -10.954  0.0000E+00  0.0000E+00  0.0000E+00
    -10.851  0.0000E+00  0.0000E+00  0.0000E+00
    -10.748  0.0000E+00  0.0000E+00  0.0000E+00
    -10.645  0.0000E+00  0.0000E+00  0.0000E+00
    -10.542  0.0000E+00  0.0000E+00  0.0000E+00
    -10.439  0.0000E+00  0.0000E+00  0.0000E+00
    -10.336  0.0000E+00  0.0000E+00  0.0000E+00
    -10.234  0.0000E+00  0.0000E+00  0.0000E+00
    -10.131  0.0000E+00  0.0000E+00  0.0000E+00
    -10.028  0.0000E+00  0.0000E+00  0.0000E+00
     -9.925  0.0000E+00  0.0000E+00  0.0000E+00
     -9.822  0.0000E+00  0.0000E+00  0.0000E+00
     -9.719  0.0000E+00  0.0000E+00  0.0000E+00
     -9.616  0.0000E+00  0.0000E+00  0.0000E+00
     -9.514  0.0000E+00  0.0000E+00  0.0000E+00
     -9.411  0.0000E+00  0.0000E+00  0.0000E+00
     -9.308  0.0000E+00  0.0000E+00  0.0000E+00
     -9.205  0.0000E+00  0.0000E+00  0.0000E+00
     -9.102  0.0000E+00  0.0000E+00  0.0000E+00
     -8.999  0.0000E+00  0.0000E+00  0.0000E+00
     -8.896  0.0000E+00  0.0000E+00  0.0000E+00
     -8.794  0.0000E+00  0.0000E+00  0.0000E+00
     -8.691  0.0000E+00  0.0000E+00  0.0000E+00
     -8.588  0.0000E+00  0.0000E+00  0.0000E+00
     -8.485  0.0000E+00  0.0000E+00  0.0000E+00
     -8.382  0.0000E+00  0.0000E+00  0.0000E+00
     -8.279  0.0000E+00  0.0000E+00  0.0000E+00
     -8.176  0.5403E-14  0.1828E-03  0.2835E-06
     -8.074  0.0000E+00  0.0000E+00  0.0000E+00
     -7.971  0.5046E-06  0.2439E-02  0.1103E-04
     -7.868  0.7737E-18  0.1050E-05  0.4338E-07
     -7.765  0.7772E-05  0.1276E-01  0.1752E-04
     -7.662  0.1628E-06  0.2670E-02  0.5677E-05
     -7.559  0.5488E-05  0.6111E-01  0.1196E-04
     -7.456  0.1060E-06  0.8302E-01  0.1691E-04
     -7.354  0.3004E-04  0.1678E+02  0.3606E-04
     -7.251  0.3940E-04  0.1643E+02  0.2888E-04
     -7.148  0.1781E-11  0.9728E-03  0.7251E-07
     -7.045  0.2140E-04  0.8897E-01  0.5671E-05
     -6.942  0.3614E-04  0.1738E-01  0.1175E-04
     -6.839  0.0000E+00  0.0000E+00  0.0000E+00
     -6.736  0.0000E+00  0.0000E+00  0.0000E+00
     -6.634  0.1302E-04  0.2140E-03  0.5088E-05
     -6.531  0.0000E+00  0.0000E+00  0.0000E+00
     -6.428  0.0000E+00  0.0000E+00  0.0000E+00
     -6.325  0.0000E+00  0.0000E+00  0.0000E+00
     -6.222  0.0000E+00  0.0000E+00  0.0000E+00
     -6.119  0.0000E+00  0.0000E+00  0.0000E+00
     -6.016  0.0000E+00  0.0000E+00  0.0000E+00
     -5.914  0.0000E+00  0.0000E+00  0.0000E+00
     -5.811  0.0000E+00  0.0000E+00  0.0000E+00
     -5.708  0.0000E+00  0.0000E+00  0.0000E+00
     -5.605  0.0000E+00  0.0000E+00  0.0000E+00
     -5.502  0.0000E+00  0.0000E+00  0.0000E+00
     -5.399  0.0000E+00  0.0000E+00  0.0000E+00
     -5.296  0.0000E+00  0.0000E+00  0.0000E+00
     -5.194  0.0000E+00  0.0000E+00  0.0000E+00
     -5.091  0.0000E+00  0.0000E+00  0.0000E+00
     -4.988  0.0000E+00  0.0000E+00  0.0000E+00
     -4.885  0.0000E+00  0.0000E+00  0.0000E+00
     -4.782  0.0000E+00  0.0000E+00  0.0000E+00
     -4.679  0.0000E+00  0.0000E+00  0.0000E+00
     -4.576  0.0000E+00  0.0000E+00  0.0000E+00
     -4.474  0.0000E+00  0.0000E+00  0.0000E+00
     -4.371  0.0000E+00  0.0000E+00  0.0000E+00
     -4.268  0.0000E+00  0.0000E+00  0.0000E+00
     -4.165  0.0000E+00  0.0000E+00  0.0000E+00
     -4.062  0.0000E+00  0.0000E+00  0.0000E+00
     -3.959  0.0000E+00  0.0000E+00  0.0000E+00
     -3.856  0.0000E+00  0.0000E+00  0.0000E+00
     -3.754  0.0000E+00  0.0000E+00  0.0000E+00
     -3.651  0.0000E+00  0.0000E+00  0.0000E+00
     -3.548  0.0000E+00  0.0000E+00  0.0000E+00
     -3.445  0.2334E-21  0.7124E-17  0.8510E-20
     -3.342  0.1221E-06  0.3539E-02  0.1154E-03
     -3.239  0.8372E-05  0.6695E-02  0.3823E-03
     -3.136  0.2412E-04  0.1664E-01  0.2199E-02
     -3.034  0.7059E-04  0.7690E-02  0.1017E-02
     -2.931  0.1370E-03  0.1079E-01  0.6242E-03
     -2.828  0.4961E-04  0.6171E-02  0.2753E-03
     -2.725  0.1562E-03  0.8233E-02  0.5147E-03
     -2.622  0.2283E-15  0.7362E-03  0.2393E-03
     -2.519  0.7751E-04  0.1072E-01  0.9123E-03
     -2.416  0.1234E-02  0.8159E-02  0.7845E-03
     -2.313  0.5664E-03  0.8086E-03  0.2463E-03
     -2.211  0.4951E-02  0.1501E-01  0.2359E-02
     -2.108  0.9193E-02  0.2906E-01  0.1388E-02
     -2.005  0.1345E-01  0.3445E-01  0.4855E-02
     -1.902  0.1636E-02  0.2647E-01  0.7075E-03
     -1.799  0.3150E-02  0.9359E-01  0.3918E-02
     -1.696  0.4130E-02  0.5176E-01  0.8769E-02
     -1.593  0.1232E-02  0.4159E-01  0.7060E-02
     -1.491  0.2587E-02  0.3719E-01  0.1941E-01
     -1.388  0.2838E-02  0.7257E-01  0.1861E-01
     -1.285  0.5099E-02  0.1082E+00  0.1203E-01
     -1.182  0.1846E-02  0.5507E-01  0.1229E-01
     -1.079  0.1910E-02  0.5728E-01  0.9149E-02
     -0.976  0.5627E-03  0.7289E-02  0.3908E-02
     -0.873  0.9649E-03  0.1465E-01  0.4648E-02
     -0.771  0.9463E-05  0.3414E-02  0.7700E-03
     -0.668  0.1189E-03  0.5007E-02  0.4188E-03
     -0.565  0.5822E-04  0.3650E-02  0.2271E-02
     -0.462  0.1394E-16  0.1473E-02  0.7649E-04
     -0.359  0.0000E+00  0.0000E+00  0.0000E+00
     -0.256  0.5974E-15  0.6721E-04  0.5818E-03
     -0.153  0.2487E-05  0.7194E-04  0.2371E-03
     -0.051  0.7183E-06  0.7795E-05  0.1252E-04
      0.052  0.0000E+00  0.0000E+00  0.0000E+00
      0.155  0.0000E+00  0.0000E+00  0.0000E+00
      0.258  0.0000E+00  0.0000E+00  0.0000E+00
      0.361  0.1557E-15  0.2966E-04  0.1088E-05
      0.464  0.0000E+00  0.0000E+00  0.0000E+00
      0.567  0.0000E+00  0.0000E+00  0.0000E+00
      0.669  0.0000E+00  0.0000E+00  0.0000E+00
      0.772  0.0000E+00  0.0000E+00  0.0000E+00
      0.875  0.0000E+00  0.0000E+00  0.0000E+00
      0.978  0.0000E+00  0.0000E+00  0.0000E+00
      1.081  0.0000E+00  0.0000E+00  0.0000E+00
      1.184  0.0000E+00  0.0000E+00  0.0000E+00
      1.287  0.0000E+00  0.0000E+00  0.0000E+00
      1.389  0.0000E+00  0.0000E+00  0.0000E+00
      1.492  0.0000E+00  0.0000E+00  0.0000E+00
      1.595  0.0000E+00  0.0000E+00  0.0000E+00
      1.698  0.0000E+00  0.0000E+00  0.0000E+00
      1.801  0.0000E+00  0.0000E+00  0.0000E+00
      1.904  0.0000E+00  0.0000E+00  0.0000E+00
      2.007  0.0000E+00  0.0000E+00  0.0000E+00
      2.109  0.0000E+00  0.0000E+00  0.0000E+00
      2.212  0.0000E+00  0.0000E+00  0.0000E+00
      2.315  0.0000E+00  0.0000E+00  0.0000E+00
      2.418  0.1697E-08  0.2916E-08  0.1860E-06
      2.521  0.5087E-05  0.8739E-05  0.5576E-03
      2.624  0.1281E-09  0.6116E-09  0.2170E-08
      2.727  0.6348E-04  0.4988E-03  0.2464E-02
      2.829  0.1951E-04  0.1634E-02  0.6099E-03
      2.932  0.1745E-04  0.1270E-03  0.1793E-02
      3.035  0.1097E-03  0.3269E-03  0.5193E-03
      3.138  0.1343E-03  0.7738E-03  0.1623E-02
      3.241  0.9422E-03  0.4145E-02  0.2630E-02
      3.344  0.1327E-05  0.1141E-04  0.2473E-03
      3.447  0.8319E-03  0.7595E-03  0.2914E-02
      3.549  0.9773E-16  0.2947E-10  0.2833E-09
      3.652  0.4133E-03  0.1166E-02  0.6132E-02
      3.755  0.9248E-04  0.1233E-02  0.3180E-02
      3.858  0.5284E-03  0.1007E-02  0.3843E-02
      3.961  0.3100E-03  0.1498E-02  0.5163E-02
      4.064  0.3554E-03  0.1107E-02  0.2151E-02
      4.167  0.4835E-03  0.3082E-02  0.8479E-02
      4.269  0.7780E-05  0.5232E-02  0.3801E-02
      4.372  0.5161E-03  0.1400E-02  0.5114E-02
      4.475  0.1834E-02  0.3592E-02  0.5980E-02
      4.578  0.1882E-02  0.7014E-03  0.1749E-02
      4.681  0.1185E-01  0.6197E-05  0.1371E-02
      4.784  0.0000E+00  0.0000E+00  0.0000E+00
      4.887  0.5581E-14  0.3289E-04  0.8076E-02
      4.989  0.3516E-09  0.9080E-03  0.2324E-02
      5.092  0.2438E-01  0.1003E-01  0.2093E-01
      5.195  0.2270E-06  0.4492E-05  0.4574E-05
      5.298  0.2994E-01  0.8480E-02  0.1552E-01
      5.401  0.1538E-02  0.5311E-03  0.2360E-02
      5.504  0.1632E-02  0.3088E-03  0.2579E-01
      5.607  0.1164E-01  0.1539E-02  0.3065E-01
      5.709  0.4356E-01  0.1553E-01  0.8934E-01
      5.812  0.5544E-01  0.9076E-02  0.7422E-01
      5.915  0.2240E-02  0.5280E-02  0.1375E+00
      6.018  0.2357E-01  0.1145E-01  0.2862E+00
      6.121  0.9818E-01  0.3701E-01  0.1557E+00
      6.224  0.1107E-02  0.1398E-01  0.1769E+00
      6.327  0.5972E-01  0.1997E-01  0.3439E+00
      6.429  0.4817E-01  0.1412E-01  0.3600E+00
      6.532  0.3170E-01  0.3466E-01  0.5968E+00
      6.635  0.1609E-01  0.5850E-01  0.9720E+00
      6.738  0.9506E-02  0.2459E-01  0.1213E+01
      6.841  0.7723E-02  0.2645E-01  0.3402E+00
      6.944  0.5811E-03  0.7114E-01  0.3201E+00
      7.047  0.4598E-09  0.1094E-08  0.1164E-07
      7.149  0.7502E-02  0.1784E-01  0.1900E+00
      7.252  0.0000E+00  0.0000E+00  0.0000E+00
      7.355  0.0000E+00  0.0000E+00  0.0000E+00
      7.458  0.0000E+00  0.0000E+00  0.0000E+00
      7.561  0.0000E+00  0.0000E+00  0.0000E+00
      7.664  0.0000E+00  0.0000E+00  0.0000E+00
      7.767  0.0000E+00  0.0000E+00  0.0000E+00
      7.869  0.0000E+00  0.0000E+00  0.0000E+00
      7.972  0.0000E+00  0.0000E+00  0.0000E+00
      8.075  0.0000E+00  0.0000E+00  0.0000E+00
      8.178  0.0000E+00  0.0000E+00  0.0000E+00
      8.281  0.0000E+00  0.0000E+00  0.0000E+00
      8.384  0.0000E+00  0.0000E+00  0.0000E+00
      8.487  0.0000E+00  0.0000E+00  0.0000E+00
      8.48662349    -22.37086372  301      0.38653310      1.00000000
    -22.371  0.0000E+00  0.0000E+00  0.0000E+00
    -22.268  0.0000E+00  0.0000E+00  0.0000E+00
    -22.165  0.0000E+00  0.0000E+00  0.0000E+00
    -22.062  0.0000E+00  0.0000E+00  0.0000E+00
    -21.959  0.0000E+00  0.0000E+00  0.0000E+00
    -21.857  0.0000E+00  0.0000E+00  0.0000E+00
    -21.754  0.0000E+00  0.0000E+00  0.0000E+00
    -21.651  0.0000E+00  0.0000E+00  0.0000E+00
    -21.548  0.0000E+00  0.0000E+00  0.0000E+00
    -21.445  0.0000E+00  0.0000E+00  0.0000E+00
    -21.342  0.0000E+00  0.0000E+00  0.0000E+00
    -21.239  0.0000E+00  0.0000E+00  0.0000E+00
    -21.137  0.0000E+00  0.0000E+00  0.0000E+00
    -21.034  0.0000E+00  0.0000E+00  0.0000E+00
    -20.931  0.1726E+02  0.8731E-05  0.1500E-04
    -20.828  0.0000E+00  0.0000E+00  0.0000E+00
    -20.725  0.0000E+00  0.0000E+00  0.0000E+00
    -20.622  0.0000E+00  0.0000E+00  0.0000E+00
    -20.519  0.0000E+00  0.0000E+00  0.0000E+00
    -20.417  0.0000E+00  0.0000E+00  0.0000E+00
    -20.314  0.0000E+00  0.0000E+00  0.0000E+00
    -20.211  0.0000E+00  0.0000E+00  0.0000E+00
    -20.108  0.0000E+00  0.0000E+00  0.0000E+00
    -20.005  0.0000E+00  0.0000E+00  0.0000E+00
    -19.902  0.0000E+00  0.0000E+00  0.0000E+00
    -19.799  0.0000E+00  0.0000E+00  0.0000E+00
    -19.697  0.0000E+00  0.0000E+00  0.0000E+00
    -19.594  0.0000E+00  0.0000E+00  0.0000E+00
    -19.491  0.0000E+00  0.0000E+00  0.0000E+00
    -19.388  0.0000E+00  0.0000E+00  0.0000E+00
    -19.285  0.0000E+00  0.0000E+00  0.0000E+00
    -19.182  0.0000E+00  0.0000E+00  0.0000E+00
    -19.079  0.0000E+00  0.0000E+00  0.0000E+00
    -18.977  0.0000E+00  0.0000E+00  0.0000E+00
    -18.874  0.0000E+00  0.0000E+00  0.0000E+00
    -18.771  0.0000E+00  0.0000E+00  0.0000E+00
    -18.668  0.0000E+00  0.0000E+00  0.0000E+00
    -18.565  0.0000E+00  0.0000E+00  0.0000E+00
    -18.462  0.0000E+00  0.0000E+00  0.0000E+00
    -18.359  0.0000E+00  0.0000E+00  0.0000E+00
    -18.257  0.0000E+00  0.0000E+00  0.0000E+00
    -18.154  0.0000E+00  0.0000E+00  0.0000E+00
    -18.051  0.0000E+00  0.0000E+00  0.0000E+00
    -17.948  0.0000E+00  0.0000E+00  0.0000E+00
    -17.845  0.0000E+00  0.0000E+00  0.0000E+00
    -17.742  0.0000E+00  0.0000E+00  0.0000E+00
    -17.639  0.0000E+00  0.0000E+00  0.0000E+00
    -17.537  0.0000E+00  0.0000E+00  0.0000E+00
    -17.434  0.0000E+00  0.0000E+00  0.0000E+00
    -17.331  0.0000E+00  0.0000E+00  0.0000E+00
    -17.228  0.0000E+00  0.0000E+00  0.0000E+00
    -17.125  0.0000E+00  0.0000E+00  0.0000E+00
    -17.022  0.0000E+00  0.0000E+00  0.0000E+00
    -16.919  0.0000E+00  0.0000E+00  0.0000E+00
    -16.817  0.0000E+00  0.0000E+00  0.0000E+00
    -16.714  0.0000E+00  0.0000E+00  0.0000E+00
    -16.611  0.4084E-13  0.1713E-13  0.1136E-14
    -16.508  0.9962E-04  0.6404E-04  0.1283E-04
    -16.405  0.2814E-04  0.1613E-04  0.1870E-05
    -16.302  0.0000E+00  0.0000E+00  0.0000E+00
    -16.199  0.0000E+00  0.0000E+00  0.0000E+00
    -16.097  0.0000E+00  0.0000E+00  0.0000E+00
    -15.994  0.0000E+00  0.0000E+00  0.0000E+00
    -15.891  0.0000E+00  0.0000E+00  0.0000E+00
    -15.788  0.0000E+00  0.0000E+00  0.0000E+00
    -15.685  0.0000E+00  0.0000E+00  0.0000E+00
    -15.582  0.0000E+00  0.0000E+00  0.0000E+00
    -15.479  0.0000E+00  0.0000E+00  0.0000E+00
    -15.376  0.0000E+00  0.0000E+00  0.0000E+00
    -15.274  0.0000E+00  0.0000E+00  0.0000E+00
    -15.171  0.0000E+00  0.0000E+00  0.0000E+00
    -15.068  0.0000E+00  0.0000E+00  0.0000E+00
    -14.965  0.0000E+00  0.0000E+00  0.0000E+00
    -14.862  0.0000E+00  0.0000E+00  0.0000E+00
    -14.759  0.0000E+00  0.0000E+00  0.0000E+00
    -14.656  0.0000E+00  0.0000E+00  0.0000E+00
    -14.554  0.0000E+00  0.0000E+00  0.0000E+00
    -14.451  0.0000E+00  0.0000E+00  0.0000E+00
    -14.348  0.3480E-03  0.8347E-06  0.2822E-05
    -14.245  0.3496E-02  0.1745E-02  0.5973E-04
    -14.142  0.5603E-03  0.5113E-02  0.9821E-04
    -14.039  0.1011E-03  0.2712E-02  0.2035E-03
    -13.936  0.2126E-02  0.4946E-02  0.6818E-03
    -13.834  0.1352E-02  0.2951E-02  0.3663E-03
    -13.731  0.3523E-03  0.7522E-03  0.4577E-04
    -13.628  0.0000E+00  0.0000E+00  0.0000E+00
    -13.525  0.0000E+00  0.0000E+00  0.0000E+00
    -13.422  0.0000E+00  0.0000E+00  0.0000E+00
    -13.319  0.0000E+00  0.0000E+00  0.0000E+00
    -13.216  0.0000E+00  0.0000E+00  0.0000E+00