 vasp.5.4.4.18Apr17-6-g9f103f2a35 (build Jun 29 2021 11:06:51) complex           
 executed on tx2_gcc-7.3_libsci-1 date 2021.09.21  08:32:47
 running on   64 total cores
 distrk:  each k-point on   64 cores,    1 groups
 distr:  one band on NCORES_PER_BAND=   8 cores,    8 groups


--------------------------------------------------------------------------------------------------------


 INCAR:
 POTCAR:    PAW_PBE Cs_sv 08Apr2002               
 POTCAR:    PAW_PBE Pb_d 06Sep2000                
 POTCAR:    PAW_PBE Br 06Sep2000                  
 POTCAR:    PAW_PBE Cs_sv 08Apr2002               
   SHA256 =  c1463496f0f6037ed62c6012a8013a89ee9ad6ffb38599dcd6c079e7ed31779b Cs
   COPYR  = (c) Copyright 08Apr2002 Georg Kresse                                
   COPYR  = This file is part of the software VASP. Any use, copying, and all ot
   COPYR  = If you do not have a valid VASP license, you may not use, copy or di
   VRHFIN =Cs: 5s5p6s                                                           
   LEXCH  = PE                                                                  
   EATOM  =   555.6835 eV,   40.8416 Ry                                         
                                                                                
   TITEL  = PAW_PBE Cs_sv 08Apr2002                                             
   LULTRA =        F    use ultrasoft PP ?                                      
   IUNSCR =        1    unscreen: 0-lin 1-nonlin 2-no                           
   RPACOR =    2.200    partial core radius                                     
   POMASS =  132.900; ZVAL   =    9.000    mass and valenz                      
   RCORE  =    2.500    outmost cutoff radius                                   
   RWIGS  =    2.500; RWIGS  =    1.323    wigner-seitz radius (au A)           
   ENMAX  =  220.318; ENMIN  =  165.238 eV                                      
   RCLOC  =    2.207    cutoff for local pot                                    
   LCOR   =        T    correct aug charges                                     
   LPAW   =        T    paw PP                                                  
   EAUG   =  407.933                                                            
   DEXC   =    0.000                                                            
   RMAX   =    2.554    core radius for proj-oper                               
   RAUG   =    1.300    factor for augmentation sphere                          
   RDEP   =    2.590    radius for radial grids                                 
   RDEPT  =    2.117    core radius for aug-charge                              
                                                                                
   Atomic configuration                                                         
   13 entries                                                                   
     n  l   j            E        occ.                                          
     1  0  0.50    -35790.1377   2.0000                                         
     2  0  0.50     -5613.6201   2.0000                                         
     2  1  1.50     -5035.0101   6.0000                                         
     3  0  0.50     -1167.0767   2.0000                                         
     3  1  1.50      -980.9754   6.0000                                         
     3  2  2.50      -708.0703  10.0000                                         
     4  0  0.50      -220.2386   2.0000                                         
     4  1  1.50      -160.7596   6.0000                                         
     4  2  2.50       -74.2354  10.0000                                         
     5  0  0.50       -26.7287   2.0000                                         
     6  0  0.50        -2.0862   1.0000                                         
     5  1  1.50       -13.5159   6.0000                                         
     5  2  2.50        -0.4136   0.0000                                         
   Description                                                                  
     l       E           TYP  RCUT    TYP  RCUT                                 
     0    -26.7287425     23  1.900                                             
     0     -2.0862306     23  1.900                                             
     1    -13.5158719     23  2.500                                             
     1     -2.7211652     23  2.500                                             
     2     -0.4136171     23  2.500                                             
  local pseudopotential read in
  partial core-charges read in
  partial kinetic energy density read in
  atomic valenz-charges read in
  non local Contribution for L=           0  read in
    real space projection operators read in
  non local Contribution for L=           0  read in
    real space projection operators read in
  non local Contribution for L=           1  read in
    real space projection operators read in
  non local Contribution for L=           1  read in
    real space projection operators read in
  non local Contribution for L=           2  read in
    real space projection operators read in
    PAW grid and wavefunctions read in

   number of l-projection  operators is LMAX  =           5
   number of lm-projection operators is LMMAX =          13

 POTCAR:    PAW_PBE Pb_d 06Sep2000                
   SHA256 =  fb885b08f0fba73a15f6a6b0e39bd200c13ec96ef97cf3ecd8e63bade5137abd Pb
   COPYR  = (c) Copyright 06Sep2000 Georg Kresse                                
   COPYR  = This file is part of the software VASP. Any use, copying, and all ot
   COPYR  = If you do not have a valid VASP license, you may not use, copy or di
   VRHFIN =Pb:                                                                  
   LEXCH  = PE                                                                  
   EATOM  =  1661.6185 eV,  122.1255 Ry                                         
                                                                                
   TITEL  = PAW_PBE Pb_d 06Sep2000                                              
   LULTRA =        F    use ultrasoft PP ?                                      
   IUNSCR =        1    unscreen: 0-lin 1-nonlin 2-no                           
   RPACOR =    2.200    partial core radius                                     
   POMASS =  207.200; ZVAL   =   14.000    mass and valenz                      
   RCORE  =    2.500    outmost cutoff radius                                   
   RWIGS  =    3.260; RWIGS  =    1.725    wigner-seitz radius (au A)           
   ENMAX  =  237.835; ENMIN  =  178.376 eV                                      
   ICORE  =        3    local potential                                         
   LCOR   =        T    correct aug charges                                     
   LPAW   =        T    paw PP                                                  
   EAUG   =  391.914                                                            
   DEXC   =    0.000                                                            
   RMAX   =    2.565    core radius for proj-oper                               
   RAUG   =    1.300    factor for augmentation sphere                          
   RDEP   =    2.643    radius for radial grids                                 
   RDEPT  =    2.092    core radius for aug-charge                              
                                                                                
   Atomic configuration                                                         
   16 entries                                                                   
     n  l   j            E        occ.                                          
     1  0  0.50    -88091.8466   2.0000                                         
     2  0  0.50    -15753.4197   2.0000                                         
     2  1  1.50    -13508.1797   6.0000                                         
     3  0  0.50     -3781.7194   2.0000                                         
     3  1  1.50     -3138.2529   6.0000                                         
     3  2  2.50     -2483.2977  10.0000                                         
     4  0  0.50      -856.2895   2.0000                                         
     4  1  1.50      -645.4942   6.0000                                         
     4  2  2.50      -401.8768  10.0000                                         
     4  3  3.50      -132.9059  14.0000                                         
     5  0  0.50      -144.0950   2.0000                                         
     5  1  1.50       -85.7879   6.0000                                         
     5  2  2.50       -21.1769  10.0000                                         
     6  0  0.50       -12.0372   2.0000                                         
     6  1  1.50        -3.4971   2.0000                                         
     5  3  2.50        -2.7212   0.0000                                         
   Description                                                                  
     l       E           TYP  RCUT    TYP  RCUT                                 
     2    -21.1768523     23  2.500                                             
     2      1.3605826     23  2.500                                             
     0    -12.0371562     23  2.500                                             
     0     13.6058260     23  2.500                                             
     1     -3.4971339     23  2.500                                             
     1     13.6058260     23  2.500                                             
     3     -1.3605826      7  2.500                                             
  local pseudopotential read in
  partial core-charges read in
  partial kinetic energy density read in
  atomic valenz-charges read in
  non local Contribution for L=           2  read in
    real space projection operators read in
  non local Contribution for L=           2  read in
    real space projection operators read in
  non local Contribution for L=           0  read in
    real space projection operators read in
  non local Contribution for L=           0  read in
    real space projection operators read in
  non local Contribution for L=           1  read in
    real space projection operators read in
  non local Contribution for L=           1  read in
    real space projection operators read in
    PAW grid and wavefunctions read in

   number of l-projection  operators is LMAX  =           6
   number of lm-projection operators is LMMAX =          18

 POTCAR:    PAW_PBE Br 06Sep2000                  
   SHA256 =  96a73d2954943bbee26f4990d676cc6c3bf44b8dd2c75cd4b3b825d8403f0103 Br
   COPYR  = (c) Copyright 06Sep2000 Georg Kresse                                
   COPYR  = This file is part of the software VASP. Any use, copying, and all ot
   COPYR  = If you do not have a valid VASP license, you may not use, copy or di
   VRHFIN =Br: s2p5                                                             
   LEXCH  = PE                                                                  
   EATOM  =   368.4488 eV,   27.0802 Ry                                         
                                                                                
   TITEL  = PAW_PBE Br 06Sep2000                                                
   LULTRA =        F    use ultrasoft PP ?                                      
   IUNSCR =        1    unscreen: 0-lin 1-nonlin 2-no                           
   RPACOR =    1.900    partial core radius                                     
   POMASS =   79.904; ZVAL   =    7.000    mass and valenz                      
   RCORE  =    2.100    outmost cutoff radius                                   
   RWIGS  =    2.200; RWIGS  =    1.164    wigner-seitz radius (au A)           
   ENMAX  =  216.285; ENMIN  =  162.214 eV                                      
   ICORE  =        3    local potential                                         
   LCOR   =        T    correct aug charges                                     
   LPAW   =        T    paw PP                                                  
   EAUG   =  503.852                                                            
   DEXC   =    0.000                                                            
   RMAX   =    2.139    core radius for proj-oper                               
   RAUG   =    1.300    factor for augmentation sphere                          
   RDEP   =    2.186    radius for radial grids                                 
   RDEPT  =    1.890    core radius for aug-charge                              
                                                                                
   Atomic configuration                                                         
   10 entries                                                                   
     n  l   j            E        occ.                                          
     1  0  0.50    -13316.2796   2.0000                                         
     2  0  0.50     -1732.8239   2.0000                                         
     2  1  1.50     -1528.2193   6.0000                                         
     3  0  0.50      -238.0460   2.0000                                         
     3  1  1.50      -173.4609   6.0000                                         
     3  2  2.50       -66.7132  10.0000                                         
     4  0  0.50       -20.1334   2.0000                                         
     4  1  0.50        -7.8591   5.0000                                         
     4  2  2.50        -8.1635   0.0000                                         
     4  3  2.50        -8.1635   0.0000                                         
   Description                                                                  
     l       E           TYP  RCUT    TYP  RCUT                                 
     0    -20.1333652     23  2.100                                             
     0    -21.4939478     23  2.100                                             
     1     -7.8591052     23  2.100                                             
     1     -3.1608434     23  2.100                                             
     2     -8.1634956     23  2.100                                             
     3     -1.3605826      7  2.100                                             
  local pseudopotential read in
  partial core-charges read in
  partial kinetic energy density read in
  atomic valenz-charges read in
  non local Contribution for L=           0  read in
    real space projection operators read in
  non local Contribution for L=           0  read in
    real space projection operators read in
  non local Contribution for L=           1  read in
    real space projection operators read in
  non local Contribution for L=           1  read in
    real space projection operators read in
  non local Contribution for L=           2  read in
    real space projection operators read in
    PAW grid and wavefunctions read in

   number of l-projection  operators is LMAX  =           5
   number of lm-projection operators is LMMAX =          13

 Optimization of the real space projectors (new method)

 maximal supplied QI-value         = 15.12
 optimisation between [QCUT,QGAM] = [  8.77, 17.69] = [ 21.53, 87.61] Ry 
 Optimized for a Real-space Cutoff    1.85 Angstroem

   l    n(q)    QCUT    max X(q) W(low)/X(q) W(high)/X(q)  e(spline) 
   0     10     8.768    25.322    0.81E-04    0.51E-04    0.48E-06
   0     10     8.768    99.187    0.78E-04    0.50E-04    0.47E-06
   1      9     8.768    11.761    0.21E-03    0.20E-03    0.37E-06
   1      9     8.768     8.275    0.24E-03    0.22E-03    0.41E-06
   2      9     8.768     3.829    0.23E-04    0.15E-03    0.18E-06
 Optimization of the real space projectors (new method)

 maximal supplied QI-value         = 15.12
 optimisation between [QCUT,QGAM] = [  8.77, 17.69] = [ 21.53, 87.61] Ry 
 Optimized for a Real-space Cutoff    1.59 Angstroem

   l    n(q)    QCUT    max X(q) W(low)/X(q) W(high)/X(q)  e(spline) 
   2      7     8.768     3.846    0.48E-04    0.11E-03    0.11E-06
   2      7     8.768     8.593    0.20E-03    0.22E-04    0.24E-06
   0      8     8.768    20.082    0.68E-04    0.88E-04    0.41E-07
   0      8     8.768     8.597    0.89E-04    0.13E-03    0.59E-07
   1      8     8.768    33.223    0.15E-03    0.53E-04    0.87E-07
   1      8     8.768    15.899    0.14E-03    0.44E-04    0.78E-07
 Optimization of the real space projectors (new method)

 maximal supplied QI-value         = 17.95
 optimisation between [QCUT,QGAM] = [  8.80, 17.59] = [ 21.67, 86.68] Ry 
 Optimized for a Real-space Cutoff    1.59 Angstroem

   l    n(q)    QCUT    max X(q) W(low)/X(q) W(high)/X(q)  e(spline) 
   0      8     8.797   175.082    0.82E-04    0.14E-03    0.89E-07
   0      8     8.797   174.004    0.79E-04    0.14E-03    0.86E-07
   1      8     8.797    54.315    0.16E-03    0.14E-04    0.30E-06
   1      8     8.797    42.441    0.16E-03    0.14E-04    0.30E-06
   2      7     8.797     3.596    0.92E-04    0.15E-03    0.85E-07
  PAW_PBE Cs_sv 08Apr2002               :
 energy of atom  1       EATOM= -555.6835
 kinetic energy error for atom=    0.0069 (will be added to EATOM!!)
  PAW_PBE Pb_d 06Sep2000                :
 energy of atom  2       EATOM=-1661.6185
 kinetic energy error for atom=    0.0498 (will be added to EATOM!!)
  PAW_PBE Br 06Sep2000                  :
 energy of atom  3       EATOM= -368.4488
 kinetic energy error for atom=    0.0072 (will be added to EATOM!!)


 POSCAR: Cs4 Pb4 Br12                            
  positions in direct lattice
  velocities in cartesian coordinates

 METAGGA = SCAN     LMAXTAU =  6    LMIXTAU =  F

 exchange correlation table for  LEXCH =        8
   RHO(1)=    0.500       N(1)  =     2000
   RHO(2)=  100.500       N(2)  =     4000

 VTST: version 3.2, (02/03/18)

 CHAIN: initializing optimizer
 
 OPT: Using VASP Conjugate-Gradient optimizer
 CHAIN: Read ICHAIN            0

 POSCAR: Cs4 Pb4 Br12                            
  positions in direct lattice
  velocities in cartesian coordinates



--------------------------------------------------------------------------------------------------------


 ion  position               nearest neighbor table
   1  0.014  0.250  0.511-
   2  0.486  0.750  0.011-
   3  0.514  0.250  0.989-
   4  0.986  0.750  0.489-
   5  0.000  0.000  0.000-  16 2.99  17 2.99  15 3.00  18 3.00  10 3.07  11 3.07
   6  0.500  0.000  0.500-  15 2.99  18 2.99  17 3.00  16 3.00   9 3.07  12 3.07
   7  0.500  0.500  0.500-  14 2.99  20 2.99  19 3.00  13 3.00   9 3.07  12 3.07
   8  0.000  0.500  0.000-  13 2.99  19 2.99  14 3.00  20 3.00  10 3.07  11 3.07
   9  0.501  0.750  0.473-   6 3.07   7 3.07
  10  0.999  0.250  0.973-   5 3.07   8 3.07
  11  0.001  0.750  0.027-   5 3.07   8 3.07
  12  0.499  0.250  0.527-   6 3.07   7 3.07
  13  0.317  0.488  0.189-   8 2.99   7 3.00
  14  0.183  0.512  0.689-   7 2.99   8 3.00
  15  0.817  0.012  0.311-   6 2.99   5 3.00
  16  0.683  0.988  0.811-   5 2.99   6 3.00
  17  0.317  0.012  0.189-   5 2.99   6 3.00
  18  0.183  0.988  0.689-   6 2.99   5 3.00
  19  0.683  0.512  0.811-   8 2.99   7 3.00
  20  0.817  0.488  0.311-   7 2.99   8 3.00

  LATTYP: Found a simple orthorhombic cell.
 ALAT       =     7.9705903291
 B/A-ratio  =     1.0540122411
 C/A-ratio  =     1.5349377638
  
  Lattice vectors:
  
 A1 = (  -7.9705903291,   0.0000000000,   0.0000000000)
 A2 = (   0.0000000000,   0.0000000000,  -8.4010997759)
 A3 = (   0.0000000000, -12.2343600960,   0.0000000000)


Analysis of symmetry for initial positions (statically):
=====================================================================
 Subroutine PRICEL returns:
 Original cell was already a primitive cell.
 

 Routine SETGRP: Setting up the symmetry group for a 
 simple orthorhombic supercell.


 Subroutine GETGRP returns: Found  8 space group operations
 (whereof  2 operations were pure point group operations)
 out of a pool of  8 trial point group operations.


The static configuration has the point symmetry S_2 .
 The point group associated with its full space group is D_2h.


Analysis of symmetry for dynamics (positions and initial velocities):
=====================================================================
 Subroutine PRICEL returns:
 Original cell was already a primitive cell.
 

 Routine SETGRP: Setting up the symmetry group for a 
 simple orthorhombic supercell.


 Subroutine GETGRP returns: Found  8 space group operations
 (whereof  2 operations were pure point group operations)
 out of a pool of  8 trial point group operations.


The dynamic configuration has the point symmetry S_2 .
 The point group associated with its full space group is D_2h.


 Subroutine INISYM returns: Found  8 space group operations
 (whereof  2 operations are pure point group operations),
 and found     1 'primitive' translations



 KPOINTS: 1x1x1                                   

Automatic generation of k-mesh.
Space group operators:
 irot       det(A)        alpha          n_x          n_y          n_z        tau_x        tau_y        tau_z
    1     1.000000     0.000000     1.000000     0.000000     0.000000     0.000000     0.000000     0.000000
    2    -1.000000     0.000000     1.000000     0.000000     0.000000     0.000000     0.000000     0.000000
    3     1.000000   180.000000     0.000000     1.000000     0.000000     0.000000    -0.500000     0.000000
    4    -1.000000   180.000000     0.000000     1.000000     0.000000     0.000000    -0.500000     0.000000
    5     1.000000   180.000000     0.000000     0.000000     1.000000    -0.500000     0.000000    -0.500000
    6    -1.000000   180.000000     0.000000     0.000000     1.000000    -0.500000     0.000000    -0.500000
    7     1.000000   180.000000     1.000000     0.000000     0.000000    -0.500000    -0.500000    -0.500000
    8    -1.000000   180.000000     1.000000     0.000000     0.000000    -0.500000    -0.500000    -0.500000
 
 Subroutine IBZKPT returns following result:
 ===========================================
 
 Found      8 irreducible k-points:
 
 Following reciprocal coordinates:
            Coordinates               Weight
  0.000000  0.000000  0.000000      1.000000
  0.333333  0.000000  0.000000      2.000000
  0.000000  0.500000  0.000000      1.000000
  0.333333  0.500000  0.000000      2.000000
  0.000000  0.000000  0.333333      2.000000
  0.333333  0.000000  0.333333      4.000000
  0.000000  0.500000  0.333333      2.000000
  0.333333  0.500000  0.333333      4.000000
 
 Following cartesian coordinates:
            Coordinates               Weight
  0.000000  0.000000  0.000000      1.000000
  0.041820  0.000000  0.000000      2.000000
  0.000000  0.040869  0.000000      1.000000
  0.041820  0.040869  0.000000      2.000000
  0.000000  0.000000  0.039677      2.000000
  0.041820  0.000000  0.039677      4.000000
  0.000000  0.040869  0.039677      2.000000
  0.041820  0.040869  0.039677      4.000000
 


--------------------------------------------------------------------------------------------------------




 Dimension of arrays:
   k-points           NKPTS =      8   k-points in BZ     NKDIM =      8   number of bands    NBANDS=    112
   number of dos      NEDOS =    301   number of ions     NIONS =     20
   non local maximal  LDIM  =      6   non local SUM 2l+1 LMDIM =     18
   total plane-waves  NPLWV = 161280
   max r-space proj   IRMAX =   5254   max aug-charges    IRDMAX=  83807
   dimension x,y,z NGX =    48 NGY =   70 NGZ =   48
   dimension x,y,z NGXF=    96 NGYF=  140 NGZF=   96
   support grid    NGXF=   192 NGYF=  280 NGZF=  192
   ions per type =               4   4  12
   NGX,Y,Z   is equivalent  to a cutoff of  10.01,  9.51,  9.50 a.u.
   NGXF,Y,Z  is equivalent  to a cutoff of  20.02, 19.02, 19.00 a.u.

 SYSTEM =  CsPbBr3 cubic bulk                      
 POSCAR =  Cs4 Pb4 Br12                            

 Startparameter for this run:
   NWRITE =      2    write-flag & timer
   PREC   = accura    normal or accurate (medium, high low for compatibility)
   ISTART =      0    job   : 0-new  1-cont  2-samecut
   ICHARG =      2    charge: 1-file 2-atom 10-const
   ISPIN  =      1    spin polarized calculation?
   LNONCOLLINEAR =      F non collinear calculations
   LSORBIT =      F    spin-orbit coupling
   INIWAV =      1    electr: 0-lowe 1-rand  2-diag
   LASPH  =      T    aspherical Exc in radial PAW
   METAGGA=      F    non-selfconsistent MetaGGA calc.

 Electronic Relaxation 1
   ENCUT  =  300.0 eV  22.05 Ry    4.70 a.u.  11.26 17.28 11.86*2*pi/ulx,y,z
   ENINI  =  300.0     initial cutoff
   ENAUG  =  503.9 eV  augmentation charge cutoff
   NELM   =    200;   NELMIN=  2; NELMDL= -5     # of ELM steps 
   EDIFF  = 0.1E-05   stopping-criterion for ELM
   LREAL  =      T    real-space projection
   NLSPLINE    = F    spline interpolate recip. space projectors
   LCOMPAT=      F    compatible to vasp.4.4
   GGA_COMPAT  = T    GGA compatible to vasp.4.4-vasp.4.6
   LMAXPAW     = -100 max onsite density
   LMAXMIX     =    2 max onsite mixed and CHGCAR
   VOSKOWN=      0    Vosko Wilk Nusair interpolation
   ROPT   =   -0.00025  -0.00025  -0.00025
 Ionic relaxation
   EDIFFG = -.1E-01   stopping-criterion for IOM
   NSW    =      0    number of steps for IOM
   NBLOCK =      1;   KBLOCK =      1    inner block; outer block 
   IBRION =     -1    ionic relax: 0-MD 1-quasi-New 2-CG
   NFREE  =      1    steps in history (QN), initial steepest desc. (CG)
   ISIF   =      3    stress and relaxation
   IWAVPR =     10    prediction:  0-non 1-charg 2-wave 3-comb
   ISYM   =      2    0-nonsym 1-usesym 2-fastsym
   LCORR  =      T    Harris-Foulkes like correction to forces

   POTIM  = 0.5000    time-step for ionic-motion
   TEIN   =    0.0    initial temperature
   TEBEG  =    0.0;   TEEND  =   0.0 temperature during run
   SMASS  =  -3.00    Nose mass-parameter (am)
   estimated Nose-frequenzy (Omega)   =  0.10E-29 period in steps =****** mass=  -0.145E-26a.u.
   SCALEE = 1.0000    scale energy and forces
   NPACO  =    256;   APACO  = 16.0  distance and # of slots for P.C.
   PSTRESS=    0.0 pullay stress

  Mass of Ions in am
   POMASS = 132.90207.20 79.90
  Ionic Valenz
   ZVAL   =   9.00 14.00  7.00
  Atomic Wigner-Seitz radii
   RWIGS  =  -1.00 -1.00 -1.00
  virtual crystal weights 
   VCA    =   1.00  1.00  1.00
   NELECT =     176.0000    total number of electrons
   NUPDOWN=      -1.0000    fix difference up-down

 DOS related values:
   EMIN   =  10.00;   EMAX   =-10.00  energy-range for DOS
   EFERMI =   0.00
   ISMEAR =     0;   SIGMA  =   0.01  broadening in eV -4-tet -1-fermi 0-gaus

 Electronic relaxation 2 (details)
   IALGO  =     38    algorithm
   LDIAG  =      T    sub-space diagonalisation (order eigenvalues)
   LSUBROT=      F    optimize rotation matrix (better conditioning)
   TURBO    =      0    0=normal 1=particle mesh
   IRESTART =      0    0=no restart 2=restart with 2 vectors
   NREBOOT  =      0    no. of reboots
   NMIN     =      0    reboot dimension
   EREF     =   0.00    reference energy to select bands
   IMIX   =      4    mixing-type and parameters
     AMIX     =   0.40;   BMIX     =  1.00
     AMIX_MAG =   1.60;   BMIX_MAG =  1.00
     AMIN     =   0.10
     WC   =   100.;   INIMIX=   1;  MIXPRE=   1;  MAXMIX= -45

 Intra band minimization:
   WEIMIN = 0.0000     energy-eigenvalue tresh-hold
   EBREAK =  0.22E-08  absolut break condition
   DEPER  =   0.30     relativ break condition  

   TIME   =   0.40     timestep for ELM

  volume/ion in A,a.u.               =      40.96       276.42
  Fermi-wavevector in a.u.,A,eV,Ry     =   0.980490  1.852857 13.080101  0.961360
  Thomas-Fermi vector in A             =   2.111424

 Write flags
   LWAVE        =      F    write WAVECAR
   LDOWNSAMPLE  =      F    k-point downsampling of WAVECAR
   LCHARG       =      F    write CHGCAR
   LVTOT        =      F    write LOCPOT, total local potential
   LVHAR        =      T    write LOCPOT, Hartree potential only
   LELF         =      F    write electronic localiz. function (ELF)
   LORBIT       =     10    0 simple, 1 ext, 2 COOP (PROOUT), +10 PAW based schemes


 Dipole corrections
   LMONO  =      F    monopole corrections only (constant potential shift)
   LDIPOL =      F    correct potential (dipole corrections)
   IDIPOL =      0    1-x, 2-y, 3-z, 4-all directions 
   EPSILON=  1.0000000 bulk dielectric constant

 Exchange correlation treatment:
   GGA     =    --    GGA type
   LEXCH   =     8    internal setting for exchange type
   VOSKOWN=      0    Vosko Wilk Nusair interpolation
   LHFCALC =     F    Hartree Fock is set to
   LHFONE  =     F    Hartree Fock one center treatment
   AEXX    =    0.0000 exact exchange contribution

 Linear response parameters
   LEPSILON=     F    determine dielectric tensor
   LRPA    =     F    only Hartree local field effects (RPA)
   LNABLA  =     F    use nabla operator in PAW spheres
   LVEL    =     F    velocity operator in full k-point grid
   LINTERFAST=   F  fast interpolation
   KINTER  =     0    interpolate to denser k-point grid
   CSHIFT  =0.1000    complex shift for real part using Kramers Kronig
   OMEGAMAX=  -1.0    maximum frequency
   DEG_THRESHOLD= 0.2000000E-02 threshold for treating states as degnerate
   RTIME   =   -0.100 relaxation time in fs
  (WPLASMAI=    0.000 imaginary part of plasma frequency in eV, 0.658/RTIME)
   DFIELD  = 0.0000000 0.0000000 0.0000000 field for delta impulse in time

 Orbital magnetization related:
   ORBITALMAG=     F  switch on orbital magnetization
   LCHIMAG   =     F  perturbation theory with respect to B field
   DQ        =  0.001000  dq finite difference perturbation B field
   LLRAUG    =     F  two centre corrections for induced B field



--------------------------------------------------------------------------------------------------------


 Static calculation
 charge density and potential will be updated during run
 non-spin polarized calculation
 Variant of blocked Davidson
 Davidson routine will perform the subspace rotation
 perform sub-space diagonalisation
    after iterative eigenvector-optimisation
 modified Broyden-mixing scheme, WC =      100.0
 initial mixing is a Kerker type mixing with AMIX =  0.4000 and BMIX =      1.0000
 Hartree-type preconditioning will be used
 using additional bands           24
 real space projection scheme for non local part
 use partial core corrections
 calculate Harris-corrections to forces   (improved forces if not selfconsistent)
 use gradient corrections 
 use of overlap-Matrix (Vanderbilt PP)
 Gauss-broadening in eV      SIGMA  =   0.01


--------------------------------------------------------------------------------------------------------


  energy-cutoff  :      300.00
  volume of cell :      819.23
      direct lattice vectors                 reciprocal lattice vectors
     7.970590329  0.000000000  0.000000000     0.125461222  0.000000000  0.000000000
     0.000000000 12.234360096  0.000000000     0.000000000  0.081737009  0.000000000
     0.000000000  0.000000000  8.401099776     0.000000000  0.000000000  0.119032035

  length of vectors
     7.970590329 12.234360096  8.401099776     0.125461222  0.081737009  0.119032035



 k-points in units of 2pi/SCALE and weight: 1x1x1                                   
   0.00000000  0.00000000  0.00000000       0.056
   0.04182041  0.00000000  0.00000000       0.111
   0.00000000  0.04086850  0.00000000       0.056
   0.04182041  0.04086850  0.00000000       0.111
   0.00000000  0.00000000  0.03967734       0.111
   0.04182041  0.00000000  0.03967734       0.222
   0.00000000  0.04086850  0.03967734       0.111
   0.04182041  0.04086850  0.03967734       0.222

 k-points in reciprocal lattice and weights: 1x1x1                                   
   0.00000000  0.00000000  0.00000000       0.056
   0.33333333  0.00000000  0.00000000       0.111
   0.00000000  0.50000000  0.00000000       0.056
   0.33333333  0.50000000  0.00000000       0.111
   0.00000000  0.00000000  0.33333333       0.111
   0.33333333  0.00000000  0.33333333       0.222
   0.00000000  0.50000000  0.33333333       0.111
   0.33333333  0.50000000  0.33333333       0.222

 position of ions in fractional coordinates (direct lattice) 
   0.01362055  0.25000000  0.51073953
   0.48637945  0.75000000  0.01073953
   0.51362055  0.25000000  0.98926047
   0.98637945  0.75000000  0.48926047
   0.00000000  0.00000000  0.00000000
   0.50000000  0.00000000  0.50000000
   0.50000000  0.50000000  0.50000000
   0.00000000  0.50000000  0.00000000
   0.50061931  0.75000000  0.47272644
   0.99938069  0.25000000  0.97272644
   0.00061931  0.75000000  0.02727356
   0.49938069  0.25000000  0.52727356
   0.31671698  0.48787938  0.18915787
   0.18328302  0.51212062  0.68915787
   0.81671698  0.01212062  0.31084213
   0.68328302  0.98787938  0.81084213
   0.31671698  0.01212062  0.18915787
   0.18328302  0.98787938  0.68915787
   0.68328302  0.51212062  0.81084213
   0.81671698  0.48787938  0.31084213

 position of ions in cartesian coordinates  (Angst):
   0.10856379  3.05859002  4.29077371
   3.87673137  9.17577007  0.09022382
   4.09385896  3.05859002  8.31087595
   7.86202654  9.17577007  4.11032607
   0.00000000  0.00000000  0.00000000
   3.98529516  0.00000000  4.20054989
   3.98529516  6.11718005  4.20054989
   0.00000000  6.11718005  0.00000000
   3.99023141  9.17577007  3.97142201
   7.96565409  3.05859002  8.17197189
   0.00493624  9.17577007  0.22912788
   3.98035892  3.05859002  4.42967777
   2.52442132  5.96889199  1.58913414
   1.46087384  6.26546811  5.78968403
   6.50971649  0.14828806  2.61141575
   5.44616900 12.08607204  6.81196563
   2.52442132  0.14828806  1.58913414
   1.46087384 12.08607204  5.78968403
   5.44616900  6.26546811  6.81196563
   6.50971649  5.96889199  2.61141575



--------------------------------------------------------------------------------------------------------


 k-point  1 :   0.0000 0.0000 0.0000  plane waves:    9675
 k-point  2 :   0.3333 0.0000 0.0000  plane waves:    9660
 k-point  3 :   0.0000 0.5000 0.0000  plane waves:    9658
 k-point  4 :   0.3333 0.5000 0.0000  plane waves:    9652
 k-point  5 :   0.0000 0.0000 0.3333  plane waves:    9648
 k-point  6 :   0.3333 0.0000 0.3333  plane waves:    9670
 k-point  7 :   0.0000 0.5000 0.3333  plane waves:    9660
 k-point  8 :   0.3333 0.5000 0.3333  plane waves:    9666

 maximum and minimum number of plane-waves per node :      1226     1188

 maximum number of plane-waves:      9675
 maximum index in each direction: 
   IXMAX=   11   IYMAX=   17   IZMAX=   11
   IXMIN=  -11   IYMIN=  -17   IZMIN=  -12


 real space projection operators:
  total allocation   :       7805.31 KBytes
  max/ min on nodes  :        990.38        964.12


 parallel 3D FFT for wavefunctions:
    minimum data exchange during FFTs selected (reduces bandwidth)
 parallel 3D FFT for charge:
    minimum data exchange during FFTs selected (reduces bandwidth)


 total amount of memory used by VASP MPI-rank0    42350. kBytes
=======================================================================

   base      :      30000. kBytes
   nonlr-proj:       2960. kBytes
   fftplans  :       3670. kBytes
   grid      :       3424. kBytes
   one-center:         46. kBytes
   wavefun   :       2250. kBytes

     INWAV:  cpu time    0.0000: real time    0.0000
 Broyden mixing: mesh for mixing (old mesh)
   NGX = 23   NGY = 35   NGZ = 23
  (NGX  = 96   NGY  =140   NGZ  = 96)
  gives a total of  18515 points

 initial charge density was supplied:
 charge density of overlapping atoms calculated
 number of electron     176.0000000 magnetization 
 keeping initial charge density in first step


--------------------------------------------------------------------------------------------------------


 Maximum index for non-local projection operator          648
 Maximum index for augmentation-charges         2189 (set IRDMAX)


--------------------------------------------------------------------------------------------------------


 First call to EWALD:  gamma=   0.189
 Maximum number of real-space cells 3x 2x 3
 Maximum number of reciprocal cells 2x 3x 3

    FEWALD:  cpu time    0.0021: real time    0.0021


--------------------------------------- Iteration      1(   1)  ---------------------------------------


    POTLOK:  cpu time    0.1264: real time    0.1272
    SETDIJ:  cpu time    1.0953: real time    1.0953
     EDDAV:  cpu time    4.0227: real time    4.0277
       DOS:  cpu time    0.0008: real time    0.0008
    --------------------------------------------
      LOOP:  cpu time    5.2452: real time    5.2510

 eigenvalue-minimisations  :  1864
 total energy-change (2. order) : 0.6563168E+03  (-0.5593003E+04)
 number of electron     176.0000000 magnetization 
 augmentation part      176.0000000 magnetization 

 Free energy of the ion-electron system (eV)
  ---------------------------------------------------
  alpha Z        PSCENC =       440.42239343
  Ewald energy   TEWEN  =     -9172.39871159
  -Hartree energ DENC   =     -3683.40744435
  -exchange      EXHF   =         0.00000000
  -V(xc)+E(xc)   XCENC  =       461.39370600
  PAW double counting   =     10816.98087266   -11353.96092700
  entropy T*S    EENTRO =        -0.00102881
  eigenvalues    EBANDS =      -142.99212373
  atomic energy  EATOM  =     13290.28009929
  Solvation  Ediel_sol  =         0.00000000
  ---------------------------------------------------
  free energy    TOTEN  =       656.31683588 eV

  energy without entropy =      656.31786469  energy(sigma->0) =      656.31735028


--------------------------------------------------------------------------------------------------------




--------------------------------------- Iteration      1(   2)  ---------------------------------------


     EDDAV:  cpu time    4.5124: real time    4.5280
       DOS:  cpu time    0.0003: real time    0.0003
    --------------------------------------------
      LOOP:  cpu time    4.5127: real time    4.5283

 eigenvalue-minimisations  :  2200
 total energy-change (2. order) :-0.1231632E+04  (-0.1181143E+04)
 number of electron     176.0000000 magnetization 
 augmentation part      176.0000000 magnetization 

 Free energy of the ion-electron system (eV)
  ---------------------------------------------------
  alpha Z        PSCENC =       440.42239343
  Ewald energy   TEWEN  =     -9172.39871159
  -Hartree energ DENC   =     -3683.40744435
  -exchange      EXHF   =         0.00000000
  -V(xc)+E(xc)   XCENC  =       461.39370600
  PAW double counting   =     10816.98087266   -11353.96092700
  entropy T*S    EENTRO =        -0.00000000
  eigenvalues    EBANDS =     -1374.62524607
  atomic energy  EATOM  =     13290.28009929
  Solvation  Ediel_sol  =         0.00000000
  ---------------------------------------------------
  free energy    TOTEN  =      -575.31525764 eV

  energy without entropy =     -575.31525764  energy(sigma->0) =     -575.31525764


--------------------------------------------------------------------------------------------------------




--------------------------------------- Iteration      1(   3)  ---------------------------------------


     EDDAV:  cpu time    4.8059: real time    4.8197
       DOS:  cpu time    0.0003: real time    0.0003
    --------------------------------------------
      LOOP:  cpu time    4.8062: real time    4.8200

 eigenvalue-minimisations  :  2416
 total energy-change (2. order) :-0.1735081E+03  (-0.1724380E+03)
 number of electron     176.0000000 magnetization 
 augmentation part      176.0000000 magnetization 

 Free energy of the ion-electron system (eV)
  ---------------------------------------------------
  alpha Z        PSCENC =       440.42239343
  Ewald energy   TEWEN  =     -9172.39871159
  -Hartree energ DENC   =     -3683.40744435
  -exchange      EXHF   =         0.00000000
  -V(xc)+E(xc)   XCENC  =       461.39370600
  PAW double counting   =     10816.98087266   -11353.96092700
  entropy T*S    EENTRO =        -0.00000000
  eigenvalues    EBANDS =     -1548.13334995
  atomic energy  EATOM  =     13290.28009929
  Solvation  Ediel_sol  =         0.00000000
  ---------------------------------------------------
  free energy    TOTEN  =      -748.82336152 eV

  energy without entropy =     -748.82336152  energy(sigma->0) =     -748.82336152


--------------------------------------------------------------------------------------------------------




--------------------------------------- Iteration      1(   4)  ---------------------------------------


     EDDAV:  cpu time    4.4726: real time    4.4883
       DOS:  cpu time    0.0003: real time    0.0003
    --------------------------------------------
      LOOP:  cpu time    4.4729: real time    4.4886

 eigenvalue-minimisations  :  2168
 total energy-change (2. order) :-0.5637270E+01  (-0.5618176E+01)
 number of electron     176.0000000 magnetization 
 augmentation part      176.0000000 magnetization 

 Free energy of the ion-electron system (eV)
  ---------------------------------------------------
  alpha Z        PSCENC =       440.42239343
  Ewald energy   TEWEN  =     -9172.39871159
  -Hartree energ DENC   =     -3683.40744435
  -exchange      EXHF   =         0.00000000
  -V(xc)+E(xc)   XCENC  =       461.39370600
  PAW double counting   =     10816.98087266   -11353.96092700
  entropy T*S    EENTRO =        -0.00000000
  eigenvalues    EBANDS =     -1553.77061948
  atomic energy  EATOM  =     13290.28009929
  Solvation  Ediel_sol  =         0.00000000
  ---------------------------------------------------
  free energy    TOTEN  =      -754.46063105 eV

  energy without entropy =     -754.46063105  energy(sigma->0) =     -754.46063105


--------------------------------------------------------------------------------------------------------




--------------------------------------- Iteration      1(   5)  ---------------------------------------


     EDDAV:  cpu time    4.7355: real time    4.7799
       DOS:  cpu time    0.0004: real time    0.0004
    CHARGE:  cpu time    0.8659: real time    0.8659
    MIXING:  cpu time    0.0008: real time    0.0008
    --------------------------------------------
      LOOP:  cpu time    5.6026: real time    5.6469

 eigenvalue-minimisations  :  2392
 total energy-change (2. order) :-0.2609415E+00  (-0.2607666E+00)
 number of electron     176.0000004 magnetization 
 augmentation part       -3.2414960 magnetization 

 Broyden mixing:
  rms(total) = 0.69835E+00    rms(broyden)= 0.69810E+00
  rms(prec ) = 0.96441E+00
  weight for this iteration     100.00

 Free energy of the ion-electron system (eV)
  ---------------------------------------------------
  alpha Z        PSCENC =       440.42239343
  Ewald energy   TEWEN  =     -9172.39871159
  -Hartree energ DENC   =     -3683.40744435
  -exchange      EXHF   =         0.00000000
  -V(xc)+E(xc)   XCENC  =       461.39370600
  PAW double counting   =     10816.98087266   -11353.96092700
  entropy T*S    EENTRO =        -0.00000000
  eigenvalues    EBANDS =     -1554.03156099
  atomic energy  EATOM  =     13290.28009929
  Solvation  Ediel_sol  =         0.00000000
  ---------------------------------------------------
  free energy    TOTEN  =      -754.72157257 eV

  energy without entropy =     -754.72157257  energy(sigma->0) =     -754.72157257


--------------------------------------------------------------------------------------------------------




--------------------------------------- Iteration      1(   6)  ---------------------------------------


    POTLOK:  cpu time    0.1835: real time    0.1904
    SETDIJ:  cpu time    1.0902: real time    1.0903
     EDDAV:  cpu time    4.7056: real time    4.7058
       DOS:  cpu time    0.0004: real time    0.0004
    CHARGE:  cpu time    0.8435: real time    0.8436
    MIXING:  cpu time    0.0009: real time    0.0009
    --------------------------------------------
      LOOP:  cpu time    6.8242: real time    6.8314

 eigenvalue-minimisations  :  2384
 total energy-change (2. order) : 0.3985021E+02  (-0.1179997E+01)
 number of electron     176.0000004 magnetization 
 augmentation part       -2.5107472 magnetization 

 Broyden mixing:
  rms(total) = 0.49838E+00    rms(broyden)= 0.49830E+00
  rms(prec ) = 0.61631E+00
  weight for this iteration     100.00

 eigenvalues of (default mixing * dielectric matrix)
  average eigenvalue GAMMA=   1.1393
  1.1393

 Free energy of the ion-electron system (eV)
  ---------------------------------------------------
  alpha Z        PSCENC =       440.42239343
  Ewald energy   TEWEN  =     -9172.39871159
  -Hartree energ DENC   =     -3674.33565747
  -exchange      EXHF   =         0.00000000
  -V(xc)+E(xc)   XCENC  =       477.01234324
  PAW double counting   =     10950.27690927   -11486.25311978
  entropy T*S    EENTRO =        -0.00000000
  eigenvalues    EBANDS =     -1539.87561729
  atomic energy  EATOM  =     13290.28009929
  Solvation  Ediel_sol  =         0.00000000
  ---------------------------------------------------
  free energy    TOTEN  =      -714.87136091 eV

  energy without entropy =     -714.87136091  energy(sigma->0) =     -714.87136091


--------------------------------------------------------------------------------------------------------




--------------------------------------- Iteration      1(   7)  ---------------------------------------


    POTLOK:  cpu time    0.1615: real time    0.1763
    SETDIJ:  cpu time    1.0886: real time    1.0888
     EDDAV:  cpu time    4.4679: real time    4.4681
       DOS:  cpu time    0.0003: real time    0.0003
    CHARGE:  cpu time    0.8491: real time    0.8491
    MIXING:  cpu time    0.0010: real time    0.0010
    --------------------------------------------
      LOOP:  cpu time    6.5683: real time    6.5837

 eigenvalue-minimisations  :  2208
 total energy-change (2. order) : 0.2469863E+00  (-0.3919814E+00)
 number of electron     176.0000004 magnetization 
 augmentation part       -2.2442969 magnetization 

 Broyden mixing:
  rms(total) = 0.25941E+00    rms(broyden)= 0.25939E+00
  rms(prec ) = 0.28420E+00
  weight for this iteration     100.00

 eigenvalues of (default mixing * dielectric matrix)
  average eigenvalue GAMMA=   1.3116
  1.3116  1.3116

 Free energy of the ion-electron system (eV)
  ---------------------------------------------------
  alpha Z        PSCENC =       440.42239343
  Ewald energy   TEWEN  =     -9172.39871159
  -Hartree energ DENC   =     -3694.42451269
  -exchange      EXHF   =         0.00000000
  -V(xc)+E(xc)   XCENC  =       479.60814049
  PAW double counting   =     11245.94612410   -11780.91148436
  entropy T*S    EENTRO =        -0.00000000
  eigenvalues    EBANDS =     -1523.14642328
  atomic energy  EATOM  =     13290.28009929
  Solvation  Ediel_sol  =         0.00000000
  ---------------------------------------------------
  free energy    TOTEN  =      -714.62437462 eV

  energy without entropy =     -714.62437462  energy(sigma->0) =     -714.62437462


--------------------------------------------------------------------------------------------------------




--------------------------------------- Iteration      1(   8)  ---------------------------------------


    POTLOK:  cpu time    0.1490: real time    0.1823
    SETDIJ:  cpu time    1.0887: real time    1.0887
     EDDAV:  cpu time    4.4245: real time    4.4247
       DOS:  cpu time    0.0005: real time    0.0005
    CHARGE:  cpu time    0.8495: real time    0.8495
    MIXING:  cpu time    0.0009: real time    0.0009
    --------------------------------------------
      LOOP:  cpu time    6.5130: real time    6.5465

 eigenvalue-minimisations  :  2176
 total energy-change (2. order) :-0.9757014E-01  (-0.1858332E-01)
 number of electron     176.0000004 magnetization 
 augmentation part       -2.2866038 magnetization 

 Broyden mixing:
  rms(total) = 0.14853E+00    rms(broyden)= 0.14852E+00
  rms(prec ) = 0.16443E+00
  weight for this iteration     100.00

 eigenvalues of (default mixing * dielectric matrix)
  average eigenvalue GAMMA=   1.7079
  1.1031  1.3123  2.7083

 Free energy of the ion-electron system (eV)
  ---------------------------------------------------
  alpha Z        PSCENC =       440.42239343
  Ewald energy   TEWEN  =     -9172.39871159
  -Hartree energ DENC   =     -3696.71886822
  -exchange      EXHF   =         0.00000000
  -V(xc)+E(xc)   XCENC  =       479.95209023
  PAW double counting   =     11361.95089065   -11897.03654977
  entropy T*S    EENTRO =        -0.00000000
  eigenvalues    EBANDS =     -1521.17328879
  atomic energy  EATOM  =     13290.28009929
  Solvation  Ediel_sol  =         0.00000000
  ---------------------------------------------------
  free energy    TOTEN  =      -714.72194477 eV

  energy without entropy =     -714.72194477  energy(sigma->0) =     -714.72194477


--------------------------------------------------------------------------------------------------------




--------------------------------------- Iteration      1(   9)  ---------------------------------------


    POTLOK:  cpu time    0.1482: real time    0.1695
    SETDIJ:  cpu time    1.0895: real time    1.0896
     EDDAV:  cpu time    4.1335: real time    4.1337
       DOS:  cpu time    0.0009: real time    0.0009
    CHARGE:  cpu time    0.8299: real time    0.8300
    MIXING:  cpu time    0.0009: real time    0.0009
    --------------------------------------------
      LOOP:  cpu time    6.2029: real time    6.2246

 eigenvalue-minimisations  :  1960
 total energy-change (2. order) :-0.4286541E-01  (-0.9003989E-02)
 number of electron     176.0000004 magnetization 
 augmentation part       -2.3084189 magnetization 

 Broyden mixing:
  rms(total) = 0.32187E-01    rms(broyden)= 0.32184E-01
  rms(prec ) = 0.34391E-01
  weight for this iteration     100.00

 eigenvalues of (default mixing * dielectric matrix)
  average eigenvalue GAMMA=   1.4629
  2.5543  1.2381  1.2381  0.8214

 Free energy of the ion-electron system (eV)
  ---------------------------------------------------
  alpha Z        PSCENC =       440.42239343
  Ewald energy   TEWEN  =     -9172.39871159
  -Hartree energ DENC   =     -3699.51981689
  -exchange      EXHF   =         0.00000000
  -V(xc)+E(xc)   XCENC  =       480.99171172
  PAW double counting   =     11527.44556353   -12062.84415704
  entropy T*S    EENTRO =        -0.00000000
  eigenvalues    EBANDS =     -1519.14189261
  atomic energy  EATOM  =     13290.28009929
  Solvation  Ediel_sol  =         0.00000000
  ---------------------------------------------------
  free energy    TOTEN  =      -714.76481018 eV

  energy without entropy =     -714.76481018  energy(sigma->0) =     -714.76481018


--------------------------------------------------------------------------------------------------------




--------------------------------------- Iteration      1(  10)  ---------------------------------------


    POTLOK:  cpu time    0.1485: real time    0.1698
    SETDIJ:  cpu time    1.0881: real time    1.0882
     EDDAV:  cpu time    5.0151: real time    5.0153
       DOS:  cpu time    0.0006: real time    0.0006
    CHARGE:  cpu time    0.8306: real time    0.8306
    MIXING:  cpu time    0.0012: real time    0.0012
    --------------------------------------------
      LOOP:  cpu time    7.0841: real time    7.1057

 eigenvalue-minimisations  :  2616
 total energy-change (2. order) :-0.9600559E-03  (-0.5340855E-03)
 number of electron     176.0000004 magnetization 
 augmentation part       -2.3015046 magnetization 

 Broyden mixing:
  rms(total) = 0.19374E-01    rms(broyden)= 0.19374E-01
  rms(prec ) = 0.21396E-01
  weight for this iteration     100.00

 eigenvalues of (default mixing * dielectric matrix)
  average eigenvalue GAMMA=   1.5854
  2.4194  2.4194  1.1252  1.1252  0.8379

 Free energy of the ion-electron system (eV)
  ---------------------------------------------------
  alpha Z        PSCENC =       440.42239343
  Ewald energy   TEWEN  =     -9172.39871159
  -Hartree energ DENC   =     -3698.68430173
  -exchange      EXHF   =         0.00000000
  -V(xc)+E(xc)   XCENC  =       480.88711023
  PAW double counting   =     11511.61670962   -12047.06056148
  entropy T*S    EENTRO =        -0.00000000
  eigenvalues    EBANDS =     -1519.82850799
  atomic energy  EATOM  =     13290.28009929
  Solvation  Ediel_sol  =         0.00000000
  ---------------------------------------------------
  free energy    TOTEN  =      -714.76577023 eV

  energy without entropy =     -714.76577023  energy(sigma->0) =     -714.76577023


--------------------------------------------------------------------------------------------------------




--------------------------------------- Iteration      1(  11)  ---------------------------------------


    POTLOK:  cpu time    0.1192: real time    0.1635
    SETDIJ:  cpu time    1.0909: real time    1.0909
     EDDAV:  cpu time    4.1121: real time    4.1123
       DOS:  cpu time    0.0004: real time    0.0004
    CHARGE:  cpu time    0.8301: real time    0.8301
    MIXING:  cpu time    0.0010: real time    0.0010
    --------------------------------------------
      LOOP:  cpu time    6.1537: real time    6.1983

 eigenvalue-minimisations  :  1944
 total energy-change (2. order) :-0.1791043E-02  (-0.1781384E-03)
 number of electron     176.0000004 magnetization 
 augmentation part       -2.3009221 magnetization 

 Broyden mixing:
  rms(total) = 0.69401E-02    rms(broyden)= 0.69397E-02
  rms(prec ) = 0.84602E-02
  weight for this iteration     100.00

 eigenvalues of (default mixing * dielectric matrix)
  average eigenvalue GAMMA=   1.5761
  2.5940  2.5940  1.2294  1.2294  0.9048  0.9048

 Free energy of the ion-electron system (eV)
  ---------------------------------------------------
  alpha Z        PSCENC =       440.42239343
  Ewald energy   TEWEN  =     -9172.39871159
  -Hartree energ DENC   =     -3697.38420514
  -exchange      EXHF   =         0.00000000
  -V(xc)+E(xc)   XCENC  =       480.83869367
  PAW double counting   =     11497.15766826   -12032.75926250
  entropy T*S    EENTRO =        -0.00000000
  eigenvalues    EBANDS =     -1520.92423670
  atomic energy  EATOM  =     13290.28009929
  Solvation  Ediel_sol  =         0.00000000
  ---------------------------------------------------
  free energy    TOTEN  =      -714.76756128 eV

  energy without entropy =     -714.76756128  energy(sigma->0) =     -714.76756128


--------------------------------------------------------------------------------------------------------




--------------------------------------- Iteration      1(  12)  ---------------------------------------


    POTLOK:  cpu time    0.1330: real time    0.1667
    SETDIJ:  cpu time    1.0916: real time    1.0917
     EDDAV:  cpu time    4.1884: real time    4.1885
       DOS:  cpu time    0.0004: real time    0.0004
    CHARGE:  cpu time    0.8322: real time    0.8323
    MIXING:  cpu time    0.0010: real time    0.0010
    --------------------------------------------
      LOOP:  cpu time    6.2466: real time    6.2806

 eigenvalue-minimisations  :  2000
 total energy-change (2. order) :-0.1489921E-03  (-0.4882936E-04)
 number of electron     176.0000004 magnetization 
 augmentation part       -2.3029275 magnetization 

 Broyden mixing:
  rms(total) = 0.25716E-02    rms(broyden)= 0.25711E-02
  rms(prec ) = 0.28549E-02
  weight for this iteration     100.00

 eigenvalues of (default mixing * dielectric matrix)
  average eigenvalue GAMMA=   1.6377
  3.0720  2.3181  1.9409  1.1661  0.9467  0.9467  1.0736

 Free energy of the ion-electron system (eV)
  ---------------------------------------------------
  alpha Z        PSCENC =       440.42239343
  Ewald energy   TEWEN  =     -9172.39871159
  -Hartree energ DENC   =     -3697.54862925
  -exchange      EXHF   =         0.00000000
  -V(xc)+E(xc)   XCENC  =       480.90573909
  PAW double counting   =     11502.07850501   -12037.72851756
  entropy T*S    EENTRO =        -0.00000000
  eigenvalues    EBANDS =     -1520.77858868
  atomic energy  EATOM  =     13290.28009929
  Solvation  Ediel_sol  =         0.00000000
  ---------------------------------------------------
  free energy    TOTEN  =      -714.76771027 eV

  energy without entropy =     -714.76771027  energy(sigma->0) =     -714.76771027


--------------------------------------------------------------------------------------------------------




--------------------------------------- Iteration      1(  13)  ---------------------------------------


    POTLOK:  cpu time    0.1249: real time    0.1434
    SETDIJ:  cpu time    1.0903: real time    1.0903
     EDDAV:  cpu time    4.5269: real time    4.5270
       DOS:  cpu time    0.0006: real time    0.0006
    CHARGE:  cpu time    0.8295: real time    0.8295
    MIXING:  cpu time    0.0013: real time    0.0013
    --------------------------------------------
      LOOP:  cpu time    6.5735: real time    6.5922

 eigenvalue-minimisations  :  2248
 total energy-change (2. order) :-0.5710925E-05  (-0.4840659E-05)
 number of electron     176.0000004 magnetization 
 augmentation part       -2.3028632 magnetization 

 Broyden mixing:
  rms(total) = 0.83382E-03    rms(broyden)= 0.83310E-03
  rms(prec ) = 0.88299E-03
  weight for this iteration     100.00

 eigenvalues of (default mixing * dielectric matrix)
  average eigenvalue GAMMA=   1.6437
  3.0274  2.3568  2.1831  1.3703  1.2531  0.9369  1.0111  1.0111

 Free energy of the ion-electron system (eV)
  ---------------------------------------------------
  alpha Z        PSCENC =       440.42239343
  Ewald energy   TEWEN  =     -9172.39871159
  -Hartree energ DENC   =     -3697.72057821
  -exchange      EXHF   =         0.00000000
  -V(xc)+E(xc)   XCENC  =       480.91957837
  PAW double counting   =     11500.50207289   -12036.15516053
  entropy T*S    EENTRO =        -0.00000000
  eigenvalues    EBANDS =     -1520.61740963
  atomic energy  EATOM  =     13290.28009929
  Solvation  Ediel_sol  =         0.00000000
  ---------------------------------------------------
  free energy    TOTEN  =      -714.76771598 eV

  energy without entropy =     -714.76771598  energy(sigma->0) =     -714.76771598


--------------------------------------------------------------------------------------------------------




--------------------------------------- Iteration      1(  14)  ---------------------------------------


    POTLOK:  cpu time    0.1486: real time    0.1695
    SETDIJ:  cpu time    1.0900: real time    1.0900
     EDDAV:  cpu time    3.9406: real time    3.9407
       DOS:  cpu time    0.0009: real time    0.0009
    CHARGE:  cpu time    0.8331: real time    0.8331
    MIXING:  cpu time    0.0011: real time    0.0011
    --------------------------------------------
      LOOP:  cpu time    6.0142: real time    6.0353

 eigenvalue-minimisations  :  1792
 total energy-change (2. order) :-0.1243334E-04  (-0.4139098E-06)
 number of electron     176.0000004 magnetization 
 augmentation part       -2.3026576 magnetization 

 Broyden mixing:
  rms(total) = 0.21654E-03    rms(broyden)= 0.21398E-03
  rms(prec ) = 0.25060E-03
  weight for this iteration     100.00

 eigenvalues of (default mixing * dielectric matrix)
  average eigenvalue GAMMA=   1.6288
  2.9074  2.6083  2.0542  2.0542  1.1209  1.1209  0.8718  0.9608  0.9608

 Free energy of the ion-electron system (eV)
  ---------------------------------------------------
  alpha Z        PSCENC =       440.42239343
  Ewald energy   TEWEN  =     -9172.39871159
  -Hartree energ DENC   =     -3697.73120470
  -exchange      EXHF   =         0.00000000
  -V(xc)+E(xc)   XCENC  =       480.91919468
  PAW double counting   =     11500.10653660   -12035.75890655
  entropy T*S    EENTRO =        -0.00000000
  eigenvalues    EBANDS =     -1520.60712957
  atomic energy  EATOM  =     13290.28009929
  Solvation  Ediel_sol  =         0.00000000
  ---------------------------------------------------
  free energy    TOTEN  =      -714.76772841 eV

  energy without entropy =     -714.76772841  energy(sigma->0) =     -714.76772841


--------------------------------------------------------------------------------------------------------




--------------------------------------- Iteration      1(  15)  ---------------------------------------


    POTLOK:  cpu time    0.1322: real time    0.1627
    SETDIJ:  cpu time    1.0902: real time    1.0903
     EDDAV:  cpu time    3.4374: real time    3.4376
       DOS:  cpu time    0.0003: real time    0.0003
    --------------------------------------------
      LOOP:  cpu time    4.6601: real time    4.6908

 eigenvalue-minimisations  :  1384
 total energy-change (2. order) :-0.8822469E-06  (-0.7219920E-07)
 number of electron     176.0000004 magnetization 
 augmentation part       -2.3026576 magnetization 

 Free energy of the ion-electron system (eV)
  ---------------------------------------------------
  alpha Z        PSCENC =       440.42239343
  Ewald energy   TEWEN  =     -9172.39871159
  -Hartree energ DENC   =     -3697.72295974
  -exchange      EXHF   =         0.00000000
  -V(xc)+E(xc)   XCENC  =       480.91841620
  PAW double counting   =     11500.09961268   -12035.74921486
  entropy T*S    EENTRO =        -0.00000000
  eigenvalues    EBANDS =     -1520.61736471
  atomic energy  EATOM  =     13290.28009929
  Solvation  Ediel_sol  =         0.00000000
  ---------------------------------------------------
  free energy    TOTEN  =      -714.76772930 eV

  energy without entropy =     -714.76772930  energy(sigma->0) =     -714.76772930


--------------------------------------------------------------------------------------------------------




 average (electrostatic) potential at core
  the test charge radii are     1.1312  1.1541  1.0178
  (the norm of the test charge is              1.0000)
       1 -55.4486       2 -55.4486       3 -55.4486       4 -55.4486       5-101.7649
       6-101.7649       7-101.7649       8-101.7649       9 -69.0251      10 -69.0251
      11 -69.0251      12 -69.0251      13 -69.0444      14 -69.0444      15 -69.0444
      16 -69.0444      17 -69.0444      18 -69.0444      19 -69.0444      20 -69.0444



 E-fermi :   0.3865     XC(G=0):  -7.9915     alpha+bet : -6.9095


 k-point     1 :       0.0000    0.0000    0.0000
  band No.  band energies     occupation 
      1     -20.9683      2.00000
      2     -20.9667      2.00000
      3     -20.9656      2.00000
      4     -20.9642      2.00000
      5     -16.5695      2.00000
      6     -16.5691      2.00000
      7     -16.5549      2.00000
      8     -16.5259      2.00000
      9     -16.5177      2.00000
     10     -16.4838      2.00000
     11     -16.4791      2.00000
     12     -16.4790      2.00000
     13     -16.4333      2.00000
     14     -16.4330      2.00000
     15     -16.4326      2.00000
     16     -16.4320      2.00000
     17     -16.4204      2.00000
     18     -16.4201      2.00000
     19     -16.4196      2.00000
     20     -16.4191      2.00000
     21     -16.4075      2.00000
     22     -16.4074      2.00000
     23     -16.4059      2.00000
     24     -16.4058      2.00000
     25     -14.3704      2.00000
     26     -14.2395      2.00000
     27     -14.0814      2.00000
     28     -14.0763      2.00000
     29     -14.0375      2.00000
     30     -14.0317      2.00000
     31     -14.0067      2.00000
     32     -14.0023      2.00000
     33     -13.9654      2.00000
     34     -13.8043      2.00000
     35     -13.8000      2.00000
     36     -13.7949      2.00000
     37      -8.2053      2.00000
     38      -7.7865      2.00000
     39      -7.4081      2.00000
     40      -7.4025      2.00000
     41      -7.3938      2.00000
     42      -7.3925      2.00000
     43      -7.3572      2.00000
     44      -7.3561      2.00000
     45      -7.3453      2.00000
     46      -7.3326      2.00000
     47      -7.3273      2.00000
     48      -7.3242      2.00000
     49      -7.3231      2.00000
     50      -7.3191      2.00000
     51      -7.1353      2.00000
     52      -6.6502      2.00000
     53      -3.3900      2.00000
     54      -3.3318      2.00000
     55      -3.2599      2.00000
     56      -3.2530      2.00000
     57      -3.1785      2.00000
     58      -2.9813      2.00000
     59      -2.2298      2.00000
     60      -2.0298      2.00000
     61      -2.0022      2.00000
     62      -1.9109      2.00000
     63      -1.8475      2.00000
     64      -1.7017      2.00000
     65      -1.6431      2.00000
     66      -1.6240      2.00000
     67      -1.5843      2.00000
     68      -1.5353      2.00000
     69      -1.5160      2.00000
     70      -1.4884      2.00000
     71      -1.4797      2.00000
     72      -1.4230      2.00000
     73      -1.4225      2.00000
     74      -1.3929      2.00000
     75      -1.3149      2.00000
     76      -1.3069      2.00000
     77      -1.2955      2.00000
     78      -1.2352      2.00000
     79      -1.1893      2.00000
     80      -1.1460      2.00000
     81      -1.1374      2.00000
     82      -1.0373      2.00000
     83      -1.0240      2.00000
     84      -0.9790      2.00000
     85      -0.9408      2.00000
     86      -0.7141      2.00000
     87      -0.1524      2.00000
     88       0.3255      2.00000
     89       2.4420      0.00000
     90       2.7010      0.00000
     91       2.8896      0.00000
     92       3.1096      0.00000
     93       3.2410      0.00000
     94       3.2916      0.00000
     95       4.6317      0.00000
     96       5.3344      0.00000
     97       5.5122      0.00000
     98       5.5957      0.00000
     99       5.6877      0.00000
    100       5.7344      0.00000
    101       6.1036      0.00000
    102       6.1157      0.00000
    103       6.1338      0.00000
    104       6.1591      0.00000
    105       6.1906      0.00000
    106       6.3295      0.00000
    107       6.4914      0.00000
    108       6.5868      0.00000
    109       6.7179      0.00000
    110       6.7714      0.00000
    111       6.8054      0.00000
    112       6.8513      0.00000

 k-point     2 :       0.3333    0.0000    0.0000
  band No.  band energies     occupation 
      1     -20.9675      2.00000
      2     -20.9661      2.00000
      3     -20.9660      2.00000
      4     -20.9648      2.00000
      5     -16.5480      2.00000
      6     -16.5479      2.00000
      7     -16.5473      2.00000
      8     -16.5328      2.00000
      9     -16.5089      2.00000
     10     -16.5030      2.00000
     11     -16.5029      2.00000
     12     -16.4920      2.00000
     13     -16.4332      2.00000
     14     -16.4329      2.00000
     15     -16.4327      2.00000
     16     -16.4323      2.00000
     17     -16.4203      2.00000
     18     -16.4199      2.00000
     19     -16.4198      2.00000
     20     -16.4193      2.00000
     21     -16.4070      2.00000
     22     -16.4069      2.00000
     23     -16.4063      2.00000
     24     -16.4063      2.00000
     25     -14.3150      2.00000
     26     -14.1924      2.00000
     27     -14.1723      2.00000
     28     -14.0886      2.00000
     29     -14.0123      2.00000
     30     -14.0069      2.00000
     31     -14.0064      2.00000
     32     -14.0059      2.00000
     33     -13.8811      2.00000
     34     -13.8711      2.00000
     35     -13.8616      2.00000
     36     -13.8173      2.00000
     37      -7.9849      2.00000
     38      -7.5651      2.00000
     39      -7.4916      2.00000
     40      -7.3893      2.00000
     41      -7.3846      2.00000
     42      -7.3731      2.00000
     43      -7.3698      2.00000
     44      -7.3569      2.00000
     45      -7.3476      2.00000
     46      -7.3441      2.00000
     47      -7.3370      2.00000
     48      -7.3153      2.00000
     49      -7.3145      2.00000
     50      -7.3134      2.00000
     51      -7.2848      2.00000
     52      -6.9998      2.00000
     53      -3.1865      2.00000
     54      -3.0842      2.00000
     55      -3.0741      2.00000
     56      -2.9927      2.00000
     57      -2.7268      2.00000
     58      -2.6965      2.00000
     59      -2.2860      2.00000
     60      -2.1450      2.00000
     61      -2.0856      2.00000
     62      -2.0404      2.00000
     63      -1.9792      2.00000
     64      -1.9081      2.00000
     65      -1.8461      2.00000
     66      -1.7827      2.00000
     67      -1.6920      2.00000
     68      -1.6909      2.00000
     69      -1.5703      2.00000
     70      -1.4948      2.00000
     71      -1.4491      2.00000
     72      -1.3996      2.00000
     73      -1.3674      2.00000
     74      -1.3522      2.00000
     75      -1.3512      2.00000
     76      -1.3377      2.00000
     77      -1.3330      2.00000
     78      -1.2981      2.00000
     79      -1.2818      2.00000
     80      -1.2193      2.00000
     81      -1.1959      2.00000
     82      -1.1949      2.00000
     83      -1.1237      2.00000
     84      -1.0274      2.00000
     85      -0.9151      2.00000
     86      -0.7465      2.00000
     87      -0.6374      2.00000
     88      -0.2641      2.00000
     89       2.6602      0.00000
     90       3.0666      0.00000
     91       3.5863      0.00000
     92       3.6784      0.00000
     93       3.9487      0.00000
     94       3.9689      0.00000
     95       4.9971      0.00000
     96       5.0427      0.00000
     97       5.2143      0.00000
     98       5.4447      0.00000
     99       5.4904      0.00000
    100       5.5562      0.00000
    101       5.7170      0.00000
    102       5.8818      0.00000
    103       5.9871      0.00000
    104       6.0534      0.00000
    105       6.3329      0.00000
    106       6.4557      0.00000
    107       6.4666      0.00000
    108       6.6846      0.00000
    109       6.6902      0.00000
    110       6.7179      0.00000
    111       6.7304      0.00000
    112       6.8130      0.00000

 k-point     3 :       0.0000    0.5000    0.0000
  band No.  band energies     occupation 
      1     -20.9674      2.00000
      2     -20.9674      2.00000
      3     -20.9649      2.00000
      4     -20.9649      2.00000
      5     -16.5692      2.00000
      6     -16.5692      2.00000
      7     -16.5365      2.00000
      8     -16.5365      2.00000
      9     -16.5050      2.00000
     10     -16.5050      2.00000
     11     -16.4790      2.00000
     12     -16.4790      2.00000
     13     -16.4332      2.00000
     14     -16.4332      2.00000
     15     -16.4323      2.00000
     16     -16.4323      2.00000
     17     -16.4203      2.00000
     18     -16.4203      2.00000
     19     -16.4194      2.00000
     20     -16.4194      2.00000
     21     -16.4074      2.00000
     22     -16.4074      2.00000
     23     -16.4058      2.00000
     24     -16.4058      2.00000
     25     -14.3221      2.00000
     26     -14.3221      2.00000
     27     -14.0787      2.00000
     28     -14.0787      2.00000
     29     -14.0344      2.00000
     30     -14.0344      2.00000
     31     -13.9837      2.00000
     32     -13.9837      2.00000
     33     -13.8862      2.00000
     34     -13.8862      2.00000
     35     -13.7996      2.00000
     36     -13.7996      2.00000
     37      -8.0117      2.00000
     38      -8.0117      2.00000
     39      -7.3983      2.00000
     40      -7.3983      2.00000
     41      -7.3944      2.00000
     42      -7.3944      2.00000
     43      -7.3453      2.00000
     44      -7.3453      2.00000
     45      -7.3372      2.00000
     46      -7.3372      2.00000
     47      -7.3292      2.00000
     48      -7.3292      2.00000
     49      -7.3281      2.00000
     50      -7.3281      2.00000
     51      -6.9321      2.00000
     52      -6.9321      2.00000
     53      -3.3612      2.00000
     54      -3.3612      2.00000
     55      -3.2354      2.00000
     56      -3.2354      2.00000
     57      -2.5118      2.00000
     58      -2.5118      2.00000
     59      -2.2777      2.00000
     60      -2.2777      2.00000
     61      -2.1381      2.00000
     62      -2.1381      2.00000
     63      -1.8570      2.00000
     64      -1.8570      2.00000
     65      -1.8166      2.00000
     66      -1.8166      2.00000
     67      -1.5287      2.00000
     68      -1.5287      2.00000
     69      -1.4565      2.00000
     70      -1.4565      2.00000
     71      -1.3751      2.00000
     72      -1.3751      2.00000
     73      -1.3685      2.00000
     74      -1.3685      2.00000
     75      -1.3326      2.00000
     76      -1.3326      2.00000
     77      -1.2993      2.00000
     78      -1.2993      2.00000
     79      -1.2340      2.00000
     80      -1.2340      2.00000
     81      -1.1553      2.00000
     82      -1.1553      2.00000
     83      -1.0538      2.00000
     84      -1.0538      2.00000
     85      -0.9035      2.00000
     86      -0.9035      2.00000
     87      -0.0432      2.00000
     88      -0.0432      2.00000
     89       2.9057      0.00000
     90       2.9057      0.00000
     91       3.0801      0.00000
     92       3.0801      0.00000
     93       3.9450      0.00000
     94       3.9450      0.00000
     95       4.5713      0.00000
     96       4.5713      0.00000
     97       5.2328      0.00000
     98       5.2328      0.00000
     99       5.6744      0.00000
    100       5.6744      0.00000
    101       5.8869      0.00000
    102       5.8869      0.00000
    103       6.1908      0.00000
    104       6.1908      0.00000
    105       6.4759      0.00000
    106       6.4759      0.00000
    107       6.5844      0.00000
    108       6.5845      0.00000
    109       6.6210      0.00000
    110       6.6213      0.00000
    111       6.8421      0.00000
    112       6.8519      0.00000

 k-point     4 :       0.3333    0.5000    0.0000
  band No.  band energies     occupation 
      1     -20.9667      2.00000
      2     -20.9667      2.00000
      3     -20.9655      2.00000
      4     -20.9655      2.00000
      5     -16.5479      2.00000
      6     -16.5479      2.00000
      7     -16.5283      2.00000
      8     -16.5283      2.00000
      9     -16.5126      2.00000
     10     -16.5126      2.00000
     11     -16.5029      2.00000
     12     -16.5029      2.00000
     13     -16.4331      2.00000
     14     -16.4331      2.00000
     15     -16.4325      2.00000
     16     -16.4325      2.00000
     17     -16.4201      2.00000
     18     -16.4201      2.00000
     19     -16.4196      2.00000
     20     -16.4196      2.00000
     21     -16.4070      2.00000
     22     -16.4070      2.00000
     23     -16.4062      2.00000
     24     -16.4062      2.00000
     25     -14.2707      2.00000
     26     -14.2707      2.00000
     27     -14.1442      2.00000
     28     -14.1442      2.00000
     29     -14.0093      2.00000
     30     -14.0093      2.00000
     31     -13.9282      2.00000
     32     -13.9282      2.00000
     33     -13.8946      2.00000
     34     -13.8946      2.00000
     35     -13.8678      2.00000
     36     -13.8678      2.00000
     37      -7.7906      2.00000
     38      -7.7906      2.00000
     39      -7.3944      2.00000
     40      -7.3944      2.00000
     41      -7.3732      2.00000
     42      -7.3732      2.00000
     43      -7.3380      2.00000
     44      -7.3380      2.00000
     45      -7.3378      2.00000
     46      -7.3378      2.00000
     47      -7.3317      2.00000
     48      -7.3317      2.00000
     49      -7.3236      2.00000
     50      -7.3236      2.00000
     51      -7.2383      2.00000
     52      -7.2383      2.00000
     53      -3.0430      2.00000
     54      -3.0430      2.00000
     55      -2.7847      2.00000
     56      -2.7847      2.00000
     57      -2.4126      2.00000
     58      -2.4126      2.00000
     59      -2.4029      2.00000
     60      -2.4029      2.00000
     61      -2.2244      2.00000
     62      -2.2244      2.00000
     63      -2.0495      2.00000
     64      -2.0495      2.00000
     65      -1.7889      2.00000
     66      -1.7889      2.00000
     67      -1.7421      2.00000
     68      -1.7421      2.00000
     69      -1.6077      2.00000
     70      -1.6077      2.00000
     71      -1.5007      2.00000
     72      -1.5007      2.00000
     73      -1.4043      2.00000
     74      -1.4043      2.00000
     75      -1.3594      2.00000
     76      -1.3594      2.00000
     77      -1.2219      2.00000
     78      -1.2219      2.00000
     79      -1.2115      2.00000
     80      -1.2115      2.00000
     81      -1.1658      2.00000
     82      -1.1658      2.00000
     83      -1.1521      2.00000
     84      -1.1521      2.00000
     85      -0.8784      2.00000
     86      -0.8784      2.00000
     87      -0.6719      2.00000
     88      -0.6719      2.00000
     89       3.7505      0.00000
     90       3.7505      0.00000
     91       3.8203      0.00000
     92       3.8203      0.00000
     93       4.1044      0.00000
     94       4.1044      0.00000
     95       4.4133      0.00000
     96       4.4133      0.00000
     97       5.0924      0.00000
     98       5.0924      0.00000
     99       5.3351      0.00000
    100       5.3351      0.00000
    101       5.7658      0.00000
    102       5.7658      0.00000
    103       6.0035      0.00000
    104       6.0035      0.00000
    105       6.3826      0.00000
    106       6.3826      0.00000
    107       6.4259      0.00000
    108       6.4259      0.00000
    109       6.6330      0.00000
    110       6.6330      0.00000
    111       6.7885      0.00000
    112       6.7885      0.00000

 k-point     5 :       0.0000    0.0000    0.3333
  band No.  band energies     occupation 
      1     -20.9675      2.00000
      2     -20.9665      2.00000
      3     -20.9657      2.00000
      4     -20.9648      2.00000
      5     -16.5478      2.00000
      6     -16.5477      2.00000
      7     -16.5474      2.00000
      8     -16.5330      2.00000
      9     -16.5089      2.00000
     10     -16.5027      2.00000
     11     -16.5027      2.00000
     12     -16.4922      2.00000
     13     -16.4332      2.00000
     14     -16.4328      2.00000
     15     -16.4327      2.00000
     16     -16.4322      2.00000
     17     -16.4203      2.00000
     18     -16.4198      2.00000
     19     -16.4198      2.00000
     20     -16.4192      2.00000
     21     -16.4071      2.00000
     22     -16.4070      2.00000
     23     -16.4063      2.00000
     24     -16.4062      2.00000
     25     -14.3215      2.00000
     26     -14.2021      2.00000
     27     -14.1944      2.00000
     28     -14.1206      2.00000
     29     -14.0068      2.00000
     30     -14.0057      2.00000
     31     -13.9753      2.00000
     32     -13.9735      2.00000
     33     -13.8857      2.00000
     34     -13.8599      2.00000
     35     -13.8546      2.00000
     36     -13.8200      2.00000
     37      -7.9850      2.00000
     38      -7.5675      2.00000
     39      -7.4846      2.00000
     40      -7.3964      2.00000
     41      -7.3934      2.00000
     42      -7.3828      2.00000
     43      -7.3817      2.00000
     44      -7.3632      2.00000
     45      -7.3502      2.00000
     46      -7.3471      2.00000
     47      -7.3372      2.00000
     48      -7.3198      2.00000
[...]
     60      -2.4058      2.00000
     61      -2.2401      2.00000
     62      -2.2401      2.00000
     63      -2.0849      2.00000
     64      -2.0849      2.00000
     65      -1.7928      2.00000
     66      -1.7928      2.00000
     67      -1.7070      2.00000
     68      -1.7070      2.00000
     69      -1.5892      2.00000
     70      -1.5892      2.00000
     71      -1.4891      2.00000
     72      -1.4891      2.00000
     73      -1.4405      2.00000
     74      -1.4405      2.00000
     75      -1.3168      2.00000
     76      -1.3168      2.00000
     77      -1.2285      2.00000
     78      -1.2285      2.00000
     79      -1.2041      2.00000
     80      -1.2041      2.00000
     81      -1.1637      2.00000
     82      -1.1637      2.00000
     83      -1.1098      2.00000
     84      -1.1098      2.00000
     85      -0.8199      2.00000
     86      -0.8199      2.00000
     87      -0.5885      2.00000
     88      -0.5885      2.00000
     89       3.6006      0.00000
     90       3.6006      0.00000
     91       3.9480      0.00000
     92       3.9480      0.00000
     93       4.1012      0.00000
     94       4.1012      0.00000
     95       4.4060      0.00000
     96       4.4060      0.00000
     97       5.0576      0.00000
     98       5.0576      0.00000
     99       5.2880      0.00000
    100       5.2880      0.00000
    101       5.8035      0.00000
    102       5.8035      0.00000
    103       5.9578      0.00000
    104       5.9578      0.00000
    105       6.4061      0.00000
    106       6.4061      0.00000
    107       6.5173      0.00000
    108       6.5173      0.00000
    109       6.6260      0.00000
    110       6.6260      0.00000
    111       6.7293      0.00000
    112       6.7293      0.00000

 k-point     8 :       0.3333    0.5000    0.3333
  band No.  band energies     occupation 
      1     -20.9665      2.00000
      2     -20.9665      2.00000
      3     -20.9657      2.00000
      4     -20.9657      2.00000
      5     -16.5512      2.00000
      6     -16.5512      2.00000
      7     -16.5351      2.00000
      8     -16.5351      2.00000
      9     -16.5100      2.00000
     10     -16.5100      2.00000
     11     -16.4956      2.00000
     12     -16.4956      2.00000
     13     -16.4329      2.00000
     14     -16.4329      2.00000
     15     -16.4327      2.00000
     16     -16.4327      2.00000
     17     -16.4199      2.00000
     18     -16.4199      2.00000
     19     -16.4197      2.00000
     20     -16.4197      2.00000
     21     -16.4068      2.00000
     22     -16.4068      2.00000
     23     -16.4064      2.00000
     24     -16.4064      2.00000
     25     -14.2236      2.00000
     26     -14.2236      2.00000
     27     -14.1181      2.00000
     28     -14.1181      2.00000
     29     -14.0769      2.00000
     30     -14.0769      2.00000
     31     -13.9744      2.00000
     32     -13.9744      2.00000
     33     -13.8777      2.00000
     34     -13.8777      2.00000
     35     -13.8520      2.00000
     36     -13.8520      2.00000
     37      -7.6542      2.00000
     38      -7.6542      2.00000
     39      -7.4221      2.00000
     40      -7.4221      2.00000
     41      -7.3712      2.00000
     42      -7.3712      2.00000
     43      -7.3600      2.00000
     44      -7.3600      2.00000
     45      -7.3283      2.00000
     46      -7.3283      2.00000
     47      -7.3261      2.00000
     48      -7.3261      2.00000
     49      -7.3214      2.00000
     50      -7.3214      2.00000
     51      -7.2989      2.00000
     52      -7.2989      2.00000
     53      -3.1909      2.00000
     54      -3.1909      2.00000
     55      -2.8001      2.00000
     56      -2.8001      2.00000
     57      -2.5201      2.00000
     58      -2.5201      2.00000
     59      -2.3968      2.00000
     60      -2.3968      2.00000
     61      -2.2143      2.00000
     62      -2.2143      2.00000
     63      -2.0314      2.00000
     64      -2.0314      2.00000
     65      -1.8193      2.00000
     66      -1.8193      2.00000
     67      -1.7392      2.00000
     68      -1.7392      2.00000
     69      -1.5536      2.00000
     70      -1.5536      2.00000
     71      -1.4520      2.00000
     72      -1.4520      2.00000
     73      -1.4122      2.00000
     74      -1.4122      2.00000
     75      -1.2821      2.00000
     76      -1.2821      2.00000
     77      -1.2570      2.00000
     78      -1.2570      2.00000
     79      -1.1951      2.00000
     80      -1.1951      2.00000
     81      -1.1479      2.00000
     82      -1.1479      2.00000
     83      -1.1108      2.00000
     84      -1.1108      2.00000
     85      -0.8899      2.00000
     86      -0.8899      2.00000
     87      -0.6424      2.00000
     88      -0.6424      2.00000
     89       3.2064      0.00000
     90       3.2064      0.00000
     91       4.0071      0.00000
     92       4.0071      0.00000
     93       4.1931      0.00000
     94       4.1931      0.00000
     95       4.3501      0.00000
     96       4.3501      0.00000
     97       5.0217      0.00000
     98       5.0217      0.00000
     99       5.7874      0.00000
    100       5.7874      0.00000
    101       6.0706      0.00000
    102       6.0706      0.00000
    103       6.2469      0.00000
    104       6.2469      0.00000
    105       6.5304      0.00000
    106       6.5304      0.00000
    107       6.5986      0.00000
    108       6.5986      0.00000
    109       6.7274      0.00000
    110       6.7274      0.00000
    111       6.8854      0.00000
    112       6.8854      0.00000


--------------------------------------------------------------------------------------------------------


 soft charge-density along one line, spin component           1
         0         1         2         3         4         5         6         7         8         9
 total charge-density along one line

 pseudopotential strength for first ion, spin component:           1
 18.045  -4.724  -0.000  -0.001   0.000   0.000   0.002  -0.000
 -4.724   1.245   0.000   0.000  -0.000  -0.000  -0.000   0.000
 -0.000   0.000   2.294  -0.000   0.000  -2.750   0.000  -0.000
 -0.001   0.000  -0.000   2.297  -0.002   0.000  -2.754   0.002
  0.000  -0.000   0.000  -0.002   2.296  -0.000   0.002  -2.753
  0.000  -0.000  -2.750   0.000  -0.000   3.267  -0.000   0.000
  0.002  -0.000   0.000  -2.754   0.002  -0.000   3.271  -0.003
 -0.000   0.000  -0.000   0.002  -2.753   0.000  -0.003   3.271
  0.000  -0.000   0.000  -0.000  -0.000  -0.000   0.000   0.000
 -0.000   0.000  -0.000   0.000  -0.000   0.000  -0.000   0.000
  0.001  -0.000   0.000  -0.002   0.000  -0.000   0.002  -0.000
 -0.002   0.000  -0.000   0.000  -0.000   0.000  -0.000   0.000
  0.001  -0.000   0.000  -0.000  -0.000  -0.000   0.000   0.000
 total augmentation occupancy for first ion, spin component:           1
  1.909  -0.144   0.000  -0.000   0.000   0.000  -0.001  -0.000   0.000  -0.000   0.001  -0.002   0.002
 -0.144   0.106   0.000  -0.004   0.000   0.000   0.002   0.000   0.000   0.000  -0.004   0.007  -0.005
  0.000   0.000   2.010   0.000   0.000  -0.001   0.000   0.000   0.001   0.000   0.000  -0.000   0.000
 -0.000  -0.004   0.000   2.018  -0.005   0.000   0.004  -0.003   0.000   0.000  -0.003   0.001  -0.000
  0.000   0.000   0.000  -0.005   2.018   0.000  -0.003   0.004  -0.000   0.000   0.001  -0.000  -0.001
  0.000   0.000  -0.001   0.000   0.000   0.009   0.000   0.000  -0.001  -0.001   0.000   0.000  -0.000
 -0.001   0.002   0.000   0.004  -0.003   0.000   0.006   0.002   0.000   0.000   0.002  -0.001   0.000
 -0.000   0.000   0.000  -0.003   0.004   0.000   0.002   0.006   0.000   0.000  -0.001  -0.000   0.001
  0.000   0.000   0.001   0.000  -0.000  -0.001   0.000   0.000   0.004   0.003  -0.000  -0.000   0.000
 -0.000   0.000   0.000   0.000   0.000  -0.001   0.000   0.000   0.003   0.005   0.000   0.000   0.000
  0.001  -0.004   0.000  -0.003   0.001   0.000   0.002  -0.001  -0.000   0.000   0.004  -0.001  -0.000
 -0.002   0.007  -0.000   0.001  -0.000   0.000  -0.001  -0.000  -0.000   0.000  -0.001   0.002  -0.001
  0.002  -0.005   0.000  -0.000  -0.001  -0.000   0.000   0.001   0.000   0.000  -0.000  -0.001   0.005


------------------------ aborting loop because EDIFF is reached ----------------------------------------





 total charge     

# of ion       s       p       d       tot
------------------------------------------
    1        1.784   4.719   0.016   6.518
    2        1.784   4.719   0.016   6.518
    3        1.784   4.719   0.016   6.518
    4        1.784   4.719   0.016   6.518
    5        1.552   0.412   9.832  11.797
    6        1.552   0.412   9.832  11.797
    7        1.552   0.412   9.832  11.797
    8        1.552   0.412   9.832  11.797
    9        1.612   3.277   0.005   4.895
   10        1.613   3.277   0.005   4.895
   11        1.613   3.277   0.005   4.895
   12        1.612   3.277   0.005   4.895
   13        1.616   3.271   0.007   4.893
   14        1.614   3.294   0.006   4.914
   15        1.614   3.294   0.006   4.914
   16        1.616   3.271   0.007   4.893
   17        1.616   3.271   0.007   4.893
   18        1.614   3.294   0.006   4.914
   19        1.616   3.271   0.007   4.893
   20        1.614   3.294   0.006   4.914
--------------------------------------------------
tot         32.713  59.891  39.459 132.064

    CHARGE:  cpu time    0.1293: real time    0.1293
    FORLOC:  cpu time    0.0039: real time    0.0039
    FORNL :  cpu time    0.5396: real time    0.5396
    STRESS:  cpu time   12.3882: real time   12.3887
    FORCOR:  cpu time    0.1028: real time    0.1028
    FORHAR:  cpu time    0.0108: real time    0.0108
    MIXING:  cpu time    0.0010: real time    0.0010
    OFIELD:  cpu time    0.0000: real time    0.0000

  FORCE on cell =-STRESS in cart. coord.  units (eV):
  Direction    XX          YY          ZZ          XY          YZ          ZX
  --------------------------------------------------------------------------------------
  Alpha Z   440.42239   440.42239   440.42239
  Ewald   -3010.12473 -3173.75808 -2988.54311    -0.00000     0.00000    -0.00000
  Hartree  1281.12919  1120.11913  1296.48726    -0.00000    -0.00000    -0.00000
  E(xc)    -738.37373  -738.54049  -738.44056    -0.00000     0.00000    -0.03099
  Local   -1530.64529 -1203.62090 -1565.40416    -0.00000    -0.00000     0.00000
  n-local   899.10611   896.07658   899.75701     0.00000    -0.00001     0.00448
  augment   406.13914   406.33346   407.09028    -0.00000    -0.00004    -0.00001
  Kinetic  2251.54485  2247.75232  2245.70001    -0.00001     0.00000    -1.60950
  Fock        0.00000     0.00000     0.00000     0.00000     0.00000     0.00000
  -------------------------------------------------------------------------------------
  Total      -0.80207    -5.21559    -2.93088     0.00000     0.00000    -0.00000
  in kB      -1.56861   -10.20013    -5.73193     0.00000     0.00000    -0.00000
  external pressure =       -5.83 kB  Pullay stress =        0.00 kB


 VOLUME and BASIS-vectors are now :
 -----------------------------------------------------------------------------
  energy-cutoff  :      300.00
  volume of cell :      819.23
      direct lattice vectors                 reciprocal lattice vectors
     7.970590329  0.000000000  0.000000000     0.125461222  0.000000000  0.000000000
     0.000000000 12.234360096  0.000000000     0.000000000  0.081737009  0.000000000
     0.000000000  0.000000000  8.401099776     0.000000000  0.000000000  0.119032035

  length of vectors
     7.970590329 12.234360096  8.401099776     0.125461222  0.081737009  0.119032035


 FORCES acting on ions
    electron-ion (+dipol)            ewald-force                    non-local-force                 convergence-correction
 -----------------------------------------------------------------------------------------------
   0.525E+01 0.639E-13 0.121E+02   -.524E+01 -.178E-13 -.120E+02   -.150E-01 0.132E-22 -.119E+00   0.369E-04 0.522E-13 -.171E-03
   -.525E+01 -.978E-12 0.121E+02   0.524E+01 0.462E-13 -.120E+02   0.150E-01 0.000E+00 -.119E+00   -.369E-04 -.122E-13 -.171E-03
   0.525E+01 -.277E-11 -.121E+02   -.524E+01 -.142E-13 0.120E+02   -.150E-01 0.000E+00 0.119E+00   0.369E-04 0.466E-13 0.171E-03
   -.525E+01 0.766E-11 -.121E+02   0.524E+01 0.391E-13 0.120E+02   0.150E-01 -.132E-22 0.119E+00   -.369E-04 -.961E-14 0.171E-03
   0.144E-12 -.452E-13 -.453E-13   -.142E-13 -.782E-13 -.284E-13   0.000E+00 0.000E+00 0.152E-22   -.936E-13 0.271E-13 -.153E-12
   0.331E-11 -.185E-12 -.849E-11   0.000E+00 -.391E-13 0.000E+00   0.000E+00 0.000E+00 0.102E-22   -.100E-12 0.327E-13 0.248E-12
   0.306E-11 -.517E-12 -.556E-11   0.142E-13 0.711E-13 -.142E-13   0.000E+00 0.000E+00 -.298E-24   -.102E-12 -.123E-12 0.153E-12
   0.113E-12 0.117E-11 -.405E-13   0.000E+00 0.995E-13 0.284E-13   0.000E+00 0.000E+00 0.117E-22   -.967E-13 -.122E-12 -.992E-13
   0.308E+01 0.157E-11 0.209E+01   -.312E+01 0.000E+00 -.216E+01   0.355E-01 0.000E+00 0.629E-01   0.159E-04 -.444E-13 0.135E-03
   -.308E+01 0.641E-11 0.209E+01   0.312E+01 -.426E-13 -.216E+01   -.355E-01 0.000E+00 0.629E-01   -.159E-04 0.109E-15 0.135E-03
   0.308E+01 -.348E-14 -.209E+01   -.312E+01 0.000E+00 0.216E+01   0.355E-01 0.000E+00 -.629E-01   0.159E-04 -.473E-13 -.135E-03
   -.308E+01 -.132E-12 -.209E+01   0.312E+01 0.000E+00 0.216E+01   -.355E-01 0.000E+00 -.629E-01   -.159E-04 -.742E-14 -.135E-03
   -.249E+02 0.137E+02 0.220E+02   0.252E+02 -.137E+02 -.222E+02   -.267E+00 0.719E-01 0.227E+00   0.236E-04 -.172E-03 0.367E-05
   0.249E+02 -.137E+02 0.220E+02   -.252E+02 0.137E+02 -.222E+02   0.267E+00 -.719E-01 0.227E+00   -.236E-04 0.172E-03 0.367E-05
   -.249E+02 -.137E+02 -.220E+02   0.252E+02 0.137E+02 0.222E+02   -.267E+00 -.719E-01 -.227E+00   0.236E-04 0.172E-03 -.367E-05
   0.249E+02 0.137E+02 -.220E+02   -.252E+02 -.137E+02 0.222E+02   0.267E+00 0.719E-01 -.227E+00   -.236E-04 -.172E-03 -.367E-05
   -.249E+02 -.137E+02 0.220E+02   0.252E+02 0.137E+02 -.222E+02   -.267E+00 -.719E-01 0.227E+00   0.236E-04 0.172E-03 0.367E-05
   0.249E+02 0.137E+02 0.220E+02   -.252E+02 -.137E+02 -.222E+02   0.267E+00 0.719E-01 0.227E+00   -.236E-04 -.172E-03 0.367E-05
   0.249E+02 -.137E+02 -.220E+02   -.252E+02 0.137E+02 0.222E+02   0.267E+00 -.719E-01 -.227E+00   -.236E-04 0.172E-03 -.367E-05
   -.249E+02 0.137E+02 -.220E+02   0.252E+02 -.137E+02 0.222E+02   -.267E+00 0.719E-01 -.227E+00   0.236E-04 -.172E-03 -.367E-05
 -----------------------------------------------------------------------------------------------
   0.706E-11 0.123E-10 -.194E-10   -.711E-14 -.568E-13 -.533E-13   0.000E+00 0.000E+00 0.278E-16   -.392E-12 -.240E-12 0.174E-12


 POSITION                                       TOTAL-FORCE (eV/Angst)
 -----------------------------------------------------------------------------------
      0.10856      3.05859      4.29077        -0.006894      0.000000      0.003738
      3.87673      9.17577      0.09022         0.006894      0.000000      0.003738
      4.09386      3.05859      8.31088        -0.006894      0.000000     -0.003738
      7.86203      9.17577      4.11033         0.006894      0.000000     -0.003738
      0.00000      0.00000      0.00000         0.000000      0.000000     -0.000000
      3.98530      0.00000      4.20055         0.000000      0.000000     -0.000000
      3.98530      6.11718      4.20055         0.000000      0.000000     -0.000000
      0.00000      6.11718      0.00000         0.000000      0.000000     -0.000000
      3.99023      9.17577      3.97142        -0.000825      0.000000     -0.005449
      7.96565      3.05859      8.17197         0.000825      0.000000     -0.005449
      0.00494      9.17577      0.22913        -0.000825      0.000000      0.005449
      3.98036      3.05859      4.42968         0.000825      0.000000      0.005449
      2.52442      5.96889      1.58913         0.005264      0.005305     -0.002747
      1.46087      6.26547      5.78968        -0.005264     -0.005305     -0.002747
      6.50972      0.14829      2.61142         0.005264     -0.005305      0.002747
      5.44617     12.08607      6.81197        -0.005264      0.005305      0.002747
      2.52442      0.14829      1.58913         0.005264     -0.005305     -0.002747
      1.46087     12.08607      5.78968        -0.005264      0.005305     -0.002747
      5.44617      6.26547      6.81197        -0.005264     -0.005305      0.002747
      6.50972      5.96889      2.61142         0.005264      0.005305      0.002747
 -----------------------------------------------------------------------------------
    total drift:                                0.000000      0.000000     -0.000000


--------------------------------------------------------------------------------------------------------



  FREE ENERGIE OF THE ION-ELECTRON SYSTEM (eV)
  ---------------------------------------------------
  free  energy   TOTEN  =      -714.76772930 eV

  energy  without entropy=     -714.76772930  energy(sigma->0) =     -714.76772930



--------------------------------------------------------------------------------------------------------


    POTLOK:  cpu time    1.1935: real time    1.1935


--------------------------------------------------------------------------------------------------------


 stress matrix after NEB project (eV)
     -0.80207      0.00000     -0.00000
      0.00000     -5.21559      0.00000
      0.00000      0.00000     -2.93088
  FORCES: max atom, RMS     0.007962    0.006613
  FORCE total and by dimension    0.029576    0.006894
  Stress total and by dimension    6.036201    5.215587
     LOOP+:  cpu time  103.0020: real time  103.3993
    4ORBIT:  cpu time    0.0000: real time    0.0000



 total charge     

# of ion       s       p       d       tot
------------------------------------------
    1        1.784   4.719   0.016   6.518
    2        1.784   4.719   0.016   6.518
    3        1.784   4.719   0.016   6.518
    4        1.784   4.719   0.016   6.518
    5        1.552   0.412   9.832  11.797
    6        1.552   0.412   9.832  11.797
    7        1.552   0.412   9.832  11.797
    8        1.552   0.412   9.832  11.797
    9        1.612   3.277   0.005   4.895
   10        1.613   3.277   0.005   4.895
   11        1.613   3.277   0.005   4.895
   12        1.612   3.277   0.005   4.895
   13        1.616   3.271   0.007   4.893
   14        1.614   3.294   0.006   4.914
   15        1.614   3.294   0.006   4.914
   16        1.616   3.271   0.007   4.893
   17        1.616   3.271   0.007   4.893
   18        1.614   3.294   0.006   4.914
   19        1.616   3.271   0.007   4.893
   20        1.614   3.294   0.006   4.914
--------------------------------------------------
tot         32.713  59.891  39.459 132.064


 total amount of memory used by VASP MPI-rank0    42350. kBytes
=======================================================================

   base      :      30000. kBytes
   nonlr-proj:       2960. kBytes
   fftplans  :       3670. kBytes
   grid      :       3424. kBytes
   one-center:         46. kBytes
   wavefun   :       2250. kBytes

  
  
 General timing and accounting informations for this job:
 ========================================================
  
                  Total CPU time used (sec):      109.350
                            User time (sec):      108.634
                          System time (sec):        0.716
                         Elapsed time (sec):      110.074
  
                   Maximum memory used (kb):       78088.
                   Average memory used (kb):           0.
  
                          Minor page faults:        19097
                          Major page faults:            0
                 Voluntary context switches:         1455
