CsPbBr3 cubic bulk                      
           1
     7.970590    0.000000    0.000000
     0.000000   12.234360    0.000000
     0.000000    0.000000    8.401100
   Cs   Pb   Br
   4   4  12
Direct configuration=     1
   0.01362055  0.25000000  0.51073953
   0.48637945  0.75000000  0.01073953
   0.51362055  0.25000000  0.98926047
   0.98637945  0.75000000  0.48926047
   0.00000000  0.00000000  0.00000000
   0.50000000  0.00000000  0.50000000
   0.50000000  0.50000000  0.50000000
   0.00000000  0.50000000  0.00000000
   0.50061931  0.75000000  0.47272644
   0.99938069  0.25000000  0.97272644
   0.00061931  0.75000000  0.02727356
   0.49938069  0.25000000  0.52727356
   0.31671698  0.48787938  0.18915787
   0.18328302  0.51212062  0.68915787
   0.81671698  0.01212062  0.31084213
   0.68328302  0.98787938  0.81084213
   0.31671698  0.01212062  0.18915787
   0.18328302  0.98787938  0.68915787
   0.68328302  0.51212062  0.81084213
   0.81671698  0.48787938  0.31084213
