  40  40   1   0
  0.4040437E+02  0.1173535E-08  0.1173535E-08  0.1173535E-08  0.5000000E-15
   1.0000000000000000E-004
  CAR 
 CsPbBr3 cubic bulk                      
      8.31362631    -22.14164588  301      0.42063493      1.00000000
    -22.142  0.0000E+00  0.0000E+00
    -22.040  0.0000E+00  0.0000E+00
    -21.939  0.0000E+00  0.0000E+00
    -21.837  0.0000E+00  0.0000E+00
    -21.736  0.0000E+00  0.0000E+00
    -21.634  0.0000E+00  0.0000E+00
    -21.533  0.0000E+00  0.0000E+00
    -21.431  0.0000E+00  0.0000E+00
    -21.330  0.0000E+00  0.0000E+00
    -21.228  0.0000E+00  0.0000E+00
    -21.126  0.0000E+00  0.0000E+00
    -21.025  0.0000E+00  0.0000E+00
    -20.923  0.0000E+00  0.0000E+00
    -20.822  0.0000E+00  0.0000E+00
    -20.720  0.1576E+03  0.1600E+02
    -20.619  0.0000E+00  0.1600E+02
    -20.517  0.0000E+00  0.1600E+02
    -20.416  0.0000E+00  0.1600E+02
    -20.314  0.0000E+00  0.1600E+02
    -20.213  0.0000E+00  0.1600E+02
    -20.111  0.0000E+00  0.1600E+02
    -20.010  0.0000E+00  0.1600E+02
    -19.908  0.0000E+00  0.1600E+02
    -19.807  0.0000E+00  0.1600E+02
    -19.705  0.0000E+00  0.1600E+02
    -19.604  0.0000E+00  0.1600E+02
    -19.502  0.0000E+00  0.1600E+02
    -19.401  0.0000E+00  0.1600E+02
    -19.299  0.0000E+00  0.1600E+02
    -19.198  0.0000E+00  0.1600E+02
    -19.096  0.0000E+00  0.1600E+02
    -18.995  0.0000E+00  0.1600E+02
    -18.893  0.0000E+00  0.1600E+02
    -18.792  0.0000E+00  0.1600E+02
    -18.690  0.0000E+00  0.1600E+02
    -18.589  0.0000E+00  0.1600E+02
    -18.487  0.0000E+00  0.1600E+02
    -18.385  0.0000E+00  0.1600E+02
    -18.284  0.0000E+00  0.1600E+02
    -18.182  0.0000E+00  0.1600E+02
    -18.081  0.0000E+00  0.1600E+02
    -17.979  0.0000E+00  0.1600E+02
    -17.878  0.0000E+00  0.1600E+02
    -17.776  0.0000E+00  0.1600E+02
    -17.675  0.0000E+00  0.1600E+02
    -17.573  0.0000E+00  0.1600E+02
    -17.472  0.0000E+00  0.1600E+02
    -17.370  0.0000E+00  0.1600E+02
    -17.269  0.0000E+00  0.1600E+02
    -17.167  0.0000E+00  0.1600E+02
    -17.066  0.0000E+00  0.1600E+02
    -16.964  0.0000E+00  0.1600E+02
    -16.863  0.0000E+00  0.1600E+02
    -16.761  0.0000E+00  0.1600E+02
    -16.660  0.0000E+00  0.1600E+02
    -16.558  0.3895E+02  0.1995E+02
    -16.457  0.2345E+03  0.4731E+02
    -16.355  0.4728E+03  0.9600E+02
    -16.254  0.0000E+00  0.9600E+02
    -16.152  0.0000E+00  0.9600E+02
    -16.051  0.0000E+00  0.9600E+02
    -15.949  0.0000E+00  0.9600E+02
    -15.848  0.0000E+00  0.9600E+02
    -15.746  0.0000E+00  0.9600E+02
    -15.645  0.0000E+00  0.9600E+02
    -15.543  0.0000E+00  0.9600E+02
    -15.441  0.0000E+00  0.9600E+02
    -15.340  0.0000E+00  0.9600E+02
    -15.238  0.0000E+00  0.9600E+02
    -15.137  0.0000E+00  0.9600E+02
    -15.035  0.0000E+00  0.9600E+02
    -14.934  0.0000E+00  0.9600E+02
    -14.832  0.0000E+00  0.9600E+02
    -14.731  0.0000E+00  0.9600E+02
    -14.629  0.0000E+00  0.9600E+02
    -14.528  0.0000E+00  0.9600E+02
    -14.426  0.0000E+00  0.9600E+02
    -14.325  0.1227E+01  0.9612E+02
    -14.223  0.4044E+02  0.1004E+03
    -14.122  0.8482E+02  0.1114E+03
    -14.020  0.1461E+02  0.1132E+03
    -13.919  0.5542E+02  0.1189E+03
    -13.817  0.1254E+03  0.1330E+03
    -13.716  0.8555E+02  0.1439E+03
    -13.614  0.0000E+00  0.1440E+03
    -13.513  0.0000E+00  0.1440E+03
    -13.411  0.0000E+00  0.1440E+03
    -13.310  0.0000E+00  0.1440E+03
    -13.208  0.0000E+00  0.1440E+03
    -13.107  0.0000E+00  0.1440E+03
    -13.005  0.0000E+00  0.1440E+03
    -12.904  0.0000E+00  0.1440E+03
    -12.802  0.0000E+00  0.1440E+03
    -12.701  0.0000E+00  0.1440E+03
    -12.599  0.0000E+00  0.1440E+03
    -12.497  0.0000E+00  0.1440E+03
    -12.396  0.0000E+00  0.1440E+03
    -12.294  0.0000E+00  0.1440E+03
    -12.193  0.0000E+00  0.1440E+03
    -12.091  0.0000E+00  0.1440E+03
    -11.990  0.0000E+00  0.1440E+03
    -11.888  0.0000E+00  0.1440E+03
    -11.787  0.0000E+00  0.1440E+03
    -11.685  0.0000E+00  0.1440E+03
    -11.584  0.0000E+00  0.1440E+03
    -11.482  0.0000E+00  0.1440E+03
    -11.381  0.0000E+00  0.1440E+03
    -11.279  0.0000E+00  0.1440E+03
    -11.178  0.0000E+00  0.1440E+03
    -11.076  0.0000E+00  0.1440E+03
    -10.975  0.0000E+00  0.1440E+03
    -10.873  0.0000E+00  0.1440E+03
    -10.772  0.0000E+00  0.1440E+03
    -10.670  0.0000E+00  0.1440E+03
    -10.569  0.0000E+00  0.1440E+03
    -10.467  0.0000E+00  0.1440E+03
    -10.366  0.0000E+00  0.1440E+03
    -10.264  0.0000E+00  0.1440E+03
    -10.163  0.0000E+00  0.1440E+03
    -10.061  0.0000E+00  0.1440E+03
     -9.960  0.0000E+00  0.1440E+03
     -9.858  0.0000E+00  0.1440E+03
     -9.757  0.0000E+00  0.1440E+03
     -9.655  0.0000E+00  0.1440E+03
     -9.553  0.0000E+00  0.1440E+03
     -9.452  0.0000E+00  0.1440E+03
     -9.350  0.0000E+00  0.1440E+03
     -9.249  0.0000E+00  0.1440E+03
     -9.147  0.0000E+00  0.1440E+03
     -9.046  0.0000E+00  0.1440E+03
     -8.944  0.0000E+00  0.1440E+03
     -8.843  0.0000E+00  0.1440E+03
     -8.741  0.0000E+00  0.1440E+03
     -8.640  0.0000E+00  0.1440E+03
     -8.538  0.0000E+00  0.1440E+03
     -8.437  0.0000E+00  0.1440E+03
     -8.335  0.0000E+00  0.1440E+03
     -8.234  0.0000E+00  0.1440E+03
     -8.132  0.2457E+01  0.1442E+03
     -8.031  0.4758E-08  0.1443E+03
     -7.929  0.9851E+01  0.1452E+03
     -7.828  0.7896E+01  0.1461E+03
     -7.726  0.4923E+01  0.1473E+03
     -7.625  0.2941E+02  0.1502E+03
     -7.523  0.4255E+01  0.1507E+03
     -7.422  0.1477E+02  0.1537E+03
     -7.320  0.1909E+02  0.1557E+03
     -7.219  0.2323E+02  0.1581E+03
     -7.117  0.3294E+03  0.1992E+03
     -7.016  0.3694E+02  0.2067E+03
     -6.914  0.1055E-04  0.2068E+03
     -6.812  0.9851E+01  0.2078E+03
     -6.711  0.0000E+00  0.2078E+03
     -6.609  0.2463E+01  0.2080E+03
     -6.508  0.0000E+00  0.2080E+03
     -6.406  0.0000E+00  0.2080E+03
     -6.305  0.0000E+00  0.2080E+03
     -6.203  0.0000E+00  0.2080E+03
     -6.102  0.0000E+00  0.2080E+03
     -6.000  0.0000E+00  0.2080E+03
     -5.899  0.0000E+00  0.2080E+03
     -5.797  0.0000E+00  0.2080E+03
     -5.696  0.0000E+00  0.2080E+03
     -5.594  0.0000E+00  0.2080E+03
     -5.493  0.0000E+00  0.2080E+03
     -5.391  0.0000E+00  0.2080E+03
     -5.290  0.0000E+00  0.2080E+03
     -5.188  0.0000E+00  0.2080E+03
     -5.087  0.0000E+00  0.2080E+03
     -4.985  0.0000E+00  0.2080E+03
     -4.884  0.0000E+00  0.2080E+03
     -4.782  0.0000E+00  0.2080E+03
     -4.681  0.0000E+00  0.2080E+03
     -4.579  0.0000E+00  0.2080E+03
     -4.478  0.0000E+00  0.2080E+03
     -4.376  0.0000E+00  0.2080E+03
     -4.275  0.0000E+00  0.2080E+03
     -4.173  0.0000E+00  0.2080E+03
     -4.072  0.0000E+00  0.2080E+03
     -3.970  0.0000E+00  0.2080E+03
     -3.868  0.0000E+00  0.2080E+03
     -3.767  0.0000E+00  0.2080E+03
     -3.665  0.0000E+00  0.2080E+03
     -3.564  0.0000E+00  0.2080E+03
     -3.462  0.1328E+02  0.2093E+03
     -3.361  0.1143E+02  0.2119E+03
     -3.259  0.0000E+00  0.2120E+03
     -3.158  0.0000E+00  0.2120E+03
     -3.056  0.1627E+01  0.2122E+03
     -2.955  0.3585E+02  0.2161E+03
     -2.853  0.1968E+02  0.2195E+03
     -2.752  0.3907E+01  0.2199E+03
     -2.650  0.2799E-05  0.2200E+03
     -2.549  0.4925E+02  0.2250E+03
     -2.447  0.8191E+02  0.2333E+03
     -2.346  0.5917E+01  0.2341E+03
     -2.244  0.2220E+02  0.2383E+03
     -2.143  0.3143E+02  0.2432E+03
     -2.041  0.4942E+01  0.2463E+03
     -1.940  0.5427E+02  0.2528E+03
     -1.838  0.6830E+01  0.2539E+03
     -1.737  0.2939E+02  0.2582E+03
     -1.635  0.5271E+02  0.2636E+03
     -1.534  0.7686E+02  0.2766E+03
     -1.432  0.7393E+02  0.2853E+03
     -1.331  0.8391E+02  0.2970E+03
     -1.229  0.5744E+02  0.3061E+03
     -1.128  0.6974E+02  0.3146E+03
     -1.026  0.1194E+03  0.3271E+03
     -0.924  0.8701E+02  0.3371E+03
     -0.823  0.1196E+02  0.3385E+03
     -0.721  0.5155E+02  0.3445E+03
     -0.620  0.3537E+01  0.3456E+03
     -0.518  0.1059E-03  0.3473E+03
     -0.417  0.2463E+01  0.3475E+03
     -0.315  0.1231E+02  0.3487E+03
     -0.214  0.1472E+02  0.3502E+03
     -0.112  0.4925E+01  0.3508E+03
     -0.011  0.4861E+01  0.3512E+03
      0.091  0.0000E+00  0.3518E+03
      0.192  0.0000E+00  0.3518E+03
      0.294  0.4808E-06  0.3518E+03
      0.395  0.2463E+01  0.3520E+03
      0.497  0.0000E+00  0.3520E+03
      0.598  0.0000E+00  0.3520E+03
      0.700  0.0000E+00  0.3520E+03
      0.801  0.0000E+00  0.3520E+03
      0.903  0.0000E+00  0.3520E+03
      1.004  0.0000E+00  0.3520E+03
      1.106  0.0000E+00  0.3520E+03
      1.207  0.0000E+00  0.3520E+03
      1.309  0.0000E+00  0.3520E+03
      1.410  0.0000E+00  0.3520E+03
      1.512  0.0000E+00  0.3520E+03
      1.613  0.0000E+00  0.3520E+03
      1.715  0.0000E+00  0.3520E+03
      1.817  0.0000E+00  0.3520E+03
      1.918  0.0000E+00  0.3520E+03
      2.020  0.0000E+00  0.3520E+03
      2.121  0.0000E+00  0.3520E+03
      2.223  0.0000E+00  0.3520E+03
      2.324  0.0000E+00  0.3520E+03
      2.426  0.0000E+00  0.3520E+03
      2.527  0.0000E+00  0.3520E+03
      2.629  0.0000E+00  0.3520E+03
      2.730  0.1982E-02  0.3520E+03
      2.832  0.2463E+01  0.3523E+03
      2.933  0.2237E+02  0.3545E+03
      3.035  0.9851E+01  0.3563E+03
      3.136  0.3498E+02  0.3598E+03
      3.238  0.2876E+02  0.3632E+03
      3.339  0.6152E-14  0.3632E+03
      3.441  0.2463E+01  0.3635E+03
      3.542  0.4925E+01  0.3640E+03
      3.644  0.0000E+00  0.3640E+03
      3.745  0.0000E+00  0.3640E+03
      3.847  0.0000E+00  0.3640E+03
      3.948  0.9078E-09  0.3640E+03
      4.050  0.1972E+02  0.3660E+03
      4.151  0.1941E+02  0.3690E+03
      4.253  0.2070E+02  0.3711E+03
      4.354  0.1484E+02  0.3755E+03
      4.456  0.9025E+01  0.3779E+03
      4.557  0.2007E+02  0.3800E+03
      4.659  0.2894E-06  0.3805E+03
      4.761  0.2216E+02  0.3827E+03
      4.862  0.2954E+02  0.3857E+03
      4.964  0.2383E+02  0.3882E+03
      5.065  0.5525E-05  0.3883E+03
      5.167  0.4925E+01  0.3888E+03
      5.268  0.5957E-01  0.3888E+03
      5.370  0.5858E+01  0.3903E+03
      5.471  0.3359E+02  0.3942E+03
      5.573  0.1241E+02  0.3955E+03
      5.674  0.2463E+01  0.3975E+03
      5.776  0.1231E+02  0.3987E+03
      5.877  0.7474E+01  0.3995E+03
      5.979  0.3417E-04  0.4018E+03
      6.080  0.3201E+02  0.4050E+03
      6.182  0.2397E+02  0.4074E+03
      6.283  0.2463E+01  0.4083E+03
      6.385  0.4224E+02  0.4125E+03
      6.486  0.3318E+02  0.4171E+03
      6.588  0.1576E+02  0.4188E+03
      6.689  0.3940E+02  0.4233E+03
      6.791  0.1450E+02  0.4250E+03
      6.892  0.3911E+02  0.4310E+03
      6.994  0.4925E+01  0.4320E+03
      7.095  0.0000E+00  0.4320E+03
      7.197  0.0000E+00  0.4320E+03
      7.298  0.0000E+00  0.4320E+03
      7.400  0.0000E+00  0.4320E+03
      7.501  0.0000E+00  0.4320E+03
      7.603  0.0000E+00  0.4320E+03
      7.705  0.0000E+00  0.4320E+03
      7.806  0.0000E+00  0.4320E+03
      7.908  0.0000E+00  0.4320E+03
      8.009  0.0000E+00  0.4320E+03
      8.111  0.0000E+00  0.4320E+03
      8.212  0.0000E+00  0.4320E+03
      8.314  0.0000E+00  0.4320E+03
      8.31362631    -22.14164588  301      0.42063493      1.00000000
    -22.142  0.0000E+00  0.0000E+00  0.0000E+00
    -22.040  0.0000E+00  0.0000E+00  0.0000E+00
    -21.939  0.0000E+00  0.0000E+00  0.0000E+00
    -21.837  0.0000E+00  0.0000E+00  0.0000E+00
    -21.736  0.0000E+00  0.0000E+00  0.0000E+00
    -21.634  0.0000E+00  0.0000E+00  0.0000E+00
    -21.533  0.0000E+00  0.0000E+00  0.0000E+00
    -21.431  0.0000E+00  0.0000E+00  0.0000E+00
    -21.330  0.0000E+00  0.0000E+00  0.0000E+00
    -21.228  0.0000E+00  0.0000E+00  0.0000E+00
    -21.126  0.0000E+00  0.0000E+00  0.0000E+00
    -21.025  0.0000E+00  0.0000E+00  0.0000E+00
    -20.923  0.0000E+00  0.0000E+00  0.0000E+00
    -20.822  0.0000E+00  0.0000E+00  0.0000E+00
    -20.720  0.1748E+02  0.3181E-06  0.2493E-04
    -20.619  0.0000E+00  0.0000E+00  0.0000E+00
    -20.517  0.0000E+00  0.0000E+00  0.0000E+00
    -20.416  0.0000E+00  0.0000E+00  0.0000E+00
    -20.314  0.0000E+00  0.0000E+00  0.0000E+00
    -20.213  0.0000E+00  0.0000E+00  0.0000E+00
    -20.111  0.0000E+00  0.0000E+00  0.0000E+00
    -20.010  0.0000E+00  0.0000E+00  0.0000E+00
    -19.908  0.0000E+00  0.0000E+00  0.0000E+00
    -19.807  0.0000E+00  0.0000E+00  0.0000E+00
    -19.705  0.0000E+00  0.0000E+00  0.0000E+00
    -19.604  0.0000E+00  0.0000E+00  0.0000E+00
    -19.502  0.0000E+00  0.0000E+00  0.0000E+00
    -19.401  0.0000E+00  0.0000E+00  0.0000E+00
    -19.299  0.0000E+00  0.0000E+00  0.0000E+00
    -19.198  0.0000E+00  0.0000E+00  0.0000E+00
    -19.096  0.0000E+00  0.0000E+00  0.0000E+00
    -18.995  0.0000E+00  0.0000E+00  0.0000E+00
    -18.893  0.0000E+00  0.0000E+00  0.0000E+00
    -18.792  0.0000E+00  0.0000E+00  0.0000E+00
    -18.690  0.0000E+00  0.0000E+00  0.0000E+00
    -18.589  0.0000E+00  0.0000E+00  0.0000E+00
    -18.487  0.0000E+00  0.0000E+00  0.0000E+00
    -18.385  0.0000E+00  0.0000E+00  0.0000E+00
    -18.284  0.0000E+00  0.0000E+00  0.0000E+00
    -18.182  0.0000E+00  0.0000E+00  0.0000E+00
    -18.081  0.0000E+00  0.0000E+00  0.0000E+00
    -17.979  0.0000E+00  0.0000E+00  0.0000E+00
    -17.878  0.0000E+00  0.0000E+00  0.0000E+00
    -17.776  0.0000E+00  0.0000E+00  0.0000E+00
    -17.675  0.0000E+00  0.0000E+00  0.0000E+00
    -17.573  0.0000E+00  0.0000E+00  0.0000E+00
    -17.472  0.0000E+00  0.0000E+00  0.0000E+00
    -17.370  0.0000E+00  0.0000E+00  0.0000E+00
    -17.269  0.0000E+00  0.0000E+00  0.0000E+00
    -17.167  0.0000E+00  0.0000E+00  0.0000E+00
    -17.066  0.0000E+00  0.0000E+00  0.0000E+00
    -16.964  0.0000E+00  0.0000E+00  0.0000E+00
    -16.863  0.0000E+00  0.0000E+00  0.0000E+00
    -16.761  0.0000E+00  0.0000E+00  0.0000E+00
    -16.660  0.0000E+00  0.0000E+00  0.0000E+00
    -16.558  0.4127E-06  0.2089E-05  0.2621E-05
    -16.457  0.1776E-03  0.1115E-03  0.1463E-04
    -16.355  0.3256E-04  0.1664E-04  0.1829E-05
    -16.254  0.0000E+00  0.0000E+00  0.0000E+00
    -16.152  0.0000E+00  0.0000E+00  0.0000E+00
    -16.051  0.0000E+00  0.0000E+00  0.0000E+00
    -15.949  0.0000E+00  0.0000E+00  0.0000E+00
    -15.848  0.0000E+00  0.0000E+00  0.0000E+00
    -15.746  0.0000E+00  0.0000E+00  0.0000E+00
    -15.645  0.0000E+00  0.0000E+00  0.0000E+00
    -15.543  0.0000E+00  0.0000E+00  0.0000E+00
    -15.441  0.0000E+00  0.0000E+00  0.0000E+00
    -15.340  0.0000E+00  0.0000E+00  0.0000E+00
    -15.238  0.0000E+00  0.0000E+00  0.0000E+00
    -15.137  0.0000E+00  0.0000E+00  0.0000E+00
    -15.035  0.0000E+00  0.0000E+00  0.0000E+00
    -14.934  0.0000E+00  0.0000E+00  0.0000E+00
    -14.832  0.0000E+00  0.0000E+00  0.0000E+00
    -14.731  0.0000E+00  0.0000E+00  0.0000E+00
    -14.629  0.0000E+00  0.0000E+00  0.0000E+00
    -14.528  0.0000E+00  0.0000E+00  0.0000E+00
    -14.426  0.0000E+00  0.0000E+00  0.0000E+00
    -14.325  0.2665E-03  0.2890E-12  0.2066E-05
    -14.223  0.4095E-02  0.2165E-02  0.7334E-04
    -14.122  0.3378E-03  0.2963E-02  0.1736E-03
    -14.020  0.1445E-04  0.3587E-02  0.4770E-04
    -13.919  0.3658E-02  0.9240E-02  0.4042E-03
    -13.817  0.3993E-02  0.1067E-01  0.1225E-02
    -13.716  0.3051E-02  0.6026E-02  0.8197E-03
    -13.614  0.0000E+00  0.0000E+00  0.0000E+00
    -13.513  0.0000E+00  0.0000E+00  0.0000E+00
    -13.411  0.0000E+00  0.0000E+00  0.0000E+00
    -13.310  0.0000E+00  0.0000E+00  0.0000E+00
    -13.208  0.0000E+00  0.0000E+00  0.0000E+00
    -13.107  0.0000E+00  0.0000E+00  0.0000E+00
    -13.005  0.0000E+00  0.0000E+00  0.0000E+00
    -12.904  0.0000E+00  0.0000E+00  0.0000E+00
    -12.802  0.0000E+00  0.0000E+00  0.0000E+00
    -12.701  0.0000E+00  0.0000E+00  0.0000E+00
    -12.599  0.0000E+00  0.0000E+00  0.0000E+00
    -12.497  0.0000E+00  0.0000E+00  0.0000E+00
    -12.396  0.0000E+00  0.0000E+00  0.0000E+00
    -12.294  0.0000E+00  0.0000E+00  0.0000E+00
    -12.193  0.0000E+00  0.0000E+00  0.0000E+00
    -12.091  0.0000E+00  0.0000E+00  0.0000E+00
    -11.990  0.0000E+00  0.0000E+00  0.0000E+00
    -11.888  0.0000E+00  0.0000E+00  0.0000E+00
    -11.787  0.0000E+00  0.0000E+00  0.0000E+00
    -11.685  0.0000E+00  0.0000E+00  0.0000E+00
    -11.584  0.0000E+00  0.0000E+00  0.0000E+00
    -11.482  0.0000E+00  0.0000E+00  0.0000E+00
    -11.381  0.0000E+00  0.0000E+00  0.0000E+00
    -11.279  0.0000E+00  0.0000E+00  0.0000E+00
    -11.178  0.0000E+00  0.0000E+00  0.0000E+00
    -11.076  0.0000E+00  0.0000E+00  0.0000E+00
    -10.975  0.0000E+00  0.0000E+00  0.0000E+00
    -10.873  0.0000E+00  0.0000E+00  0.0000E+00
    -10.772  0.0000E+00  0.0000E+00  0.0000E+00
    -10.670  0.0000E+00  0.0000E+00  0.0000E+00
    -10.569  0.0000E+00  0.0000E+00  0.0000E+00
    -10.467  0.0000E+00  0.0000E+00  0.0000E+00
    -10.366  0.0000E+00  0.0000E+00  0.0000E+00
    -10.264  0.0000E+00  0.0000E+00  0.0000E+00
    -10.163  0.0000E+00  0.0000E+00  0.0000E+00
    -10.061  0.0000E+00  0.0000E+00  0.0000E+00
     -9.960  0.0000E+00  0.0000E+00  0.0000E+00
     -9.858  0.0000E+00  0.0000E+00  0.0000E+00
     -9.757  0.0000E+00  0.0000E+00  0.0000E+00
     -9.655  0.0000E+00  0.0000E+00  0.0000E+00
     -9.553  0.0000E+00  0.0000E+00  0.0000E+00
     -9.452  0.0000E+00  0.0000E+00  0.0000E+00
     -9.350  0.0000E+00  0.0000E+00  0.0000E+00
     -9.249  0.0000E+00  0.0000E+00  0.0000E+00
     -9.147  0.0000E+00  0.0000E+00  0.0000E+00
     -9.046  0.0000E+00  0.0000E+00  0.0000E+00
     -8.944  0.0000E+00  0.0000E+00  0.0000E+00
     -8.843  0.0000E+00  0.0000E+00  0.0000E+00
     -8.741  0.0000E+00  0.0000E+00  0.0000E+00
     -8.640  0.0000E+00  0.0000E+00  0.0000E+00
     -8.538  0.0000E+00  0.0000E+00  0.0000E+00
     -8.437  0.0000E+00  0.0000E+00  0.0000E+00
     -8.335  0.0000E+00  0.0000E+00  0.0000E+00
     -8.234  0.0000E+00  0.0000E+00  0.0000E+00
     -8.132  0.4332E-20  0.2262E-18  0.3267E-18
     -8.031  0.5670E-27  0.2310E-11  0.5180E-15
     -7.929  0.1174E-17  0.4782E-02  0.1072E-05
     -7.828  0.4027E-19  0.4354E-02  0.3265E-05
     -7.726  0.1598E-16  0.8375E-02  0.1332E-05
     -7.625  0.4930E-07  0.4908E-01  0.3535E-04
     -7.523  0.6926E-05  0.1030E-01  0.8289E-05
     -7.422  0.1308E-18  0.5115E-01  0.3036E-04
     -7.320  0.4246E-04  0.2511E+00  0.3984E-04
     -7.219  0.3793E-07  0.1270E+01  0.3452E-04
     -7.117  0.9238E-04  0.3105E+02  0.9215E-04
     -7.016  0.4426E-04  0.2692E+01  0.4850E-04
     -6.914  0.6394E-10  0.2281E-08  0.5407E-10
     -6.812  0.5968E-04  0.2129E-02  0.5047E-04
     -6.711  0.0000E+00  0.0000E+00  0.0000E+00
     -6.609  0.2786E-04  0.1466E-18  0.1187E-04
     -6.508  0.0000E+00  0.0000E+00  0.0000E+00
     -6.406  0.0000E+00  0.0000E+00  0.0000E+00
     -6.305  0.0000E+00  0.0000E+00  0.0000E+00
     -6.203  0.0000E+00  0.0000E+00  0.0000E+00
     -6.102  0.0000E+00  0.0000E+00  0.0000E+00
     -6.000  0.0000E+00  0.0000E+00  0.0000E+00
     -5.899  0.0000E+00  0.0000E+00  0.0000E+00
     -5.797  0.0000E+00  0.0000E+00  0.0000E+00
     -5.696  0.0000E+00  0.0000E+00  0.0000E+00
     -5.594  0.0000E+00  0.0000E+00  0.0000E+00
     -5.493  0.0000E+00  0.0000E+00  0.0000E+00
     -5.391  0.0000E+00  0.0000E+00  0.0000E+00
     -5.290  0.0000E+00  0.0000E+00  0.0000E+00
     -5.188  0.0000E+00  0.0000E+00  0.0000E+00
     -5.087  0.0000E+00  0.0000E+00  0.0000E+00
     -4.985  0.0000E+00  0.0000E+00  0.0000E+00
     -4.884  0.0000E+00  0.0000E+00  0.0000E+00
     -4.782  0.0000E+00  0.0000E+00  0.0000E+00
     -4.681  0.0000E+00  0.0000E+00  0.0000E+00
     -4.579  0.0000E+00  0.0000E+00  0.0000E+00
     -4.478  0.0000E+00  0.0000E+00  0.0000E+00
     -4.376  0.0000E+00  0.0000E+00  0.0000E+00
     -4.275  0.0000E+00  0.0000E+00  0.0000E+00
     -4.173  0.0000E+00  0.0000E+00  0.0000E+00
     -4.072  0.0000E+00  0.0000E+00  0.0000E+00
     -3.970  0.0000E+00  0.0000E+00  0.0000E+00
     -3.868  0.0000E+00  0.0000E+00  0.0000E+00
     -3.767  0.0000E+00  0.0000E+00  0.0000E+00
     -3.665  0.0000E+00  0.0000E+00  0.0000E+00
     -3.564  0.0000E+00  0.0000E+00  0.0000E+00
     -3.462  0.2099E-07  0.1033E-01  0.3360E-03
     -3.361  0.8140E-18  0.4177E-03  0.2882E-03
     -3.259  0.0000E+00  0.0000E+00  0.0000E+00
     -3.158  0.0000E+00  0.0000E+00  0.0000E+00
     -3.056  0.2639E-17  0.1892E-02  0.2073E-04
     -2.955  0.4770E-16  0.1860E-01  0.2186E-02
     -2.853  0.4262E-17  0.2490E-02  0.1382E-02
     -2.752  0.9381E-18  0.6701E-17  0.7047E-05
     -2.650  0.3142E-10  0.3209E-08  0.7420E-10
     -2.549  0.2695E-03  0.5986E-01  0.1084E-02
     -2.447  0.1695E-02  0.3793E-01  0.7013E-02
     -2.346  0.1598E-03  0.8415E-03  0.1457E-03
     -2.244  0.1023E-02  0.4817E-02  0.1221E-02
     -2.143  0.5319E-02  0.6505E-02  0.3142E-02
     -2.041  0.5943E-04  0.6220E-02  0.1244E-02
     -1.940  0.2543E-01  0.3590E-01  0.5265E-02
     -1.838  0.1663E-03  0.2778E-01  0.6796E-03
     -1.737  0.1290E-02  0.6397E-01  0.6452E-02
     -1.635  0.5452E-02  0.7665E-01  0.8850E-02
     -1.534  0.1257E-01  0.7194E-01  0.1562E-01
     -1.432  0.3223E-02  0.8429E-01  0.9021E-02
     -1.331  0.9726E-02  0.7891E-01  0.2359E-01
     -1.229  0.5324E-02  0.1126E+00  0.1084E-01
     -1.128  0.6086E-03  0.6870E-01  0.2081E-01
     -1.026  0.2588E-02  0.1782E+00  0.1954E-01
     -0.924  0.7167E-03  0.4759E-01  0.1404E-01
     -0.823  0.6240E-04  0.1910E-02  0.2924E-02
     -0.721  0.1208E-03  0.2914E-01  0.4806E-02
     -0.620  0.5550E-15  0.9615E-03  0.1112E-03
     -0.518  0.1343E-21  0.3078E-07  0.1285E-09
     -0.417  0.3124E-17  0.7159E-03  0.2988E-05
     -0.315  0.2428E-04  0.1396E-02  0.3332E-03
     -0.214  0.1346E-15  0.7577E-03  0.1959E-03
     -0.112  0.6673E-13  0.6126E-03  0.3345E-03
     -0.011  0.1326E-13  0.3168E-03  0.1064E-03
      0.091  0.0000E+00  0.0000E+00  0.0000E+00
      0.192  0.0000E+00  0.0000E+00  0.0000E+00
      0.294  0.1687E-23  0.3248E-24  0.1452E-22
      0.395  0.8641E-17  0.1663E-17  0.7435E-16
      0.497  0.0000E+00  0.0000E+00  0.0000E+00
      0.598  0.0000E+00  0.0000E+00  0.0000E+00
      0.700  0.0000E+00  0.0000E+00  0.0000E+00
      0.801  0.0000E+00  0.0000E+00  0.0000E+00
      0.903  0.0000E+00  0.0000E+00  0.0000E+00
      1.004  0.0000E+00  0.0000E+00  0.0000E+00
      1.106  0.0000E+00  0.0000E+00  0.0000E+00
      1.207  0.0000E+00  0.0000E+00  0.0000E+00
      1.309  0.0000E+00  0.0000E+00  0.0000E+00
      1.410  0.0000E+00  0.0000E+00  0.0000E+00
      1.512  0.0000E+00  0.0000E+00  0.0000E+00
      1.613  0.0000E+00  0.0000E+00  0.0000E+00
      1.715  0.0000E+00  0.0000E+00  0.0000E+00
      1.817  0.0000E+00  0.0000E+00  0.0000E+00
      1.918  0.0000E+00  0.0000E+00  0.0000E+00
      2.020  0.0000E+00  0.0000E+00  0.0000E+00
      2.121  0.0000E+00  0.0000E+00  0.0000E+00
      2.223  0.0000E+00  0.0000E+00  0.0000E+00
      2.324  0.0000E+00  0.0000E+00  0.0000E+00
      2.426  0.0000E+00  0.0000E+00  0.0000E+00
      2.527  0.0000E+00  0.0000E+00  0.0000E+00
      2.629  0.0000E+00  0.0000E+00  0.0000E+00
      2.730  0.3172E-18  0.1863E-19  0.6316E-06
      2.832  0.3939E-15  0.3099E-08  0.7850E-03
      2.933  0.4991E-03  0.6175E-03  0.7221E-02
      3.035  0.3896E-10  0.3337E-03  0.1929E-02
      3.136  0.7036E-03  0.4239E-02  0.7398E-02
      3.238  0.5443E-03  0.5864E-02  0.3881E-02
      3.339  0.1009E-18  0.4759E-32  0.9528E-18
      3.441  0.4041E-04  0.1224E-06  0.3815E-03
      3.542  0.1196E-03  0.1148E-02  0.1593E-03
      3.644  0.0000E+00  0.0000E+00  0.0000E+00
      3.745  0.0000E+00  0.0000E+00  0.0000E+00
      3.847  0.0000E+00  0.0000E+00  0.0000E+00
      3.948  0.4697E-13  0.2888E-13  0.1675E-12
      4.050  0.5097E-03  0.3194E-03  0.7864E-02
      4.151  0.3167E-07  0.9850E-03  0.6515E-02
      4.253  0.1054E-02  0.2529E-02  0.3513E-02
      4.354  0.1352E-02  0.1298E-02  0.2062E-02
      4.456  0.1507E-05  0.3376E-03  0.1822E-02
      4.557  0.4383E-02  0.5397E-02  0.2149E-02
      4.659  0.1730E-20  0.6667E-10  0.2190E-09
      4.761  0.1287E-01  0.4539E-02  0.1779E-01
      4.862  0.1406E-02  0.9407E-02  0.1963E-01
      4.964  0.1075E-01  0.9586E-02  0.2368E-01
      5.065  0.5652E-18  0.1440E-19  0.9753E-09
      5.167  0.5039E-12  0.1284E-13  0.8695E-03
      5.268  0.9607E-15  0.2371E-15  0.9056E-05
      5.370  0.4637E-12  0.4800E-05  0.1300E-02
      5.471  0.5458E-01  0.1252E-01  0.2340E-01
      5.573  0.1749E-11  0.1464E-03  0.5318E-03
      5.674  0.2595E-07  0.5371E-04  0.3608E-01
      5.776  0.1117E-01  0.1458E-02  0.8287E-01
      5.877  0.2848E-01  0.8956E-02  0.2811E-01
      5.979  0.1558E-11  0.3217E-07  0.4810E-06
      6.080  0.1790E-01  0.2428E-01  0.4201E+00
      6.182  0.7512E-01  0.1706E-01  0.1605E+00
      6.283  0.3401E-07  0.1161E-06  0.3419E-06
      6.385  0.3276E-01  0.3393E-01  0.3732E+00
      6.486  0.5856E-02  0.3294E-01  0.3076E+00
      6.588  0.2362E-01  0.1523E-01  0.1888E+00
      6.689  0.3431E-01  0.7798E-01  0.4175E+00
      6.791  0.8787E-02  0.2245E-01  0.2111E+00
      6.892  0.1385E-01  0.7945E-01  0.4794E+00
      6.994  0.1067E-01  0.2665E-02  0.6048E-01
      7.095  0.0000E+00  0.0000E+00  0.0000E+00
      7.197  0.0000E+00  0.0000E+00  0.0000E+00
      7.298  0.0000E+00  0.0000E+00  0.0000E+00
      7.400  0.0000E+00  0.0000E+00  0.0000E+00
      7.501  0.0000E+00  0.0000E+00  0.0000E+00
      7.603  0.0000E+00  0.0000E+00  0.0000E+00
      7.705  0.0000E+00  0.0000E+00  0.0000E+00
      7.806  0.0000E+00  0.0000E+00  0.0000E+00
      7.908  0.0000E+00  0.0000E+00  0.0000E+00
      8.009  0.0000E+00  0.0000E+00  0.0000E+00
      8.111  0.0000E+00  0.0000E+00  0.0000E+00
      8.212  0.0000E+00  0.0000E+00  0.0000E+00
      8.314  0.0000E+00  0.0000E+00  0.0000E+00
      8.31362631    -22.14164588  301      0.42063493      1.00000000
    -22.142  0.0000E+00  0.0000E+00  0.0000E+00
    -22.040  0.0000E+00  0.0000E+00  0.0000E+00
    -21.939  0.0000E+00  0.0000E+00  0.0000E+00
    -21.837  0.0000E+00  0.0000E+00  0.0000E+00
    -21.736  0.0000E+00  0.0000E+00  0.0000E+00
    -21.634  0.0000E+00  0.0000E+00  0.0000E+00
    -21.533  0.0000E+00  0.0000E+00  0.0000E+00
    -21.431  0.0000E+00  0.0000E+00  0.0000E+00
    -21.330  0.0000E+00  0.0000E+00  0.0000E+00
    -21.228  0.0000E+00  0.0000E+00  0.0000E+00
    -21.126  0.0000E+00  0.0000E+00  0.0000E+00
    -21.025  0.0000E+00  0.0000E+00  0.0000E+00
    -20.923  0.0000E+00  0.0000E+00  0.0000E+00
    -20.822  0.0000E+00  0.0000E+00  0.0000E+00
    -20.720  0.1748E+02  0.3181E-06  0.2493E-04
    -20.619  0.0000E+00  0.0000E+00  0.0000E+00
    -20.517  0.0000E+00  0.0000E+00  0.0000E+00
    -20.416  0.0000E+00  0.0000E+00  0.0000E+00
    -20.314  0.0000E+00  0.0000E+00  0.0000E+00
    -20.213  0.0000E+00  0.0000E+00  0.0000E+00
    -20.111  0.0000E+00  0.0000E+00  0.0000E+00
    -20.010  0.0000E+00  0.0000E+00  0.0000E+00
    -19.908  0.0000E+00  0.0000E+00  0.0000E+00
    -19.807  0.0000E+00  0.0000E+00  0.0000E+00
    -19.705  0.0000E+00  0.0000E+00  0.0000E+00
    -19.604  0.0000E+00  0.0000E+00  0.0000E+00
    -19.502  0.0000E+00  0.0000E+00  0.0000E+00
    -19.401  0.0000E+00  0.0000E+00  0.0000E+00
    -19.299  0.0000E+00  0.0000E+00  0.0000E+00
    -19.198  0.0000E+00  0.0000E+00  0.0000E+00
    -19.096  0.0000E+00  0.0000E+00  0.0000E+00
    -18.995  0.0000E+00  0.0000E+00  0.0000E+00
    -18.893  0.0000E+00  0.0000E+00  0.0000E+00
    -18.792  0.0000E+00  0.0000E+00  0.0000E+00
    -18.690  0.0000E+00  0.0000E+00  0.0000E+00
    -18.589  0.0000E+00  0.0000E+00  0.0000E+00
    -18.487  0.0000E+00  0.0000E+00  0.0000E+00
    -18.385  0.0000E+00  0.0000E+00  0.0000E+00
    -18.284  0.0000E+00  0.0000E+00  0.0000E+00
    -18.182  0.0000E+00  0.0000E+00  0.0000E+00
    -18.081  0.0000E+00  0.0000E+00  0.0000E+00
    -17.979  0.0000E+00  0.0000E+00  0.0000E+00
    -17.878  0.0000E+00  0.0000E+00  0.0000E+00
    -17.776  0.0000E+00  0.0000E+00  0.0000E+00
    -17.675  0.0000E+00  0.0000E+00  0.0000E+00
    -17.573  0.0000E+00  0.0000E+00  0.0000E+00
    -17.472  0.0000E+00  0.0000E+00  0.0000E+00
    -17.370  0.0000E+00  0.0000E+00  0.0000E+00
    -17.269  0.0000E+00  0.0000E+00  0.0000E+00
    -17.167  0.0000E+00  0.0000E+00  0.0000E+00
    -17.066  0.0000E+00  0.0000E+00  0.0000E+00
    -16.964  0.0000E+00  0.0000E+00  0.0000E+00
    -16.863  0.0000E+00  0.0000E+00  0.0000E+00
    -16.761  0.0000E+00  0.0000E+00  0.0000E+00
    -16.660  0.0000E+00  0.0000E+00  0.0000E+00
    -16.558  0.4127E-06  0.2089E-05  0.2621E-05
    -16.457  0.1776E-03  0.1115E-03  0.1463E-04
    -16.355  0.3256E-04  0.1664E-04  0.1829E-05
    -16.254  0.0000E+00  0.0000E+00  0.0000E+00
    -16.152  0.0000E+00  0.0000E+00  0.0000E+00
    -16.051  0.0000E+00  0.0000E+00  0.0000E+00
    -15.949  0.0000E+00  0.0000E+00  0.0000E+00
    -15.848  0.0000E+00  0.0000E+00  0.0000E+00
    -15.746  0.0000E+00  0.0000E+00  0.0000E+00
    -15.645  0.0000E+00  0.0000E+00  0.0000E+00
    -15.543  0.0000E+00  0.0000E+00  0.0000E+00
    -15.441  0.0000E+00  0.0000E+00  0.0000E+00
    -15.340  0.0000E+00  0.0000E+00  0.0000E+00
    -15.238  0.0000E+00  0.0000E+00  0.0000E+00
    -15.137  0.0000E+00  0.0000E+00  0.0000E+00
    -15.035  0.0000E+00  0.0000E+00  0.0000E+00
    -14.934  0.0000E+00  0.0000E+00  0.0000E+00
    -14.832  0.0000E+00  0.0000E+00  0.0000E+00
    -14.731  0.0000E+00  0.0000E+00  0.0000E+00
    -14.629  0.0000E+00  0.0000E+00  0.0000E+00
    -14.528  0.0000E+00  0.0000E+00  0.0000E+00
    -14.426  0.0000E+00  0.0000E+00  0.0000E+00
    -14.325  0.2665E-03  0.2890E-12  0.2066E-05
    -14.223  0.4095E-02  0.2165E-02  0.7334E-04
    -14.122  0.3378E-03  0.2963E-02  0.1736E-03
    -14.020  0.1445E-04  0.3587E-02  0.4770E-04
    -13.919  0.3658E-02  0.9240E-02  0.4042E-03
    -13.817  0.3993E-02  0.1067E-01  0.1225E-02
    -13.716  0.3051E-02  0.6026E-02  0.8197E-03
    -13.614  0.0000E+00  0.0000E+00  0.0000E+00
    -13.513  0.0000E+00  0.0000E+00  0.0000E+00
    -13.411  0.0000E+00  0.0000E+00  0.0000E+00
    -13.310  0.0000E+00  0.0000E+00  0.0000E+00
    -13.208  0.0000E+00  0.0000E+00  0.0000E+00
    -13.107  0.0000E+00  0.0000E+00  0.0000E+00