 running on   64 total cores
 distrk:  each k-point on   64 cores,    1 groups
 distr:  one band on    8 cores,    8 groups
 using from now: INCAR     
 vasp.5.4.4.18Apr17-6-g9f103f2a35 (build Jun 22 2020 09:27:21) complex           
 POSCAR found type information on POSCAR  Cs Pb Br
 POSCAR found :  3 types and      40 ions
 scaLAPACK will be used
 LDA part: xc-table for Pade appr. of Perdew
 POSCAR found type information on POSCAR  Cs Pb Br
 POSCAR found :  3 types and      40 ions
 POSCAR, INCAR and KPOINTS ok, starting setup
 FFT: planning ...
 WAVECAR not read
 entering main loop
       N       E                     dE             d eps       ncg     rms          rms(c)
DAV:   1     0.134598087756E+04    0.13460E+04   -0.11288E+05  2688   0.958E+02
DAV:   2    -0.113167845314E+04   -0.24777E+04   -0.23830E+04  3176   0.295E+02
DAV:   3    -0.149724756361E+04   -0.36557E+03   -0.36349E+03  3496   0.134E+02
DAV:   4    -0.150887757548E+04   -0.11630E+02   -0.11593E+02  3064   0.318E+01
DAV:   5    -0.150940898375E+04   -0.53141E+00   -0.53114E+00  3440   0.532E+00    0.100E+01
DAV:   6    -0.142911985127E+04    0.80289E+02   -0.24257E+01  3352   0.291E+01    0.713E+00
DAV:   7    -0.142858942463E+04    0.53043E+00   -0.84887E+00  3208   0.522E+00    0.371E+00
DAV:   8    -0.142879652677E+04   -0.20710E+00   -0.43355E-01  3024   0.188E+00    0.213E+00
DAV:   9    -0.142888052799E+04   -0.84001E-01   -0.17764E-01  2872   0.126E+00    0.423E-01
DAV:  10    -0.142888305452E+04   -0.25265E-02   -0.10888E-02  3680   0.318E-01    0.278E-01
DAV:  11    -0.142888673489E+04   -0.36804E-02   -0.38341E-03  2848   0.182E-01    0.911E-02
DAV:  12    -0.142888693866E+04   -0.20377E-03   -0.91983E-04  2896   0.945E-02    0.372E-02
DAV:  13    -0.142888691609E+04    0.22572E-04   -0.90104E-05  3168   0.254E-02    0.152E-02
DAV:  14    -0.142888691814E+04   -0.20502E-05   -0.11733E-05  2792   0.621E-03    0.373E-03
DAV:  15    -0.142888692569E+04   -0.75475E-05   -0.11543E-06  1736   0.337E-03    0.205E-03
DAV:  16    -0.142888691190E+04    0.13789E-04   -0.35285E-07  1608   0.246E-03    0.668E-04
DAV:  17    -0.142888691085E+04    0.10500E-05   -0.10490E-07  1560   0.122E-03    0.294E-04
DAV:  18    -0.142888691228E+04   -0.14330E-05   -0.41788E-08  1552   0.804E-04    0.113E-04
DAV:  19    -0.142888691219E+04    0.93964E-07   -0.15123E-08  1536   0.561E-04
   1 F= -.14288869E+04 E0= -.14288869E+04  d E =-.736588E-39
Application 1868208 resources: utime ~24237s, stime ~238s, Rss ~128228, inblocks ~1328, outblocks ~272120
