  20  20   1   0
  0.4120441E+02  0.8841019E-09  0.1235200E-08  0.7546302E-09  0.5000000E-15
   1.0000000000000000E-004
  CAR 
 CsPbBr3 cubic bulk                      
      8.49295564    -22.34776004  301      0.08886062      1.00000000
    -22.348  0.0000E+00  0.0000E+00
    -22.245  0.0000E+00  0.0000E+00
    -22.142  0.0000E+00  0.0000E+00
    -22.039  0.0000E+00  0.0000E+00
    -21.937  0.0000E+00  0.0000E+00
    -21.834  0.0000E+00  0.0000E+00
    -21.731  0.0000E+00  0.0000E+00
    -21.628  0.0000E+00  0.0000E+00
    -21.525  0.0000E+00  0.0000E+00
    -21.423  0.0000E+00  0.0000E+00
    -21.320  0.0000E+00  0.0000E+00
    -21.217  0.0000E+00  0.0000E+00
    -21.114  0.0000E+00  0.0000E+00
    -21.011  0.0000E+00  0.0000E+00
    -20.909  0.7782E+02  0.8000E+01
    -20.806  0.0000E+00  0.8000E+01
    -20.703  0.0000E+00  0.8000E+01
    -20.600  0.0000E+00  0.8000E+01
    -20.497  0.0000E+00  0.8000E+01
    -20.395  0.0000E+00  0.8000E+01
    -20.292  0.0000E+00  0.8000E+01
    -20.189  0.0000E+00  0.8000E+01
    -20.086  0.0000E+00  0.8000E+01
    -19.983  0.0000E+00  0.8000E+01
    -19.881  0.0000E+00  0.8000E+01
    -19.778  0.0000E+00  0.8000E+01
    -19.675  0.0000E+00  0.8000E+01
    -19.572  0.0000E+00  0.8000E+01
    -19.469  0.0000E+00  0.8000E+01
    -19.366  0.0000E+00  0.8000E+01
    -19.264  0.0000E+00  0.8000E+01
    -19.161  0.0000E+00  0.8000E+01
    -19.058  0.0000E+00  0.8000E+01
    -18.955  0.0000E+00  0.8000E+01
    -18.852  0.0000E+00  0.8000E+01
    -18.750  0.0000E+00  0.8000E+01
    -18.647  0.0000E+00  0.8000E+01
    -18.544  0.0000E+00  0.8000E+01
    -18.441  0.0000E+00  0.8000E+01
    -18.338  0.0000E+00  0.8000E+01
    -18.236  0.0000E+00  0.8000E+01
    -18.133  0.0000E+00  0.8000E+01
    -18.030  0.0000E+00  0.8000E+01
    -17.927  0.0000E+00  0.8000E+01
    -17.824  0.0000E+00  0.8000E+01
    -17.722  0.0000E+00  0.8000E+01
    -17.619  0.0000E+00  0.8000E+01
    -17.516  0.0000E+00  0.8000E+01
    -17.413  0.0000E+00  0.8000E+01
    -17.310  0.0000E+00  0.8000E+01
    -17.208  0.0000E+00  0.8000E+01
    -17.105  0.0000E+00  0.8000E+01
    -17.002  0.0000E+00  0.8000E+01
    -16.899  0.0000E+00  0.8000E+01
    -16.796  0.0000E+00  0.8000E+01
    -16.694  0.9230E+02  0.1749E+02
    -16.591  0.2317E+03  0.4693E+02
    -16.488  0.0000E+00  0.4800E+02
    -16.385  0.0000E+00  0.4800E+02
    -16.282  0.0000E+00  0.4800E+02
    -16.180  0.0000E+00  0.4800E+02
    -16.077  0.0000E+00  0.4800E+02
    -15.974  0.0000E+00  0.4800E+02
    -15.871  0.0000E+00  0.4800E+02
    -15.768  0.0000E+00  0.4800E+02
    -15.666  0.0000E+00  0.4800E+02
    -15.563  0.0000E+00  0.4800E+02
    -15.460  0.0000E+00  0.4800E+02
    -15.357  0.0000E+00  0.4800E+02
    -15.254  0.0000E+00  0.4800E+02
    -15.152  0.0000E+00  0.4800E+02
    -15.049  0.0000E+00  0.4800E+02
    -14.946  0.0000E+00  0.4800E+02
    -14.843  0.0000E+00  0.4800E+02
    -14.740  0.0000E+00  0.4800E+02
    -14.638  0.0000E+00  0.4800E+02
    -14.535  0.0000E+00  0.4800E+02
    -14.432  0.2940E-14  0.4800E+02
    -14.329  0.4629E+01  0.4848E+02
    -14.226  0.2554E+02  0.5140E+02
    -14.124  0.2996E+02  0.5530E+02
    -14.021  0.4982E+02  0.6134E+02
    -13.918  0.4814E+02  0.6773E+02
    -13.815  0.2702E+02  0.7200E+02
    -13.712  0.0000E+00  0.7200E+02
    -13.610  0.0000E+00  0.7200E+02
    -13.507  0.0000E+00  0.7200E+02
    -13.404  0.0000E+00  0.7200E+02
    -13.301  0.0000E+00  0.7200E+02
    -13.198  0.0000E+00  0.7200E+02
    -13.096  0.0000E+00  0.7200E+02
    -12.993  0.0000E+00  0.7200E+02
    -12.890  0.0000E+00  0.7200E+02
    -12.787  0.0000E+00  0.7200E+02
    -12.684  0.0000E+00  0.7200E+02
    -12.582  0.0000E+00  0.7200E+02
    -12.479  0.0000E+00  0.7200E+02
    -12.376  0.0000E+00  0.7200E+02
    -12.273  0.0000E+00  0.7200E+02
    -12.170  0.0000E+00  0.7200E+02
    -12.068  0.0000E+00  0.7200E+02
    -11.965  0.0000E+00  0.7200E+02
    -11.862  0.0000E+00  0.7200E+02
    -11.759  0.0000E+00  0.7200E+02
    -11.656  0.0000E+00  0.7200E+02
    -11.554  0.0000E+00  0.7200E+02
    -11.451  0.0000E+00  0.7200E+02
    -11.348  0.0000E+00  0.7200E+02
    -11.245  0.0000E+00  0.7200E+02
    -11.142  0.0000E+00  0.7200E+02
    -11.039  0.0000E+00  0.7200E+02
    -10.937  0.0000E+00  0.7200E+02
    -10.834  0.0000E+00  0.7200E+02
    -10.731  0.0000E+00  0.7200E+02
    -10.628  0.0000E+00  0.7200E+02
    -10.525  0.0000E+00  0.7200E+02
    -10.423  0.0000E+00  0.7200E+02
    -10.320  0.0000E+00  0.7200E+02
    -10.217  0.0000E+00  0.7200E+02
    -10.114  0.0000E+00  0.7200E+02
    -10.011  0.0000E+00  0.7200E+02
     -9.909  0.0000E+00  0.7200E+02
     -9.806  0.0000E+00  0.7200E+02
     -9.703  0.0000E+00  0.7200E+02
     -9.600  0.0000E+00  0.7200E+02
     -9.497  0.0000E+00  0.7200E+02
     -9.395  0.0000E+00  0.7200E+02
     -9.292  0.0000E+00  0.7200E+02
     -9.189  0.0000E+00  0.7200E+02
     -9.086  0.0000E+00  0.7200E+02
     -8.983  0.0000E+00  0.7200E+02
     -8.881  0.0000E+00  0.7200E+02
     -8.778  0.0000E+00  0.7200E+02
     -8.675  0.0000E+00  0.7200E+02
     -8.572  0.0000E+00  0.7200E+02
     -8.469  0.0000E+00  0.7200E+02
     -8.367  0.0000E+00  0.7200E+02
     -8.264  0.7617E-02  0.7200E+02
     -8.161  0.0000E+00  0.7211E+02
     -8.058  0.2348E+01  0.7235E+02
     -7.955  0.2216E-04  0.7278E+02
     -7.853  0.1404E+02  0.7422E+02
     -7.750  0.4758E+01  0.7471E+02
     -7.647  0.8647E+01  0.7600E+02
     -7.544  0.8083E+01  0.7683E+02
     -7.441  0.9278E+01  0.7784E+02
     -7.339  0.8821E+02  0.8729E+02
     -7.236  0.7445E+02  0.1032E+03
     -7.133  0.4295E+01  0.1037E+03
     -7.030  0.2162E+01  0.1039E+03
     -6.927  0.0000E+00  0.1039E+03
     -6.825  0.1081E+01  0.1040E+03
     -6.722  0.0000E+00  0.1040E+03
     -6.619  0.0000E+00  0.1040E+03
     -6.516  0.0000E+00  0.1040E+03
     -6.413  0.0000E+00  0.1040E+03
     -6.311  0.0000E+00  0.1040E+03
     -6.208  0.0000E+00  0.1040E+03
     -6.105  0.0000E+00  0.1040E+03
     -6.002  0.0000E+00  0.1040E+03
     -5.899  0.0000E+00  0.1040E+03
     -5.797  0.0000E+00  0.1040E+03
     -5.694  0.0000E+00  0.1040E+03
     -5.591  0.0000E+00  0.1040E+03
     -5.488  0.0000E+00  0.1040E+03
     -5.385  0.0000E+00  0.1040E+03
     -5.283  0.0000E+00  0.1040E+03
     -5.180  0.0000E+00  0.1040E+03
     -5.077  0.0000E+00  0.1040E+03
     -4.974  0.0000E+00  0.1040E+03
     -4.871  0.0000E+00  0.1040E+03
     -4.769  0.0000E+00  0.1040E+03
     -4.666  0.0000E+00  0.1040E+03
     -4.563  0.0000E+00  0.1040E+03
     -4.460  0.0000E+00  0.1040E+03
     -4.357  0.0000E+00  0.1040E+03
     -4.255  0.0000E+00  0.1040E+03
     -4.152  0.0000E+00  0.1040E+03
     -4.049  0.0000E+00  0.1040E+03
     -3.946  0.0000E+00  0.1040E+03
     -3.843  0.0000E+00  0.1040E+03
     -3.741  0.0000E+00  0.1040E+03
     -3.638  0.0000E+00  0.1040E+03
     -3.535  0.0000E+00  0.1040E+03
     -3.432  0.5683E+00  0.1041E+03
     -3.329  0.3242E+01  0.1044E+03
     -3.227  0.1931E+01  0.1046E+03
     -3.124  0.2449E+02  0.1079E+03
     -3.021  0.1019E+02  0.1089E+03
     -2.918  0.1137E+02  0.1102E+03
     -2.815  0.1670E+02  0.1126E+03
     -2.713  0.9936E+01  0.1137E+03
     -2.610  0.8954E+00  0.1139E+03
     -2.507  0.1007E+02  0.1150E+03
     -2.404  0.2592E+02  0.1178E+03
     -2.301  0.1078E+02  0.1189E+03
     -2.198  0.2585E+02  0.1215E+03
     -2.096  0.1451E+02  0.1234E+03
     -1.993  0.2597E+02  0.1266E+03
     -1.890  0.3242E+01  0.1271E+03
     -1.787  0.4050E+02  0.1313E+03
     -1.684  0.2002E+02  0.1346E+03
     -1.582  0.4432E+02  0.1394E+03
     -1.479  0.4416E+02  0.1448E+03
     -1.376  0.5010E+02  0.1514E+03
     -1.273  0.3681E+02  0.1568E+03
     -1.170  0.4440E+02  0.1631E+03
     -1.068  0.2770E+02  0.1673E+03
     -0.965  0.1304E+02  0.1689E+03
     -0.862  0.8418E+01  0.1709E+03
     -0.759  0.1836E+02  0.1733E+03
     -0.656  0.7785E+01  0.1741E+03
     -0.554  0.4323E+01  0.1747E+03
     -0.451  0.6195E+01  0.1753E+03
     -0.348  0.3011E+01  0.1756E+03
     -0.245  0.2162E+01  0.1759E+03
     -0.142  0.0000E+00  0.1759E+03
     -0.040  0.6000E-15  0.1759E+03
      0.063  0.1081E+01  0.1760E+03
      0.166  0.0000E+00  0.1760E+03
      0.269  0.0000E+00  0.1760E+03
      0.372  0.0000E+00  0.1760E+03
      0.474  0.0000E+00  0.1760E+03
      0.577  0.0000E+00  0.1760E+03
      0.680  0.0000E+00  0.1760E+03
      0.783  0.0000E+00  0.1760E+03
      0.886  0.0000E+00  0.1760E+03
      0.988  0.0000E+00  0.1760E+03
      1.091  0.0000E+00  0.1760E+03
      1.194  0.0000E+00  0.1760E+03
      1.297  0.0000E+00  0.1760E+03
      1.400  0.0000E+00  0.1760E+03
      1.502  0.0000E+00  0.1760E+03
      1.605  0.0000E+00  0.1760E+03
      1.708  0.0000E+00  0.1760E+03
      1.811  0.0000E+00  0.1760E+03
      1.914  0.0000E+00  0.1760E+03
      2.016  0.0000E+00  0.1760E+03
      2.119  0.0000E+00  0.1760E+03
      2.222  0.0000E+00  0.1760E+03
      2.325  0.1080E+01  0.1761E+03
      2.428  0.9912E+00  0.1762E+03
      2.530  0.4787E+01  0.1767E+03
      2.633  0.2162E+01  0.1773E+03
      2.736  0.4323E+01  0.1778E+03
      2.839  0.5405E+01  0.1783E+03
      2.942  0.5382E+01  0.1789E+03
      3.044  0.9727E+01  0.1799E+03
      3.147  0.4323E+01  0.1803E+03
      3.250  0.1073E+02  0.1814E+03
      3.353  0.1081E+01  0.1816E+03
      3.456  0.6484E+01  0.1822E+03
      3.558  0.3359E-01  0.1822E+03
      3.661  0.6485E+01  0.1831E+03
      3.764  0.1692E+02  0.1849E+03
      3.867  0.1138E+02  0.1861E+03
      3.970  0.6509E+01  0.1878E+03
      4.072  0.2131E+01  0.1889E+03
      4.175  0.8645E+01  0.1898E+03
      4.278  0.2162E+01  0.1900E+03
      4.381  0.2558E-03  0.1900E+03
      4.484  0.2546E+01  0.1903E+03
      4.586  0.5828E+01  0.1910E+03
      4.689  0.6940E+00  0.1914E+03
      4.792  0.6825E+01  0.1925E+03
      4.895  0.1081E+01  0.1933E+03
      4.998  0.4452E+01  0.1938E+03
      5.100  0.6489E+01  0.1947E+03
      5.203  0.1081E+02  0.1962E+03
      5.306  0.4146E+01  0.1966E+03
      5.409  0.8359E+01  0.1976E+03
      5.512  0.1717E+02  0.1994E+03
      5.614  0.7845E+01  0.2003E+03
      5.717  0.0000E+00  0.2003E+03
      5.820  0.9562E+01  0.2013E+03
      5.923  0.1361E+01  0.2019E+03
      6.026  0.4919E+01  0.2027E+03
      6.129  0.1607E+02  0.2049E+03
      6.231  0.1990E+02  0.2072E+03
      6.334  0.9031E+01  0.2085E+03
      6.437  0.1470E+02  0.2106E+03
      6.540  0.1208E+02  0.2129E+03
      6.643  0.1837E+02  0.2156E+03
      6.745  0.1439E+02  0.2170E+03
      6.848  0.8655E+01  0.2196E+03
      6.951  0.2424E+02  0.2225E+03
      7.054  0.7325E+01  0.2234E+03
      7.157  0.4323E+01  0.2240E+03
      7.259  0.0000E+00  0.2240E+03
      7.362  0.0000E+00  0.2240E+03
      7.465  0.0000E+00  0.2240E+03
      7.568  0.0000E+00  0.2240E+03
      7.671  0.0000E+00  0.2240E+03
      7.773  0.0000E+00  0.2240E+03
      7.876  0.0000E+00  0.2240E+03
      7.979  0.0000E+00  0.2240E+03
      8.082  0.0000E+00  0.2240E+03
      8.185  0.0000E+00  0.2240E+03
      8.287  0.0000E+00  0.2240E+03
      8.390  0.0000E+00  0.2240E+03
      8.493  0.0000E+00  0.2240E+03
      8.49295564    -22.34776004  301      0.08886062      1.00000000
    -22.348  0.0000E+00  0.0000E+00  0.0000E+00
    -22.245  0.0000E+00  0.0000E+00  0.0000E+00
    -22.142  0.0000E+00  0.0000E+00  0.0000E+00
    -22.039  0.0000E+00  0.0000E+00  0.0000E+00
    -21.937  0.0000E+00  0.0000E+00  0.0000E+00
    -21.834  0.0000E+00  0.0000E+00  0.0000E+00
    -21.731  0.0000E+00  0.0000E+00  0.0000E+00
    -21.628  0.0000E+00  0.0000E+00  0.0000E+00
    -21.525  0.0000E+00  0.0000E+00  0.0000E+00
    -21.423  0.0000E+00  0.0000E+00  0.0000E+00
    -21.320  0.0000E+00  0.0000E+00  0.0000E+00
    -21.217  0.0000E+00  0.0000E+00  0.0000E+00
    -21.114  0.0000E+00  0.0000E+00  0.0000E+00
    -21.011  0.0000E+00  0.0000E+00  0.0000E+00
    -20.909  0.1727E+02  0.1084E-04  0.1431E-05
    -20.806  0.0000E+00  0.0000E+00  0.0000E+00
    -20.703  0.0000E+00  0.0000E+00  0.0000E+00
    -20.600  0.0000E+00  0.0000E+00  0.0000E+00
    -20.497  0.0000E+00  0.0000E+00  0.0000E+00
    -20.395  0.0000E+00  0.0000E+00  0.0000E+00
    -20.292  0.0000E+00  0.0000E+00  0.0000E+00
    -20.189  0.0000E+00  0.0000E+00  0.0000E+00
    -20.086  0.0000E+00  0.0000E+00  0.0000E+00
    -19.983  0.0000E+00  0.0000E+00  0.0000E+00
    -19.881  0.0000E+00  0.0000E+00  0.0000E+00
    -19.778  0.0000E+00  0.0000E+00  0.0000E+00
    -19.675  0.0000E+00  0.0000E+00  0.0000E+00
    -19.572  0.0000E+00  0.0000E+00  0.0000E+00
    -19.469  0.0000E+00  0.0000E+00  0.0000E+00
    -19.366  0.0000E+00  0.0000E+00  0.0000E+00
    -19.264  0.0000E+00  0.0000E+00  0.0000E+00
    -19.161  0.0000E+00  0.0000E+00  0.0000E+00
    -19.058  0.0000E+00  0.0000E+00  0.0000E+00
    -18.955  0.0000E+00  0.0000E+00  0.0000E+00
    -18.852  0.0000E+00  0.0000E+00  0.0000E+00
    -18.750  0.0000E+00  0.0000E+00  0.0000E+00
    -18.647  0.0000E+00  0.0000E+00  0.0000E+00
    -18.544  0.0000E+00  0.0000E+00  0.0000E+00
    -18.441  0.0000E+00  0.0000E+00  0.0000E+00
    -18.338  0.0000E+00  0.0000E+00  0.0000E+00
    -18.236  0.0000E+00  0.0000E+00  0.0000E+00
    -18.133  0.0000E+00  0.0000E+00  0.0000E+00
    -18.030  0.0000E+00  0.0000E+00  0.0000E+00
    -17.927  0.0000E+00  0.0000E+00  0.0000E+00
    -17.824  0.0000E+00  0.0000E+00  0.0000E+00
    -17.722  0.0000E+00  0.0000E+00  0.0000E+00
    -17.619  0.0000E+00  0.0000E+00  0.0000E+00
    -17.516  0.0000E+00  0.0000E+00  0.0000E+00
    -17.413  0.0000E+00  0.0000E+00  0.0000E+00
    -17.310  0.0000E+00  0.0000E+00  0.0000E+00
    -17.208  0.0000E+00  0.0000E+00  0.0000E+00
    -17.105  0.0000E+00  0.0000E+00  0.0000E+00
    -17.002  0.0000E+00  0.0000E+00  0.0000E+00
    -16.899  0.0000E+00  0.0000E+00  0.0000E+00
    -16.796  0.0000E+00  0.0000E+00  0.0000E+00
    -16.694  0.4564E-04  0.4547E-04  0.1098E-04
    -16.591  0.7208E-04  0.3728E-04  0.4812E-05
    -16.488  0.0000E+00  0.0000E+00  0.0000E+00
    -16.385  0.0000E+00  0.0000E+00  0.0000E+00
    -16.282  0.0000E+00  0.0000E+00  0.0000E+00
    -16.180  0.0000E+00  0.0000E+00  0.0000E+00
    -16.077  0.0000E+00  0.0000E+00  0.0000E+00
    -15.974  0.0000E+00  0.0000E+00  0.0000E+00
    -15.871  0.0000E+00  0.0000E+00  0.0000E+00
    -15.768  0.0000E+00  0.0000E+00  0.0000E+00
    -15.666  0.0000E+00  0.0000E+00  0.0000E+00
    -15.563  0.0000E+00  0.0000E+00  0.0000E+00
    -15.460  0.0000E+00  0.0000E+00  0.0000E+00
    -15.357  0.0000E+00  0.0000E+00  0.0000E+00
    -15.254  0.0000E+00  0.0000E+00  0.0000E+00
    -15.152  0.0000E+00  0.0000E+00  0.0000E+00
    -15.049  0.0000E+00  0.0000E+00  0.0000E+00
    -14.946  0.0000E+00  0.0000E+00  0.0000E+00
    -14.843  0.0000E+00  0.0000E+00  0.0000E+00
    -14.740  0.0000E+00  0.0000E+00  0.0000E+00
    -14.638  0.0000E+00  0.0000E+00  0.0000E+00
    -14.535  0.0000E+00  0.0000E+00  0.0000E+00
    -14.432  0.1123E-17  0.1011E-19  0.1200E-20
    -14.329  0.1352E-02  0.2706E-03  0.2958E-05
    -14.226  0.3148E-02  0.3895E-02  0.6208E-04
    -14.124  0.7296E-03  0.4156E-02  0.1867E-03
    -14.021  0.2186E-02  0.5698E-02  0.4827E-03
    -13.918  0.7969E-03  0.3167E-02  0.5140E-03
    -13.815  0.5057E-03  0.1454E-02  0.2286E-03
    -13.712  0.0000E+00  0.0000E+00  0.0000E+00
    -13.610  0.0000E+00  0.0000E+00  0.0000E+00
    -13.507  0.0000E+00  0.0000E+00  0.0000E+00
    -13.404  0.0000E+00  0.0000E+00  0.0000E+00
    -13.301  0.0000E+00  0.0000E+00  0.0000E+00
    -13.198  0.0000E+00  0.0000E+00  0.0000E+00
    -13.096  0.0000E+00  0.0000E+00  0.0000E+00
    -12.993  0.0000E+00  0.0000E+00  0.0000E+00
    -12.890  0.0000E+00  0.0000E+00  0.0000E+00
    -12.787  0.0000E+00  0.0000E+00  0.0000E+00
    -12.684  0.0000E+00  0.0000E+00  0.0000E+00
    -12.582  0.0000E+00  0.0000E+00  0.0000E+00
    -12.479  0.0000E+00  0.0000E+00  0.0000E+00
    -12.376  0.0000E+00  0.0000E+00  0.0000E+00
    -12.273  0.0000E+00  0.0000E+00  0.0000E+00
    -12.170  0.0000E+00  0.0000E+00  0.0000E+00
    -12.068  0.0000E+00  0.0000E+00  0.0000E+00
    -11.965  0.0000E+00  0.0000E+00  0.0000E+00
    -11.862  0.0000E+00  0.0000E+00  0.0000E+00
    -11.759  0.0000E+00  0.0000E+00  0.0000E+00
    -11.656  0.0000E+00  0.0000E+00  0.0000E+00
    -11.554  0.0000E+00  0.0000E+00  0.0000E+00
    -11.451  0.0000E+00  0.0000E+00  0.0000E+00
    -11.348  0.0000E+00  0.0000E+00  0.0000E+00
    -11.245  0.0000E+00  0.0000E+00  0.0000E+00
    -11.142  0.0000E+00  0.0000E+00  0.0000E+00
    -11.039  0.0000E+00  0.0000E+00  0.0000E+00
    -10.937  0.0000E+00  0.0000E+00  0.0000E+00
    -10.834  0.0000E+00  0.0000E+00  0.0000E+00
    -10.731  0.0000E+00  0.0000E+00  0.0000E+00
    -10.628  0.0000E+00  0.0000E+00  0.0000E+00
    -10.525  0.0000E+00  0.0000E+00  0.0000E+00
    -10.423  0.0000E+00  0.0000E+00  0.0000E+00
    -10.320  0.0000E+00  0.0000E+00  0.0000E+00
    -10.217  0.0000E+00  0.0000E+00  0.0000E+00
    -10.114  0.0000E+00  0.0000E+00  0.0000E+00
    -10.011  0.0000E+00  0.0000E+00  0.0000E+00
     -9.909  0.0000E+00  0.0000E+00  0.0000E+00
     -9.806  0.0000E+00  0.0000E+00  0.0000E+00
     -9.703  0.0000E+00  0.0000E+00  0.0000E+00
     -9.600  0.0000E+00  0.0000E+00  0.0000E+00
     -9.497  0.0000E+00  0.0000E+00  0.0000E+00
     -9.395  0.0000E+00  0.0000E+00  0.0000E+00
     -9.292  0.0000E+00  0.0000E+00  0.0000E+00
     -9.189  0.0000E+00  0.0000E+00  0.0000E+00
     -9.086  0.0000E+00  0.0000E+00  0.0000E+00
     -8.983  0.0000E+00  0.0000E+00  0.0000E+00
     -8.881  0.0000E+00  0.0000E+00  0.0000E+00
     -8.778  0.0000E+00  0.0000E+00  0.0000E+00
     -8.675  0.0000E+00  0.0000E+00  0.0000E+00
     -8.572  0.0000E+00  0.0000E+00  0.0000E+00
     -8.469  0.0000E+00  0.0000E+00  0.0000E+00
     -8.367  0.0000E+00  0.0000E+00  0.0000E+00
     -8.264  0.1624E-20  0.4687E-05  0.5985E-07
     -8.161  0.0000E+00  0.0000E+00  0.0000E+00
     -8.058  0.2417E-05  0.3396E-02  0.1254E-04
     -7.955  0.2305E-23  0.6450E-07  0.1744E-09
     -7.853  0.1590E-04  0.3981E-01  0.8185E-04
     -7.750  0.1019E-04  0.2410E-01  0.2831E-04
     -7.647  0.1505E-04  0.4469E-01  0.2299E-04
     -7.544  0.1974E-04  0.7873E-01  0.3334E-04
     -7.441  0.1476E-04  0.1030E+00  0.3020E-04
     -7.339  0.5980E-04  0.1579E+02  0.7106E-04
     -7.236  0.2848E-04  0.1325E+02  0.4105E-04
     -7.133  0.1888E-04  0.8560E-01  0.8436E-05
     -7.030  0.5561E-05  0.1166E-01  0.6335E-05
     -6.927  0.0000E+00  0.0000E+00  0.0000E+00
     -6.825  0.4630E-05  0.2681E-02  0.1082E-05
     -6.722  0.0000E+00  0.0000E+00  0.0000E+00
     -6.619  0.0000E+00  0.0000E+00  0.0000E+00
     -6.516  0.0000E+00  0.0000E+00  0.0000E+00
     -6.413  0.0000E+00  0.0000E+00  0.0000E+00
     -6.311  0.0000E+00  0.0000E+00  0.0000E+00
     -6.208  0.0000E+00  0.0000E+00  0.0000E+00
     -6.105  0.0000E+00  0.0000E+00  0.0000E+00
     -6.002  0.0000E+00  0.0000E+00  0.0000E+00
     -5.899  0.0000E+00  0.0000E+00  0.0000E+00
     -5.797  0.0000E+00  0.0000E+00  0.0000E+00
     -5.694  0.0000E+00  0.0000E+00  0.0000E+00
     -5.591  0.0000E+00  0.0000E+00  0.0000E+00
     -5.488  0.0000E+00  0.0000E+00  0.0000E+00
     -5.385  0.0000E+00  0.0000E+00  0.0000E+00
     -5.283  0.0000E+00  0.0000E+00  0.0000E+00
     -5.180  0.0000E+00  0.0000E+00  0.0000E+00
     -5.077  0.0000E+00  0.0000E+00  0.0000E+00
     -4.974  0.0000E+00  0.0000E+00  0.0000E+00
     -4.871  0.0000E+00  0.0000E+00  0.0000E+00
     -4.769  0.0000E+00  0.0000E+00  0.0000E+00
     -4.666  0.0000E+00  0.0000E+00  0.0000E+00
     -4.563  0.0000E+00  0.0000E+00  0.0000E+00
     -4.460  0.0000E+00  0.0000E+00  0.0000E+00
     -4.357  0.0000E+00  0.0000E+00  0.0000E+00
     -4.255  0.0000E+00  0.0000E+00  0.0000E+00
     -4.152  0.0000E+00  0.0000E+00  0.0000E+00
     -4.049  0.0000E+00  0.0000E+00  0.0000E+00
     -3.946  0.0000E+00  0.0000E+00  0.0000E+00
     -3.843  0.0000E+00  0.0000E+00  0.0000E+00
     -3.741  0.0000E+00  0.0000E+00  0.0000E+00
     -3.638  0.0000E+00  0.0000E+00  0.0000E+00
     -3.535  0.0000E+00  0.0000E+00  0.0000E+00
     -3.432  0.2492E-04  0.6796E-03  0.2520E-04
     -3.329  0.4538E-04  0.2078E-02  0.1677E-03
     -3.227  0.6603E-04  0.2090E-02  0.2437E-03
     -3.124  0.7956E-03  0.3638E-01  0.2704E-02
     -3.021  0.1983E-03  0.6831E-02  0.7480E-03
     -2.918  0.2835E-03  0.1112E-01  0.1068E-02
     -2.815  0.2914E-03  0.9688E-02  0.1285E-02
     -2.713  0.7366E-03  0.9082E-02  0.5226E-03
     -2.610  0.7845E-16  0.1621E-02  0.7855E-04
     -2.507  0.4543E-03  0.1834E-01  0.1075E-02
     -2.404  0.3095E-02  0.2225E-01  0.3154E-02
     -2.301  0.3089E-02  0.7347E-02  0.1226E-02
     -2.198  0.7317E-02  0.3100E-01  0.2812E-02
     -2.096  0.1302E-01  0.1708E-01  0.2100E-02
     -1.993  0.1725E-01  0.4702E-01  0.4707E-02
     -1.890  0.9271E-04  0.1752E-01  0.2445E-03
     -1.787  0.5425E-02  0.1479E+00  0.1165E-01
     -1.684  0.1571E-02  0.6416E-01  0.7701E-02
     -1.582  0.4777E-02  0.7289E-01  0.1644E-01
     -1.479  0.1829E-02  0.6595E-01  0.2260E-01
     -1.376  0.3947E-02  0.7583E-01  0.1484E-01
     -1.273  0.1644E-02  0.7579E-01  0.9415E-02
     -1.170  0.1112E-02  0.5072E-01  0.1104E-01
     -1.068  0.1255E-02  0.2244E-01  0.7581E-02
     -0.965  0.4087E-03  0.1196E-01  0.1869E-02
     -0.862  0.3935E-03  0.4661E-02  0.1051E-02
     -0.759  0.3476E-03  0.1037E-01  0.2774E-02
     -0.656  0.3708E-03  0.4370E-02  0.5354E-03
     -0.554  0.3174E-03  0.2460E-02  0.4619E-03
     -0.451  0.1986E-13  0.1159E-02  0.1106E-02
     -0.348  0.3289E-04  0.1467E-02  0.2082E-03
     -0.245  0.2710E-04  0.5074E-03  0.2895E-03
     -0.142  0.0000E+00  0.0000E+00  0.0000E+00
     -0.040  0.4912E-31  0.1159E-18  0.9420E-19
      0.063  0.8848E-16  0.2087E-03  0.1697E-03
      0.166  0.0000E+00  0.0000E+00  0.0000E+00
      0.269  0.0000E+00  0.0000E+00  0.0000E+00
      0.372  0.0000E+00  0.0000E+00  0.0000E+00
      0.474  0.0000E+00  0.0000E+00  0.0000E+00
      0.577  0.0000E+00  0.0000E+00  0.0000E+00
      0.680  0.0000E+00  0.0000E+00  0.0000E+00
      0.783  0.0000E+00  0.0000E+00  0.0000E+00
      0.886  0.0000E+00  0.0000E+00  0.0000E+00
      0.988  0.0000E+00  0.0000E+00  0.0000E+00
      1.091  0.0000E+00  0.0000E+00  0.0000E+00
      1.194  0.0000E+00  0.0000E+00  0.0000E+00
      1.297  0.0000E+00  0.0000E+00  0.0000E+00
      1.400  0.0000E+00  0.0000E+00  0.0000E+00
      1.502  0.0000E+00  0.0000E+00  0.0000E+00
      1.605  0.0000E+00  0.0000E+00  0.0000E+00
      1.708  0.0000E+00  0.0000E+00  0.0000E+00
      1.811  0.0000E+00  0.0000E+00  0.0000E+00
      1.914  0.0000E+00  0.0000E+00  0.0000E+00
      2.016  0.0000E+00  0.0000E+00  0.0000E+00
      2.119  0.0000E+00  0.0000E+00  0.0000E+00
      2.222  0.0000E+00  0.0000E+00  0.0000E+00
      2.325  0.4987E-04  0.2387E-03  0.2839E-03
      2.428  0.7218E-12  0.1334E-03  0.1198E-02
      2.530  0.2255E-03  0.9507E-03  0.1203E-02
      2.633  0.2354E-03  0.2943E-03  0.1384E-02
      2.736  0.1528E-03  0.6584E-03  0.7828E-03
      2.839  0.3265E-03  0.8878E-03  0.8271E-03
      2.942  0.1268E-12  0.4715E-02  0.3245E-02
      3.044  0.1041E-02  0.5975E-02  0.4246E-02
      3.147  0.8536E-04  0.8928E-03  0.3326E-02
      3.250  0.1692E-02  0.3234E-02  0.8332E-02
      3.353  0.1107E-03  0.1059E-03  0.3677E-04
      3.456  0.1069E-02  0.1651E-02  0.4117E-02
      3.558  0.5052E-05  0.8137E-05  0.1114E-04
      3.661  0.5749E-09  0.3946E-03  0.3125E-02
      3.764  0.6788E-03  0.2646E-02  0.6717E-02
      3.867  0.5964E-03  0.3096E-02  0.6907E-02
      3.970  0.6262E-03  0.1195E-02  0.2976E-02
      4.072  0.1794E-03  0.5622E-03  0.3039E-03
      4.175  0.1048E-02  0.1974E-02  0.2636E-02
      4.278  0.5533E-03  0.4500E-03  0.4033E-03
      4.381  0.2933E-19  0.8442E-07  0.3444E-06
      4.484  0.7470E-14  0.9379E-03  0.3358E-02
      4.586  0.2170E-03  0.8355E-03  0.5476E-02
      4.689  0.2652E-03  0.4166E-03  0.5271E-03
      4.792  0.1496E-01  0.1636E-02  0.4553E-02
      4.895  0.2039E-11  0.5014E-04  0.1890E-02
      4.998  0.1138E-03  0.6035E-03  0.1993E-02
      5.100  0.1398E-01  0.3321E-02  0.7617E-02
      5.203  0.6000E-02  0.5193E-02  0.8779E-02
      5.306  0.1512E-01  0.2165E-02  0.8877E-02
      5.409  0.3663E-04  0.3167E-03  0.1379E-01
      5.512  0.1490E-01  0.4952E-02  0.2173E-01
      5.614  0.5750E-02  0.1844E-02  0.1469E-01
      5.717  0.0000E+00  0.0000E+00  0.0000E+00
      5.820  0.6519E-01  0.2408E-01  0.4946E-01
      5.923  0.1210E-03  0.2797E-03  0.8715E-02
      6.026  0.6646E-02  0.5001E-02  0.1215E+00
      6.129  0.4878E-01  0.4310E-01  0.2793E+00
      6.231  0.3441E-01  0.2316E-01  0.4969E+00
      6.334  0.3798E-01  0.1297E-01  0.1840E+00
      6.437  0.2056E-01  0.2271E-01  0.3874E+00
      6.540  0.2289E-01  0.1553E-01  0.3428E+00
      6.643  0.1746E-01  0.2704E-01  0.5769E+00
      6.745  0.1674E-01  0.1211E-01  0.4690E+00
      6.848  0.4836E-03  0.6881E-02  0.3197E+00
      6.951  0.3888E-01  0.4678E-01  0.6940E+00
      7.054  0.1716E-01  0.1640E-01  0.2145E+00
      7.157  0.4202E-03  0.1122E-01  0.1307E+00
      7.259  0.0000E+00  0.0000E+00  0.0000E+00
      7.362  0.0000E+00  0.0000E+00  0.0000E+00
      7.465  0.0000E+00  0.0000E+00  0.0000E+00
      7.568  0.0000E+00  0.0000E+00  0.0000E+00
      7.671  0.0000E+00  0.0000E+00  0.0000E+00
      7.773  0.0000E+00  0.0000E+00  0.0000E+00
      7.876  0.0000E+00  0.0000E+00  0.0000E+00
      7.979  0.0000E+00  0.0000E+00  0.0000E+00
      8.082  0.0000E+00  0.0000E+00  0.0000E+00
      8.185  0.0000E+00  0.0000E+00  0.0000E+00
      8.287  0.0000E+00  0.0000E+00  0.0000E+00
      8.390  0.0000E+00  0.0000E+00  0.0000E+00
      8.493  0.0000E+00  0.0000E+00  0.0000E+00
      8.49295564    -22.34776004  301      0.08886062      1.00000000
    -22.348  0.0000E+00  0.0000E+00  0.0000E+00
    -22.245  0.0000E+00  0.0000E+00  0.0000E+00
    -22.142  0.0000E+00  0.0000E+00  0.0000E+00
    -22.039  0.0000E+00  0.0000E+00  0.0000E+00
    -21.937  0.0000E+00  0.0000E+00  0.0000E+00
    -21.834  0.0000E+00  0.0000E+00  0.0000E+00
    -21.731  0.0000E+00  0.0000E+00  0.0000E+00
    -21.628  0.0000E+00  0.0000E+00  0.0000E+00
    -21.525  0.0000E+00  0.0000E+00  0.0000E+00
    -21.423  0.0000E+00  0.0000E+00  0.0000E+00
    -21.320  0.0000E+00  0.0000E+00  0.0000E+00
    -21.217  0.0000E+00  0.0000E+00  0.0000E+00
    -21.114  0.0000E+00  0.0000E+00  0.0000E+00
    -21.011  0.0000E+00  0.0000E+00  0.0000E+00
    -20.909  0.1727E+02  0.1084E-04  0.1444E-05
    -20.806  0.0000E+00  0.0000E+00  0.0000E+00
    -20.703  0.0000E+00  0.0000E+00  0.0000E+00
    -20.600  0.0000E+00  0.0000E+00  0.0000E+00
    -20.497  0.0000E+00  0.0000E+00  0.0000E+00
    -20.395  0.0000E+00  0.0000E+00  0.0000E+00
    -20.292  0.0000E+00  0.0000E+00  0.0000E+00
    -20.189  0.0000E+00  0.0000E+00  0.0000E+00
    -20.086  0.0000E+00  0.0000E+00  0.0000E+00
    -19.983  0.0000E+00  0.0000E+00  0.0000E+00
    -19.881  0.0000E+00  0.0000E+00  0.0000E+00
    -19.778  0.0000E+00  0.0000E+00  0.0000E+00
    -19.675  0.0000E+00  0.0000E+00  0.0000E+00
    -19.572  0.0000E+00  0.0000E+00  0.0000E+00
    -19.469  0.0000E+00  0.0000E+00  0.0000E+00
    -19.366  0.0000E+00  0.0000E+00  0.0000E+00
    -19.264  0.0000E+00  0.0000E+00  0.0000E+00
    -19.161  0.0000E+00  0.0000E+00  0.0000E+00
    -19.058  0.0000E+00  0.0000E+00  0.0000E+00
    -18.955  0.0000E+00  0.0000E+00  0.0000E+00
    -18.852  0.0000E+00  0.0000E+00  0.0000E+00
    -18.750  0.0000E+00  0.0000E+00  0.0000E+00
    -18.647  0.0000E+00  0.0000E+00  0.0000E+00
    -18.544  0.0000E+00  0.0000E+00  0.0000E+00
    -18.441  0.0000E+00  0.0000E+00  0.0000E+00
    -18.338  0.0000E+00  0.0000E+00  0.0000E+00
    -18.236  0.0000E+00  0.0000E+00  0.0000E+00
    -18.133  0.0000E+00  0.0000E+00  0.0000E+00
    -18.030  0.0000E+00  0.0000E+00  0.0000E+00
    -17.927  0.0000E+00  0.0000E+00  0.0000E+00
    -17.824  0.0000E+00  0.0000E+00  0.0000E+00
    -17.722  0.0000E+00  0.0000E+00  0.0000E+00
    -17.619  0.0000E+00  0.0000E+00  0.0000E+00
    -17.516  0.0000E+00  0.0000E+00  0.0000E+00
    -17.413  0.0000E+00  0.0000E+00  0.0000E+00
    -17.310  0.0000E+00  0.0000E+00  0.0000E+00
    -17.208  0.0000E+00  0.0000E+00  0.0000E+00
    -17.105  0.0000E+00  0.0000E+00  0.0000E+00
    -17.002  0.0000E+00  0.0000E+00  0.0000E+00
    -16.899  0.0000E+00  0.0000E+00  0.0000E+00
    -16.796  0.0000E+00  0.0000E+00  0.0000E+00
    -16.694  0.4746E-04  0.3880E-04  0.1052E-04
    -16.591  0.7158E-04  0.3703E-04  0.4814E-05
    -16.488  0.0000E+00  0.0000E+00  0.0000E+00
    -16.385  0.0000E+00  0.0000E+00  0.0000E+00
    -16.282  0.0000E+00  0.0000E+00  0.0000E+00
    -16.180  0.0000E+00  0.0000E+00  0.0000E+00
    -16.077  0.0000E+00  0.0000E+00  0.0000E+00
    -15.974  0.0000E+00  0.0000E+00  0.0000E+00
    -15.871  0.0000E+00  0.0000E+00  0.0000E+00
    -15.768  0.0000E+00  0.0000E+00  0.0000E+00
    -15.666  0.0000E+00  0.0000E+00  0.0000E+00
    -15.563  0.0000E+00  0.0000E+00  0.0000E+00
    -15.460  0.0000E+00  0.0000E+00  0.0000E+00
    -15.357  0.0000E+00  0.0000E+00  0.0000E+00
    -15.254  0.0000E+00  0.0000E+00  0.0000E+00
    -15.152  0.0000E+00  0.0000E+00  0.0000E+00
    -15.049  0.0000E+00  0.0000E+00  0.0000E+00
    -14.946  0.0000E+00  0.0000E+00  0.0000E+00
    -14.843  0.0000E+00  0.0000E+00  0.0000E+00
    -14.740  0.0000E+00  0.0000E+00  0.0000E+00
    -14.638  0.0000E+00  0.0000E+00  0.0000E+00
    -14.535  0.0000E+00  0.0000E+00  0.0000E+00
    -14.432  0.1123E-17  0.1011E-19  0.1200E-20
    -14.329  0.1352E-02  0.2706E-03  0.2958E-05
    -14.226  0.3709E-02  0.3387E-02  0.6369E-04
    -14.124  0.4407E-03  0.5584E-02  0.2074E-03
    -14.021  0.1360E-02  0.4748E-02  0.4992E-03
    -13.918  0.1135E-02  0.3438E-02  0.4838E-03
    -13.815  0.5442E-03  0.1402E-02  0.2218E-03
    -13.712  0.0000E+00  0.0000E+00  0.0000E+00
    -13.610  0.0000E+00  0.0000E+00  0.0000E+00
    -13.507  0.0000E+00  0.0000E+00  0.0000E+00
    -13.404  0.0000E+00  0.0000E+00  0.0000E+00
    -13.301  0.0000E+00  0.0000E+00  0.0000E+00
    -13.198  0.0000E+00  0.0000E+00  0.0000E+00