       N       E                     dE             d eps       ncg     rms          rms(c)
DAV:   1     0.666226059325E+03    0.66623E+03   -0.55843E+04  1832   0.918E+02
DAV:   2    -0.574337810442E+03   -0.12406E+04   -0.11878E+04  2192   0.285E+02
DAV:   3    -0.748961788928E+03   -0.17462E+03   -0.17354E+03  2440   0.128E+02
DAV:   4    -0.754538108986E+03   -0.55763E+01   -0.55608E+01  2176   0.301E+01
DAV:   5    -0.754772352667E+03   -0.23424E+00   -0.23410E+00  2328   0.499E+00    0.685E+00
DAV:   6    -0.714747777170E+03    0.40025E+02   -0.12008E+01  2360   0.294E+01    0.488E+00
DAV:   7    -0.714490774431E+03    0.25700E+00   -0.41518E+00  2208   0.501E+00    0.262E+00
DAV:   8    -0.714592290367E+03   -0.10152E+00   -0.19708E-01  2112   0.178E+00    0.149E+00
DAV:   9    -0.714635079080E+03   -0.42789E-01   -0.99494E-02  1976   0.127E+00    0.325E-01
DAV:  10    -0.714636517980E+03   -0.14389E-02   -0.71303E-03  2576   0.360E-01    0.197E-01
DAV:  11    -0.714638582920E+03   -0.20649E-02   -0.23506E-03  1944   0.187E-01    0.690E-02
DAV:  12    -0.714638556749E+03    0.26172E-04   -0.49346E-04  2200   0.958E-02    0.245E-02
DAV:  13    -0.714638522687E+03    0.34061E-04   -0.73011E-05  2136   0.317E-02    0.775E-03
DAV:  14    -0.714638548214E+03   -0.25527E-04   -0.42574E-06  1800   0.798E-03    0.268E-03
DAV:  15    -0.714638544075E+03    0.41392E-05   -0.53724E-07  1240   0.301E-03    0.767E-04
DAV:  16    -0.714638543942E+03    0.13266E-06   -0.18219E-07  1240   0.219E-03
   1 F= -.71463854E+03 E0= -.71463854E+03  d E =-.115205E-25
