CsPbBr3 cubic bulk                      
           1
     8.841018    0.000000    0.000000
     0.000000   12.351998    0.000000
     0.000000    0.000000    7.546302
   Cs   Pb   Br
   4   4  12
Direct configuration=     1
   0.07786432  0.25000000  0.46575101
   0.42213568  0.75000000  0.96575101
   0.57786432  0.25000000  0.03424899
   0.92213568  0.75000000  0.53424899
   0.00000000  0.00000000  0.00000000
   0.50000000  0.00000000  0.50000000
   0.50000000  0.50000000  0.50000000
   0.00000000  0.50000000  0.00000000
   0.50943671  0.75000000  0.45472422
   0.99056329  0.25000000  0.95472422
   0.00943671  0.75000000  0.04527578
   0.49056329  0.25000000  0.54527578
   0.30554563  0.46822738  0.17687376
   0.19445437  0.53177262  0.67687376
   0.80554563  0.03177262  0.32312624
   0.69445437  0.96822738  0.82312624
   0.30554563  0.03177262  0.17687376
   0.19445437  0.96822738  0.67687376
   0.69445437  0.53177262  0.82312624
   0.80554563  0.46822738  0.32312624
