  40  40   1   0
  0.4040437E+02  0.1173535E-08  0.1173535E-08  0.1173535E-08  0.5000000E-15
   1.0000000000000000E-004
  CAR 
 CsPbBr3 cubic bulk                      
      8.23204301    -22.35752104  301      0.81407373      1.00000000
    -22.358  0.0000E+00  0.0000E+00
    -22.256  0.0000E+00  0.0000E+00
    -22.154  0.0000E+00  0.0000E+00
    -22.052  0.0000E+00  0.0000E+00
    -21.950  0.0000E+00  0.0000E+00
    -21.848  0.0000E+00  0.0000E+00
    -21.746  0.0000E+00  0.0000E+00
    -21.644  0.0000E+00  0.0000E+00
    -21.542  0.0000E+00  0.0000E+00
    -21.440  0.0000E+00  0.0000E+00
    -21.338  0.0000E+00  0.0000E+00
    -21.236  0.0000E+00  0.0000E+00
    -21.134  0.0000E+00  0.0000E+00
    -21.032  0.0000E+00  0.0000E+00
    -20.930  0.1569E+03  0.1600E+02
    -20.828  0.0000E+00  0.1600E+02
    -20.726  0.0000E+00  0.1600E+02
    -20.624  0.0000E+00  0.1600E+02
    -20.522  0.0000E+00  0.1600E+02
    -20.420  0.0000E+00  0.1600E+02
    -20.318  0.0000E+00  0.1600E+02
    -20.216  0.0000E+00  0.1600E+02
    -20.114  0.0000E+00  0.1600E+02
    -20.012  0.0000E+00  0.1600E+02
    -19.910  0.0000E+00  0.1600E+02
    -19.808  0.0000E+00  0.1600E+02
    -19.706  0.0000E+00  0.1600E+02
    -19.604  0.0000E+00  0.1600E+02
    -19.502  0.0000E+00  0.1600E+02
    -19.401  0.0000E+00  0.1600E+02
    -19.299  0.0000E+00  0.1600E+02
    -19.197  0.0000E+00  0.1600E+02
    -19.095  0.0000E+00  0.1600E+02
    -18.993  0.0000E+00  0.1600E+02
    -18.891  0.0000E+00  0.1600E+02
    -18.789  0.0000E+00  0.1600E+02
    -18.687  0.0000E+00  0.1600E+02
    -18.585  0.0000E+00  0.1600E+02
    -18.483  0.0000E+00  0.1600E+02
    -18.381  0.0000E+00  0.1600E+02
    -18.279  0.0000E+00  0.1600E+02
    -18.177  0.0000E+00  0.1600E+02
    -18.075  0.0000E+00  0.1600E+02
    -17.973  0.0000E+00  0.1600E+02
    -17.871  0.0000E+00  0.1600E+02
    -17.769  0.0000E+00  0.1600E+02
    -17.667  0.0000E+00  0.1600E+02
    -17.565  0.0000E+00  0.1600E+02
    -17.463  0.0000E+00  0.1600E+02
    -17.361  0.0000E+00  0.1600E+02
    -17.259  0.0000E+00  0.1600E+02
    -17.157  0.0000E+00  0.1600E+02
    -17.055  0.0000E+00  0.1600E+02
    -16.953  0.0000E+00  0.1600E+02
    -16.851  0.0000E+00  0.1600E+02
    -16.749  0.0000E+00  0.1600E+02
    -16.647  0.0000E+00  0.1600E+02
    -16.546  0.0000E+00  0.1600E+02
    -16.444  0.4083E-15  0.1600E+02
    -16.342  0.8469E+02  0.2464E+02
    -16.240  0.1471E+03  0.4799E+02
    -16.138  0.4707E+03  0.9600E+02
    -16.036  0.0000E+00  0.9600E+02
    -15.934  0.0000E+00  0.9600E+02
    -15.832  0.0000E+00  0.9600E+02
    -15.730  0.0000E+00  0.9600E+02
    -15.628  0.0000E+00  0.9600E+02
    -15.526  0.0000E+00  0.9600E+02
    -15.424  0.0000E+00  0.9600E+02
    -15.322  0.0000E+00  0.9600E+02
    -15.220  0.0000E+00  0.9600E+02
    -15.118  0.0000E+00  0.9600E+02
    -15.016  0.0000E+00  0.9600E+02
    -14.914  0.0000E+00  0.9600E+02
    -14.812  0.0000E+00  0.9600E+02
    -14.710  0.0000E+00  0.9600E+02
    -14.608  0.0000E+00  0.9600E+02
    -14.506  0.0000E+00  0.9600E+02
    -14.404  0.1478E-05  0.9600E+02
    -14.302  0.1197E+02  0.9722E+02
    -14.200  0.4019E+02  0.1018E+03
    -14.098  0.3993E+02  0.1068E+03
    -13.996  0.5381E+02  0.1140E+03
    -13.894  0.3624E+02  0.1237E+03
    -13.792  0.1088E+03  0.1348E+03
    -13.690  0.5998E+02  0.1414E+03
    -13.589  0.0000E+00  0.1440E+03
    -13.487  0.0000E+00  0.1440E+03
    -13.385  0.0000E+00  0.1440E+03
    -13.283  0.0000E+00  0.1440E+03
    -13.181  0.0000E+00  0.1440E+03
    -13.079  0.0000E+00  0.1440E+03
    -12.977  0.0000E+00  0.1440E+03
    -12.875  0.0000E+00  0.1440E+03
    -12.773  0.0000E+00  0.1440E+03
    -12.671  0.0000E+00  0.1440E+03
    -12.569  0.0000E+00  0.1440E+03
    -12.467  0.0000E+00  0.1440E+03
    -12.365  0.0000E+00  0.1440E+03
    -12.263  0.0000E+00  0.1440E+03
    -12.161  0.0000E+00  0.1440E+03
    -12.059  0.0000E+00  0.1440E+03
    -11.957  0.0000E+00  0.1440E+03
    -11.855  0.0000E+00  0.1440E+03
    -11.753  0.0000E+00  0.1440E+03
    -11.651  0.0000E+00  0.1440E+03
    -11.549  0.0000E+00  0.1440E+03
    -11.447  0.0000E+00  0.1440E+03
    -11.345  0.0000E+00  0.1440E+03
    -11.243  0.0000E+00  0.1440E+03
    -11.141  0.0000E+00  0.1440E+03
    -11.039  0.0000E+00  0.1440E+03
    -10.937  0.0000E+00  0.1440E+03
    -10.835  0.0000E+00  0.1440E+03
    -10.733  0.0000E+00  0.1440E+03
    -10.632  0.0000E+00  0.1440E+03
    -10.530  0.0000E+00  0.1440E+03
    -10.428  0.0000E+00  0.1440E+03
    -10.326  0.0000E+00  0.1440E+03
    -10.224  0.0000E+00  0.1440E+03
    -10.122  0.0000E+00  0.1440E+03
    -10.020  0.0000E+00  0.1440E+03
     -9.918  0.0000E+00  0.1440E+03
     -9.816  0.0000E+00  0.1440E+03
     -9.714  0.0000E+00  0.1440E+03
     -9.612  0.0000E+00  0.1440E+03
     -9.510  0.0000E+00  0.1440E+03
     -9.408  0.0000E+00  0.1440E+03
     -9.306  0.0000E+00  0.1440E+03
     -9.204  0.0000E+00  0.1440E+03
     -9.102  0.0000E+00  0.1440E+03
     -9.000  0.0000E+00  0.1440E+03
     -8.898  0.0000E+00  0.1440E+03
     -8.796  0.0000E+00  0.1440E+03
     -8.694  0.0000E+00  0.1440E+03
     -8.592  0.0000E+00  0.1440E+03
     -8.490  0.0000E+00  0.1440E+03
     -8.388  0.0000E+00  0.1440E+03
     -8.286  0.0000E+00  0.1440E+03
     -8.184  0.2452E+01  0.1442E+03
     -8.082  0.0000E+00  0.1442E+03
     -7.980  0.6296E+01  0.1449E+03
     -7.878  0.4904E+01  0.1458E+03
     -7.776  0.2568E-04  0.1458E+03
     -7.675  0.3431E+02  0.1492E+03
     -7.573  0.1482E+01  0.1494E+03
     -7.471  0.1812E+01  0.1497E+03
     -7.369  0.6589E+02  0.1592E+03
     -7.267  0.3221E+03  0.2023E+03
     -7.165  0.1604E-02  0.2025E+03
     -7.063  0.2484E+02  0.2050E+03
     -6.961  0.4904E+01  0.2062E+03
     -6.859  0.1214E-08  0.2063E+03
     -6.757  0.4904E+01  0.2068E+03
     -6.655  0.9807E+01  0.2078E+03
     -6.553  0.0000E+00  0.2078E+03
     -6.451  0.0000E+00  0.2078E+03
     -6.349  0.1410E+01  0.2079E+03
     -6.247  0.0000E+00  0.2080E+03
     -6.145  0.0000E+00  0.2080E+03
     -6.043  0.0000E+00  0.2080E+03
     -5.941  0.0000E+00  0.2080E+03
     -5.839  0.0000E+00  0.2080E+03
     -5.737  0.0000E+00  0.2080E+03
     -5.635  0.0000E+00  0.2080E+03
     -5.533  0.0000E+00  0.2080E+03
     -5.431  0.0000E+00  0.2080E+03
     -5.329  0.0000E+00  0.2080E+03
     -5.227  0.0000E+00  0.2080E+03
     -5.125  0.0000E+00  0.2080E+03
     -5.023  0.0000E+00  0.2080E+03
     -4.921  0.0000E+00  0.2080E+03
     -4.820  0.0000E+00  0.2080E+03
     -4.718  0.0000E+00  0.2080E+03
     -4.616  0.0000E+00  0.2080E+03
     -4.514  0.0000E+00  0.2080E+03
     -4.412  0.0000E+00  0.2080E+03
     -4.310  0.0000E+00  0.2080E+03
     -4.208  0.0000E+00  0.2080E+03
     -4.106  0.0000E+00  0.2080E+03
     -4.004  0.0000E+00  0.2080E+03
     -3.902  0.0000E+00  0.2080E+03
     -3.800  0.0000E+00  0.2080E+03
     -3.698  0.0000E+00  0.2080E+03
     -3.596  0.0000E+00  0.2080E+03
     -3.494  0.2013E-07  0.2080E+03
     -3.392  0.1257E+02  0.2093E+03
     -3.290  0.1471E+02  0.2122E+03
     -3.188  0.5120E+02  0.2175E+03
     -3.086  0.1961E+02  0.2195E+03
     -2.984  0.4904E+01  0.2200E+03
     -2.882  0.0000E+00  0.2200E+03
     -2.780  0.0000E+00  0.2200E+03
     -2.678  0.2103E-03  0.2200E+03
     -2.576  0.4903E+02  0.2250E+03
     -2.474  0.3903E+02  0.2310E+03
     -2.372  0.2942E+02  0.2345E+03
     -2.270  0.4152E+02  0.2387E+03
     -2.168  0.2775E+02  0.2438E+03
     -2.066  0.2774E+01  0.2448E+03
     -1.964  0.6845E+02  0.2527E+03
     -1.863  0.1009E+02  0.2538E+03
     -1.761  0.4314E+02  0.2591E+03
     -1.659  0.3692E+01  0.2601E+03
     -1.557  0.8333E+02  0.2717E+03
     -1.455  0.4930E+02  0.2768E+03
     -1.353  0.8587E+02  0.2870E+03
     -1.251  0.1215E+03  0.3021E+03
     -1.149  0.8361E+02  0.3140E+03
     -1.047  0.1222E+03  0.3277E+03
     -0.945  0.3923E+02  0.3338E+03
     -0.843  0.4511E+02  0.3384E+03
     -0.741  0.9807E+01  0.3427E+03
     -0.639  0.4789E+01  0.3432E+03
     -0.537  0.1938E-11  0.3433E+03
     -0.435  0.1964E+02  0.3453E+03
     -0.333  0.1803E+02  0.3473E+03
     -0.231  0.9807E+01  0.3485E+03
     -0.129  0.9807E+01  0.3495E+03
     -0.027  0.9119E-14  0.3495E+03
      0.075  0.2452E+01  0.3498E+03
      0.177  0.7149E+01  0.3505E+03
      0.279  0.9130E+01  0.3517E+03
      0.381  0.0000E+00  0.3518E+03
      0.483  0.0000E+00  0.3518E+03
      0.585  0.0000E+00  0.3518E+03
      0.687  0.0000E+00  0.3518E+03
      0.789  0.2452E+01  0.3520E+03
      0.891  0.0000E+00  0.3520E+03
      0.993  0.0000E+00  0.3520E+03
      1.094  0.0000E+00  0.3520E+03
      1.196  0.0000E+00  0.3520E+03
      1.298  0.0000E+00  0.3520E+03
      1.400  0.0000E+00  0.3520E+03
      1.502  0.0000E+00  0.3520E+03
      1.604  0.0000E+00  0.3520E+03
      1.706  0.0000E+00  0.3520E+03
      1.808  0.0000E+00  0.3520E+03
      1.910  0.0000E+00  0.3520E+03
      2.012  0.0000E+00  0.3520E+03
      2.114  0.0000E+00  0.3520E+03
      2.216  0.0000E+00  0.3520E+03
      2.318  0.0000E+00  0.3520E+03
      2.420  0.0000E+00  0.3520E+03
      2.522  0.0000E+00  0.3520E+03
      2.624  0.0000E+00  0.3520E+03
      2.726  0.0000E+00  0.3520E+03
      2.828  0.7351E+01  0.3527E+03
      2.930  0.0000E+00  0.3528E+03
      3.032  0.1009E+02  0.3538E+03
      3.134  0.9807E+01  0.3558E+03
      3.236  0.1047E+01  0.3559E+03
      3.338  0.8007E+01  0.3601E+03
      3.440  0.2064E-01  0.3603E+03
      3.542  0.1961E+02  0.3632E+03
      3.644  0.7216E-05  0.3633E+03
      3.746  0.7355E+01  0.3640E+03
      3.848  0.0000E+00  0.3640E+03
      3.950  0.0000E+00  0.3640E+03
      4.051  0.0000E+00  0.3640E+03
      4.153  0.0000E+00  0.3640E+03
      4.255  0.0000E+00  0.3640E+03
      4.357  0.2953E+00  0.3640E+03
      4.459  0.6056E-05  0.3650E+03
      4.561  0.1131E+02  0.3662E+03
      4.663  0.1869E+02  0.3699E+03
      4.765  0.1136E+02  0.3729E+03
      4.867  0.2942E+02  0.3778E+03
      4.969  0.4821E+02  0.3827E+03
      5.071  0.2760E+02  0.3856E+03
      5.173  0.2452E+02  0.3882E+03
      5.275  0.0000E+00  0.3882E+03
      5.377  0.1596E-03  0.3883E+03
      5.479  0.9807E+01  0.3892E+03
      5.581  0.7327E+01  0.3900E+03
      5.683  0.0000E+00  0.3900E+03
      5.785  0.6256E-06  0.3900E+03
      5.887  0.4328E+02  0.3944E+03
      5.989  0.1685E+02  0.3962E+03
      6.091  0.6834E+00  0.3978E+03
      6.193  0.4412E+02  0.4042E+03
      6.295  0.3677E+02  0.4080E+03
      6.397  0.6847E+02  0.4150E+03
      6.499  0.1872E+02  0.4179E+03
      6.601  0.3432E+02  0.4225E+03
      6.703  0.6386E+02  0.4290E+03
      6.805  0.1716E+02  0.4315E+03
      6.906  0.4903E+01  0.4320E+03
      7.008  0.0000E+00  0.4320E+03
      7.110  0.0000E+00  0.4320E+03
      7.212  0.0000E+00  0.4320E+03
      7.314  0.0000E+00  0.4320E+03
      7.416  0.0000E+00  0.4320E+03
      7.518  0.0000E+00  0.4320E+03
      7.620  0.0000E+00  0.4320E+03
      7.722  0.0000E+00  0.4320E+03
      7.824  0.0000E+00  0.4320E+03
      7.926  0.0000E+00  0.4320E+03
      8.028  0.0000E+00  0.4320E+03
      8.130  0.0000E+00  0.4320E+03
      8.232  0.0000E+00  0.4320E+03
      8.23204301    -22.35752104  301      0.81407373      1.00000000
    -22.358  0.0000E+00  0.0000E+00  0.0000E+00
    -22.256  0.0000E+00  0.0000E+00  0.0000E+00
    -22.154  0.0000E+00  0.0000E+00  0.0000E+00
    -22.052  0.0000E+00  0.0000E+00  0.0000E+00
    -21.950  0.0000E+00  0.0000E+00  0.0000E+00
    -21.848  0.0000E+00  0.0000E+00  0.0000E+00
    -21.746  0.0000E+00  0.0000E+00  0.0000E+00
    -21.644  0.0000E+00  0.0000E+00  0.0000E+00
    -21.542  0.0000E+00  0.0000E+00  0.0000E+00
    -21.440  0.0000E+00  0.0000E+00  0.0000E+00
    -21.338  0.0000E+00  0.0000E+00  0.0000E+00
    -21.236  0.0000E+00  0.0000E+00  0.0000E+00
    -21.134  0.0000E+00  0.0000E+00  0.0000E+00
    -21.032  0.0000E+00  0.0000E+00  0.0000E+00
    -20.930  0.1741E+02  0.1021E-06  0.1244E-04
    -20.828  0.0000E+00  0.0000E+00  0.0000E+00
    -20.726  0.0000E+00  0.0000E+00  0.0000E+00
    -20.624  0.0000E+00  0.0000E+00  0.0000E+00
    -20.522  0.0000E+00  0.0000E+00  0.0000E+00
    -20.420  0.0000E+00  0.0000E+00  0.0000E+00
    -20.318  0.0000E+00  0.0000E+00  0.0000E+00
    -20.216  0.0000E+00  0.0000E+00  0.0000E+00
    -20.114  0.0000E+00  0.0000E+00  0.0000E+00
    -20.012  0.0000E+00  0.0000E+00  0.0000E+00
    -19.910  0.0000E+00  0.0000E+00  0.0000E+00
    -19.808  0.0000E+00  0.0000E+00  0.0000E+00
    -19.706  0.0000E+00  0.0000E+00  0.0000E+00
    -19.604  0.0000E+00  0.0000E+00  0.0000E+00
    -19.502  0.0000E+00  0.0000E+00  0.0000E+00
    -19.401  0.0000E+00  0.0000E+00  0.0000E+00
    -19.299  0.0000E+00  0.0000E+00  0.0000E+00
    -19.197  0.0000E+00  0.0000E+00  0.0000E+00
    -19.095  0.0000E+00  0.0000E+00  0.0000E+00
    -18.993  0.0000E+00  0.0000E+00  0.0000E+00
    -18.891  0.0000E+00  0.0000E+00  0.0000E+00
    -18.789  0.0000E+00  0.0000E+00  0.0000E+00
    -18.687  0.0000E+00  0.0000E+00  0.0000E+00
    -18.585  0.0000E+00  0.0000E+00  0.0000E+00
    -18.483  0.0000E+00  0.0000E+00  0.0000E+00
    -18.381  0.0000E+00  0.0000E+00  0.0000E+00
    -18.279  0.0000E+00  0.0000E+00  0.0000E+00
    -18.177  0.0000E+00  0.0000E+00  0.0000E+00
    -18.075  0.0000E+00  0.0000E+00  0.0000E+00
    -17.973  0.0000E+00  0.0000E+00  0.0000E+00
    -17.871  0.0000E+00  0.0000E+00  0.0000E+00
    -17.769  0.0000E+00  0.0000E+00  0.0000E+00
    -17.667  0.0000E+00  0.0000E+00  0.0000E+00
    -17.565  0.0000E+00  0.0000E+00  0.0000E+00
    -17.463  0.0000E+00  0.0000E+00  0.0000E+00
    -17.361  0.0000E+00  0.0000E+00  0.0000E+00
    -17.259  0.0000E+00  0.0000E+00  0.0000E+00
    -17.157  0.0000E+00  0.0000E+00  0.0000E+00
    -17.055  0.0000E+00  0.0000E+00  0.0000E+00
    -16.953  0.0000E+00  0.0000E+00  0.0000E+00
    -16.851  0.0000E+00  0.0000E+00  0.0000E+00
    -16.749  0.0000E+00  0.0000E+00  0.0000E+00
    -16.647  0.0000E+00  0.0000E+00  0.0000E+00
    -16.546  0.0000E+00  0.0000E+00  0.0000E+00
    -16.444  0.5531E-23  0.2637E-33  0.4684E-22
    -16.342  0.2348E-04  0.1356E-04  0.3613E-05
    -16.240  0.1821E-04  0.5358E-04  0.6278E-05
    -16.138  0.2900E-04  0.1972E-04  0.2040E-05
    -16.036  0.0000E+00  0.0000E+00  0.0000E+00
    -15.934  0.0000E+00  0.0000E+00  0.0000E+00
    -15.832  0.0000E+00  0.0000E+00  0.0000E+00
    -15.730  0.0000E+00  0.0000E+00  0.0000E+00
    -15.628  0.0000E+00  0.0000E+00  0.0000E+00
    -15.526  0.0000E+00  0.0000E+00  0.0000E+00
    -15.424  0.0000E+00  0.0000E+00  0.0000E+00
    -15.322  0.0000E+00  0.0000E+00  0.0000E+00
    -15.220  0.0000E+00  0.0000E+00  0.0000E+00
    -15.118  0.0000E+00  0.0000E+00  0.0000E+00
    -15.016  0.0000E+00  0.0000E+00  0.0000E+00
    -14.914  0.0000E+00  0.0000E+00  0.0000E+00
    -14.812  0.0000E+00  0.0000E+00  0.0000E+00
    -14.710  0.0000E+00  0.0000E+00  0.0000E+00
    -14.608  0.0000E+00  0.0000E+00  0.0000E+00
    -14.506  0.0000E+00  0.0000E+00  0.0000E+00
    -14.404  0.1886E-09  0.1077E-24  0.9603E-12
    -14.302  0.1165E-02  0.1913E-03  0.7402E-05
    -14.200  0.2026E-02  0.1725E-02  0.3455E-04
    -14.098  0.6553E-13  0.3285E-02  0.7714E-04
    -13.996  0.3178E-03  0.1387E-02  0.1087E-03
    -13.894  0.6142E-13  0.7310E-03  0.3293E-03
    -13.792  0.1112E-02  0.3678E-02  0.4452E-03
    -13.690  0.4130E-03  0.1539E-02  0.8101E-04
    -13.589  0.0000E+00  0.0000E+00  0.0000E+00
    -13.487  0.0000E+00  0.0000E+00  0.0000E+00
    -13.385  0.0000E+00  0.0000E+00  0.0000E+00
    -13.283  0.0000E+00  0.0000E+00  0.0000E+00
    -13.181  0.0000E+00  0.0000E+00  0.0000E+00
    -13.079  0.0000E+00  0.0000E+00  0.0000E+00
    -12.977  0.0000E+00  0.0000E+00  0.0000E+00
    -12.875  0.0000E+00  0.0000E+00  0.0000E+00
    -12.773  0.0000E+00  0.0000E+00  0.0000E+00
    -12.671  0.0000E+00  0.0000E+00  0.0000E+00
    -12.569  0.0000E+00  0.0000E+00  0.0000E+00
    -12.467  0.0000E+00  0.0000E+00  0.0000E+00
    -12.365  0.0000E+00  0.0000E+00  0.0000E+00
    -12.263  0.0000E+00  0.0000E+00  0.0000E+00
    -12.161  0.0000E+00  0.0000E+00  0.0000E+00
    -12.059  0.0000E+00  0.0000E+00  0.0000E+00
    -11.957  0.0000E+00  0.0000E+00  0.0000E+00
    -11.855  0.0000E+00  0.0000E+00  0.0000E+00
    -11.753  0.0000E+00  0.0000E+00  0.0000E+00
    -11.651  0.0000E+00  0.0000E+00  0.0000E+00
    -11.549  0.0000E+00  0.0000E+00  0.0000E+00
    -11.447  0.0000E+00  0.0000E+00  0.0000E+00
    -11.345  0.0000E+00  0.0000E+00  0.0000E+00
    -11.243  0.0000E+00  0.0000E+00  0.0000E+00
    -11.141  0.0000E+00  0.0000E+00  0.0000E+00
    -11.039  0.0000E+00  0.0000E+00  0.0000E+00
    -10.937  0.0000E+00  0.0000E+00  0.0000E+00
    -10.835  0.0000E+00  0.0000E+00  0.0000E+00
    -10.733  0.0000E+00  0.0000E+00  0.0000E+00
    -10.632  0.0000E+00  0.0000E+00  0.0000E+00
    -10.530  0.0000E+00  0.0000E+00  0.0000E+00
    -10.428  0.0000E+00  0.0000E+00  0.0000E+00
    -10.326  0.0000E+00  0.0000E+00  0.0000E+00
    -10.224  0.0000E+00  0.0000E+00  0.0000E+00
    -10.122  0.0000E+00  0.0000E+00  0.0000E+00
    -10.020  0.0000E+00  0.0000E+00  0.0000E+00
     -9.918  0.0000E+00  0.0000E+00  0.0000E+00
     -9.816  0.0000E+00  0.0000E+00  0.0000E+00
     -9.714  0.0000E+00  0.0000E+00  0.0000E+00
     -9.612  0.0000E+00  0.0000E+00  0.0000E+00
     -9.510  0.0000E+00  0.0000E+00  0.0000E+00
     -9.408  0.0000E+00  0.0000E+00  0.0000E+00
     -9.306  0.0000E+00  0.0000E+00  0.0000E+00
     -9.204  0.0000E+00  0.0000E+00  0.0000E+00
     -9.102  0.0000E+00  0.0000E+00  0.0000E+00
     -9.000  0.0000E+00  0.0000E+00  0.0000E+00
     -8.898  0.0000E+00  0.0000E+00  0.0000E+00
     -8.796  0.0000E+00  0.0000E+00  0.0000E+00
     -8.694  0.0000E+00  0.0000E+00  0.0000E+00
     -8.592  0.0000E+00  0.0000E+00  0.0000E+00
     -8.490  0.0000E+00  0.0000E+00  0.0000E+00
     -8.388  0.0000E+00  0.0000E+00  0.0000E+00
     -8.286  0.0000E+00  0.0000E+00  0.0000E+00
     -8.184  0.1896E-19  0.4411E-18  0.3942E-18
     -8.082  0.0000E+00  0.0000E+00  0.0000E+00
     -7.980  0.2155E-19  0.1641E-17  0.1351E-05
     -7.878  0.2876E-19  0.1159E-17  0.1591E-05
     -7.776  0.2455E-23  0.1098E-07  0.2954E-10
     -7.675  0.5498E-17  0.2525E-01  0.2887E-04
     -7.573  0.1425E-16  0.2573E-16  0.1357E-05
     -7.471  0.1313E-05  0.1328E-01  0.2469E-05
     -7.369  0.2864E-05  0.5120E+01  0.1765E-04
     -7.267  0.1177E-04  0.2922E+02  0.3074E-04
     -7.165  0.2288E-08  0.4256E-05  0.3522E-08
     -7.063  0.3248E-04  0.7474E-01  0.4551E-04
     -6.961  0.8737E-18  0.1990E-01  0.2117E-17
     -6.859  0.3819E-14  0.1139E-12  0.9195E-15
     -6.757  0.1543E-04  0.4604E-03  0.3715E-05
     -6.655  0.2239E-04  0.9910E-02  0.4646E-05
     -6.553  0.0000E+00  0.0000E+00  0.0000E+00
     -6.451  0.0000E+00  0.0000E+00  0.0000E+00
     -6.349  0.6199E-05  0.6816E-17  0.2225E-05
     -6.247  0.0000E+00  0.0000E+00  0.0000E+00
     -6.145  0.0000E+00  0.0000E+00  0.0000E+00
     -6.043  0.0000E+00  0.0000E+00  0.0000E+00
     -5.941  0.0000E+00  0.0000E+00  0.0000E+00
     -5.839  0.0000E+00  0.0000E+00  0.0000E+00
     -5.737  0.0000E+00  0.0000E+00  0.0000E+00
     -5.635  0.0000E+00  0.0000E+00  0.0000E+00
     -5.533  0.0000E+00  0.0000E+00  0.0000E+00
     -5.431  0.0000E+00  0.0000E+00  0.0000E+00
     -5.329  0.0000E+00  0.0000E+00  0.0000E+00
     -5.227  0.0000E+00  0.0000E+00  0.0000E+00
     -5.125  0.0000E+00  0.0000E+00  0.0000E+00
     -5.023  0.0000E+00  0.0000E+00  0.0000E+00
     -4.921  0.0000E+00  0.0000E+00  0.0000E+00
     -4.820  0.0000E+00  0.0000E+00  0.0000E+00
     -4.718  0.0000E+00  0.0000E+00  0.0000E+00
     -4.616  0.0000E+00  0.0000E+00  0.0000E+00
     -4.514  0.0000E+00  0.0000E+00  0.0000E+00
     -4.412  0.0000E+00  0.0000E+00  0.0000E+00
     -4.310  0.0000E+00  0.0000E+00  0.0000E+00
     -4.208  0.0000E+00  0.0000E+00  0.0000E+00
     -4.106  0.0000E+00  0.0000E+00  0.0000E+00
     -4.004  0.0000E+00  0.0000E+00  0.0000E+00
     -3.902  0.0000E+00  0.0000E+00  0.0000E+00
     -3.800  0.0000E+00  0.0000E+00  0.0000E+00
     -3.698  0.0000E+00  0.0000E+00  0.0000E+00
     -3.596  0.0000E+00  0.0000E+00  0.0000E+00
     -3.494  0.1434E-26  0.2067E-10  0.7411E-25
     -3.392  0.4337E-18  0.7872E-02  0.1426E-03
     -3.290  0.2063E-15  0.4975E-02  0.4623E-03
     -3.188  0.2706E-15  0.1024E-01  0.1313E-02
     -3.086  0.2242E-16  0.1001E-15  0.5932E-03
     -2.984  0.2347E-17  0.1455E-17  0.4141E-16
     -2.882  0.0000E+00  0.0000E+00  0.0000E+00
     -2.780  0.0000E+00  0.0000E+00  0.0000E+00
     -2.678  0.3312E-08  0.1554E-06  0.4727E-08
     -2.576  0.2783E-03  0.3283E-01  0.7957E-03
     -2.474  0.5530E-04  0.1454E-01  0.1901E-02
     -2.372  0.5323E-16  0.4198E-02  0.2645E-02
     -2.270  0.3678E-02  0.1984E-01  0.2062E-02
     -2.168  0.3906E-02  0.3875E-02  0.2677E-02
     -2.066  0.9924E-03  0.2189E-03  0.4839E-03
     -1.964  0.2993E-01  0.3984E-01  0.4608E-02
     -1.863  0.8522E-03  0.3057E-01  0.2046E-03
     -1.761  0.2308E-02  0.1105E+00  0.3619E-02
     -1.659  0.2103E-03  0.4884E-02  0.5385E-03
     -1.557  0.4694E-02  0.1207E+00  0.1189E-01
     -1.455  0.4577E-05  0.3279E-01  0.7040E-02
     -1.353  0.1244E-02  0.1064E-01  0.1976E-01
     -1.251  0.1461E-02  0.7924E-01  0.1220E-01
     -1.149  0.4488E-02  0.4877E-01  0.6763E-02
     -1.047  0.7128E-03  0.6432E-01  0.1785E-01
     -0.945  0.2717E-03  0.1023E-01  0.1792E-02
     -0.843  0.5677E-03  0.1473E-01  0.4119E-02
     -0.741  0.1948E-04  0.4810E-02  0.4283E-03
     -0.639  0.1248E-16  0.7654E-03  0.1043E-15
     -0.537  0.2401E-27  0.3077E-15  0.6699E-16
     -0.435  0.1400E-14  0.1865E-02  0.3470E-03
     -0.333  0.1016E-14  0.6237E-03  0.1139E-03
     -0.231  0.5519E-17  0.8946E-04  0.4782E-03
     -0.129  0.3645E-15  0.7371E-04  0.2728E-03
     -0.027  0.7426E-29  0.2956E-29  0.6424E-18
      0.075  0.1997E-14  0.7947E-15  0.1727E-03
      0.177  0.1865E-15  0.2924E-16  0.4908E-03
      0.279  0.4790E-16  0.5912E-15  0.8078E-05
      0.381  0.0000E+00  0.0000E+00  0.0000E+00
      0.483  0.0000E+00  0.0000E+00  0.0000E+00
      0.585  0.0000E+00  0.0000E+00  0.0000E+00
      0.687  0.0000E+00  0.0000E+00  0.0000E+00
      0.789  0.9482E-17  0.3365E-17  0.9520E-16
      0.891  0.0000E+00  0.0000E+00  0.0000E+00
      0.993  0.0000E+00  0.0000E+00  0.0000E+00
      1.094  0.0000E+00  0.0000E+00  0.0000E+00
      1.196  0.0000E+00  0.0000E+00  0.0000E+00
      1.298  0.0000E+00  0.0000E+00  0.0000E+00
      1.400  0.0000E+00  0.0000E+00  0.0000E+00
      1.502  0.0000E+00  0.0000E+00  0.0000E+00
      1.604  0.0000E+00  0.0000E+00  0.0000E+00
      1.706  0.0000E+00  0.0000E+00  0.0000E+00
      1.808  0.0000E+00  0.0000E+00  0.0000E+00
      1.910  0.0000E+00  0.0000E+00  0.0000E+00
      2.012  0.0000E+00  0.0000E+00  0.0000E+00
      2.114  0.0000E+00  0.0000E+00  0.0000E+00
      2.216  0.0000E+00  0.0000E+00  0.0000E+00
      2.318  0.0000E+00  0.0000E+00  0.0000E+00
      2.420  0.0000E+00  0.0000E+00  0.0000E+00
      2.522  0.0000E+00  0.0000E+00  0.0000E+00
      2.624  0.0000E+00  0.0000E+00  0.0000E+00
      2.726  0.0000E+00  0.0000E+00  0.0000E+00
      2.828  0.2987E-14  0.2784E-14  0.2656E-02
      2.930  0.0000E+00  0.0000E+00  0.0000E+00
      3.032  0.3533E-15  0.6113E-03  0.1833E-02
      3.134  0.2099E-15  0.1887E-03  0.1589E-02
      3.236  0.8381E-06  0.2290E-03  0.4822E-05
      3.338  0.1798E-15  0.4812E-03  0.1862E-14
      3.440  0.9679E-06  0.1881E-05  0.1689E-05
      3.542  0.9869E-03  0.1028E-02  0.1318E-02
      3.644  0.1327E-09  0.9139E-23  0.6459E-09
      3.746  0.4710E-03  0.2820E-14  0.1167E-02
      3.848  0.0000E+00  0.0000E+00  0.0000E+00
      3.950  0.0000E+00  0.0000E+00  0.0000E+00
      4.051  0.0000E+00  0.0000E+00  0.0000E+00
      4.153  0.0000E+00  0.0000E+00  0.0000E+00
      4.255  0.0000E+00  0.0000E+00  0.0000E+00
      4.357  0.8249E-16  0.1208E-14  0.2423E-03
      4.459  0.2132E-20  0.4430E-09  0.1333E-08
      4.561  0.5011E-14  0.8542E-03  0.2643E-02
      4.663  0.1404E-01  0.2534E-02  0.1528E-01
      4.765  0.8358E-03  0.3414E-02  0.3403E-02
      4.867  0.1080E-06  0.3093E-02  0.2012E-01
      4.969  0.1476E-01  0.1361E-01  0.1734E-01
      5.071  0.2358E-01  0.1192E-01  0.2516E-02
      5.173  0.2498E-01  0.1207E-01  0.1454E-01
      5.275  0.0000E+00  0.0000E+00  0.0000E+00
      5.377  0.3745E-06  0.1093E-06  0.1267E-06
      5.479  0.2301E-01  0.6715E-02  0.7787E-02
      5.581  0.7131E-02  0.8287E-03  0.3643E-01
      5.683  0.0000E+00  0.0000E+00  0.0000E+00
      5.785  0.4502E-10  0.1170E-10  0.3295E-10
      5.887  0.1282E+00  0.3139E-01  0.1803E+00
      5.989  0.4649E-03  0.8541E-02  0.1703E+00
      6.091  0.2690E-02  0.2982E-03  0.3429E-02
      6.193  0.2848E-01  0.1022E-01  0.3690E+00
      6.295  0.2584E-01  0.8964E-02  0.1741E+00
      6.397  0.9356E-01  0.2652E-01  0.6775E+00
      6.499  0.7799E-02  0.1524E-02  0.3707E+00
      6.601  0.3386E-01  0.5469E-01  0.3935E+00
      6.703  0.8650E-01  0.6865E-01  0.8922E+00
      6.805  0.5070E-02  0.1296E-01  0.2683E+00
      6.906  0.9222E-02  0.5507E-02  0.6186E-01
      7.008  0.0000E+00  0.0000E+00  0.0000E+00
      7.110  0.0000E+00  0.0000E+00  0.0000E+00
      7.212  0.0000E+00  0.0000E+00  0.0000E+00
      7.314  0.0000E+00  0.0000E+00  0.0000E+00
      7.416  0.0000E+00  0.0000E+00  0.0000E+00
      7.518  0.0000E+00  0.0000E+00  0.0000E+00
      7.620  0.0000E+00  0.0000E+00  0.0000E+00
      7.722  0.0000E+00  0.0000E+00  0.0000E+00
      7.824  0.0000E+00  0.0000E+00  0.0000E+00
      7.926  0.0000E+00  0.0000E+00  0.0000E+00
      8.028  0.0000E+00  0.0000E+00  0.0000E+00
      8.130  0.0000E+00  0.0000E+00  0.0000E+00
      8.232  0.0000E+00  0.0000E+00  0.0000E+00
      8.23204301    -22.35752104  301      0.81407373      1.00000000
    -22.358  0.0000E+00  0.0000E+00  0.0000E+00
    -22.256  0.0000E+00  0.0000E+00  0.0000E+00
    -22.154  0.0000E+00  0.0000E+00  0.0000E+00
    -22.052  0.0000E+00  0.0000E+00  0.0000E+00
    -21.950  0.0000E+00  0.0000E+00  0.0000E+00
    -21.848  0.0000E+00  0.0000E+00  0.0000E+00
    -21.746  0.0000E+00  0.0000E+00  0.0000E+00
    -21.644  0.0000E+00  0.0000E+00  0.0000E+00
    -21.542  0.0000E+00  0.0000E+00  0.0000E+00
    -21.440  0.0000E+00  0.0000E+00  0.0000E+00
    -21.338  0.0000E+00  0.0000E+00  0.0000E+00
    -21.236  0.0000E+00  0.0000E+00  0.0000E+00
    -21.134  0.0000E+00  0.0000E+00  0.0000E+00
    -21.032  0.0000E+00  0.0000E+00  0.0000E+00
    -20.930  0.1741E+02  0.1021E-06  0.1244E-04
    -20.828  0.0000E+00  0.0000E+00  0.0000E+00
    -20.726  0.0000E+00  0.0000E+00  0.0000E+00
    -20.624  0.0000E+00  0.0000E+00  0.0000E+00
    -20.522  0.0000E+00  0.0000E+00  0.0000E+00
    -20.420  0.0000E+00  0.0000E+00  0.0000E+00
    -20.318  0.0000E+00  0.0000E+00  0.0000E+00
    -20.216  0.0000E+00  0.0000E+00  0.0000E+00
    -20.114  0.0000E+00  0.0000E+00  0.0000E+00
    -20.012  0.0000E+00  0.0000E+00  0.0000E+00
    -19.910  0.0000E+00  0.0000E+00  0.0000E+00
    -19.808  0.0000E+00  0.0000E+00  0.0000E+00
    -19.706  0.0000E+00  0.0000E+00  0.0000E+00
    -19.604  0.0000E+00  0.0000E+00  0.0000E+00
    -19.502  0.0000E+00  0.0000E+00  0.0000E+00
    -19.401  0.0000E+00  0.0000E+00  0.0000E+00
    -19.299  0.0000E+00  0.0000E+00  0.0000E+00
    -19.197  0.0000E+00  0.0000E+00  0.0000E+00
    -19.095  0.0000E+00  0.0000E+00  0.0000E+00
    -18.993  0.0000E+00  0.0000E+00  0.0000E+00
    -18.891  0.0000E+00  0.0000E+00  0.0000E+00
    -18.789  0.0000E+00  0.0000E+00  0.0000E+00
    -18.687  0.0000E+00  0.0000E+00  0.0000E+00
    -18.585  0.0000E+00  0.0000E+00  0.0000E+00
    -18.483  0.0000E+00  0.0000E+00  0.0000E+00
    -18.381  0.0000E+00  0.0000E+00  0.0000E+00
    -18.279  0.0000E+00  0.0000E+00  0.0000E+00
    -18.177  0.0000E+00  0.0000E+00  0.0000E+00
    -18.075  0.0000E+00  0.0000E+00  0.0000E+00
    -17.973  0.0000E+00  0.0000E+00  0.0000E+00
    -17.871  0.0000E+00  0.0000E+00  0.0000E+00
    -17.769  0.0000E+00  0.0000E+00  0.0000E+00
    -17.667  0.0000E+00  0.0000E+00  0.0000E+00
    -17.565  0.0000E+00  0.0000E+00  0.0000E+00
    -17.463  0.0000E+00  0.0000E+00  0.0000E+00
    -17.361  0.0000E+00  0.0000E+00  0.0000E+00
    -17.259  0.0000E+00  0.0000E+00  0.0000E+00
    -17.157  0.0000E+00  0.0000E+00  0.0000E+00
    -17.055  0.0000E+00  0.0000E+00  0.0000E+00
    -16.953  0.0000E+00  0.0000E+00  0.0000E+00
    -16.851  0.0000E+00  0.0000E+00  0.0000E+00
    -16.749  0.0000E+00  0.0000E+00  0.0000E+00
    -16.647  0.0000E+00  0.0000E+00  0.0000E+00
    -16.546  0.0000E+00  0.0000E+00  0.0000E+00
    -16.444  0.5531E-23  0.2261E-33  0.4684E-22
    -16.342  0.2348E-04  0.1356E-04  0.3613E-05
    -16.240  0.1821E-04  0.5358E-04  0.6278E-05
    -16.138  0.2900E-04  0.1972E-04  0.2040E-05
    -16.036  0.0000E+00  0.0000E+00  0.0000E+00
    -15.934  0.0000E+00  0.0000E+00  0.0000E+00
    -15.832  0.0000E+00  0.0000E+00  0.0000E+00
    -15.730  0.0000E+00  0.0000E+00  0.0000E+00
    -15.628  0.0000E+00  0.0000E+00  0.0000E+00
    -15.526  0.0000E+00  0.0000E+00  0.0000E+00
    -15.424  0.0000E+00  0.0000E+00  0.0000E+00
    -15.322  0.0000E+00  0.0000E+00  0.0000E+00
    -15.220  0.0000E+00  0.0000E+00  0.0000E+00
    -15.118  0.0000E+00  0.0000E+00  0.0000E+00
    -15.016  0.0000E+00  0.0000E+00  0.0000E+00
    -14.914  0.0000E+00  0.0000E+00  0.0000E+00
    -14.812  0.0000E+00  0.0000E+00  0.0000E+00
    -14.710  0.0000E+00  0.0000E+00  0.0000E+00
    -14.608  0.0000E+00  0.0000E+00  0.0000E+00
    -14.506  0.0000E+00  0.0000E+00  0.0000E+00
    -14.404  0.1886E-09  0.1053E-24  0.9603E-12
    -14.302  0.1165E-02  0.1913E-03  0.7402E-05
    -14.200  0.2026E-02  0.1725E-02  0.3455E-04
    -14.098  0.6569E-13  0.3285E-02  0.7714E-04
    -13.996  0.3178E-03  0.1387E-02  0.1087E-03
    -13.894  0.6141E-13  0.7310E-03  0.3293E-03
    -13.792  0.1112E-02  0.3678E-02  0.4452E-03
    -13.690  0.4130E-03  0.1539E-02  0.8101E-04
    -13.589  0.0000E+00  0.0000E+00  0.0000E+00
    -13.487  0.0000E+00  0.0000E+00  0.0000E+00
    -13.385  0.0000E+00  0.0000E+00  0.0000E+00
    -13.283  0.0000E+00  0.0000E+00  0.0000E+00