 running on   64 total cores
 distrk:  each k-point on   64 cores,    1 groups
 distr:  one band on    8 cores,    8 groups
 using from now: INCAR     
 vasp.5.4.4.18Apr17-6-g9f103f2a35 (build Jun 22 2020 09:27:21) complex           
 POSCAR found type information on POSCAR  Cs Pb Br
 POSCAR found :  3 types and      40 ions
 scaLAPACK will be used
 LDA part: xc-table for Pade appr. of Perdew
 POSCAR found type information on POSCAR  Cs Pb Br
 POSCAR found :  3 types and      40 ions
 POSCAR, INCAR and KPOINTS ok, starting setup
 FFT: planning ...
 WAVECAR not read
 entering main loop
       N       E                     dE             d eps       ncg     rms          rms(c)
DAV:   1     0.134534658718E+04    0.13453E+04   -0.11289E+05  2680   0.958E+02
DAV:   2    -0.113042266512E+04   -0.24758E+04   -0.23855E+04  3128   0.295E+02
DAV:   3    -0.149544454049E+04   -0.36502E+03   -0.36287E+03  3480   0.135E+02
DAV:   4    -0.150795733687E+04   -0.12513E+02   -0.12471E+02  3120   0.325E+01
DAV:   5    -0.150851361835E+04   -0.55628E+00   -0.55598E+00  3416   0.534E+00    0.103E+01
DAV:   6    -0.142958383735E+04    0.78930E+02   -0.23031E+01  3368   0.283E+01    0.734E+00
DAV:   7    -0.142909987327E+04    0.48396E+00   -0.76664E+00  3192   0.494E+00    0.363E+00
DAV:   8    -0.142928125206E+04   -0.18138E+00   -0.37409E-01  3168   0.176E+00    0.209E+00
DAV:   9    -0.142936327944E+04   -0.82027E-01   -0.15671E-01  2848   0.120E+00    0.469E-01
DAV:  10    -0.142936452683E+04   -0.12474E-02   -0.92581E-03  3688   0.338E-01    0.271E-01
DAV:  11    -0.142936738662E+04   -0.28598E-02   -0.27168E-03  2928   0.161E-01    0.963E-02
DAV:  12    -0.142936808960E+04   -0.70299E-03   -0.95982E-04  2896   0.970E-02    0.382E-02
DAV:  13    -0.142936813682E+04   -0.47215E-04   -0.78816E-05  3264   0.240E-02    0.136E-02
DAV:  14    -0.142936815022E+04   -0.13397E-04   -0.94273E-06  2792   0.553E-03    0.548E-03
DAV:  15    -0.142936814862E+04    0.15968E-05   -0.10217E-06  1736   0.295E-03    0.109E-03
DAV:  16    -0.142936814297E+04    0.56495E-05   -0.29106E-07  1704   0.191E-03    0.662E-04
DAV:  17    -0.142936813887E+04    0.40973E-05   -0.62594E-08  1648   0.102E-03    0.474E-04
DAV:  18    -0.142936813894E+04   -0.62470E-07   -0.50083E-08  1656   0.650E-04
   1 F= -.14293681E+04 E0= -.14293681E+04  d E =-.511293E-19
Application 1868164 resources: utime ~23496s, stime ~231s, Rss ~128336, inblocks ~1334, outblocks ~272464
