CsPbBr3 cubic bulk                      
           1
     8.284797    0.000000    0.000000
     0.000000   11.698080    0.000000
     0.000000    0.000000    8.320320
   Cs   Pb   Br
   4   4  12
Direct configuration=     1
   0.05238929  0.25000000  0.48823903
   0.44761071  0.75000000  0.98823903
   0.55238929  0.25000000  0.01176097
   0.94761071  0.75000000  0.51176097
   0.00000000  0.00000000  0.00000000
   0.50000000  0.00000000  0.50000000
   0.50000000  0.50000000  0.50000000
   0.00000000  0.50000000  0.00000000
   0.50687036  0.75000000  0.42797195
   0.99312964  0.25000000  0.92797195
   0.00687036  0.75000000  0.07202805
   0.49312964  0.25000000  0.57202805
   0.29230234  0.46365722  0.20801315
   0.20769766  0.53634278  0.70801315
   0.79230234  0.03634278  0.29198685
   0.70769766  0.96365722  0.79198685
   0.29230234  0.03634278  0.20801315
   0.20769766  0.96365722  0.70801315
   0.70769766  0.53634278  0.79198685
   0.79230234  0.46365722  0.29198685
