 vasp.5.4.4.18Apr17-6-g9f103f2a35 (build Jun 22 2020 09:27:21) complex           
 executed on tx2_gcc-7.3_libsci-1 date 2021.10.11  23:15:42
 running on   64 total cores
 distrk:  each k-point on   64 cores,    1 groups
 distr:  one band on NCORES_PER_BAND=   8 cores,    8 groups


--------------------------------------------------------------------------------------------------------


 INCAR:
 POTCAR:    PAW_PBE Cs_sv 08Apr2002               
 POTCAR:    PAW_PBE Pb_d 06Sep2000                
 POTCAR:    PAW_PBE Br 06Sep2000                  
 POTCAR:    PAW_PBE Cs_sv 08Apr2002               
   SHA256 =  c1463496f0f6037ed62c6012a8013a89ee9ad6ffb38599dcd6c079e7ed31779b Cs
   COPYR  = (c) Copyright 08Apr2002 Georg Kresse                                
   COPYR  = This file is part of the software VASP. Any use, copying, and all ot
   COPYR  = If you do not have a valid VASP license, you may not use, copy or di
   VRHFIN =Cs: 5s5p6s                                                           
   LEXCH  = PE                                                                  
   EATOM  =   555.6835 eV,   40.8416 Ry                                         
                                                                                
   TITEL  = PAW_PBE Cs_sv 08Apr2002                                             
   LULTRA =        F    use ultrasoft PP ?                                      
   IUNSCR =        1    unscreen: 0-lin 1-nonlin 2-no                           
   RPACOR =    2.200    partial core radius                                     
   POMASS =  132.900; ZVAL   =    9.000    mass and valenz                      
   RCORE  =    2.500    outmost cutoff radius                                   
   RWIGS  =    2.500; RWIGS  =    1.323    wigner-seitz radius (au A)           
   ENMAX  =  220.318; ENMIN  =  165.238 eV                                      
   RCLOC  =    2.207    cutoff for local pot                                    
   LCOR   =        T    correct aug charges                                     
   LPAW   =        T    paw PP                                                  
   EAUG   =  407.933                                                            
   DEXC   =    0.000                                                            
   RMAX   =    2.554    core radius for proj-oper                               
   RAUG   =    1.300    factor for augmentation sphere                          
   RDEP   =    2.590    radius for radial grids                                 
   RDEPT  =    2.117    core radius for aug-charge                              
                                                                                
   Atomic configuration                                                         
   13 entries                                                                   
     n  l   j            E        occ.                                          
     1  0  0.50    -35790.1377   2.0000                                         
     2  0  0.50     -5613.6201   2.0000                                         
     2  1  1.50     -5035.0101   6.0000                                         
     3  0  0.50     -1167.0767   2.0000                                         
     3  1  1.50      -980.9754   6.0000                                         
     3  2  2.50      -708.0703  10.0000                                         
     4  0  0.50      -220.2386   2.0000                                         
     4  1  1.50      -160.7596   6.0000                                         
     4  2  2.50       -74.2354  10.0000                                         
     5  0  0.50       -26.7287   2.0000                                         
     6  0  0.50        -2.0862   1.0000                                         
     5  1  1.50       -13.5159   6.0000                                         
     5  2  2.50        -0.4136   0.0000                                         
   Description                                                                  
     l       E           TYP  RCUT    TYP  RCUT                                 
     0    -26.7287425     23  1.900                                             
     0     -2.0862306     23  1.900                                             
     1    -13.5158719     23  2.500                                             
     1     -2.7211652     23  2.500                                             
     2     -0.4136171     23  2.500                                             
  local pseudopotential read in
  partial core-charges read in
  partial kinetic energy density read in
  atomic valenz-charges read in
  non local Contribution for L=           0  read in
    real space projection operators read in
  non local Contribution for L=           0  read in
    real space projection operators read in
  non local Contribution for L=           1  read in
    real space projection operators read in
  non local Contribution for L=           1  read in
    real space projection operators read in
  non local Contribution for L=           2  read in
    real space projection operators read in
    PAW grid and wavefunctions read in

   number of l-projection  operators is LMAX  =           5
   number of lm-projection operators is LMMAX =          13

 POTCAR:    PAW_PBE Pb_d 06Sep2000                
   SHA256 =  fb885b08f0fba73a15f6a6b0e39bd200c13ec96ef97cf3ecd8e63bade5137abd Pb
   COPYR  = (c) Copyright 06Sep2000 Georg Kresse                                
   COPYR  = This file is part of the software VASP. Any use, copying, and all ot
   COPYR  = If you do not have a valid VASP license, you may not use, copy or di
   VRHFIN =Pb:                                                                  
   LEXCH  = PE                                                                  
   EATOM  =  1661.6185 eV,  122.1255 Ry                                         
                                                                                
   TITEL  = PAW_PBE Pb_d 06Sep2000                                              
   LULTRA =        F    use ultrasoft PP ?                                      
   IUNSCR =        1    unscreen: 0-lin 1-nonlin 2-no                           
   RPACOR =    2.200    partial core radius                                     
   POMASS =  207.200; ZVAL   =   14.000    mass and valenz                      
   RCORE  =    2.500    outmost cutoff radius                                   
   RWIGS  =    3.260; RWIGS  =    1.725    wigner-seitz radius (au A)           
   ENMAX  =  237.835; ENMIN  =  178.376 eV                                      
   ICORE  =        3    local potential                                         
   LCOR   =        T    correct aug charges                                     
   LPAW   =        T    paw PP                                                  
   EAUG   =  391.914                                                            
   DEXC   =    0.000                                                            
   RMAX   =    2.565    core radius for proj-oper                               
   RAUG   =    1.300    factor for augmentation sphere                          
   RDEP   =    2.643    radius for radial grids                                 
   RDEPT  =    2.092    core radius for aug-charge                              
                                                                                
   Atomic configuration                                                         
   16 entries                                                                   
     n  l   j            E        occ.                                          
     1  0  0.50    -88091.8466   2.0000                                         
     2  0  0.50    -15753.4197   2.0000                                         
     2  1  1.50    -13508.1797   6.0000                                         
     3  0  0.50     -3781.7194   2.0000                                         
     3  1  1.50     -3138.2529   6.0000                                         
     3  2  2.50     -2483.2977  10.0000                                         
     4  0  0.50      -856.2895   2.0000                                         
     4  1  1.50      -645.4942   6.0000                                         
     4  2  2.50      -401.8768  10.0000                                         
     4  3  3.50      -132.9059  14.0000                                         
     5  0  0.50      -144.0950   2.0000                                         
     5  1  1.50       -85.7879   6.0000                                         
     5  2  2.50       -21.1769  10.0000                                         
     6  0  0.50       -12.0372   2.0000                                         
     6  1  1.50        -3.4971   2.0000                                         
     5  3  2.50        -2.7212   0.0000                                         
   Description                                                                  
     l       E           TYP  RCUT    TYP  RCUT                                 
     2    -21.1768523     23  2.500                                             
     2      1.3605826     23  2.500                                             
     0    -12.0371562     23  2.500                                             
     0     13.6058260     23  2.500                                             
     1     -3.4971339     23  2.500                                             
     1     13.6058260     23  2.500                                             
     3     -1.3605826      7  2.500                                             
  local pseudopotential read in
  partial core-charges read in
  partial kinetic energy density read in
  atomic valenz-charges read in
  non local Contribution for L=           2  read in
    real space projection operators read in
  non local Contribution for L=           2  read in
    real space projection operators read in
  non local Contribution for L=           0  read in
    real space projection operators read in
  non local Contribution for L=           0  read in
    real space projection operators read in
  non local Contribution for L=           1  read in
    real space projection operators read in
  non local Contribution for L=           1  read in
    real space projection operators read in
    PAW grid and wavefunctions read in

   number of l-projection  operators is LMAX  =           6
   number of lm-projection operators is LMMAX =          18

 POTCAR:    PAW_PBE Br 06Sep2000                  
   SHA256 =  96a73d2954943bbee26f4990d676cc6c3bf44b8dd2c75cd4b3b825d8403f0103 Br
   COPYR  = (c) Copyright 06Sep2000 Georg Kresse                                
   COPYR  = This file is part of the software VASP. Any use, copying, and all ot
   COPYR  = If you do not have a valid VASP license, you may not use, copy or di
   VRHFIN =Br: s2p5                                                             
   LEXCH  = PE                                                                  
   EATOM  =   368.4488 eV,   27.0802 Ry                                         
                                                                                
   TITEL  = PAW_PBE Br 06Sep2000                                                
   LULTRA =        F    use ultrasoft PP ?                                      
   IUNSCR =        1    unscreen: 0-lin 1-nonlin 2-no                           
   RPACOR =    1.900    partial core radius                                     
   POMASS =   79.904; ZVAL   =    7.000    mass and valenz                      
   RCORE  =    2.100    outmost cutoff radius                                   
   RWIGS  =    2.200; RWIGS  =    1.164    wigner-seitz radius (au A)           
   ENMAX  =  216.285; ENMIN  =  162.214 eV                                      
   ICORE  =        3    local potential                                         
   LCOR   =        T    correct aug charges                                     
   LPAW   =        T    paw PP                                                  
   EAUG   =  503.852                                                            
   DEXC   =    0.000                                                            
   RMAX   =    2.139    core radius for proj-oper                               
   RAUG   =    1.300    factor for augmentation sphere                          
   RDEP   =    2.186    radius for radial grids                                 
   RDEPT  =    1.890    core radius for aug-charge                              
                                                                                
   Atomic configuration                                                         
   10 entries                                                                   
     n  l   j            E        occ.                                          
     1  0  0.50    -13316.2796   2.0000                                         
     2  0  0.50     -1732.8239   2.0000                                         
     2  1  1.50     -1528.2193   6.0000                                         
     3  0  0.50      -238.0460   2.0000                                         
     3  1  1.50      -173.4609   6.0000                                         
     3  2  2.50       -66.7132  10.0000                                         
     4  0  0.50       -20.1334   2.0000                                         
     4  1  0.50        -7.8591   5.0000                                         
     4  2  2.50        -8.1635   0.0000                                         
     4  3  2.50        -8.1635   0.0000                                         
   Description                                                                  
     l       E           TYP  RCUT    TYP  RCUT                                 
     0    -20.1333652     23  2.100                                             
     0    -21.4939478     23  2.100                                             
     1     -7.8591052     23  2.100                                             
     1     -3.1608434     23  2.100                                             
     2     -8.1634956     23  2.100                                             
     3     -1.3605826      7  2.100                                             
  local pseudopotential read in
  partial core-charges read in
  partial kinetic energy density read in
  atomic valenz-charges read in
  non local Contribution for L=           0  read in
    real space projection operators read in
  non local Contribution for L=           0  read in
    real space projection operators read in
  non local Contribution for L=           1  read in
    real space projection operators read in
  non local Contribution for L=           1  read in
    real space projection operators read in
  non local Contribution for L=           2  read in
    real space projection operators read in
    PAW grid and wavefunctions read in

   number of l-projection  operators is LMAX  =           5
   number of lm-projection operators is LMMAX =          13

 Optimization of the real space projectors (new method)

 maximal supplied QI-value         = 15.12
 optimisation between [QCUT,QGAM] = [  8.77, 17.69] = [ 21.53, 87.61] Ry 
 Optimized for a Real-space Cutoff    1.85 Angstroem

   l    n(q)    QCUT    max X(q) W(low)/X(q) W(high)/X(q)  e(spline) 
   0     10     8.768    25.322    0.81E-04    0.51E-04    0.48E-06
   0     10     8.768    99.187    0.78E-04    0.50E-04    0.47E-06
   1      9     8.768    11.761    0.21E-03    0.20E-03    0.37E-06
   1      9     8.768     8.275    0.24E-03    0.22E-03    0.41E-06
   2      9     8.768     3.829    0.23E-04    0.15E-03    0.18E-06
 Optimization of the real space projectors (new method)

 maximal supplied QI-value         = 15.12
 optimisation between [QCUT,QGAM] = [  8.77, 17.69] = [ 21.53, 87.61] Ry 
 Optimized for a Real-space Cutoff    1.59 Angstroem

   l    n(q)    QCUT    max X(q) W(low)/X(q) W(high)/X(q)  e(spline) 
   2      7     8.768     3.846    0.48E-04    0.11E-03    0.11E-06
   2      7     8.768     8.593    0.20E-03    0.22E-04    0.24E-06
   0      8     8.768    20.082    0.68E-04    0.88E-04    0.41E-07
   0      8     8.768     8.597    0.89E-04    0.13E-03    0.59E-07
   1      8     8.768    33.223    0.15E-03    0.53E-04    0.87E-07
   1      8     8.768    15.899    0.14E-03    0.44E-04    0.78E-07
 Optimization of the real space projectors (new method)

 maximal supplied QI-value         = 17.95
 optimisation between [QCUT,QGAM] = [  8.80, 17.59] = [ 21.67, 86.68] Ry 
 Optimized for a Real-space Cutoff    1.59 Angstroem

   l    n(q)    QCUT    max X(q) W(low)/X(q) W(high)/X(q)  e(spline) 
   0      8     8.797   175.082    0.82E-04    0.14E-03    0.89E-07
   0      8     8.797   174.004    0.79E-04    0.14E-03    0.86E-07
   1      8     8.797    54.315    0.16E-03    0.14E-04    0.30E-06
   1      8     8.797    42.441    0.16E-03    0.14E-04    0.30E-06
   2      7     8.797     3.596    0.92E-04    0.15E-03    0.85E-07
  PAW_PBE Cs_sv 08Apr2002               :
 energy of atom  1       EATOM= -555.6835
 kinetic energy error for atom=    0.0069 (will be added to EATOM!!)
  PAW_PBE Pb_d 06Sep2000                :
 energy of atom  2       EATOM=-1661.6185
 kinetic energy error for atom=    0.0498 (will be added to EATOM!!)
  PAW_PBE Br 06Sep2000                  :
 energy of atom  3       EATOM= -368.4488
 kinetic energy error for atom=    0.0072 (will be added to EATOM!!)


 POSCAR: Cs8 Pb8 Br23                            
  positions in direct lattice
  No initial velocities read in

 METAGGA = SCAN     LMAXTAU =  6    LMIXTAU =  F

 exchange correlation table for  LEXCH =        8
   RHO(1)=    0.500       N(1)  =     2000
   RHO(2)=  100.500       N(2)  =     4000

 VTST: version 3.2, (02/03/18)

 CHAIN: initializing optimizer
 
 OPT: Using VASP Conjugate-Gradient optimizer
 CHAIN: Read ICHAIN            0

 POSCAR: Cs8 Pb8 Br23                            
  positions in direct lattice
  No initial velocities read in



--------------------------------------------------------------------------------------------------------


 ion  position               nearest neighbor table
   1  0.251  0.237  0.194-
   2  0.777  0.245  0.718-
   3  0.767  0.763  0.259-
   4  0.194  0.749  0.772-
   5  0.297  0.251  0.731-
   6  0.787  0.246  0.227-
   7  0.736  0.752  0.805-
   8  0.215  0.753  0.289-
   9  0.999  0.001  0.998-  34 2.95  19 2.95  21 2.98  31 3.00  29 3.00  28 3.02
  10  0.500  0.003  0.487-  20 2.88  32 2.96  33 2.98  27 3.00  30 3.01
  11  0.494  0.001  0.994-  33 2.98  17 2.98  31 2.98  29 3.00  22 3.03  27 3.07
  12  0.005  0.000  0.505-  23 2.96  28 2.98  30 2.98  18 2.99  34 3.00  32 3.06
  13  0.501  0.505  0.002-  37 2.88  35 2.96  17 2.97  22 2.97  24 3.00
  14  0.005  0.494  0.505-  23 2.95  38 2.98  18 2.99  25 3.03  26 3.03  36 3.03
  15  1.000  0.498  0.001-  19 2.95  26 2.96  21 2.98  24 2.99  35 3.04  38 3.04
  16  0.506  0.488  0.507-  39 2.70  25 2.98  36 2.99  20 3.00  37 3.04
  17  0.466  0.752  0.953-  13 2.97  11 2.98
  18  0.979  0.747  0.489-  14 2.99  12 2.99
  19  0.969  0.250  0.977-  15 2.95   9 2.95
  20  0.455  0.242  0.454-  10 2.88  16 3.00
  21  0.018  0.750  0.032-   9 2.98  15 2.98
  22  0.519  0.255  0.037-  13 2.97  11 3.03
  23  0.038  0.247  0.545-  14 2.95  12 2.96
  24  0.248  0.470  0.955-  15 2.99  13 3.00
  25  0.751  0.454  0.458-  16 2.98  14 3.03
  26  0.945  0.529  0.752-  15 2.96  14 3.03
  27  0.547  0.033  0.741-  10 3.00  11 3.07
  28  0.037  0.023  0.255-  12 2.98   9 3.02
  29  0.748  0.978  0.040-  11 3.00   9 3.00
  30  0.256  0.959  0.548-  12 2.98  10 3.01
  31  0.244  0.030  0.939-  11 2.98   9 3.00
  32  0.747  0.030  0.449-  10 2.96  12 3.06
  33  0.436  0.973  0.238-  11 2.98  10 2.98
  34  0.944  0.969  0.750-   9 2.95  12 3.00
  35  0.750  0.529  0.056-  13 2.96  15 3.04
  36  0.260  0.533  0.553-  16 2.99  14 3.03
  37  0.553  0.475  0.765-  13 2.88  16 3.04
  38  0.051  0.470  0.257-  14 2.98  15 3.04
  39  0.503  0.663  0.358-  16 2.70


IMPORTANT INFORMATION: All symmetrisations will be switched off!
NOSYMM: (Re-)initialisation of all symmetry stuff for point group C_1.



 KPOINTS: 1x1x1                                   

Automatic generation of k-mesh.
Space group operators:
 irot       det(A)        alpha          n_x          n_y          n_z        tau_x        tau_y        tau_z
    1     1.000000     0.000001     1.000000     0.000000     0.000000     0.000000     0.000000     0.000000
 
 Subroutine IBZKPT returns following result:
 ===========================================
 
 Found      8 irreducible k-points:
 
 Following reciprocal coordinates:
            Coordinates               Weight
  0.000000  0.000000  0.000000      1.000000
  0.500000  0.000000  0.000000      1.000000
  0.000000  0.500000  0.000000      1.000000
  0.500000  0.500000  0.000000      1.000000
  0.000000  0.000000  0.500000      1.000000
  0.500000  0.000000  0.500000      1.000000
  0.000000  0.500000  0.500000      1.000000
  0.500000  0.500000  0.500000      1.000000
 
 Following cartesian coordinates:
            Coordinates               Weight
 -0.000000  0.000000  0.000000      1.000000
  0.029563  0.000000  0.031093      1.000000
 -0.000000  0.042626  0.000000      1.000000
  0.029563  0.042626  0.031093      1.000000
 -0.029563  0.000000  0.031093      1.000000
  0.000000  0.000000  0.062187      1.000000
 -0.029563  0.042626  0.031093      1.000000
  0.000000  0.042626  0.062187      1.000000
 


--------------------------------------------------------------------------------------------------------




 Dimension of arrays:
   k-points           NKPTS =      8   k-points in BZ     NKDIM =      8   number of bands    NBANDS=    208
   number of dos      NEDOS =    301   number of ions     NIONS =     39
   non local maximal  LDIM  =      6   non local SUM 2l+1 LMDIM =     18
   total plane-waves  NPLWV = 343000
   max r-space proj   IRMAX =   5734   max aug-charges    IRDMAX=  91523
   dimension x,y,z NGX =    70 NGY =   70 NGZ =   70
   dimension x,y,z NGXF=   140 NGYF=  140 NGZF=  140
   support grid    NGXF=   280 NGYF=  280 NGZF=  280
   ions per type =               8   8  23
   NGX,Y,Z   is equivalent  to a cutoff of   9.97,  9.92,  9.97 a.u.
   NGXF,Y,Z  is equivalent  to a cutoff of  19.95, 19.84, 19.95 a.u.

 SYSTEM =  CsPbBr3 cubic bulk                      
 POSCAR =  Cs8 Pb8 Br23                            

 Startparameter for this run:
   NWRITE =      2    write-flag & timer
   PREC   = accura    normal or accurate (medium, high low for compatibility)
   ISTART =      0    job   : 0-new  1-cont  2-samecut
   ICHARG =      2    charge: 1-file 2-atom 10-const
   ISPIN  =      1    spin polarized calculation?
   LNONCOLLINEAR =      F non collinear calculations
   LSORBIT =      F    spin-orbit coupling
   INIWAV =      1    electr: 0-lowe 1-rand  2-diag
   LASPH  =      T    aspherical Exc in radial PAW
   METAGGA=      F    non-selfconsistent MetaGGA calc.

 Electronic Relaxation 1
   ENCUT  =  300.0 eV  22.05 Ry    4.70 a.u.  16.48 16.57 16.48*2*pi/ulx,y,z
   ENINI  =  300.0     initial cutoff
   ENAUG  =  503.9 eV  augmentation charge cutoff
   NELM   =    200;   NELMIN=  2; NELMDL= -5     # of ELM steps 
   EDIFF  = 0.1E-05   stopping-criterion for ELM
   LREAL  =      T    real-space projection
   NLSPLINE    = F    spline interpolate recip. space projectors
   LCOMPAT=      F    compatible to vasp.4.4
   GGA_COMPAT  = T    GGA compatible to vasp.4.4-vasp.4.6
   LMAXPAW     = -100 max onsite density
   LMAXMIX     =    2 max onsite mixed and CHGCAR
   VOSKOWN=      0    Vosko Wilk Nusair interpolation
   ROPT   =   -0.00025  -0.00025  -0.00025
 Ionic relaxation
   EDIFFG = -.1E-01   stopping-criterion for IOM
   NSW    =      0    number of steps for IOM
   NBLOCK =      1;   KBLOCK =      1    inner block; outer block 
   IBRION =     -1    ionic relax: 0-MD 1-quasi-New 2-CG
   NFREE  =      1    steps in history (QN), initial steepest desc. (CG)
   ISIF   =      2    stress and relaxation
   IWAVPR =     10    prediction:  0-non 1-charg 2-wave 3-comb
   ISYM   =      0    0-nonsym 1-usesym 2-fastsym
   LCORR  =      T    Harris-Foulkes like correction to forces

   POTIM  = 0.5000    time-step for ionic-motion
   TEIN   =    0.0    initial temperature
   TEBEG  =    0.0;   TEEND  =   0.0 temperature during run
   SMASS  =  -3.00    Nose mass-parameter (am)
   estimated Nose-frequenzy (Omega)   =  0.10E-29 period in steps =****** mass=  -0.311E-26a.u.
   SCALEE = 1.0000    scale energy and forces
   NPACO  =    256;   APACO  = 16.0  distance and # of slots for P.C.
   PSTRESS=    0.0 pullay stress

  Mass of Ions in am
   POMASS = 132.90207.20 79.90
  Ionic Valenz
   ZVAL   =   9.00 14.00  7.00
  Atomic Wigner-Seitz radii
   RWIGS  =  -1.00 -1.00 -1.00
  virtual crystal weights 
   VCA    =   1.00  1.00  1.00
   NELECT =     344.0000    total number of electrons
   NUPDOWN=       0.0000    fix difference up-down

 DOS related values:
   EMIN   =  10.00;   EMAX   =-10.00  energy-range for DOS
   EFERMI =   0.00
   ISMEAR =     0;   SIGMA  =   0.01  broadening in eV -4-tet -1-fermi 0-gaus

 Electronic relaxation 2 (details)
   IALGO  =     38    algorithm
   LDIAG  =      T    sub-space diagonalisation (order eigenvalues)
   LSUBROT=      F    optimize rotation matrix (better conditioning)
   TURBO    =      0    0=normal 1=particle mesh
   IRESTART =      0    0=no restart 2=restart with 2 vectors
   NREBOOT  =      0    no. of reboots
   NMIN     =      0    reboot dimension
   EREF     =   0.00    reference energy to select bands
   IMIX   =      4    mixing-type and parameters
     AMIX     =   0.40;   BMIX     =  1.00
     AMIX_MAG =   1.60;   BMIX_MAG =  1.00
     AMIN     =   0.10
     WC   =   100.;   INIMIX=   1;  MIXPRE=   1;  MAXMIX= -45

 Intra band minimization:
   WEIMIN = 0.0000     energy-eigenvalue tresh-hold
   EBREAK =  0.12E-08  absolut break condition
   DEPER  =   0.30     relativ break condition  

   TIME   =   0.40     timestep for ELM

  volume/ion in A,a.u.               =      40.90       276.00
  Fermi-wavevector in a.u.,A,eV,Ry     =   0.981747  1.855232 13.113654  0.963826
  Thomas-Fermi vector in A             =   2.112777

 Write flags
   LWAVE        =      F    write WAVECAR
   LDOWNSAMPLE  =      F    k-point downsampling of WAVECAR
   LCHARG       =      F    write CHGCAR
   LVTOT        =      F    write LOCPOT, total local potential
   LVHAR        =      T    write LOCPOT, Hartree potential only
   LELF         =      F    write electronic localiz. function (ELF)
   LORBIT       =     10    0 simple, 1 ext, 2 COOP (PROOUT), +10 PAW based schemes


 Dipole corrections
   LMONO  =      F    monopole corrections only (constant potential shift)
   LDIPOL =      F    correct potential (dipole corrections)
   IDIPOL =      0    1-x, 2-y, 3-z, 4-all directions 
   EPSILON=  1.0000000 bulk dielectric constant

 Exchange correlation treatment:
   GGA     =    --    GGA type
   LEXCH   =     8    internal setting for exchange type
   VOSKOWN=      0    Vosko Wilk Nusair interpolation
   LHFCALC =     F    Hartree Fock is set to
   LHFONE  =     F    Hartree Fock one center treatment
   AEXX    =    0.0000 exact exchange contribution

 Linear response parameters
   LEPSILON=     F    determine dielectric tensor
   LRPA    =     F    only Hartree local field effects (RPA)
   LNABLA  =     F    use nabla operator in PAW spheres
   LVEL    =     F    velocity operator in full k-point grid
   LINTERFAST=   F  fast interpolation
   KINTER  =     0    interpolate to denser k-point grid
   CSHIFT  =0.1000    complex shift for real part using Kramers Kronig
   OMEGAMAX=  -1.0    maximum frequency
   DEG_THRESHOLD= 0.2000000E-02 threshold for treating states as degnerate
   RTIME   =   -0.100 relaxation time in fs
  (WPLASMAI=    0.000 imaginary part of plasma frequency in eV, 0.658/RTIME)
   DFIELD  = 0.0000000 0.0000000 0.0000000 field for delta impulse in time

 Orbital magnetization related:
   ORBITALMAG=     F  switch on orbital magnetization
   LCHIMAG   =     F  perturbation theory with respect to B field
   DQ        =  0.001000  dq finite difference perturbation B field
   LLRAUG    =     F  two centre corrections for induced B field



--------------------------------------------------------------------------------------------------------


 Static calculation
 charge density and potential will be updated during run
 non-spin polarized calculation
 Variant of blocked Davidson
 Davidson routine will perform the subspace rotation
 perform sub-space diagonalisation
    after iterative eigenvector-optimisation
 modified Broyden-mixing scheme, WC =      100.0
 initial mixing is a Kerker type mixing with AMIX =  0.4000 and BMIX =      1.0000
 Hartree-type preconditioning will be used
 using additional bands           36
 real space projection scheme for non local part
 use partial core corrections
 calculate Harris-corrections to forces   (improved forces if not selfconsistent)
 use gradient corrections 
 use of overlap-Matrix (Vanderbilt PP)
 Gauss-broadening in eV      SIGMA  =   0.01


--------------------------------------------------------------------------------------------------------


  energy-cutoff  :      300.00
  volume of cell :     1595.09
      direct lattice vectors                 reciprocal lattice vectors
     8.456489000  0.000000000  8.040301000     0.059126193 -0.000000000  0.062186727
     0.000000000 11.729847000  0.000000000     0.000000000  0.085252604 -0.000000000
    -8.456489000  0.000000000  8.040301000    -0.059126193  0.000000000  0.062186727

  length of vectors
    11.668703715 11.729847000 11.668703715     0.085808482  0.085252604  0.085808482



 k-points in units of 2pi/SCALE and weight: 1x1x1                                   
  -0.00000000  0.00000000  0.00000000       0.125
   0.02956310  0.00000000  0.03109336       0.125
  -0.00000000  0.04262630  0.00000000       0.125
   0.02956310  0.04262630  0.03109336       0.125
  -0.02956310  0.00000000  0.03109336       0.125
   0.00000000  0.00000000  0.06218673       0.125
  -0.02956310  0.04262630  0.03109336       0.125
   0.00000000  0.04262630  0.06218673       0.125

 k-points in reciprocal lattice and weights: 1x1x1                                   
   0.00000000  0.00000000  0.00000000       0.125
   0.50000000  0.00000000  0.00000000       0.125
   0.00000000  0.50000000  0.00000000       0.125
   0.50000000  0.50000000  0.00000000       0.125
   0.00000000  0.00000000  0.50000000       0.125
   0.50000000  0.00000000  0.50000000       0.125
   0.00000000  0.50000000  0.50000000       0.125
   0.50000000  0.50000000  0.50000000       0.125

 position of ions in fractional coordinates (direct lattice) 
   0.25088700  0.23698400  0.19404900
   0.77671900  0.24510500  0.71770700
   0.76717300  0.76323200  0.25877400
   0.19439100  0.74872300  0.77249200
   0.29707900  0.25056000  0.73124000
   0.78734300  0.24599000  0.22741700
   0.73628600  0.75208500  0.80494400
   0.21514200  0.75285300  0.28932500
   0.99852000  0.00060400  0.99799500
   0.49952100  0.00263400  0.48737500
   0.49441200  0.00131200  0.99414900
   0.00498800  0.00025600  0.50543100
   0.50130600  0.50542300  0.00163600
   0.00539900  0.49422600  0.50535200
   0.99987400  0.49828100  0.00075100
   0.50601200  0.48806500  0.50743900
   0.46643700  0.75180600  0.95284600
   0.97918500  0.74716800  0.48944900
   0.96863900  0.24974500  0.97735900
   0.45516100  0.24227100  0.45374300
   0.01804400  0.74974800  0.03165100
   0.51923200  0.25512600  0.03655000
   0.03774800  0.24736900  0.54545100
   0.24824000  0.47023600  0.95474400
   0.75130600  0.45427100  0.45780200
   0.94503900  0.52870400  0.75246900
   0.54708400  0.03338000  0.74071600
   0.03701100  0.02266700  0.25496300
   0.74816600  0.97799600  0.04025300
   0.25563200  0.95867900  0.54830500
   0.24374000  0.02984000  0.93918800
   0.74732300  0.02985800  0.44927300
   0.43625800  0.97262300  0.23815800
   0.94431800  0.96924600  0.75031300
   0.75023600  0.52913100  0.05627300
   0.26002600  0.53341000  0.55332600
   0.55344800  0.47473800  0.76530700
   0.05082800  0.47018900  0.25722500
   0.50273200  0.66322500  0.35752700

 position of ions in cartesian coordinates  (Angst):
   0.48064992  2.77978606  3.57741937
   0.49903433  2.87504415 12.01563486
   4.29927055  8.95259459  8.24892269
  -4.88870475  8.78240624  7.77403035
  -3.67147772  2.93903046  8.26799428
   4.73500806  2.88542506  8.15897584
  -0.58060562  8.82184198 12.39195311
  -0.62732772  8.83085050  4.05606652
   0.00443966  0.00708483 16.05258155
   0.10271252  0.03089642  7.93494090
  -4.22602044  0.01538956 11.96847850
  -4.23199072  0.00300284  4.10392240
   4.22545386  5.92853446  4.04380507
  -4.22784705  5.79719536  4.10659178
   8.44907266  5.84475989  8.04532619
  -0.01206741  5.72492778  8.14845109
  -4.11331236  8.81856935 11.41146252
   4.14144710  8.76416632 11.80825942
  -0.07374058  2.92947064 15.64640967
   0.01199130  2.84180176  7.30786174
  -0.11506745  8.79442933  0.39956276
   4.08179502  2.99258895  4.46865457
  -4.29338483  2.90160052  4.68909550
  -5.97454330  5.51579633  9.67235346
   2.48201335  5.32852933  9.72159226
   1.62846609  6.20161703 13.64847527
  -1.63744688  0.39154229 10.35429963
  -1.84310869  0.26588044  2.34755884
   5.98645850 11.47174345  6.33912607
  -2.47498601 11.24515799  6.46389547
  -5.88104836  0.35001863  9.51109718
   2.52045655  0.35022977  9.62099202
   1.67523047 11.40871898  5.42250764
   1.64060115 11.36910729 13.62534332
   5.86849048  6.20662567  6.48457512
  -2.48028822  6.25681769  6.53959490
  -1.79158330  5.56860411 10.60318715
  -1.74539396  5.51524503  2.47683884
   1.22792449  7.77952778  6.91674130



--------------------------------------------------------------------------------------------------------


 k-point  1 :   0.0000 0.0000 0.0000  plane waves:   18809
 k-point  2 :   0.5000 0.0000 0.0000  plane waves:   18808
 k-point  3 :   0.0000 0.5000 0.0000  plane waves:   18794
 k-point  4 :   0.5000 0.5000 0.0000  plane waves:   18804
 k-point  5 :   0.0000 0.0000 0.5000  plane waves:   18808
 k-point  6 :   0.5000 0.0000 0.5000  plane waves:   18790
 k-point  7 :   0.0000 0.5000 0.5000  plane waves:   18804
 k-point  8 :   0.5000 0.5000 0.5000  plane waves:   18800

 maximum and minimum number of plane-waves per node :      2389     2304

 maximum number of plane-waves:     18809
 maximum index in each direction: 
   IXMAX=   16   IYMAX=   16   IZMAX=   16
   IXMIN=  -16   IYMIN=  -17   IZMIN=  -16


 real space projection operators:
  total allocation   :      16733.51 KBytes
  max/ min on nodes  :       2190.22       1836.85


 parallel 3D FFT for wavefunctions:
    minimum data exchange during FFTs selected (reduces bandwidth)
 parallel 3D FFT for charge:
    minimum data exchange during FFTs selected (reduces bandwidth)


 total amount of memory used by VASP MPI-rank0    60659. kBytes
=======================================================================

   base      :      30000. kBytes
   nonlr-proj:       6494. kBytes
   fftplans  :       8423. kBytes
   grid      :       7465. kBytes
   one-center:         77. kBytes
   wavefun   :       8200. kBytes

     INWAV:  cpu time    0.0000: real time    0.0000
 Broyden mixing: mesh for mixing (old mesh)
   NGX = 33   NGY = 33   NGZ = 33
  (NGX  =140   NGY  =140   NGZ  =140)
  gives a total of  35937 points

 initial charge density was supplied:
 charge density of overlapping atoms calculated
 number of electron     345.0000000 magnetization 
 keeping initial charge density in first step


--------------------------------------------------------------------------------------------------------


 Maximum index for non-local projection operator          726
 Maximum index for augmentation-charges         3065 (set IRDMAX)


--------------------------------------------------------------------------------------------------------


 First call to EWALD:  gamma=   0.152
 Maximum number of real-space cells 3x 3x 3
 Maximum number of reciprocal cells 3x 3x 3

    FEWALD:  cpu time    0.0039: real time    0.0039


--------------------------------------- Iteration      1(   1)  ---------------------------------------


    POTLOK:  cpu time    0.2616: real time    0.2751
    SETDIJ:  cpu time    1.2011: real time    1.2011
     EDDAV:  cpu time   16.6992: real time   16.7056
       DOS:  cpu time    0.0009: real time    0.0009
    --------------------------------------------
      LOOP:  cpu time   18.1628: real time   18.1827

 eigenvalue-minimisations  :  3480
 total energy-change (2. order) : 0.1336937E+04  (-0.1105547E+05)
 number of electron     345.0000000 magnetization 
 augmentation part      345.0000000 magnetization 

 Free energy of the ion-electron system (eV)
  ---------------------------------------------------
  alpha Z        PSCENC =       872.70583573
  Ewald energy   TEWEN  =    -17895.52465079
  -Hartree energ DENC   =     -7459.95811581
  -exchange      EXHF   =         0.00000000
  -V(xc)+E(xc)   XCENC  =       908.19239807
  PAW double counting   =     21345.28103884   -22405.85761495
  entropy T*S    EENTRO =        -0.00011114
  eigenvalues    EBANDS =      -240.02006502
  atomic energy  EATOM  =     26212.11861568
  Solvation  Ediel_sol  =         0.00000000
  ---------------------------------------------------
  free energy    TOTEN  =      1336.93733061 eV

  energy without entropy =     1336.93744175  energy(sigma->0) =     1336.93738618


--------------------------------------------------------------------------------------------------------




--------------------------------------- Iteration      1(   2)  ---------------------------------------


     EDDAV:  cpu time   18.5562: real time   18.6171
       DOS:  cpu time    0.0004: real time    0.0004
    --------------------------------------------
      LOOP:  cpu time   18.5565: real time   18.6175

 eigenvalue-minimisations  :  4104
 total energy-change (2. order) :-0.2449772E+04  (-0.2366273E+04)
 number of electron     345.0000000 magnetization 
 augmentation part      345.0000000 magnetization 

 Free energy of the ion-electron system (eV)
  ---------------------------------------------------
  alpha Z        PSCENC =       872.70583573
  Ewald energy   TEWEN  =    -17895.52465079
  -Hartree energ DENC   =     -7459.95811581
  -exchange      EXHF   =         0.00000000
  -V(xc)+E(xc)   XCENC  =       908.19239807
  PAW double counting   =     21345.28103884   -22405.85761495
  entropy T*S    EENTRO =        -0.00000000
  eigenvalues    EBANDS =     -2689.79246702
  atomic energy  EATOM  =     26212.11861568
  Solvation  Ediel_sol  =         0.00000000
  ---------------------------------------------------
  free energy    TOTEN  =     -1112.83496025 eV

  energy without entropy =    -1112.83496025  energy(sigma->0) =    -1112.83496025


--------------------------------------------------------------------------------------------------------




--------------------------------------- Iteration      1(   3)  ---------------------------------------


     EDDAV:  cpu time   19.4922: real time   19.5644
       DOS:  cpu time    0.0004: real time    0.0004
    --------------------------------------------
      LOOP:  cpu time   19.4926: real time   19.5648

 eigenvalue-minimisations  :  4432
 total energy-change (2. order) :-0.3619469E+03  (-0.3600095E+03)
 number of electron     345.0000000 magnetization 
 augmentation part      345.0000000 magnetization 

 Free energy of the ion-electron system (eV)
  ---------------------------------------------------
  alpha Z        PSCENC =       872.70583573
  Ewald energy   TEWEN  =    -17895.52465079
  -Hartree energ DENC   =     -7459.95811581
  -exchange      EXHF   =         0.00000000
  -V(xc)+E(xc)   XCENC  =       908.19239807
  PAW double counting   =     21345.28103884   -22405.85761495
  entropy T*S    EENTRO =        -0.00000000
  eigenvalues    EBANDS =     -3051.73937343
  atomic energy  EATOM  =     26212.11861568
  Solvation  Ediel_sol  =         0.00000000
  ---------------------------------------------------
  free energy    TOTEN  =     -1474.78186667 eV

  energy without entropy =    -1474.78186667  energy(sigma->0) =    -1474.78186667


--------------------------------------------------------------------------------------------------------




--------------------------------------- Iteration      1(   4)  ---------------------------------------


     EDDAV:  cpu time   18.0456: real time   18.0513
       DOS:  cpu time    0.0004: real time    0.0004
    --------------------------------------------
      LOOP:  cpu time   18.0461: real time   18.0518

 eigenvalue-minimisations  :  3920
 total energy-change (2. order) :-0.1211153E+02  (-0.1207702E+02)
 number of electron     345.0000000 magnetization 
 augmentation part      345.0000000 magnetization 

 Free energy of the ion-electron system (eV)
  ---------------------------------------------------
  alpha Z        PSCENC =       872.70583573
  Ewald energy   TEWEN  =    -17895.52465079
  -Hartree energ DENC   =     -7459.95811581
  -exchange      EXHF   =         0.00000000
  -V(xc)+E(xc)   XCENC  =       908.19239807
  PAW double counting   =     21345.28103884   -22405.85761495
  entropy T*S    EENTRO =        -0.00000000
  eigenvalues    EBANDS =     -3063.85090492
  atomic energy  EATOM  =     26212.11861568
  Solvation  Ediel_sol  =         0.00000000
  ---------------------------------------------------
  free energy    TOTEN  =     -1486.89339816 eV

  energy without entropy =    -1486.89339816  energy(sigma->0) =    -1486.89339816


--------------------------------------------------------------------------------------------------------




--------------------------------------- Iteration      1(   5)  ---------------------------------------


     EDDAV:  cpu time   19.5476: real time   19.5867
       DOS:  cpu time    0.0004: real time    0.0004
    CHARGE:  cpu time    2.7165: real time    2.7166
    MIXING:  cpu time    0.0015: real time    0.0015
    --------------------------------------------
      LOOP:  cpu time   22.2659: real time   22.3052

 eigenvalue-minimisations  :  4440
 total energy-change (2. order) :-0.5624416E+00  (-0.5621917E+00)
 number of electron     344.0000003 magnetization 
 augmentation part       -5.0412472 magnetization 

 Broyden mixing:
  rms(total) = 0.10113E+01    rms(broyden)= 0.10107E+01
  rms(prec ) = 0.14001E+01
  weight for this iteration     100.00

 Free energy of the ion-electron system (eV)
  ---------------------------------------------------
  alpha Z        PSCENC =       872.70583573
  Ewald energy   TEWEN  =    -17895.52465079
  -Hartree energ DENC   =     -7459.95811581
  -exchange      EXHF   =         0.00000000
  -V(xc)+E(xc)   XCENC  =       908.19239807
  PAW double counting   =     21345.28103884   -22405.85761495
  entropy T*S    EENTRO =        -0.00000000
  eigenvalues    EBANDS =     -3064.41334648
  atomic energy  EATOM  =     26212.11861568
  Solvation  Ediel_sol  =         0.00000000
  ---------------------------------------------------
  free energy    TOTEN  =     -1487.45583971 eV

  energy without entropy =    -1487.45583971  energy(sigma->0) =    -1487.45583971


--------------------------------------------------------------------------------------------------------




--------------------------------------- Iteration      1(   6)  ---------------------------------------


    POTLOK:  cpu time    0.2733: real time    0.3154
    SETDIJ:  cpu time    1.1985: real time    1.1985
     EDDAV:  cpu time   19.1124: real time   19.1132
       DOS:  cpu time    0.0006: real time    0.0006
    CHARGE:  cpu time    2.6990: real time    2.6991
    MIXING:  cpu time    0.0016: real time    0.0016
    --------------------------------------------
      LOOP:  cpu time   23.2854: real time   23.3284

 eigenvalue-minimisations  :  4304
 total energy-change (2. order) : 0.7772613E+02  (-0.2370170E+01)
 number of electron     344.0000003 magnetization 
 augmentation part       -3.6490410 magnetization 

 Broyden mixing:
  rms(total) = 0.72227E+00    rms(broyden)= 0.72218E+00
  rms(prec ) = 0.90338E+00
  weight for this iteration     100.00

 eigenvalues of (default mixing * dielectric matrix)
  average eigenvalue GAMMA=   1.1902
  1.1902

 Free energy of the ion-electron system (eV)
  ---------------------------------------------------
  alpha Z        PSCENC =       872.70583573
  Ewald energy   TEWEN  =    -17895.52465079
  -Hartree energ DENC   =     -7440.34538868
  -exchange      EXHF   =         0.00000000
  -V(xc)+E(xc)   XCENC  =       936.17503313
  PAW double counting   =     21629.29043510   -22687.98970636
  entropy T*S    EENTRO =        -0.00000000
  eigenvalues    EBANDS =     -3036.15988687
  atomic energy  EATOM  =     26212.11861568
  Solvation  Ediel_sol  =         0.00000000
  ---------------------------------------------------
  free energy    TOTEN  =     -1409.72971306 eV

  energy without entropy =    -1409.72971306  energy(sigma->0) =    -1409.72971306


--------------------------------------------------------------------------------------------------------




--------------------------------------- Iteration      1(   7)  ---------------------------------------


    POTLOK:  cpu time    0.2929: real time    0.4476
    SETDIJ:  cpu time    1.1979: real time    1.1980
     EDDAV:  cpu time   18.5752: real time   18.5759
       DOS:  cpu time    0.0004: real time    0.0004
    CHARGE:  cpu time    2.6996: real time    2.6997
    MIXING:  cpu time    0.0016: real time    0.0016
    --------------------------------------------
      LOOP:  cpu time   22.7678: real time   22.9233

 eigenvalue-minimisations  :  4120
 total energy-change (2. order) : 0.5184189E+00  (-0.8564286E+00)
 number of electron     344.0000003 magnetization 
 augmentation part       -3.0928346 magnetization 

 Broyden mixing:
  rms(total) = 0.37142E+00    rms(broyden)= 0.37140E+00
  rms(prec ) = 0.41429E+00
  weight for this iteration     100.00

 eigenvalues of (default mixing * dielectric matrix)
  average eigenvalue GAMMA=   1.3041
  1.3041  1.3041

 Free energy of the ion-electron system (eV)
  ---------------------------------------------------
  alpha Z        PSCENC =       872.70583573
  Ewald energy   TEWEN  =    -17895.52465079
  -Hartree energ DENC   =     -7482.28096664
  -exchange      EXHF   =         0.00000000
  -V(xc)+E(xc)   XCENC  =       941.17135580
  PAW double counting   =     22242.57626019   -23299.32601335
  entropy T*S    EENTRO =        -0.00000000
  eigenvalues    EBANDS =     -3000.65173079
  atomic energy  EATOM  =     26212.11861568
  Solvation  Ediel_sol  =         0.00000000
  ---------------------------------------------------
  free energy    TOTEN  =     -1409.21129416 eV

  energy without entropy =    -1409.21129416  energy(sigma->0) =    -1409.21129416


--------------------------------------------------------------------------------------------------------




--------------------------------------- Iteration      1(   8)  ---------------------------------------


    POTLOK:  cpu time    0.2940: real time    0.3180
    SETDIJ:  cpu time    1.1990: real time    1.1990
     EDDAV:  cpu time   18.2331: real time   18.2338
       DOS:  cpu time    0.0005: real time    0.0005
    CHARGE:  cpu time    2.6976: real time    2.6977
    MIXING:  cpu time    0.0016: real time    0.0016
    --------------------------------------------
      LOOP:  cpu time   22.4258: real time   22.4506

 eigenvalue-minimisations  :  4000
 total energy-change (2. order) :-0.1751754E+00  (-0.4478279E-01)
 number of electron     344.0000003 magnetization 
 augmentation part       -3.1829833 magnetization 

 Broyden mixing:
  rms(total) = 0.21580E+00    rms(broyden)= 0.21579E+00
  rms(prec ) = 0.24559E+00
  weight for this iteration     100.00

 eigenvalues of (default mixing * dielectric matrix)
  average eigenvalue GAMMA=   1.6875
  1.1259  1.3025  2.6340

 Free energy of the ion-electron system (eV)
  ---------------------------------------------------
  alpha Z        PSCENC =       872.70583573
  Ewald energy   TEWEN  =    -17895.52465079
  -Hartree energ DENC   =     -7488.52173223
  -exchange      EXHF   =         0.00000000
  -V(xc)+E(xc)   XCENC  =       941.90090849
  PAW double counting   =     22475.37838978   -23532.50346035
  entropy T*S    EENTRO =        -0.00000000
  eigenvalues    EBANDS =     -2994.94037584
  atomic energy  EATOM  =     26212.11861568
  Solvation  Ediel_sol  =         0.00000000
  ---------------------------------------------------
  free energy    TOTEN  =     -1409.38646953 eV

  energy without entropy =    -1409.38646953  energy(sigma->0) =    -1409.38646953


--------------------------------------------------------------------------------------------------------




--------------------------------------- Iteration      1(   9)  ---------------------------------------


    POTLOK:  cpu time    0.2869: real time    0.3217
    SETDIJ:  cpu time    1.1982: real time    1.1983
     EDDAV:  cpu time   17.3885: real time   17.3892
       DOS:  cpu time    0.0011: real time    0.0010
    CHARGE:  cpu time    2.6943: real time    2.6943
    MIXING:  cpu time    0.0020: real time    0.0020
    --------------------------------------------
      LOOP:  cpu time   21.5708: real time   21.6065

 eigenvalue-minimisations  :  3704
 total energy-change (2. order) :-0.6675965E-01  (-0.1779328E-01)
 number of electron     344.0000003 magnetization 
 augmentation part       -3.2207206 magnetization 

 Broyden mixing:
  rms(total) = 0.45484E-01    rms(broyden)= 0.45480E-01
  rms(prec ) = 0.55437E-01
  weight for this iteration     100.00

 eigenvalues of (default mixing * dielectric matrix)
  average eigenvalue GAMMA=   1.4686
  2.5236  1.2498  1.2498  0.8513

 Free energy of the ion-electron system (eV)
  ---------------------------------------------------
  alpha Z        PSCENC =       872.70583573
  Ewald energy   TEWEN  =    -17895.52465079
  -Hartree energ DENC   =     -7495.96702147
  -exchange      EXHF   =         0.00000000
  -V(xc)+E(xc)   XCENC  =       943.79842671
  PAW double counting   =     22808.91645193   -23866.87778567
  entropy T*S    EENTRO =        -0.00000000
  eigenvalues    EBANDS =     -2988.62310130
  atomic energy  EATOM  =     26212.11861568
  Solvation  Ediel_sol  =         0.00000000
  ---------------------------------------------------
  free energy    TOTEN  =     -1409.45322918 eV

  energy without entropy =    -1409.45322918  energy(sigma->0) =    -1409.45322918


--------------------------------------------------------------------------------------------------------




--------------------------------------- Iteration      1(  10)  ---------------------------------------


    POTLOK:  cpu time    0.2868: real time    0.2945
    SETDIJ:  cpu time    1.1985: real time    1.1985
     EDDAV:  cpu time   19.3052: real time   19.3059
       DOS:  cpu time    0.0010: real time    0.0010
    CHARGE:  cpu time    2.6973: real time    2.6974
    MIXING:  cpu time    0.0016: real time    0.0016
    --------------------------------------------
      LOOP:  cpu time   23.4905: real time   23.4990

 eigenvalue-minimisations  :  4368
 total energy-change (2. order) :-0.3842302E-02  (-0.2410758E-02)
 number of electron     344.0000003 magnetization 
 augmentation part       -3.2085572 magnetization 

 Broyden mixing:
  rms(total) = 0.32636E-01    rms(broyden)= 0.32635E-01
  rms(prec ) = 0.41608E-01
  weight for this iteration     100.00

 eigenvalues of (default mixing * dielectric matrix)
  average eigenvalue GAMMA=   1.3064
  2.4152  1.3205  1.3205  0.8365  0.6392

 Free energy of the ion-electron system (eV)
  ---------------------------------------------------
  alpha Z        PSCENC =       872.70583573
  Ewald energy   TEWEN  =    -17895.52465079
  -Hartree energ DENC   =     -7494.36430256
  -exchange      EXHF   =         0.00000000
  -V(xc)+E(xc)   XCENC  =       943.65991141
  PAW double counting   =     22780.21340972   -23838.23903389
  entropy T*S    EENTRO =        -0.00000000
  eigenvalues    EBANDS =     -2990.02685677
  atomic energy  EATOM  =     26212.11861568
  Solvation  Ediel_sol  =         0.00000000
  ---------------------------------------------------
  free energy    TOTEN  =     -1409.45707148 eV

  energy without entropy =    -1409.45707148  energy(sigma->0) =    -1409.45707148


--------------------------------------------------------------------------------------------------------




--------------------------------------- Iteration      1(  11)  ---------------------------------------


    POTLOK:  cpu time    0.3038: real time    0.3140
    SETDIJ:  cpu time    1.1992: real time    1.1992
     EDDAV:  cpu time   17.4864: real time   17.4873
       DOS:  cpu time    0.0004: real time    0.0004
    CHARGE:  cpu time    2.7043: real time    2.7044
    MIXING:  cpu time    0.0017: real time    0.0017
    --------------------------------------------
      LOOP:  cpu time   21.6958: real time   21.7070

 eigenvalue-minimisations  :  3744
 total energy-change (2. order) :-0.2038954E-02  (-0.2885139E-03)
 number of electron     344.0000003 magnetization 
 augmentation part       -3.2072322 magnetization 

 Broyden mixing:
  rms(total) = 0.15845E-01    rms(broyden)= 0.15845E-01
  rms(prec ) = 0.24141E-01
  weight for this iteration     100.00

 eigenvalues of (default mixing * dielectric matrix)
  average eigenvalue GAMMA=   1.6029
  2.7534  2.7534  1.2034  1.2034  0.8519  0.8519

 Free energy of the ion-electron system (eV)
  ---------------------------------------------------
  alpha Z        PSCENC =       872.70583573
  Ewald energy   TEWEN  =    -17895.52465079
  -Hartree energ DENC   =     -7493.16128871
  -exchange      EXHF   =         0.00000000
  -V(xc)+E(xc)   XCENC  =       943.60335957
  PAW double counting   =     22765.03487885   -23823.23651488
  entropy T*S    EENTRO =        -0.00000000
  eigenvalues    EBANDS =     -2990.99934588
  atomic energy  EATOM  =     26212.11861568
  Solvation  Ediel_sol  =         0.00000000
  ---------------------------------------------------
  free energy    TOTEN  =     -1409.45911043 eV

  energy without entropy =    -1409.45911043  energy(sigma->0) =    -1409.45911043


--------------------------------------------------------------------------------------------------------




--------------------------------------- Iteration      1(  12)  ---------------------------------------


    POTLOK:  cpu time    0.3001: real time    0.3153
    SETDIJ:  cpu time    1.1984: real time    1.1984
     EDDAV:  cpu time   17.2490: real time   17.2499
       DOS:  cpu time    0.0004: real time    0.0004
    CHARGE:  cpu time    2.7055: real time    2.7056
    MIXING:  cpu time    0.0017: real time    0.0017
    --------------------------------------------
      LOOP:  cpu time   21.4551: real time   21.4713

 eigenvalue-minimisations  :  3672
 total energy-change (2. order) :-0.3124783E-02  (-0.5805339E-03)
 number of electron     344.0000003 magnetization 
 augmentation part       -3.2105340 magnetization 

 Broyden mixing:
  rms(total) = 0.10566E-01    rms(broyden)= 0.10565E-01
  rms(prec ) = 0.13509E-01
  weight for this iteration     100.00

 eigenvalues of (default mixing * dielectric matrix)
  average eigenvalue GAMMA=   1.5726
  2.8256  2.8256  1.2798  1.2798  0.8849  0.9563  0.9563

 Free energy of the ion-electron system (eV)
  ---------------------------------------------------
  alpha Z        PSCENC =       872.70583573
  Ewald energy   TEWEN  =    -17895.52465079
  -Hartree energ DENC   =     -7492.48097846
  -exchange      EXHF   =         0.00000000
  -V(xc)+E(xc)   XCENC  =       943.63992470
  PAW double counting   =     22759.04187470   -23817.53481226
  entropy T*S    EENTRO =        -0.00000000
  eigenvalues    EBANDS =     -2991.42804451
  atomic energy  EATOM  =     26212.11861568
  Solvation  Ediel_sol  =         0.00000000
  ---------------------------------------------------
  free energy    TOTEN  =     -1409.46223522 eV

  energy without entropy =    -1409.46223522  energy(sigma->0) =    -1409.46223522


--------------------------------------------------------------------------------------------------------




--------------------------------------- Iteration      1(  13)  ---------------------------------------


    POTLOK:  cpu time    0.2748: real time    0.2877
    SETDIJ:  cpu time    1.1979: real time    1.1979
     EDDAV:  cpu time   19.5370: real time   19.5378
       DOS:  cpu time    0.0005: real time    0.0005
    CHARGE:  cpu time    2.7012: real time    2.7013
    MIXING:  cpu time    0.0019: real time    0.0019
    --------------------------------------------
      LOOP:  cpu time   23.7133: real time   23.7271

 eigenvalue-minimisations  :  4448
 total energy-change (2. order) : 0.3071605E-03  (-0.1499192E-03)
 number of electron     344.0000003 magnetization 
 augmentation part       -3.2111054 magnetization 

 Broyden mixing:
  rms(total) = 0.53634E-02    rms(broyden)= 0.53628E-02
  rms(prec ) = 0.63921E-02
  weight for this iteration     100.00

 eigenvalues of (default mixing * dielectric matrix)
  average eigenvalue GAMMA=   1.5457
  3.1564  2.5505  1.3699  1.3699  1.0961  1.0961  0.9438  0.7832

 Free energy of the ion-electron system (eV)
  ---------------------------------------------------
  alpha Z        PSCENC =       872.70583573
  Ewald energy   TEWEN  =    -17895.52465079
  -Hartree energ DENC   =     -7493.47908681
  -exchange      EXHF   =         0.00000000
  -V(xc)+E(xc)   XCENC  =       943.69843628
  PAW double counting   =     22758.13460346   -23816.58369864
  entropy T*S    EENTRO =        -0.00000000
  eigenvalues    EBANDS =     -2990.53198297
  atomic energy  EATOM  =     26212.11861568
  Solvation  Ediel_sol  =         0.00000000
  ---------------------------------------------------
  free energy    TOTEN  =     -1409.46192805 eV

  energy without entropy =    -1409.46192805  energy(sigma->0) =    -1409.46192805


--------------------------------------------------------------------------------------------------------




--------------------------------------- Iteration      1(  14)  ---------------------------------------


    POTLOK:  cpu time    0.2688: real time    0.3163
    SETDIJ:  cpu time    1.1984: real time    1.1985
     EDDAV:  cpu time   17.5932: real time   17.5939
       DOS:  cpu time    0.0004: real time    0.0004
    CHARGE:  cpu time    2.6988: real time    2.6989
    MIXING:  cpu time    0.0018: real time    0.0018
    --------------------------------------------
      LOOP:  cpu time   21.7614: real time   21.8098

 eigenvalue-minimisations  :  3784
 total energy-change (2. order) : 0.6629662E-04  (-0.4443990E-04)
 number of electron     344.0000003 magnetization 
 augmentation part       -3.2103086 magnetization 

 Broyden mixing:
  rms(total) = 0.25664E-02    rms(broyden)= 0.25654E-02
  rms(prec ) = 0.33982E-02
  weight for this iteration     100.00

 eigenvalues of (default mixing * dielectric matrix)
  average eigenvalue GAMMA=   1.5299
  3.2245  2.1307  2.1307  1.1331  1.1331  1.1402  1.1402  0.8683  0.8683

 Free energy of the ion-electron system (eV)
  ---------------------------------------------------
  alpha Z        PSCENC =       872.70583573
  Ewald energy   TEWEN  =    -17895.52465079
  -Hartree energ DENC   =     -7493.82477956
  -exchange      EXHF   =         0.00000000
  -V(xc)+E(xc)   XCENC  =       943.71890759
  PAW double counting   =     22759.72437380   -23818.14774961
  entropy T*S    EENTRO =        -0.00000000
  eigenvalues    EBANDS =     -2990.23241459
  atomic energy  EATOM  =     26212.11861568
  Solvation  Ediel_sol  =         0.00000000
  ---------------------------------------------------
  free energy    TOTEN  =     -1409.46186176 eV

  energy without entropy =    -1409.46186176  energy(sigma->0) =    -1409.46186176


--------------------------------------------------------------------------------------------------------




--------------------------------------- Iteration      1(  15)  ---------------------------------------


    POTLOK:  cpu time    0.2861: real time    0.3256
    SETDIJ:  cpu time    1.1999: real time    1.2000
     EDDAV:  cpu time   18.3172: real time   18.3180
       DOS:  cpu time    0.0004: real time    0.0004
    CHARGE:  cpu time    2.7044: real time    2.7045
    MIXING:  cpu time    0.0019: real time    0.0019
    --------------------------------------------
      LOOP:  cpu time   22.5100: real time   22.5504

 eigenvalue-minimisations  :  4032
 total energy-change (2. order) : 0.7278541E-05  (-0.3209359E-05)
 number of electron     344.0000003 magnetization 
 augmentation part       -3.2104153 magnetization 

 Broyden mixing:
  rms(total) = 0.14464E-02    rms(broyden)= 0.14453E-02
  rms(prec ) = 0.20530E-02
  weight for this iteration     100.00

 eigenvalues of (default mixing * dielectric matrix)
  average eigenvalue GAMMA=   1.6356
  3.7828  2.5306  2.5306  1.2266  1.2266  1.2368  1.2368  0.8998  0.8998  0.7862

 Free energy of the ion-electron system (eV)
  ---------------------------------------------------
  alpha Z        PSCENC =       872.70583573
  Ewald energy   TEWEN  =    -17895.52465079
  -Hartree energ DENC   =     -7493.95985121
  -exchange      EXHF   =         0.00000000
  -V(xc)+E(xc)   XCENC  =       943.72245323
  PAW double counting   =     22760.31098121   -23818.72678520
  entropy T*S    EENTRO =        -0.00000000
  eigenvalues    EBANDS =     -2990.10845314
  atomic energy  EATOM  =     26212.11861568
  Solvation  Ediel_sol  =         0.00000000
  ---------------------------------------------------
  free energy    TOTEN  =     -1409.46185448 eV

  energy without entropy =    -1409.46185448  energy(sigma->0) =    -1409.46185448


--------------------------------------------------------------------------------------------------------




--------------------------------------- Iteration      1(  16)  ---------------------------------------


    POTLOK:  cpu time    0.2992: real time    0.3030
    SETDIJ:  cpu time    1.1974: real time    1.1974
     EDDAV:  cpu time   16.9113: real time   16.9119
       DOS:  cpu time    0.0004: real time    0.0004
    CHARGE:  cpu time    2.6973: real time    2.6973
    MIXING:  cpu time    0.0020: real time    0.0020
    --------------------------------------------
      LOOP:  cpu time   21.1075: real time   21.1120

 eigenvalue-minimisations  :  3544
 total energy-change (2. order) :-0.4078425E-04  (-0.3370545E-05)
 number of electron     344.0000003 magnetization 
 augmentation part       -3.2100671 magnetization 

 Broyden mixing:
  rms(total) = 0.56999E-03    rms(broyden)= 0.56747E-03
  rms(prec ) = 0.73744E-03
  weight for this iteration     100.00

 eigenvalues of (default mixing * dielectric matrix)
  average eigenvalue GAMMA=   1.6885
  4.2459  2.7872  2.1790  2.1790  1.1145  1.1145  1.1564  1.1564  0.9181  0.9181
  0.8046

 Free energy of the ion-electron system (eV)
  ---------------------------------------------------
  alpha Z        PSCENC =       872.70583573
  Ewald energy   TEWEN  =    -17895.52465079
  -Hartree energ DENC   =     -7494.05008026
  -exchange      EXHF   =         0.00000000
  -V(xc)+E(xc)   XCENC  =       943.71851873
  PAW double counting   =     22759.83387512   -23818.24156514
  entropy T*S    EENTRO =        -0.00000000
  eigenvalues    EBANDS =     -2990.02244434
  atomic energy  EATOM  =     26212.11861568
  Solvation  Ediel_sol  =         0.00000000
  ---------------------------------------------------
  free energy    TOTEN  =     -1409.46189526 eV

  energy without entropy =    -1409.46189526  energy(sigma->0) =    -1409.46189526


--------------------------------------------------------------------------------------------------------




--------------------------------------- Iteration      1(  17)  ---------------------------------------


    POTLOK:  cpu time    0.2736: real time    0.3185
    SETDIJ:  cpu time    1.1990: real time    1.1991
     EDDAV:  cpu time   18.6426: real time   18.6432
       DOS:  cpu time    0.0005: real time    0.0005
    CHARGE:  cpu time    2.7033: real time    2.7035
    MIXING:  cpu time    0.0024: real time    0.0024
    --------------------------------------------
      LOOP:  cpu time   22.8213: real time   22.8672

 eigenvalue-minimisations  :  4136
 total energy-change (2. order) :-0.1944575E-04  (-0.1110748E-05)
 number of electron     344.0000003 magnetization 
 augmentation part       -3.2099716 magnetization 

 Broyden mixing:
  rms(total) = 0.37900E-03    rms(broyden)= 0.37525E-03
  rms(prec ) = 0.41990E-03
  weight for this iteration     100.00

 eigenvalues of (default mixing * dielectric matrix)
  average eigenvalue GAMMA=   1.6601
  4.3972  2.9893  2.2148  2.1132  1.1865  1.1865  1.1257  1.1257  1.0015  1.0015
  0.7899  0.7899

 Free energy of the ion-electron system (eV)
  ---------------------------------------------------
  alpha Z        PSCENC =       872.70583573
  Ewald energy   TEWEN  =    -17895.52465079
  -Hartree energ DENC   =     -7494.01308381
  -exchange      EXHF   =         0.00000000
  -V(xc)+E(xc)   XCENC  =       943.71325990
  PAW double counting   =     22759.70363347   -23818.11094935
  entropy T*S    EENTRO =        -0.00000000
  eigenvalues    EBANDS =     -2990.05457553
  atomic energy  EATOM  =     26212.11861568
  Solvation  Ediel_sol  =         0.00000000
  ---------------------------------------------------
  free energy    TOTEN  =     -1409.46191471 eV

  energy without entropy =    -1409.46191471  energy(sigma->0) =    -1409.46191471


--------------------------------------------------------------------------------------------------------




--------------------------------------- Iteration      1(  18)  ---------------------------------------


    POTLOK:  cpu time    0.3120: real time    0.3186
    SETDIJ:  cpu time    1.1977: real time    1.1977
     EDDAV:  cpu time   13.7099: real time   13.7107
       DOS:  cpu time    0.0004: real time    0.0004
    CHARGE:  cpu time    2.6951: real time    2.6952
    MIXING:  cpu time    0.0020: real time    0.0020
    --------------------------------------------
      LOOP:  cpu time   17.9171: real time   17.9246

 eigenvalue-minimisations  :  2416
 total energy-change (2. order) : 0.1090856E-04  (-0.1182330E-06)
 number of electron     344.0000003 magnetization 
 augmentation part       -3.2099933 magnetization 

 Broyden mixing:
  rms(total) = 0.16871E-03    rms(broyden)= 0.16017E-03
  rms(prec ) = 0.18703E-03
  weight for this iteration     100.00

 eigenvalues of (default mixing * dielectric matrix)
  average eigenvalue GAMMA=   1.6798
  4.5978  2.9621  2.2880  2.2880  1.2973  1.2973  1.1916  1.1916  1.0560  1.0560
  0.8182  0.8967  0.8967

 Free energy of the ion-electron system (eV)
  ---------------------------------------------------
  alpha Z        PSCENC =       872.70583573
  Ewald energy   TEWEN  =    -17895.52465079
  -Hartree energ DENC   =     -7494.02784915
  -exchange      EXHF   =         0.00000000
  -V(xc)+E(xc)   XCENC  =       943.71399178
  PAW double counting   =     22759.82190005   -23818.22748034
  entropy T*S    EENTRO =        -0.00000000
  eigenvalues    EBANDS =     -2990.04226676
  atomic energy  EATOM  =     26212.11861568
  Solvation  Ediel_sol  =         0.00000000
  ---------------------------------------------------
  free energy    TOTEN  =     -1409.46190380 eV

  energy without entropy =    -1409.46190380  energy(sigma->0) =    -1409.46190380


--------------------------------------------------------------------------------------------------------




--------------------------------------- Iteration      1(  19)  ---------------------------------------


    POTLOK:  cpu time    0.2956: real time    0.3234
    SETDIJ:  cpu time    1.1973: real time    1.1974
     EDDAV:  cpu time   12.9927: real time   12.9934
       DOS:  cpu time    0.0009: real time    0.0009
    CHARGE:  cpu time    2.7047: real time    2.7048
    MIXING:  cpu time    0.0021: real time    0.0021
    --------------------------------------------
      LOOP:  cpu time   17.1933: real time   17.2219

 eigenvalue-minimisations  :  2160
 total energy-change (2. order) : 0.3972540E-05  (-0.3358159E-07)
 number of electron     344.0000003 magnetization 
 augmentation part       -3.2100036 magnetization 

 Broyden mixing:
  rms(total) = 0.87858E-04    rms(broyden)= 0.70087E-04
  rms(prec ) = 0.86788E-04
  weight for this iteration     100.00
  WARNING: grid for Broyden might be to small

 eigenvalues of (default mixing * dielectric matrix)
  average eigenvalue GAMMA=   1.6826
  4.7291  3.0407  2.3865  2.0519  1.9647  1.2094  1.2094  1.1962  1.0731  1.0731
  1.0067  1.0067  0.8045  0.8045

 Free energy of the ion-electron system (eV)
  ---------------------------------------------------
  alpha Z        PSCENC =       872.70583573
  Ewald energy   TEWEN  =    -17895.52465079
  -Hartree energ DENC   =     -7494.02825764
  -exchange      EXHF   =         0.00000000
  -V(xc)+E(xc)   XCENC  =       943.71390742
  PAW double counting   =     22759.89577843   -23818.30130251
  entropy T*S    EENTRO =        -0.00000000
  eigenvalues    EBANDS =     -2990.04182614
  atomic energy  EATOM  =     26212.11861568
  Solvation  Ediel_sol  =         0.00000000
  ---------------------------------------------------
  free energy    TOTEN  =     -1409.46189983 eV

  energy without entropy =    -1409.46189983  energy(sigma->0) =    -1409.46189983


--------------------------------------------------------------------------------------------------------




--------------------------------------- Iteration      1(  20)  ---------------------------------------


    POTLOK:  cpu time    0.2628: real time    0.3241
    SETDIJ:  cpu time    1.1978: real time    1.1979
     EDDAV:  cpu time   12.6219: real time   12.6225
       DOS:  cpu time    0.0004: real time    0.0004
    CHARGE:  cpu time    2.7037: real time    2.7038
    MIXING:  cpu time    0.0022: real time    0.0022
    --------------------------------------------
      LOOP:  cpu time   16.7887: real time   16.8508

 eigenvalue-minimisations  :  2032
 total energy-change (2. order) : 0.2831658E-05  (-0.1776327E-07)
 number of electron     344.0000003 magnetization 
 augmentation part       -3.2100267 magnetization 

 Broyden mixing:
  rms(total) = 0.77918E-04    rms(broyden)= 0.57137E-04
  rms(prec ) = 0.66161E-04
  weight for this iteration     100.00
  WARNING: grid for Broyden might be to small

 eigenvalues of (default mixing * dielectric matrix)
  average eigenvalue GAMMA=   1.6501
  4.7791  3.0846  2.4936  2.0355  2.0355  1.2486  1.2486  1.1307  1.1307  1.0682
  1.0682  0.9412  0.7966  0.8449  0.8449

 Free energy of the ion-electron system (eV)
  ---------------------------------------------------
  alpha Z        PSCENC =       872.70583573
  Ewald energy   TEWEN  =    -17895.52465079
  -Hartree energ DENC   =     -7494.03280483
  -exchange      EXHF   =         0.00000000
  -V(xc)+E(xc)   XCENC  =       943.71412110
  PAW double counting   =     22759.91383924   -23818.31919478
  entropy T*S    EENTRO =        -0.00000000
  eigenvalues    EBANDS =     -2990.03765834
  atomic energy  EATOM  =     26212.11861568
  Solvation  Ediel_sol  =         0.00000000
  ---------------------------------------------------
  free energy    TOTEN  =     -1409.46189700 eV

  energy without entropy =    -1409.46189700  energy(sigma->0) =    -1409.46189700


--------------------------------------------------------------------------------------------------------




--------------------------------------- Iteration      1(  21)  ---------------------------------------


    POTLOK:  cpu time    0.2800: real time    0.3221
    SETDIJ:  cpu time    1.1996: real time    1.1996
     EDDAV:  cpu time   12.5264: real time   12.5270
       DOS:  cpu time    0.0004: real time    0.0004
    --------------------------------------------
      LOOP:  cpu time   14.0063: real time   14.0490

 eigenvalue-minimisations  :  2000
 total energy-change (2. order) :-0.1381331E-06  (-0.7210178E-08)
 number of electron     344.0000003 magnetization 
 augmentation part       -3.2100267 magnetization 

 Free energy of the ion-electron system (eV)
  ---------------------------------------------------
  alpha Z        PSCENC =       872.70583573
  Ewald energy   TEWEN  =    -17895.52465079
  -Hartree energ DENC   =     -7494.03294876
  -exchange      EXHF   =         0.00000000
  -V(xc)+E(xc)   XCENC  =       943.71415427
  PAW double counting   =     22759.91612367   -23818.32094758
  entropy T*S    EENTRO =        -0.00000000
  eigenvalues    EBANDS =     -2990.03807935
  atomic energy  EATOM  =     26212.11861568
  Solvation  Ediel_sol  =         0.00000000
  ---------------------------------------------------
  free energy    TOTEN  =     -1409.46189714 eV

  energy without entropy =    -1409.46189714  energy(sigma->0) =    -1409.46189714


--------------------------------------------------------------------------------------------------------




 average (electrostatic) potential at core
  the test charge radii are     1.1312  1.1541  1.0178
  (the norm of the test charge is              1.0000)
       1 -55.2788       2 -55.1987       3 -55.1864       4 -55.1543       5 -55.2247
       6 -55.1783       7 -55.3706       8 -55.1686       9-101.6192      10-101.9036
      11-101.6518      12-101.6354      13-101.9029      14-101.6269      15-101.6383
      16-101.8527      17 -69.0393      18 -68.9877      19 -69.0747      20 -69.4122
      21 -69.0915      22 -69.0157      23 -69.0087      24 -69.0427      25 -68.9607
      26 -68.9742      27 -68.9332      28 -69.0259      29 -68.9959      30 -68.9967
      31 -68.9996      32 -69.0011      33 -68.9514      34 -69.0233      35 -69.0569
      36 -68.9500      37 -69.3858      38 -68.9695      39 -69.1278



 E-fermi :   0.4240     XC(G=0):  -7.9514     alpha+bet : -6.9586


 k-point     1 :       0.0000    0.0000    0.0000
  band No.  band energies     occupation 
      1     -20.9006      2.00000
      2     -20.8117      2.00000
      3     -20.7534      2.00000
      4     -20.7275      2.00000
      5     -20.7269      2.00000
      6     -20.7083      2.00000
      7     -20.7059      2.00000
      8     -20.6862      2.00000
      9     -16.6870      2.00000
     10     -16.6846      2.00000
     11     -16.6553      2.00000
     12     -16.6434      2.00000
     13     -16.6350      2.00000
     14     -16.6248      2.00000
     15     -16.5856      2.00000
     16     -16.5693      2.00000
     17     -16.5692      2.00000
     18     -16.5635      2.00000
     19     -16.5623      2.00000
     20     -16.5574      2.00000
     21     -16.5267      2.00000
     22     -16.5193      2.00000
     23     -16.4690      2.00000
     24     -16.4535      2.00000
     25     -16.4529      2.00000
     26     -16.4393      2.00000
     27     -16.4264      2.00000
     28     -16.4186      2.00000
     29     -16.4122      2.00000
     30     -16.3839      2.00000
     31     -16.3787      2.00000
     32     -16.3693      2.00000
     33     -16.3629      2.00000
     34     -16.3156      2.00000
     35     -16.3073      2.00000
     36     -16.3068      2.00000
     37     -16.3017      2.00000
     38     -16.3015      2.00000
     39     -16.3014      2.00000
     40     -16.2972      2.00000
     41     -16.2916      2.00000
     42     -16.2907      2.00000
     43     -16.2906      2.00000
     44     -16.2899      2.00000
     45     -16.2857      2.00000
     46     -16.2857      2.00000
     47     -16.2784      2.00000
     48     -16.2771      2.00000
     49     -14.4886      2.00000
     50     -14.3870      2.00000
     51     -14.3192      2.00000
     52     -14.2120      2.00000
     53     -14.1466      2.00000
     54     -14.1375      2.00000
     55     -14.1300      2.00000
     56     -14.0763      2.00000
     57     -14.0756      2.00000
     58     -14.0592      2.00000
     59     -14.0521      2.00000
     60     -14.0458      2.00000
     61     -14.0317      2.00000
     62     -14.0140      2.00000
     63     -14.0002      2.00000
     64     -13.9665      2.00000
     65     -13.9515      2.00000
     66     -13.9393      2.00000
     67     -13.8831      2.00000
     68     -13.7844      2.00000
     69     -13.7547      2.00000
     70     -13.7500      2.00000
     71     -13.7314      2.00000
     72      -8.2116      2.00000
     73      -7.7925      2.00000
     74      -7.7603      2.00000
     75      -7.7136      2.00000
     76      -7.3619      2.00000
     77      -7.3300      2.00000
     78      -7.2896      2.00000
     79      -7.2716      2.00000
     80      -7.2533      2.00000
     81      -7.2369      2.00000
     82      -7.2120      2.00000
     83      -7.2050      2.00000
     84      -7.1856      2.00000
     85      -7.1738      2.00000
     86      -7.1585      2.00000
     87      -7.1489      2.00000
     88      -7.1452      2.00000
     89      -7.1417      2.00000
     90      -7.1360      2.00000
     91      -7.1335      2.00000
     92      -7.1228      2.00000
     93      -7.1216      2.00000
     94      -7.1155      2.00000
     95      -7.1134      2.00000
     96      -7.1079      2.00000
     97      -7.1010      2.00000
     98      -7.0946      2.00000
     99      -7.0865      2.00000
    100      -7.0776      2.00000
    101      -7.0666      2.00000
    102      -7.0459      2.00000
    103      -6.5955      2.00000
    104      -3.4056      2.00000
    105      -3.3188      2.00000
    106      -3.2911      2.00000
    107      -3.2722      2.00000
    108      -3.2362      2.00000
    109      -3.2063      2.00000
    110      -3.2022      2.00000
    111      -3.1300      2.00000
    112      -3.1067      2.00000
    113      -3.0553      2.00000
    114      -3.0213      2.00000
    115      -2.8701      2.00000
    116      -2.2321      2.00000
    117      -2.1820      2.00000
    118      -2.1506      2.00000
    119      -2.0819      2.00000
    120      -2.0175      2.00000
    121      -2.0004      2.00000
    122      -1.9312      2.00000
    123      -1.8871      2.00000
    124      -1.8637      2.00000
    125      -1.8254      2.00000
    126      -1.8169      2.00000
    127      -1.7373      2.00000
    128      -1.7246      2.00000
    129      -1.6705      2.00000
    130      -1.6423      2.00000
    131      -1.6008      2.00000
    132      -1.5823      2.00000
    133      -1.5626      2.00000
    134      -1.5497      2.00000
    135      -1.5416      2.00000
    136      -1.5361      2.00000
    137      -1.5007      2.00000
    138      -1.4922      2.00000
    139      -1.4735      2.00000
    140      -1.4651      2.00000
    141      -1.4539      2.00000
    142      -1.4316      2.00000
    143      -1.4165      2.00000
    144      -1.3980      2.00000
    145      -1.3888      2.00000
    146      -1.3693      2.00000
    147      -1.3596      2.00000
    148      -1.3464      2.00000
    149      -1.3303      2.00000
    150      -1.3230      2.00000
    151      -1.3206      2.00000
    152      -1.2996      2.00000
    153      -1.2890      2.00000
[...]


--------------------------------------------------------------------------------------------------------


 soft charge-density along one line, spin component           1
         0         1         2         3         4         5         6         7         8         9
 total charge-density along one line

 pseudopotential strength for first ion, spin component:           1
 17.971  -4.704   0.004   0.002  -0.001  -0.005  -0.002   0.001
 -4.704   1.240  -0.001  -0.000   0.000   0.001   0.000  -0.000
  0.004  -0.001   2.264   0.001   0.000  -2.708  -0.002  -0.001
  0.002  -0.000   0.001   2.265  -0.001  -0.002  -2.709   0.001
 -0.001   0.000   0.000  -0.001   2.264  -0.001   0.001  -2.707
 -0.005   0.001  -2.708  -0.002  -0.001   3.207   0.002   0.001
 -0.002   0.000  -0.002  -2.709   0.001   0.002   3.208  -0.001
  0.001  -0.000  -0.001   0.001  -2.707   0.001  -0.001   3.206
  0.001  -0.000   0.001   0.000   0.001  -0.001  -0.000  -0.002
  0.001  -0.000   0.002   0.002   0.000  -0.002  -0.003  -0.000
  0.001  -0.000  -0.001  -0.000   0.000   0.002   0.000  -0.000
 -0.001   0.000   0.000  -0.001   0.002  -0.000   0.001  -0.002
 -0.000   0.000  -0.003   0.000  -0.001   0.004   0.000   0.002
 total augmentation occupancy for first ion, spin component:           1
  1.912  -0.137   0.001   0.000  -0.000   0.002   0.001  -0.000   0.001   0.002   0.001  -0.001  -0.001
 -0.137   0.120   0.011   0.003  -0.002  -0.004  -0.002   0.002  -0.001  -0.002  -0.002   0.005   0.000
  0.001   0.011   2.019   0.004   0.002   0.005   0.003   0.001   0.002   0.004  -0.002   0.001  -0.004
  0.000   0.003   0.004   2.020  -0.002   0.003   0.006  -0.001   0.001   0.004  -0.002  -0.001  -0.001
 -0.000  -0.002   0.002  -0.002   2.016   0.001  -0.001   0.003   0.003   0.001   0.000   0.002  -0.003
  0.002  -0.004   0.005   0.003   0.001   0.009  -0.001  -0.000  -0.001  -0.002   0.000  -0.000   0.001
  0.001  -0.002   0.003   0.006  -0.001  -0.001   0.008   0.001  -0.000  -0.001   0.002   0.000   0.001
 -0.000   0.002   0.001  -0.001   0.003  -0.000   0.001   0.009  -0.001  -0.000  -0.000  -0.001   0.002
  0.001  -0.001   0.002   0.001   0.003  -0.001  -0.000  -0.001   0.007   0.001  -0.000   0.000   0.001
  0.002  -0.002   0.004   0.004   0.001  -0.002  -0.001  -0.000   0.001   0.005   0.000  -0.000   0.001
  0.001  -0.002  -0.002  -0.002   0.000   0.000   0.002  -0.000  -0.000   0.000   0.006  -0.001  -0.000
 -0.001   0.005   0.001  -0.001   0.002  -0.000   0.000  -0.001   0.000  -0.000  -0.001   0.004   0.001
 -0.001   0.000  -0.004  -0.001  -0.003   0.001   0.001   0.002   0.001   0.001  -0.000   0.001   0.004


------------------------ aborting loop because EDIFF is reached ----------------------------------------





 total charge     

# of ion       s       p       d       tot
------------------------------------------
    1        1.786   4.717   0.019   6.521
    2        1.785   4.716   0.018   6.519
    3        1.787   4.717   0.020   6.525
    4        1.786   4.717   0.018   6.521
    5        1.786   4.716   0.018   6.520
    6        1.786   4.717   0.018   6.520
    7        1.785   4.717   0.018   6.520
    8        1.786   4.717   0.020   6.523
    9        1.554   0.426   9.835  11.815
   10        1.535   0.426   9.830  11.791
   11        1.553   0.411   9.833  11.797
   12        1.553   0.418   9.834  11.805
   13        1.532   0.437   9.831  11.800
   14        1.553   0.413   9.833  11.800
   15        1.554   0.421   9.834  11.808
   16        1.540   0.460   9.832  11.832
   17        1.614   3.281   0.006   4.902
   18        1.614   3.288   0.007   4.909
   19        1.615   3.287   0.007   4.909
   20        1.616   3.269   0.007   4.892
   21        1.614   3.287   0.007   4.908
   22        1.614   3.280   0.006   4.900
   23        1.615   3.284   0.007   4.905
   24        1.614   3.279   0.006   4.899
   25        1.614   3.278   0.006   4.898
   26        1.614   3.282   0.006   4.902
   27        1.613   3.278   0.005   4.896
   28        1.614   3.285   0.006   4.905
   29        1.614   3.286   0.006   4.906
   30        1.614   3.277   0.006   4.898
   31        1.614   3.283   0.006   4.904
   32        1.614   3.279   0.006   4.899
   33        1.615   3.277   0.006   4.898
   34        1.615   3.285   0.007   4.907
   35        1.614   3.282   0.006   4.902
   36        1.614   3.277   0.006   4.897
   37        1.616   3.269   0.007   4.892
   38        1.614   3.280   0.006   4.900
   39        1.617   3.285   0.008   4.911
--------------------------------------------------
tot         63.795 116.604  78.959 259.358

    CHARGE:  cpu time    0.3942: real time    0.3942
    FORLOC:  cpu time    0.0111: real time    0.0111
    FORNL :  cpu time    1.9237: real time    1.9240
    STRESS:  cpu time   49.7830: real time   49.7847
    FORCOR:  cpu time    0.2420: real time    0.2420
    FORHAR:  cpu time    0.0277: real time    0.0277
    MIXING:  cpu time    0.0021: real time    0.0021
    OFIELD:  cpu time    0.0000: real time    0.0000

  FORCE on cell =-STRESS in cart. coord.  units (eV):
  Direction    XX          YY          ZZ          XY          YZ          ZX
  --------------------------------------------------------------------------------------
  Alpha Z   872.70584   872.70584   872.70584
  Ewald   -5908.02953 -5870.16942 -6117.40463    97.10102   -92.18721   183.38235
  Hartree  2549.98786  2538.73682  2405.30700    56.02337   -55.22949   119.65405
  E(xc)   -1449.45968 -1449.32008 -1449.45774     0.12855    -0.10205     0.13769
  Local   -3033.38659 -3057.92450 -2680.66235  -153.44272   148.26855  -304.16887
  n-local  1748.69591  1749.43892  1746.88388     1.67151    -1.85785     0.56068
  augment   818.27393   817.17455   817.14451     0.23918    -0.25225     0.44298
  Kinetic  4394.37050  4395.50822  4401.04617    -0.76972     0.89494     0.33335
  Fock        0.00000     0.00000     0.00000     0.00000     0.00000     0.00000
  -------------------------------------------------------------------------------------
  Total      -6.84177    -3.84966    -4.43731     0.95119    -0.46535     0.34223
  in kB      -6.87218    -3.86677    -4.45704     0.95541    -0.46741     0.34375
  external pressure =       -5.07 kB  Pullay stress =        0.00 kB


 VOLUME and BASIS-vectors are now :
 -----------------------------------------------------------------------------
  energy-cutoff  :      300.00
  volume of cell :     1595.09
      direct lattice vectors                 reciprocal lattice vectors
     8.456489000  0.000000000  8.040301000     0.059126193 -0.000000000  0.062186727
     0.000000000 11.729847000  0.000000000     0.000000000  0.085252604 -0.000000000
    -8.456489000  0.000000000  8.040301000    -0.059126193  0.000000000  0.062186727

  length of vectors
    11.668703715 11.729847000 11.668703715     0.085808482  0.085252604  0.085808482


 FORCES acting on ions
    electron-ion (+dipol)            ewald-force                    non-local-force                 convergence-correction
 -----------------------------------------------------------------------------------------------
   0.151E+02 -.453E+02 -.531E+02   -.150E+02 0.449E+02 0.530E+02   -.836E-01 0.324E+00 0.112E+00   -.786E-04 -.784E-04 -.562E-05
   0.347E+02 -.719E+01 0.179E+02   -.345E+02 0.710E+01 -.177E+02   -.217E+00 0.109E+00 -.210E+00   0.295E-04 0.586E-04 -.965E-04
   0.465E+02 0.214E+02 0.121E+02   -.465E+02 -.214E+02 -.121E+02   0.173E-01 0.230E-01 0.332E-01   0.436E-04 -.130E-04 0.128E-03
   -.566E+02 0.100E+02 -.335E+02   0.565E+02 -.999E+01 0.335E+02   0.287E-01 -.342E-01 -.848E-03   0.121E-03 -.516E-04 -.976E-04
   0.708E+01 -.992E+01 0.578E+01   -.718E+01 0.982E+01 -.593E+01   0.103E+00 0.119E+00 0.157E+00   0.116E-03 0.527E-04 -.391E-04
   0.491E+02 -.186E+02 0.166E+02   -.490E+02 0.185E+02 -.166E+02   -.109E+00 0.634E-01 0.642E-01   -.610E-04 0.155E-05 0.808E-04
   -.278E+02 0.660E+01 0.848E+02   0.276E+02 -.650E+01 -.843E+02   0.144E+00 -.902E-01 -.506E+00   0.392E-04 -.628E-04 0.245E-04
   -.561E+02 0.333E+02 -.202E+02   0.559E+02 -.331E+02 0.204E+02   0.198E+00 -.187E+00 -.161E+00   -.195E-03 0.235E-04 0.197E-04
   -.667E+01 -.113E+01 -.135E+02   0.639E+01 0.101E+01 0.147E+02   0.278E+00 0.115E+00 -.109E+01   -.152E-04 -.117E-03 -.264E-04
   -.860E+01 0.116E+03 -.334E+02   0.859E+01 -.122E+03 0.341E+02   0.529E-01 0.558E+01 -.753E+00   -.989E-04 0.580E-03 -.639E-04
   -.838E+01 0.144E+02 -.506E+01   0.933E+01 -.139E+02 0.492E+01   -.942E+00 -.504E+00 0.900E-01   0.595E-04 -.481E-04 -.481E-04
   0.476E+01 -.681E+01 0.647E+01   -.536E+01 0.682E+01 -.704E+01   0.585E+00 -.874E-02 0.603E+00   -.203E-05 -.134E-03 0.321E-04
   0.111E+03 -.243E+02 -.609E+02   -.116E+03 0.252E+02 0.638E+02   0.519E+01 -.865E+00 -.304E+01   0.764E-03 -.308E-04 -.474E-03
   -.112E+02 -.126E+01 0.103E+02   0.109E+02 0.158E+01 -.102E+02   0.232E+00 -.340E+00 -.123E+00   -.592E-04 0.134E-03 0.312E-04
   -.160E+01 0.192E+01 -.220E+02   0.917E+00 -.174E+01 0.226E+02   0.690E+00 -.181E+00 -.638E+00   -.245E-06 0.126E-03 -.988E-04
   -.164E+02 -.389E+02 0.124E+02   0.140E+02 0.356E+02 -.977E+01   0.224E+01 0.298E+01 -.232E+01   -.207E-03 -.540E-04 0.214E-03
   0.898E+01 0.130E+02 0.352E+02   -.904E+01 -.130E+02 -.356E+02   0.475E-01 0.146E-01 0.376E+00   0.100E-03 -.456E-05 -.992E-04
   0.305E+02 0.953E+01 0.305E+02   -.307E+02 -.953E+01 -.306E+02   0.205E+00 0.127E-01 0.749E-01   -.170E-04 -.389E-04 0.316E-04
   -.493E+01 -.908E+01 0.308E+02   0.499E+01 0.909E+01 -.311E+02   -.549E-01 0.176E-02 0.262E+00   -.142E-04 0.195E-04 -.358E-04
   -.186E+02 -.374E+02 0.526E+02   0.186E+02 0.378E+02 -.531E+02   0.493E-01 -.509E+00 0.394E+00   -.474E-04 0.969E-05 0.133E-03
   0.371E+01 0.974E+01 -.407E+02   -.386E+01 -.974E+01 0.409E+02   0.131E+00 -.129E-02 -.215E+00   -.339E-05 -.149E-04 -.313E-04
   0.107E+02 -.137E+02 -.421E+02   -.107E+02 0.137E+02 0.423E+02   -.188E-01 0.516E-01 -.259E+00   0.892E-04 -.246E-04 -.315E-04
   -.163E+02 -.543E+01 -.330E+02   0.164E+02 0.543E+01 0.333E+02   -.276E-01 -.169E-01 -.320E+00   0.198E-05 0.373E-04 -.377E-05
   -.222E+02 0.472E+01 -.788E+01   0.225E+02 -.492E+01 0.769E+01   -.229E+00 0.182E+00 0.193E+00   0.122E-03 0.591E-04 -.126E-03
   -.877E+01 0.111E+01 0.458E+02   0.902E+01 -.125E+01 -.461E+02   -.192E+00 0.116E+00 0.254E+00   -.575E-04 0.508E-04 0.348E-04
   0.169E+02 -.168E+02 0.446E+02   -.170E+02 0.170E+02 -.450E+02   0.128E+00 -.174E+00 0.389E+00   0.519E-04 0.555E-04 -.699E-04
   -.260E+02 0.833E+01 -.143E+02   0.261E+02 -.822E+01 0.146E+02   -.110E+00 -.105E+00 -.282E+00   0.668E-05 0.107E-04 -.567E-04
   -.148E+02 -.174E+02 -.250E+02   0.150E+02 0.175E+02 0.251E+02   -.148E+00 -.103E+00 -.738E-01   -.712E-04 -.748E-04 0.241E-04
   0.368E+02 0.760E+01 -.451E+01   -.370E+02 -.765E+01 0.469E+01   0.162E+00 0.503E-01 -.179E+00   -.307E-05 -.402E-04 0.418E-05
   -.395E+01 0.373E+02 -.501E+02   0.380E+01 -.375E+02 0.505E+02   0.150E+00 0.221E+00 -.334E+00   -.349E-04 -.671E-04 0.227E-04
   -.334E+02 -.882E+01 0.203E+02   0.337E+02 0.895E+01 -.207E+02   -.235E+00 -.126E+00 0.323E+00   0.708E-04 -.668E-04 -.344E-04
   -.376E+00 0.143E+01 0.283E+02   0.656E+00 -.128E+01 -.283E+02   -.261E+00 -.140E+00 0.866E-01   -.526E-05 0.164E-04 0.221E-04
   0.236E+02 0.348E+02 0.655E+01   -.239E+02 -.351E+02 -.684E+01   0.295E+00 0.257E+00 0.261E+00   -.122E-04 -.872E-05 0.388E-04
   0.175E+02 0.195E+02 0.471E+02   -.177E+02 -.197E+02 -.475E+02   0.166E+00 0.169E+00 0.362E+00   0.495E-04 -.653E-04 -.363E-04
   0.508E+02 -.814E+01 -.210E+02   -.510E+02 0.825E+01 0.213E+02   0.161E+00 -.107E+00 -.317E+00   0.455E-04 0.369E-04 0.653E-05
   -.939E+01 -.312E+02 -.318E+02   0.920E+01 0.314E+02 0.320E+02   0.137E+00 -.248E+00 -.167E+00   -.178E-04 0.706E-04 0.851E-04
   -.458E+02 -.368E+01 0.356E+01   0.464E+02 0.346E+01 -.355E+01   -.690E+00 0.244E+00 0.138E+00   0.298E-04 0.542E-04 -.101E-03
   -.307E+02 0.143E+02 -.372E+02   0.309E+02 -.144E+02 0.374E+02   -.221E+00 0.128E+00 -.134E+00   -.109E-03 0.787E-04 0.241E-04
   -.461E+02 -.665E+02 0.440E+02   0.467E+02 0.674E+02 -.446E+02   -.272E+00 -.446E+00 0.237E+00   -.997E-04 -.216E-04 0.137E-03
 -----------------------------------------------------------------------------------------------
   -.757E+01 -.664E+01 0.674E+01   0.711E-14 -.142E-12 0.213E-13   0.759E+01 0.657E+01 -.670E+01   0.529E-03 0.459E-03 -.482E-03


 POSITION                                       TOTAL-FORCE (eV/Angst)
 -----------------------------------------------------------------------------------
      0.48065      2.77979      3.57742        -0.008143     -0.024585     -0.012138
      0.49903      2.87504     12.01563         0.011331      0.009287     -0.009932
      4.29927      8.95259      8.24892         0.059486      0.027612      0.020237
     -4.88870      8.78241      7.77403        -0.002061     -0.001786     -0.018551
     -3.67148      2.93903      8.26799         0.015868      0.013268      0.003735
      4.73501      2.88543      8.15898        -0.008858      0.005496      0.002650
     -0.58061      8.82184     12.39195        -0.000743     -0.006607      0.011810
     -0.62733      8.83085      4.05607        -0.015155      0.005908     -0.022382
      0.00444      0.00708     16.05258         0.001621     -0.002960      0.003965
      0.10271      0.03090      7.93494         0.028913      0.078465     -0.066382
     -4.22602      0.01539     11.96848        -0.004339     -0.002002     -0.027729
     -4.23199      0.00300      4.10392        -0.012979      0.007195      0.021003
      4.22545      5.92853      4.04381         0.092949     -0.000957     -0.056578
     -4.22785      5.79720      4.10659        -0.005425     -0.016439      0.037860
      8.44907      5.84476      8.04533         0.000400      0.002126     -0.001445
     -0.01207      5.72493      8.14845        -0.228483     -0.380382      0.263225
     -4.11331      8.81857     11.41146         0.002539      0.011024     -0.006113
      4.14145      8.76417     11.80826        -0.006474      0.006143      0.011532
     -0.07374      2.92947     15.64641        -0.004335      0.006158      0.004673
      0.01199      2.84180      7.30786         0.018898     -0.196341     -0.020724
     -0.11507      8.79443      0.39956        -0.011308     -0.003616     -0.002980
      4.08180      2.99259      4.46865        -0.004578     -0.006567     -0.005521
     -4.29338      2.90160      4.68910        -0.001960     -0.017257      0.002462
     -5.97454      5.51580      9.67235        -0.003084      0.002808      0.005738
      2.48201      5.32853      9.72159         0.041537     -0.012756      0.050643
      1.62847      6.20162     13.64848        -0.016416      0.001456      0.008904
     -1.63745      0.39154     10.35430         0.015784     -0.002232     -0.013851
     -1.84311      0.26588      2.34756        -0.000490     -0.001551     -0.006729
      5.98646     11.47174      6.33913        -0.004202      0.007740     -0.015885
     -2.47499     11.24516      6.46390         0.002144     -0.000737      0.001230
     -5.88105      0.35002      9.51110         0.006168      0.004830      0.010269
      2.52046      0.35023      9.62099        -0.002673     -0.007179     -0.001513
      1.67523     11.40872      5.42251         0.010094      0.008038      0.002269
      1.64060     11.36911     13.62534        -0.008654     -0.004628      0.000438
      5.86849      6.20663      6.48458        -0.003340     -0.002284      0.000062
     -2.48029      6.25682      6.53959        -0.033741      0.000643     -0.013738
     -1.79158      5.56860     10.60319        -0.164283      0.037550      0.150068
     -1.74539      5.51525      2.47684         0.008056      0.002138     -0.009391
      1.22792      7.77953      6.91674         0.235935      0.452979     -0.301192
 -----------------------------------------------------------------------------------
    total drift:                                0.017161     -0.073591      0.036359


--------------------------------------------------------------------------------------------------------



  FREE ENERGIE OF THE ION-ELECTRON SYSTEM (eV)
  ---------------------------------------------------
  free  energy   TOTEN  =     -1409.46189714 eV

  energy  without entropy=    -1409.46189714  energy(sigma->0) =    -1409.46189714



--------------------------------------------------------------------------------------------------------


    POTLOK:  cpu time    1.4337: real time    1.4337


--------------------------------------------------------------------------------------------------------


 stress matrix after NEB project (eV)
     -6.84177      0.95124      0.34223
      0.95119     -3.84966     -0.46539
      0.34219     -0.46535     -4.43731
  FORCES: max atom, RMS     0.592935    0.138755
  FORCE total and by dimension    0.866523    0.452979
  Stress total and by dimension    9.154038    6.841770
     LOOP+:  cpu time  486.1471: real time  487.0004
    4ORBIT:  cpu time    0.0000: real time    0.0000



 total charge     

# of ion       s       p       d       tot
------------------------------------------
    1        1.786   4.717   0.019   6.521
    2        1.785   4.716   0.018   6.519
    3        1.787   4.717   0.020   6.525
    4        1.786   4.717   0.018   6.521
    5        1.786   4.716   0.018   6.520
    6        1.786   4.717   0.018   6.520
    7        1.785   4.717   0.018   6.520
    8        1.786   4.717   0.020   6.523
    9        1.554   0.426   9.835  11.815
   10        1.535   0.426   9.830  11.791
   11        1.553   0.411   9.833  11.797
   12        1.553   0.418   9.834  11.805
   13        1.532   0.437   9.831  11.800
   14        1.553   0.413   9.833  11.800
   15        1.554   0.421   9.834  11.808
   16        1.540   0.460   9.832  11.832
   17        1.614   3.281   0.006   4.902
   18        1.614   3.288   0.007   4.909
   19        1.615   3.287   0.007   4.909
   20        1.616   3.269   0.007   4.892
   21        1.614   3.287   0.007   4.908
   22        1.614   3.280   0.006   4.900
   23        1.615   3.284   0.007   4.905
   24        1.614   3.279   0.006   4.899
   25        1.614   3.278   0.006   4.898
   26        1.614   3.282   0.006   4.902
   27        1.613   3.278   0.005   4.896
   28        1.614   3.285   0.006   4.905
   29        1.614   3.286   0.006   4.906
   30        1.614   3.277   0.006   4.898
   31        1.614   3.283   0.006   4.904
   32        1.614   3.279   0.006   4.899
   33        1.615   3.277   0.006   4.898
   34        1.615   3.285   0.007   4.907
   35        1.614   3.282   0.006   4.902
   36        1.614   3.277   0.006   4.897
   37        1.616   3.269   0.007   4.892
   38        1.614   3.280   0.006   4.900
   39        1.617   3.285   0.008   4.911
--------------------------------------------------
tot         63.795 116.604  78.959 259.358


 total amount of memory used by VASP MPI-rank0    60659. kBytes
=======================================================================

   base      :      30000. kBytes
   nonlr-proj:       6494. kBytes
   fftplans  :       8423. kBytes
   grid      :       7465. kBytes
   one-center:         77. kBytes
   wavefun   :       8200. kBytes

  
  
 General timing and accounting informations for this job:
 ========================================================
  
                  Total CPU time used (sec):      498.546
                            User time (sec):      496.942
                          System time (sec):        1.604
                         Elapsed time (sec):      499.966
  
                   Maximum memory used (kb):       78160.
                   Average memory used (kb):           0.
  
                          Minor page faults:        20991
                          Major page faults:            2
                 Voluntary context switches:         1690
