<?xml version="1.0" encoding="ISO-8859-1"?>
<modeling>
 <generator>
  <i name="program" type="string">vasp </i>
  <i name="version" type="string">5.4.4.18Apr17-6-g9f103f2a35  </i>
  <i name="subversion" type="string">(build Jun 22 2020 09:27:21) complex            parallel </i>
  <i name="platform" type="string">tx2_gcc-7.3_libsci-18.07_cray-fftw-3.3.8 </i>
  <i name="date" type="string">2021 10 11 </i>
  <i name="time" type="string">23:15:42 </i>
 </generator>
 <incar>
  <i type="string" name="SYSTEM"> CsPbBr3 cubic bulk</i>
  <i type="string" name="PREC">accurate</i>
  <i type="string" name="ALGO"> NORMAL   ! Electronic minimisation algo</i>
  <i type="logical" name="ADDGRID"> T  </i>
  <i type="int" name="ISPIN">     1</i>
  <i type="int" name="NELM">   200</i>
  <i type="int" name="IBRION">     2</i>
  <i name="EDIFF">      0.00000100</i>
  <i name="EDIFFG">     -0.01000000</i>
  <i type="int" name="NSW">     0</i>
  <i type="int" name="ISIF">     2</i>
  <i type="int" name="ISYM">     0</i>
  <i name="ENCUT">    300.00000000</i>
  <i name="POTIM">      0.50000000</i>
  <i name="NUPDOWN">      0.00000000</i>
  <i name="NELECT">    344.00000000</i>
  <i type="string" name="LREAL"> AUTO</i>
  <i type="int" name="ISMEAR">     0</i>
  <i name="SIGMA">      0.01000000</i>
  <i type="logical" name="LWAVE"> F  </i>
  <i type="logical" name="LCHARG"> F  </i>
  <i type="logical" name="LVHAR"> T  </i>
  <i type="int" name="LORBIT">    10</i>
  <i type="logical" name="LASPH"> T  </i>
  <v type="int" name="KPOINT_BSE">    -1     0     0     0</v>
  <i type="int" name="NELM">   200</i>
  <i type="string" name="METAGGA"> SCAN       ! PBE exchange-correlation</i>
  <i type="logical" name="LASPH"> T  </i>
 </incar>
 <structure name="primitive_cell" >
  <crystal>
   <varray name="basis" >
    <v>       8.45648900       0.00000000       8.04030100 </v>
    <v>       0.00000000      11.72984700       0.00000000 </v>
    <v>      -8.45648900       0.00000000       8.04030100 </v>
   </varray>
   <i name="volume">   1595.08833419 </i>
   <varray name="rec_basis" >
    <v>       0.05912619      -0.00000000       0.06218673 </v>
    <v>       0.00000000       0.08525260      -0.00000000 </v>
    <v>      -0.05912619       0.00000000       0.06218673 </v>
   </varray>
  </crystal>
  <varray name="positions" >
   <v>       0.25088700       0.23698400       0.19404900 </v>
   <v>       0.03701100       0.02266700       0.25496300 </v>
   <v>       0.05082800       0.47018900       0.25722500 </v>
   <v>      -0.48076800       0.25512600       0.03655000 </v>
   <v>       0.45516100       0.24227100       0.45374300 </v>
   <v>       0.43625800      -0.02737700       0.23815800 </v>
   <v>       0.24374000       0.02984000      -0.06081200 </v>
   <v>       0.24824000       0.47023600      -0.04525600 </v>
   <v>      -0.03136100       0.24974500      -0.02264100 </v>
   <v>      -0.00148000       0.00060400      -0.00200500 </v>
   <v>       0.49441200       0.00131200      -0.00585100 </v>
   <v>      -0.00012600       0.49828100       0.00075100 </v>
   <v>       0.03774800       0.24736900      -0.45454900 </v>
   <v>      -0.49869400      -0.49457700       0.00163600 </v>
   <v>       0.49952100       0.00263400       0.48737500 </v>
   <v>       0.25563200      -0.04132100      -0.45169500 </v>
   <v>       0.26002600      -0.46659000      -0.44667400 </v>
   <v>      -0.21265700       0.24599000       0.22741700 </v>
   <v>       0.29707900       0.25056000      -0.26876000 </v>
   <v>      -0.49398800       0.48806500      -0.49256100 </v>
   <v>       0.00498800       0.00025600      -0.49456900 </v>
   <v>       0.00539900       0.49422600      -0.49464800 </v>
   <v>       0.21514200      -0.24714700       0.28932500 </v>
   <v>      -0.49726800      -0.33677500       0.35752700 </v>
   <v>       0.01804400      -0.25025200       0.03165100 </v>
   <v>      -0.25183400      -0.02200400       0.04025300 </v>
   <v>      -0.25267700       0.02985800       0.44927300 </v>
   <v>      -0.44655200       0.47473800      -0.23469300 </v>
   <v>       0.46643700      -0.24819400      -0.04715400 </v>
   <v>      -0.45291600       0.03338000      -0.25928400 </v>
   <v>      -0.24976400      -0.47086900       0.05627300 </v>
   <v>      -0.05568200      -0.03075400      -0.24968700 </v>
   <v>      -0.24869400       0.45427100       0.45780200 </v>
   <v>      -0.05496100      -0.47129600      -0.24753100 </v>
   <v>      -0.02081500      -0.25283200       0.48944900 </v>
   <v>       0.19439100      -0.25127700      -0.22750800 </v>
   <v>      -0.22328100       0.24510500      -0.28229300 </v>
   <v>      -0.23282700      -0.23676800       0.25877400 </v>
   <v>      -0.26371400      -0.24791500      -0.19505600 </v>
  </varray>
 </structure>
 <varray name="primitive_index" >
  <v type="int" >        1 </v>
  <v type="int" >       28 </v>
  <v type="int" >       38 </v>
  <v type="int" >       22 </v>
  <v type="int" >       20 </v>
  <v type="int" >       33 </v>
  <v type="int" >       31 </v>
  <v type="int" >       24 </v>
  <v type="int" >       19 </v>
  <v type="int" >        9 </v>
  <v type="int" >       11 </v>
  <v type="int" >       15 </v>
  <v type="int" >       23 </v>
  <v type="int" >       13 </v>
  <v type="int" >       10 </v>
  <v type="int" >       30 </v>
  <v type="int" >       36 </v>
  <v type="int" >        6 </v>
  <v type="int" >        5 </v>
  <v type="int" >       16 </v>
  <v type="int" >       12 </v>
  <v type="int" >       14 </v>
  <v type="int" >        8 </v>
  <v type="int" >       39 </v>
  <v type="int" >       21 </v>
  <v type="int" >       29 </v>
  <v type="int" >       32 </v>
  <v type="int" >       37 </v>
  <v type="int" >       17 </v>
  <v type="int" >       27 </v>
  <v type="int" >       35 </v>
  <v type="int" >       34 </v>
  <v type="int" >       25 </v>
  <v type="int" >       26 </v>
  <v type="int" >       18 </v>
  <v type="int" >        4 </v>
  <v type="int" >        2 </v>
  <v type="int" >        3 </v>
  <v type="int" >        7 </v>
 </varray>
 <kpoints>
  <generation param="Gamma">
   <v type="int" name="divisions">       2        2        2 </v>
   <v name="usershift">      0.00000000       0.00000000       0.00000000 </v>
   <v name="genvec1">      0.50000000       0.00000000       0.00000000 </v>
   <v name="genvec2">      0.00000000       0.50000000       0.00000000 </v>
   <v name="genvec3">      0.00000000       0.00000000       0.50000000 </v>
   <v name="shift">      0.00000000       0.00000000       0.00000000 </v>
  </generation>
  <varray name="kpointlist" >
   <v>       0.00000000       0.00000000       0.00000000 </v>
   <v>       0.50000000       0.00000000       0.00000000 </v>
   <v>       0.00000000       0.50000000       0.00000000 </v>
   <v>       0.50000000       0.50000000       0.00000000 </v>
   <v>       0.00000000       0.00000000       0.50000000 </v>
   <v>       0.50000000       0.00000000       0.50000000 </v>
   <v>       0.00000000       0.50000000       0.50000000 </v>
   <v>       0.50000000       0.50000000       0.50000000 </v>
  </varray>
  <varray name="weights" >
   <v>       0.12500000 </v>
   <v>       0.12500000 </v>
   <v>       0.12500000 </v>
   <v>       0.12500000 </v>
   <v>       0.12500000 </v>
   <v>       0.12500000 </v>
   <v>       0.12500000 </v>
   <v>       0.12500000 </v>
  </varray>
 </kpoints>
 <parameters>
  <separator name="general" >
   <i type="string" name="SYSTEM">CsPbBr3 cubic bulk</i>
   <i type="logical" name="LCOMPAT"> F  </i>
  </separator>
  <separator name="electronic" >
   <i type="string" name="PREC">accura</i>
   <i name="ENMAX">    300.00000000</i>
   <i name="ENAUG">    503.85200000</i>
   <i name="EDIFF">      0.00000100</i>
   <i type="int" name="IALGO">    38</i>
   <i type="int" name="IWAVPR">    10</i>
   <i type="int" name="NBANDS">   208</i>
   <i name="NELECT">    344.00000000</i>
   <i type="int" name="TURBO">     0</i>
   <i type="int" name="IRESTART">     0</i>
   <i type="int" name="NREBOOT">     0</i>
   <i type="int" name="NMIN">     0</i>
   <i name="EREF">      0.00000000</i>
   <separator name="electronic smearing" >
    <i type="int" name="ISMEAR">     0</i>
    <i name="SIGMA">      0.01000000</i>
    <i name="KSPACING">      0.50000000</i>
    <i type="logical" name="KGAMMA"> T  </i>
   </separator>
   <separator name="electronic projectors" >
    <i type="logical" name="LREAL"> T  </i>
    <v name="ROPT">     -0.00025000     -0.00025000     -0.00025000</v>
    <i type="int" name="LMAXPAW">  -100</i>
    <i type="int" name="LMAXMIX">     2</i>
    <i type="logical" name="NLSPLINE"> F  </i>
   </separator>
   <separator name="electronic startup" >
    <i type="int" name="ISTART">     0</i>
    <i type="int" name="ICHARG">     2</i>
    <i type="int" name="INIWAV">     1</i>
   </separator>
   <separator name="electronic spin" >
    <i type="int" name="ISPIN">     1</i>
    <i type="logical" name="LNONCOLLINEAR"> F  </i>
    <v name="MAGMOM">      0.00000000      0.00000000      0.00000000      0.00000000      0.00000000      0.00000000      0.00000000      0.00000000      0.00000000      0.00000000      0.00000000      0.00000000      0.00000000      0.00000000      0.00000000      0.00000000      0.00000000      0.00000000      0.00000000      0.00000000
      0.00000000      0.00000000      0.00000000      0.00000000      0.00000000      0.00000000      0.00000000      0.00000000      0.00000000      0.00000000      0.00000000      0.00000000      0.00000000      0.00000000      0.00000000      0.00000000      0.00000000      0.00000000      0.00000000</v>
    <i name="NUPDOWN">      0.00000000</i>
    <i type="logical" name="LSORBIT"> F  </i>
    <v name="SAXIS">      0.00000000      0.00000000      1.00000000</v>
    <i type="logical" name="LSPIRAL"> F  </i>
    <v name="QSPIRAL">      0.00000000      0.00000000      0.00000000</v>
    <i type="logical" name="LZEROZ"> F  </i>
   </separator>
   <separator name="electronic exchange-correlation" >
    <i type="logical" name="LASPH"> T  </i>
    <i type="logical" name="LMETAGGA"> F  </i>
   </separator>
   <separator name="electronic convergence" >
    <i type="int" name="NELM">   200</i>
    <i type="int" name="NELMDL">    -5</i>
    <i type="int" name="NELMIN">     2</i>
    <i name="ENINI">    300.00000000</i>
    <separator name="electronic convergence detail" >
     <i type="logical" name="LDIAG"> T  </i>
     <i type="logical" name="LSUBROT"> F  </i>
     <i name="WEIMIN">      0.00000000</i>
     <i name="EBREAK">      0.00000000</i>
     <i name="DEPER">      0.30000000</i>
     <i type="int" name="NRMM">     4</i>
     <i name="TIME">      0.40000000</i>
    </separator>
   </separator>
   <separator name="electronic mixer" >
    <i name="AMIX">      0.40000000</i>
    <i name="BMIX">      1.00000000</i>
    <i name="AMIN">      0.10000000</i>
    <i name="AMIX_MAG">      1.60000000</i>
    <i name="BMIX_MAG">      1.00000000</i>
    <separator name="electronic mixer details" >
     <i type="int" name="IMIX">     4</i>
     <i type="logical" name="MIXFIRST"> F  </i>
     <i type="int" name="MAXMIX">   -45</i>
     <i name="WC">    100.00000000</i>
     <i type="int" name="INIMIX">     1</i>
     <i type="int" name="MIXPRE">     1</i>
     <i type="int" name="MREMOVE">     5</i>
    </separator>
   </separator>
   <separator name="electronic dipolcorrection" >
    <i type="logical" name="LDIPOL"> F  </i>
    <i type="logical" name="LMONO"> F  </i>
    <i type="int" name="IDIPOL">     0</i>
    <i name="EPSILON">      1.00000000</i>
    <v name="DIPOL">   -100.00000000   -100.00000000   -100.00000000</v>
    <i name="EFIELD">      0.00000000</i>
   </separator>
  </separator>
  <separator name="grids" >
   <i type="int" name="NGX">    70</i>
   <i type="int" name="NGY">    70</i>
   <i type="int" name="NGZ">    70</i>
   <i type="int" name="NGXF">   140</i>
   <i type="int" name="NGYF">   140</i>
   <i type="int" name="NGZF">   140</i>
   <i type="logical" name="ADDGRID"> T  </i>
  </separator>
  <separator name="ionic" >
   <i type="int" name="NSW">     0</i>
   <i type="int" name="IBRION">    -1</i>
   <i type="int" name="MDALGO">     0</i>
   <i type="int" name="ISIF">     2</i>
   <i name="PSTRESS">      0.00000000</i>
   <i name="EDIFFG">     -0.01000000</i>
   <i type="int" name="NFREE">     1</i>
   <i name="POTIM">      0.50000000</i>
   <i name="SMASS">     -3.00000000</i>
   <i name="SCALEE">      1.00000000</i>
  </separator>
  <separator name="ionic md" >
   <i name="TEBEG">      0.00010000</i>
   <i name="TEEND">      0.00010000</i>
   <i type="int" name="NBLOCK">     1</i>
   <i type="int" name="KBLOCK">     1</i>
   <i type="int" name="NPACO">   256</i>
   <i name="APACO">     16.00000000</i>
  </separator>
  <separator name="symmetry" >
   <i type="int" name="ISYM">     0</i>
   <i name="SYMPREC">      0.00001000</i>
  </separator>
  <separator name="dos" >
   <i type="int" name="LORBIT">    10</i>
   <v name="RWIGS">     -1.00000000     -1.00000000     -1.00000000</v>
   <i type="int" name="NEDOS">   301</i>
   <i name="EMIN">     10.00000000</i>
   <i name="EMAX">    -10.00000000</i>
   <i name="EFERMI">      0.00000000</i>
  </separator>
  <separator name="writing" >
   <i type="int" name="NWRITE">     2</i>
   <i type="logical" name="LWAVE"> F  </i>
   <i type="logical" name="LDOWNSAMPLE"> F  </i>
   <i type="logical" name="LCHARG"> F  </i>
   <i type="logical" name="LPARD"> F  </i>
   <i type="logical" name="LVTOT"> F  </i>
   <i type="logical" name="LVHAR"> T  </i>
   <i type="logical" name="LELF"> F  </i>
   <i type="logical" name="LOPTICS"> F  </i>
   <v name="STM">      0.00000000      0.00000000      0.00000000      0.00000000      0.00000000      0.00000000      0.00000000</v>
  </separator>
  <separator name="performance" >
   <i type="int" name="NPAR">     8</i>
   <i type="int" name="NSIM">     4</i>
   <i type="int" name="NBLK">    -1</i>
   <i type="logical" name="LPLANE"> T  </i>
   <i type="logical" name="LSCALAPACK"> T  </i>
   <i type="logical" name="LSCAAWARE"> F  </i>
   <i type="logical" name="LSCALU"> F  </i>
   <i type="logical" name="LASYNC"> F  </i>
   <i type="logical" name="LORBITALREAL"> F  </i>
  </separator>
  <separator name="miscellaneous" >
   <i type="int" name="IDIOT">     3</i>
   <i type="int" name="ISPECIAL">     0</i>
   <i type="logical" name="LMUSIC"> F  </i>
   <v name="POMASS">    132.90000000    207.20000000     79.90400000</v>
   <v name="DARWINR">      0.00000000      0.00000000      0.00000000</v>
   <v name="DARWINV">      1.00000000      1.00000000      1.00000000</v>
   <i type="logical" name="LCORR"> T  </i>
  </separator>
  <i type="logical" name="GGA_COMPAT"> T  </i>
  <i type="logical" name="LBERRY"> F  </i>
  <i type="int" name="ICORELEVEL">     0</i>
  <i type="logical" name="LDAU"> F  </i>
  <i type="int" name="I_CONSTRAINED_M">     0</i>
  <separator name="electronic exchange-correlation" >
   <i type="string" name="GGA">--</i>
   <i type="int" name="VOSKOWN">     0</i>
   <i type="logical" name="LHFCALC"> F  </i>
   <i type="string" name="PRECFOCK"></i>
   <i type="logical" name="LSYMGRAD"> F  </i>
   <i type="logical" name="LHFONE"> F  </i>
   <i type="logical" name="LRHFCALC"> F  </i>
   <i type="logical" name="LTHOMAS"> F  </i>
   <i type="logical" name="LMODELHF"> F  </i>
   <i name="ENCUT4O">     -1.00000000</i>
   <i type="int" name="EXXOEP">     0</i>
   <i type="int" name="FOURORBIT">     0</i>
   <i name="AEXX">      0.00000000</i>
   <i name="HFALPHA">      0.00000000</i>
   <i name="MCALPHA">      0.00000000</i>
   <i name="ALDAX">      1.00000000</i>
   <i name="AGGAX">      1.00000000</i>
   <i name="ALDAC">      1.00000000</i>
   <i name="AGGAC">      1.00000000</i>
   <i type="int" name="NKREDX">     1</i>
   <i type="int" name="NKREDY">     1</i>
   <i type="int" name="NKREDZ">     1</i>
   <i type="logical" name="SHIFTRED"> F  </i>
   <i type="logical" name="ODDONLY"> F  </i>
   <i type="logical" name="EVENONLY"> F  </i>
   <i type="int" name="LMAXFOCK">     0</i>
   <i type="int" name="NMAXFOCKAE">     0</i>
   <i type="logical" name="LFOCKAEDFT"> F  </i>
   <i name="HFSCREEN">      0.00000000</i>
   <i name="HFSCREENC">      0.00000000</i>
   <i type="int" name="NBANDSGWLOW">     0</i>
  </separator>
  <separator name="vdW DFT" >
   <i type="logical" name="LUSE_VDW"> F  </i>
   <i name="Zab_VDW">     -0.84910000</i>
   <i name="PARAM1">      0.12340000</i>
   <i name="PARAM2">      1.00000000</i>
   <i name="PARAM3">      0.00000000</i>
  </separator>
  <separator name="model GW" >
   <i type="int" name="MODEL_GW">     0</i>
   <i name="MODEL_EPS0">     24.53982053</i>
   <i name="MODEL_ALPHA">      1.00000000</i>
  </separator>
  <separator name="linear response parameters" >
   <i type="logical" name="LEPSILON"> F  </i>
   <i type="logical" name="LRPA"> F  </i>
   <i type="logical" name="LNABLA"> F  </i>
   <i type="logical" name="LVEL"> F  </i>
   <i type="int" name="KINTER">     0</i>
   <i name="CSHIFT">      0.10000000</i>
   <i name="OMEGAMAX">     -1.00000000</i>
   <i name="DEG_THRESHOLD">      0.00200000</i>
   <i name="RTIME">     -0.10000000</i>
   <i name="WPLASMAI">      0.00000000</i>
   <v name="DFIELD">      0.00000000      0.00000000      0.00000000</v>
   <v name="WPLASMA">      0.00000000      0.00000000      0.00000000      0.00000000      0.00000000      0.00000000      0.00000000      0.00000000      0.00000000</v>
  </separator>
  <separator name="orbital magnetization" >
   <i type="logical" name="NUCIND"> F  </i>
   <v name="MAGPOS">      0.00000000      0.00000000      0.00000000</v>
   <i type="logical" name="LNICSALL"> T  </i>
   <i type="logical" name="ORBITALMAG"> F  </i>
   <i type="logical" name="LMAGBLOCH"> F  </i>
   <i type="logical" name="LCHIMAG"> F  </i>
   <i type="logical" name="LGAUGE"> T  </i>
   <i type="int" name="MAGATOM">     0</i>
   <v name="MAGDIPOL">      0.00000000      0.00000000      0.00000000</v>
   <v name="AVECCONST">      0.00000000      0.00000000      0.00000000</v>
  </separator>
  <separator name="response functions" >
   <i type="logical" name="LADDER"> F  </i>
   <i type="logical" name="LRPAFORCE"> F  </i>
   <i type="logical" name="LFXC"> F  </i>
   <i type="logical" name="LHARTREE"> T  </i>
   <i type="int" name="IBSE">     0</i>
   <v type="int" name="KPOINT">    -1     0     0     0</v>
   <i type="logical" name="LTCTE"> F  </i>
   <i type="logical" name="LTETE"> F  </i>
   <i type="logical" name="LTRIPLET"> F  </i>
   <i type="logical" name="LFXCEPS"> F  </i>
   <i type="logical" name="LFXHEG"> F  </i>
   <i type="int" name="NATURALO">     2</i>
   <i type="logical" name="L2ORDER"> F  </i>
   <i type="logical" name="LMP2LT"> F  </i>
   <i type="logical" name="LUSEW"> F  </i>
   <i name="ENCUTGW">     -2.00000000</i>
   <i name="ENCUTGWSOFT">     -2.00000000</i>
   <i name="ENCUTLF">     -1.00000000</i>
   <i type="int" name="LMAXMP2">    -1</i>
   <i name="SCISSOR">      0.00000000</i>
   <i type="int" name="NOMEGA">     0</i>
   <i type="int" name="NOMEGAR">     0</i>
   <i type="int" name="NBANDSGW">    -1</i>
   <i type="int" name="NBANDSO">    -1</i>
   <i type="int" name="NBANDSV">    -1</i>
   <i type="int" name="NELM">   200</i>
   <i type="int" name="NELMHF">     1</i>
   <i type="int" name="DIM">     3</i>
   <i type="int" name="ANTIRES">     0</i>
   <i name="OMEGAMAX">    -30.00000000</i>
   <i name="OMEGAMIN">    -30.00000000</i>
   <i name="OMEGATL">   -200.00000000</i>
   <i type="int" name="OMEGAGRID">   140</i>
   <i name="CSHIFT">     -0.10000000</i>
   <i type="logical" name="SELFENERGY"> F  </i>
   <i type="logical" name="LSPECTRAL"> F  </i>
   <i type="logical" name="LSPECTRALGW"> F  </i>
   <i type="logical" name="LSINGLES"> F  </i>
   <i type="logical" name="LFERMIGW"> F  </i>
   <i type="logical" name="ODDONLYGW"> F  </i>
   <i type="logical" name="EVENONLYGW"> F  </i>
   <i type="int" name="NKREDLFX">     1</i>
   <i type="int" name="NKREDLFY">     1</i>
   <i type="int" name="NKREDLFZ">     1</i>
   <i type="int" name="MAXMEM">  2800</i>
   <i type="int" name="TELESCOPE">     0</i>
   <i type="int" name="TAUPAR">     1</i>
   <i type="int" name="OMEGAPAR">    -1</i>
   <i name="LAMBDA">      1.00000000</i>
  </separator>
  <separator name="External order field" >
   <i name="OFIELD_KAPPA">      0.00000000</i>
   <v name="OFIELD_K">      0.00000000      0.00000000      0.00000000</v>
   <i name="OFIELD_Q6_NEAR">      0.00000000</i>
   <i name="OFIELD_Q6_FAR">      0.00000000</i>
   <i name="OFIELD_A">      0.00000000</i>
  </separator>
 </parameters>
 <atominfo>
  <atoms>      39 </atoms>
  <types>       3 </types>
  <array name="atoms" >
   <dimension dim="1">ion</dimension>
   <field type="string">element</field>
   <field type="int">atomtype</field>
   <set>
    <rc><c>Cs</c><c>   1</c></rc>
    <rc><c>Cs</c><c>   1</c></rc>
    <rc><c>Cs</c><c>   1</c></rc>
    <rc><c>Cs</c><c>   1</c></rc>
    <rc><c>Cs</c><c>   1</c></rc>
    <rc><c>Cs</c><c>   1</c></rc>
    <rc><c>Cs</c><c>   1</c></rc>
    <rc><c>Cs</c><c>   1</c></rc>
    <rc><c>Pb</c><c>   2</c></rc>
    <rc><c>Pb</c><c>   2</c></rc>
    <rc><c>Pb</c><c>   2</c></rc>
    <rc><c>Pb</c><c>   2</c></rc>
    <rc><c>Pb</c><c>   2</c></rc>
    <rc><c>Pb</c><c>   2</c></rc>
    <rc><c>Pb</c><c>   2</c></rc>
    <rc><c>Pb</c><c>   2</c></rc>
    <rc><c>Br</c><c>   3</c></rc>
    <rc><c>Br</c><c>   3</c></rc>
    <rc><c>Br</c><c>   3</c></rc>
    <rc><c>Br</c><c>   3</c></rc>
    <rc><c>Br</c><c>   3</c></rc>
    <rc><c>Br</c><c>   3</c></rc>
    <rc><c>Br</c><c>   3</c></rc>
    <rc><c>Br</c><c>   3</c></rc>
    <rc><c>Br</c><c>   3</c></rc>
    <rc><c>Br</c><c>   3</c></rc>
    <rc><c>Br</c><c>   3</c></rc>
    <rc><c>Br</c><c>   3</c></rc>
    <rc><c>Br</c><c>   3</c></rc>
    <rc><c>Br</c><c>   3</c></rc>
    <rc><c>Br</c><c>   3</c></rc>
    <rc><c>Br</c><c>   3</c></rc>
    <rc><c>Br</c><c>   3</c></rc>
    <rc><c>Br</c><c>   3</c></rc>
    <rc><c>Br</c><c>   3</c></rc>
    <rc><c>Br</c><c>   3</c></rc>
    <rc><c>Br</c><c>   3</c></rc>
    <rc><c>Br</c><c>   3</c></rc>
    <rc><c>Br</c><c>   3</c></rc>
   </set>
  </array>
  <array name="atomtypes" >
   <dimension dim="1">type</dimension>
   <field type="int">atomspertype</field>
   <field type="string">element</field>
   <field>mass</field>
   <field>valence</field>
   <field type="string">pseudopotential</field>
   <set>
    <rc><c>   8</c><c>Cs</c><c>    132.90000000</c><c>      9.00000000</c><c>  PAW_PBE Cs_sv 08Apr2002               </c></rc>
    <rc><c>   8</c><c>Pb</c><c>    207.20000000</c><c>     14.00000000</c><c>  PAW_PBE Pb_d 06Sep2000                </c></rc>
    <rc><c>  23</c><c>Br</c><c>     79.90400000</c><c>      7.00000000</c><c>  PAW_PBE Br 06Sep2000                  </c></rc>
   </set>
  </array>
 </atominfo>
 <structure name="initialpos" >
  <crystal>
   <varray name="basis" >
    <v>       8.45648900       0.00000000       8.04030100 </v>
    <v>       0.00000000      11.72984700       0.00000000 </v>
    <v>      -8.45648900       0.00000000       8.04030100 </v>
   </varray>
   <i name="volume">   1595.08833419 </i>
   <varray name="rec_basis" >
    <v>       0.05912619      -0.00000000       0.06218673 </v>
    <v>       0.00000000       0.08525260      -0.00000000 </v>
    <v>      -0.05912619       0.00000000       0.06218673 </v>
   </varray>
  </crystal>
  <varray name="positions" >
   <v>       0.25088700       0.23698400       0.19404900 </v>
   <v>       0.77671900       0.24510500       0.71770700 </v>
   <v>       0.76717300       0.76323200       0.25877400 </v>
   <v>       0.19439100       0.74872300       0.77249200 </v>
   <v>       0.29707900       0.25056000       0.73124000 </v>
   <v>       0.78734300       0.24599000       0.22741700 </v>
   <v>       0.73628600       0.75208500       0.80494400 </v>
   <v>       0.21514200       0.75285300       0.28932500 </v>
   <v>       0.99852000       0.00060400       0.99799500 </v>
   <v>       0.49952100       0.00263400       0.48737500 </v>
   <v>       0.49441200       0.00131200       0.99414900 </v>
   <v>       0.00498800       0.00025600       0.50543100 </v>
   <v>       0.50130600       0.50542300       0.00163600 </v>
   <v>       0.00539900       0.49422600       0.50535200 </v>
   <v>       0.99987400       0.49828100       0.00075100 </v>
   <v>       0.50601200       0.48806500       0.50743900 </v>
   <v>       0.46643700       0.75180600       0.95284600 </v>
   <v>       0.97918500       0.74716800       0.48944900 </v>
   <v>       0.96863900       0.24974500       0.97735900 </v>
   <v>       0.45516100       0.24227100       0.45374300 </v>
   <v>       0.01804400       0.74974800       0.03165100 </v>
   <v>       0.51923200       0.25512600       0.03655000 </v>
   <v>       0.03774800       0.24736900       0.54545100 </v>
   <v>       0.24824000       0.47023600       0.95474400 </v>
   <v>       0.75130600       0.45427100       0.45780200 </v>
   <v>       0.94503900       0.52870400       0.75246900 </v>
   <v>       0.54708400       0.03338000       0.74071600 </v>
   <v>       0.03701100       0.02266700       0.25496300 </v>
   <v>       0.74816600       0.97799600       0.04025300 </v>
   <v>       0.25563200       0.95867900       0.54830500 </v>
   <v>       0.24374000       0.02984000       0.93918800 </v>
   <v>       0.74732300       0.02985800       0.44927300 </v>
   <v>       0.43625800       0.97262300       0.23815800 </v>
   <v>       0.94431800       0.96924600       0.75031300 </v>
   <v>       0.75023600       0.52913100       0.05627300 </v>
   <v>       0.26002600       0.53341000       0.55332600 </v>
   <v>       0.55344800       0.47473800       0.76530700 </v>
   <v>       0.05082800       0.47018900       0.25722500 </v>
   <v>       0.50273200       0.66322500       0.35752700 </v>
  </varray>
 </structure>
 <calculation>
  <scstep>
   <time name="dav">   16.70   16.71</time>
   <time name="total">   18.16   18.18</time>
   <energy>
    <i name="alphaZ">    872.70583573 </i>
    <i name="ewald"> -17895.52465079 </i>
    <i name="hartreedc">  -7459.95811581 </i>
    <i name="XCdc">    908.19239807 </i>
    <i name="pawpsdc">  21345.28103884 </i>
    <i name="pawaedc"> -22405.85761495 </i>
    <i name="eentropy">     -0.00011114 </i>
    <i name="bandstr">   -240.02006502 </i>
    <i name="atom">  26212.11861568 </i>
    <i name="e_fr_energy">   1336.93733061 </i>
    <i name="e_wo_entrp">   1336.93744175 </i>
    <i name="e_0_energy">   1336.93738618 </i>
   </energy>
  </scstep>
  <scstep>
   <time name="dav">   18.56   18.62</time>
   <time name="total">   18.56   18.62</time>
   <energy>
    <i name="e_fr_energy">  -1112.83496025 </i>
    <i name="e_wo_entrp">  -1112.83496025 </i>
    <i name="e_0_energy">  -1112.83496025 </i>
   </energy>
  </scstep>
  <scstep>
   <time name="dav">   19.49   19.56</time>
   <time name="total">   19.49   19.56</time>
   <energy>
    <i name="e_fr_energy">  -1474.78186667 </i>
    <i name="e_wo_entrp">  -1474.78186667 </i>
    <i name="e_0_energy">  -1474.78186667 </i>
   </energy>
  </scstep>
  <scstep>
   <time name="dav">   18.05   18.05</time>
   <time name="total">   18.05   18.05</time>
   <energy>
    <i name="e_fr_energy">  -1486.89339816 </i>
    <i name="e_wo_entrp">  -1486.89339816 </i>
    <i name="e_0_energy">  -1486.89339816 </i>
   </energy>
  </scstep>
  <scstep>
   <time name="dav">   19.55   19.59</time>
   <time name="total">   22.27   22.31</time>
   <energy>
    <i name="e_fr_energy">  -1487.45583971 </i>
    <i name="e_wo_entrp">  -1487.45583971 </i>
    <i name="e_0_energy">  -1487.45583971 </i>
   </energy>
  </scstep>
  <scstep>
   <time name="dav">   19.11   19.11</time>
   <time name="total">   23.29   23.33</time>
   <energy>
    <i name="e_fr_energy">  -1409.72971306 </i>
    <i name="e_wo_entrp">  -1409.72971306 </i>
    <i name="e_0_energy">  -1409.72971306 </i>
   </energy>
  </scstep>
  <scstep>
   <time name="dav">   18.58   18.58</time>
   <time name="total">   22.77   22.92</time>
   <energy>
    <i name="e_fr_energy">  -1409.21129416 </i>
    <i name="e_wo_entrp">  -1409.21129416 </i>
    <i name="e_0_energy">  -1409.21129416 </i>
   </energy>
  </scstep>
  <scstep>
   <time name="dav">   18.23   18.23</time>
   <time name="total">   22.43   22.45</time>
   <energy>
    <i name="e_fr_energy">  -1409.38646953 </i>
    <i name="e_wo_entrp">  -1409.38646953 </i>
    <i name="e_0_energy">  -1409.38646953 </i>
   </energy>
  </scstep>
  <scstep>
   <time name="dav">   17.39   17.39</time>
   <time name="total">   21.57   21.61</time>
   <energy>
    <i name="e_fr_energy">  -1409.45322918 </i>
    <i name="e_wo_entrp">  -1409.45322918 </i>
    <i name="e_0_energy">  -1409.45322918 </i>
   </energy>
  </scstep>
  <scstep>
   <time name="dav">   19.31   19.31</time>
   <time name="total">   23.49   23.50</time>
   <energy>
    <i name="e_fr_energy">  -1409.45707148 </i>
    <i name="e_wo_entrp">  -1409.45707148 </i>
    <i name="e_0_energy">  -1409.45707148 </i>
   </energy>
  </scstep>
  <scstep>
   <time name="dav">   17.49   17.49</time>
   <time name="total">   21.70   21.71</time>
   <energy>
    <i name="e_fr_energy">  -1409.45911043 </i>
    <i name="e_wo_entrp">  -1409.45911043 </i>
    <i name="e_0_energy">  -1409.45911043 </i>
   </energy>
  </scstep>
  <scstep>
   <time name="dav">   17.25   17.25</time>
   <time name="total">   21.46   21.47</time>
   <energy>
    <i name="e_fr_energy">  -1409.46223522 </i>
    <i name="e_wo_entrp">  -1409.46223522 </i>
    <i name="e_0_energy">  -1409.46223522 </i>
   </energy>
  </scstep>
  <scstep>
   <time name="dav">   19.54   19.54</time>
   <time name="total">   23.71   23.73</time>
   <energy>
    <i name="e_fr_energy">  -1409.46192805 </i>
    <i name="e_wo_entrp">  -1409.46192805 </i>
    <i name="e_0_energy">  -1409.46192805 </i>
   </energy>
  </scstep>
  <scstep>
   <time name="dav">   17.59   17.59</time>
   <time name="total">   21.76   21.81</time>
   <energy>
    <i name="e_fr_energy">  -1409.46186176 </i>
    <i name="e_wo_entrp">  -1409.46186176 </i>
    <i name="e_0_energy">  -1409.46186176 </i>
   </energy>
  </scstep>
  <scstep>
   <time name="dav">   18.32   18.32</time>
   <time name="total">   22.51   22.55</time>
   <energy>
    <i name="e_fr_energy">  -1409.46185448 </i>
    <i name="e_wo_entrp">  -1409.46185448 </i>
    <i name="e_0_energy">  -1409.46185448 </i>
   </energy>
  </scstep>
  <scstep>
   <time name="dav">   16.91   16.91</time>
   <time name="total">   21.11   21.11</time>
   <energy>
    <i name="e_fr_energy">  -1409.46189526 </i>
    <i name="e_wo_entrp">  -1409.46189526 </i>
    <i name="e_0_energy">  -1409.46189526 </i>
   </energy>
  </scstep>
  <scstep>
   <time name="dav">   18.64   18.64</time>
   <time name="total">   22.82   22.87</time>
   <energy>
    <i name="e_fr_energy">  -1409.46191471 </i>
    <i name="e_wo_entrp">  -1409.46191471 </i>
    <i name="e_0_energy">  -1409.46191471 </i>
   </energy>
  </scstep>
  <scstep>
   <time name="dav">   13.71   13.71</time>
   <time name="total">   17.92   17.92</time>
   <energy>
    <i name="e_fr_energy">  -1409.46190380 </i>
    <i name="e_wo_entrp">  -1409.46190380 </i>
    <i name="e_0_energy">  -1409.46190380 </i>
   </energy>
  </scstep>
  <scstep>
   <time name="dav">   12.99   12.99</time>
   <time name="total">   17.19   17.22</time>
   <energy>
    <i name="e_fr_energy">  -1409.46189983 </i>
    <i name="e_wo_entrp">  -1409.46189983 </i>
    <i name="e_0_energy">  -1409.46189983 </i>
   </energy>
  </scstep>
  <scstep>
   <time name="dav">   12.62   12.62</time>
   <time name="total">   16.79   16.85</time>
   <energy>
    <i name="e_fr_energy">  -1409.46189700 </i>
    <i name="e_wo_entrp">  -1409.46189700 </i>
    <i name="e_0_energy">  -1409.46189700 </i>
   </energy>
  </scstep>
  <scstep>
   <time name="dav">   12.53   12.53</time>
   <time name="total">   14.01   14.05</time>
   <energy>
    <i name="alphaZ">    872.70583573 </i>
    <i name="ewald"> -17895.52465079 </i>
    <i name="hartreedc">  -7494.03294876 </i>
    <i name="XCdc">    943.71415427 </i>
    <i name="pawpsdc">  22759.91612367 </i>
    <i name="pawaedc"> -23818.32094758 </i>
    <i name="eentropy">     -0.00000000 </i>
    <i name="bandstr">  -2990.03807935 </i>
    <i name="atom">  26212.11861568 </i>
    <i name="e_fr_energy">  -1409.46189714 </i>
    <i name="e_wo_entrp">  -1409.46189714 </i>
    <i name="e_0_energy">  -1409.46189714 </i>
   </energy>
  </scstep>
  <structure>
   <crystal>
    <varray name="basis" >
     <v>       8.45648900       0.00000000       8.04030100 </v>
     <v>       0.00000000      11.72984700       0.00000000 </v>
     <v>      -8.45648900       0.00000000       8.04030100 </v>
    </varray>
    <i name="volume">   1595.08833419 </i>
    <varray name="rec_basis" >
     <v>       0.05912619      -0.00000000       0.06218673 </v>
     <v>       0.00000000       0.08525260      -0.00000000 </v>
     <v>      -0.05912619       0.00000000       0.06218673 </v>
    </varray>
   </crystal>
   <varray name="positions" >
    <v>       0.25088700       0.23698400       0.19404900 </v>
    <v>       0.77671900       0.24510500       0.71770700 </v>
    <v>       0.76717300       0.76323200       0.25877400 </v>
    <v>       0.19439100       0.74872300       0.77249200 </v>
    <v>       0.29707900       0.25056000       0.73124000 </v>
    <v>       0.78734300       0.24599000       0.22741700 </v>
    <v>       0.73628600       0.75208500       0.80494400 </v>
    <v>       0.21514200       0.75285300       0.28932500 </v>
    <v>       0.99852000       0.00060400       0.99799500 </v>
    <v>       0.49952100       0.00263400       0.48737500 </v>
    <v>       0.49441200       0.00131200       0.99414900 </v>
    <v>       0.00498800       0.00025600       0.50543100 </v>
    <v>       0.50130600       0.50542300       0.00163600 </v>
    <v>       0.00539900       0.49422600       0.50535200 </v>
    <v>       0.99987400       0.49828100       0.00075100 </v>
    <v>       0.50601200       0.48806500       0.50743900 </v>
    <v>       0.46643700       0.75180600       0.95284600 </v>
    <v>       0.97918500       0.74716800       0.48944900 </v>
    <v>       0.96863900       0.24974500       0.97735900 </v>
    <v>       0.45516100       0.24227100       0.45374300 </v>
    <v>       0.01804400       0.74974800       0.03165100 </v>
    <v>       0.51923200       0.25512600       0.03655000 </v>
    <v>       0.03774800       0.24736900       0.54545100 </v>
    <v>       0.24824000       0.47023600       0.95474400 </v>
    <v>       0.75130600       0.45427100       0.45780200 </v>
    <v>       0.94503900       0.52870400       0.75246900 </v>
    <v>       0.54708400       0.03338000       0.74071600 </v>
    <v>       0.03701100       0.02266700       0.25496300 </v>
    <v>       0.74816600       0.97799600       0.04025300 </v>
    <v>       0.25563200       0.95867900       0.54830500 </v>
    <v>       0.24374000       0.02984000       0.93918800 </v>
    <v>       0.74732300       0.02985800       0.44927300 </v>
    <v>       0.43625800       0.97262300       0.23815800 </v>
    <v>       0.94431800       0.96924600       0.75031300 </v>
    <v>       0.75023600       0.52913100       0.05627300 </v>
    <v>       0.26002600       0.53341000       0.55332600 </v>
    <v>       0.55344800       0.47473800       0.76530700 </v>
    <v>       0.05082800       0.47018900       0.25722500 </v>
    <v>       0.50273200       0.66322500       0.35752700 </v>
   </varray>
  </structure>
  <varray name="forces" >
   <v>      -0.00814326      -0.02458460      -0.01213828 </v>
   <v>       0.01133082       0.00928742      -0.00993156 </v>
   <v>       0.05948596       0.02761162       0.02023652 </v>
   <v>      -0.00206061      -0.00178556      -0.01855091 </v>
   <v>       0.01586790       0.01326839       0.00373494 </v>
   <v>      -0.00885785       0.00549587       0.00264959 </v>
   <v>      -0.00074303      -0.00660695       0.01180976 </v>
   <v>      -0.01515486       0.00590787      -0.02238217 </v>
   <v>       0.00162100      -0.00295953       0.00396531 </v>
   <v>       0.02891343       0.07846490      -0.06638152 </v>
   <v>      -0.00433925      -0.00200217      -0.02772946 </v>
   <v>      -0.01297917       0.00719463       0.02100319 </v>
   <v>       0.09294897      -0.00095672      -0.05657790 </v>
   <v>      -0.00542492      -0.01643937       0.03786048 </v>
   <v>       0.00039972       0.00212634      -0.00144485 </v>
   <v>      -0.22848252      -0.38038236       0.26322465 </v>
   <v>       0.00253866       0.01102355      -0.00611302 </v>
   <v>      -0.00647356       0.00614320       0.01153214 </v>
   <v>      -0.00433495       0.00615840       0.00467285 </v>
   <v>       0.01889757      -0.19634139      -0.02072354 </v>
   <v>      -0.01130761      -0.00361627      -0.00297989 </v>
   <v>      -0.00457801      -0.00656687      -0.00552122 </v>
   <v>      -0.00196033      -0.01725716       0.00246171 </v>
   <v>      -0.00308382       0.00280798       0.00573835 </v>
   <v>       0.04153702      -0.01275643       0.05064312 </v>
   <v>      -0.01641612       0.00145619       0.00890361 </v>
   <v>       0.01578426      -0.00223152      -0.01385087 </v>
   <v>      -0.00049020      -0.00155065      -0.00672921 </v>
   <v>      -0.00420194       0.00774014      -0.01588456 </v>
   <v>       0.00214380      -0.00073743       0.00122982 </v>
   <v>       0.00616824       0.00483046       0.01026950 </v>
   <v>      -0.00267334      -0.00717919      -0.00151302 </v>
   <v>       0.01009447       0.00803848       0.00226871 </v>
   <v>      -0.00865371      -0.00462805       0.00043835 </v>
   <v>      -0.00333967      -0.00228395       0.00006189 </v>
   <v>      -0.03374144       0.00064332      -0.01373762 </v>
   <v>      -0.16428311       0.03755042       0.15006834 </v>
   <v>       0.00805614       0.00213801      -0.00939135 </v>
   <v>       0.23593532       0.45297898      -0.30119190 </v>
  </varray>
  <varray name="stress" >
   <v>      -6.87217696       0.95546878       0.34375395 </v>
   <v>       0.95541395      -3.86676655      -0.46746034 </v>
   <v>       0.34370858      -0.46741435      -4.45703534 </v>
  </varray>
  <energy>
   <i name="e_fr_energy">  -1409.46189714 </i>
   <i name="e_wo_entrp">  -1409.46189714 </i>
   <i name="e_0_energy">     -0.00000000 </i>
  </energy>
  <time name="totalsc">  486.15  487.00</time>
  <eigenvalues>
   <array>
    <dimension dim="1">band</dimension>
    <dimension dim="2">kpoint</dimension>
    <dimension dim="3">spin</dimension>
    <field>eigene</field>
    <field>occ</field>
    <set>
     <set comment="spin 1">
      <set comment="kpoint 1">
       <r>  -20.9006    1.0000 </r>
       <r>  -20.8117    1.0000 </r>
       <r>  -20.7534    1.0000 </r>
       <r>  -20.7275    1.0000 </r>
       <r>  -20.7269    1.0000 </r>
       <r>  -20.7083    1.0000 </r>
       <r>  -20.7059    1.0000 </r>
       <r>  -20.6862    1.0000 </r>
       <r>  -16.6870    1.0000 </r>
       <r>  -16.6846    1.0000 </r>
       <r>  -16.6553    1.0000 </r>
       <r>  -16.6434    1.0000 </r>
       <r>  -16.6350    1.0000 </r>
       <r>  -16.6248    1.0000 </r>
       <r>  -16.5856    1.0000 </r>
       <r>  -16.5693    1.0000 </r>
       <r>  -16.5692    1.0000 </r>
       <r>  -16.5635    1.0000 </r>
       <r>  -16.5623    1.0000 </r>
       <r>  -16.5574    1.0000 </r>
       <r>  -16.5267    1.0000 </r>
       <r>  -16.5193    1.0000 </r>
       <r>  -16.4690    1.0000 </r>
       <r>  -16.4535    1.0000 </r>
       <r>  -16.4529    1.0000 </r>
       <r>  -16.4393    1.0000 </r>
       <r>  -16.4264    1.0000 </r>
       <r>  -16.4186    1.0000 </r>
       <r>  -16.4122    1.0000 </r>
       <r>  -16.3839    1.0000 </r>
       <r>  -16.3787    1.0000 </r>
       <r>  -16.3693    1.0000 </r>
       <r>  -16.3629    1.0000 </r>
       <r>  -16.3156    1.0000 </r>
       <r>  -16.3073    1.0000 </r>
       <r>  -16.3068    1.0000 </r>
       <r>  -16.3017    1.0000 </r>
       <r>  -16.3015    1.0000 </r>
       <r>  -16.3014    1.0000 </r>
       <r>  -16.2972    1.0000 </r>
       <r>  -16.2916    1.0000 </r>
       <r>  -16.2907    1.0000 </r>
       <r>  -16.2906    1.0000 </r>
       <r>  -16.2899    1.0000 </r>
       <r>  -16.2857    1.0000 </r>
       <r>  -16.2857    1.0000 </r>
       <r>  -16.2784    1.0000 </r>
       <r>  -16.2771    1.0000 </r>
       <r>  -14.4886    1.0000 </r>
       <r>  -14.3870    1.0000 </r>
       <r>  -14.3192    1.0000 </r>
       <r>  -14.2120    1.0000 </r>
       <r>  -14.1466    1.0000 </r>
       <r>  -14.1375    1.0000 </r>
       <r>  -14.1300    1.0000 </r>
       <r>  -14.0763    1.0000 </r>
       <r>  -14.0756    1.0000 </r>
       <r>  -14.0592    1.0000 </r>
       <r>  -14.0521    1.0000 </r>
       <r>  -14.0458    1.0000 </r>
       <r>  -14.0317    1.0000 </r>
       <r>  -14.0140    1.0000 </r>
       <r>  -14.0002    1.0000 </r>
       <r>  -13.9665    1.0000 </r>
       <r>  -13.9515    1.0000 </r>
       <r>  -13.9393    1.0000 </r>
       <r>  -13.8831    1.0000 </r>
       <r>  -13.7844    1.0000 </r>
       <r>  -13.7547    1.0000 </r>
       <r>  -13.7500    1.0000 </r>
       <r>  -13.7314    1.0000 </r>
       <r>   -8.2116    1.0000 </r>
       <r>   -7.7925    1.0000 </r>
       <r>   -7.7603    1.0000 </r>
       <r>   -7.7136    1.0000 </r>
       <r>   -7.3619    1.0000 </r>
       <r>   -7.3300    1.0000 </r>
       <r>   -7.2896    1.0000 </r>
       <r>   -7.2716    1.0000 </r>
       <r>   -7.2533    1.0000 </r>
       <r>   -7.2369    1.0000 </r>
       <r>   -7.2120    1.0000 </r>
       <r>   -7.2050    1.0000 </r>
       <r>   -7.1856    1.0000 </r>
       <r>   -7.1738    1.0000 </r>
       <r>   -7.1585    1.0000 </r>
       <r>   -7.1489    1.0000 </r>
       <r>   -7.1452    1.0000 </r>
       <r>   -7.1417    1.0000 </r>
       <r>   -7.1360    1.0000 </r>
       <r>   -7.1335    1.0000 </r>
       <r>   -7.1228    1.0000 </r>
       <r>   -7.1216    1.0000 </r>
       <r>   -7.1155    1.0000 </r>
       <r>   -7.1134    1.0000 </r>
       <r>   -7.1079    1.0000 </r>
       <r>   -7.1010    1.0000 </r>
       <r>   -7.0946    1.0000 </r>
       <r>   -7.0865    1.0000 </r>
       <r>   -7.0776    1.0000 </r>
       <r>   -7.0666    1.0000 </r>
       <r>   -7.0459    1.0000 </r>
       <r>   -6.5955    1.0000 </r>
       <r>   -3.4056    1.0000 </r>
       <r>   -3.3188    1.0000 </r>
       <r>   -3.2911    1.0000 </r>
       <r>   -3.2722    1.0000 </r>
       <r>   -3.2362    1.0000 </r>
       <r>   -3.2063    1.0000 </r>
       <r>   -3.2022    1.0000 </r>
       <r>   -3.1300    1.0000 </r>
       <r>   -3.1067    1.0000 </r>
       <r>   -3.0553    1.0000 </r>
       <r>   -3.0213    1.0000 </r>
       <r>   -2.8701    1.0000 </r>
       <r>   -2.2321    1.0000 </r>
       <r>   -2.1820    1.0000 </r>
       <r>   -2.1506    1.0000 </r>
       <r>   -2.0819    1.0000 </r>
       <r>   -2.0175    1.0000 </r>
       <r>   -2.0004    1.0000 </r>
       <r>   -1.9312    1.0000 </r>
       <r>   -1.8871    1.0000 </r>
       <r>   -1.8637    1.0000 </r>
       <r>   -1.8254    1.0000 </r>
       <r>   -1.8169    1.0000 </r>
       <r>   -1.7373    1.0000 </r>
       <r>   -1.7246    1.0000 </r>
       <r>   -1.6705    1.0000 </r>
       <r>   -1.6423    1.0000 </r>
       <r>   -1.6008    1.0000 </r>
       <r>   -1.5823    1.0000 </r>
       <r>   -1.5626    1.0000 </r>
       <r>   -1.5497    1.0000 </r>
       <r>   -1.5416    1.0000 </r>
       <r>   -1.5361    1.0000 </r>
       <r>   -1.5007    1.0000 </r>
       <r>   -1.4922    1.0000 </r>
       <r>   -1.4735    1.0000 </r>
       <r>   -1.4651    1.0000 </r>
       <r>   -1.4539    1.0000 </r>
       <r>   -1.4316    1.0000 </r>
       <r>   -1.4165    1.0000 </r>
       <r>   -1.3980    1.0000 </r>
       <r>   -1.3888    1.0000 </r>
       <r>   -1.3693    1.0000 </r>
       <r>   -1.3596    1.0000 </r>
       <r>   -1.3464    1.0000 </r>
       <r>   -1.3303    1.0000 </r>
       <r>   -1.3230    1.0000 </r>
       <r>   -1.3206    1.0000 </r>
       <r>   -1.2996    1.0000 </r>
       <r>   -1.2890    1.0000 </r>
       <r>   -1.2678    1.0000 </r>
       <r>   -1.2286    1.0000 </r>
       <r>   -1.2112    1.0000 </r>
       <r>   -1.2004    1.0000 </r>
       <r>   -1.1703    1.0000 </r>
       <r>   -1.1054    1.0000 </r>
       <r>   -1.1001    1.0000 </r>
       <r>   -1.0717    1.0000 </r>
       <r>   -1.0152    1.0000 </r>
       <r>   -1.0036    1.0000 </r>
       <r>   -0.9824    1.0000 </r>
       <r>   -0.8736    1.0000 </r>
       <r>   -0.8074    1.0000 </r>
       <r>   -0.7544    1.0000 </r>
       <r>   -0.6937    1.0000 </r>
       <r>   -0.3604    1.0000 </r>
       <r>   -0.2360    1.0000 </r>
       <r>   -0.1320    1.0000 </r>
       <r>    0.3651    1.0000 </r>
       <r>    2.6053    0.0000 </r>
       <r>    2.7290    0.0000 </r>
       <r>    2.8189    0.0000 </r>
       <r>    2.9492    0.0000 </r>
       <r>    3.0169    0.0000 </r>
       <r>    3.1172    0.0000 </r>
       <r>    3.1374    0.0000 </r>
       <r>    3.2169    0.0000 </r>
       <r>    3.2869    0.0000 </r>
       <r>    3.4788    0.0000 </r>
       <r>    3.4925    0.0000 </r>
       <r>    3.5324    0.0000 </r>
       <r>    4.2199    0.0000 </r>
       <r>    4.8267    0.0000 </r>
       <r>    4.9269    0.0000 </r>
       <r>    5.4993    0.0000 </r>
       <r>    5.6186    0.0000 </r>
       <r>    5.7587    0.0000 </r>
       <r>    5.8078    0.0000 </r>
       <r>    5.8448    0.0000 </r>
       <r>    5.8745    0.0000 </r>
       <r>    5.9258    0.0000 </r>
       <r>    6.0072    0.0000 </r>
       <r>    6.0623    0.0000 </r>
       <r>    6.0931    0.0000 </r>
       <r>    6.1470    0.0000 </r>
       <r>    6.1776    0.0000 </r>
       <r>    6.2179    0.0000 </r>
       <r>    6.2797    0.0000 </r>
       <r>    6.3624    0.0000 </r>
       <r>    6.4050    0.0000 </r>
       <r>    6.4659    0.0000 </r>
       <r>    6.5178    0.0000 </r>
       <r>    6.5541    0.0000 </r>
       <r>    6.5743    0.0000 </r>
       <r>    6.6803    0.0000 </r>
      </set>
      <set comment="kpoint 2">
       <r>  -20.9006    1.0000 </r>
       <r>  -20.8116    1.0000 </r>
       <r>  -20.7533    1.0000 </r>
       <r>  -20.7274    1.0000 </r>
       <r>  -20.7269    1.0000 </r>
       <r>  -20.7083    1.0000 </r>
       <r>  -20.7060    1.0000 </r>
       <r>  -20.6862    1.0000 </r>
       <r>  -16.6864    1.0000 </r>
       <r>  -16.6838    1.0000 </r>
       <r>  -16.6529    1.0000 </r>
       <r>  -16.6433    1.0000 </r>
       <r>  -16.6330    1.0000 </r>
       <r>  -16.6223    1.0000 </r>
       <r>  -16.5855    1.0000 </r>
       <r>  -16.5693    1.0000 </r>
       <r>  -16.5692    1.0000 </r>
       <r>  -16.5635    1.0000 </r>
       <r>  -16.5624    1.0000 </r>
       <r>  -16.5574    1.0000 </r>
       <r>  -16.5267    1.0000 </r>
       <r>  -16.5193    1.0000 </r>
       <r>  -16.4687    1.0000 </r>
       <r>  -16.4530    1.0000 </r>
       <r>  -16.4490    1.0000 </r>
       <r>  -16.4331    1.0000 </r>
       <r>  -16.4237    1.0000 </r>
       <r>  -16.4228    1.0000 </r>
       <r>  -16.4103    1.0000 </r>
       <r>  -16.3938    1.0000 </r>
       <r>  -16.3830    1.0000 </r>
       <r>  -16.3771    1.0000 </r>
       <r>  -16.3633    1.0000 </r>
       <r>  -16.3157    1.0000 </r>
       <r>  -16.3073    1.0000 </r>
       <r>  -16.3068    1.0000 </r>
       <r>  -16.3017    1.0000 </r>
       <r>  -16.3015    1.0000 </r>
       <r>  -16.3015    1.0000 </r>
       <r>  -16.2973    1.0000 </r>
       <r>  -16.2916    1.0000 </r>
       <r>  -16.2907    1.0000 </r>
       <r>  -16.2906    1.0000 </r>
       <r>  -16.2898    1.0000 </r>
       <r>  -16.2858    1.0000 </r>
       <r>  -16.2857    1.0000 </r>
       <r>  -16.2784    1.0000 </r>
       <r>  -16.2771    1.0000 </r>
       <r>  -14.4795    1.0000 </r>
       <r>  -14.3832    1.0000 </r>
       <r>  -14.3412    1.0000 </r>
       <r>  -14.2025    1.0000 </r>
       <r>  -14.1675    1.0000 </r>
       <r>  -14.1655    1.0000 </r>
       <r>  -14.1419    1.0000 </r>
       <r>  -14.1372    1.0000 </r>
       <r>  -14.0729    1.0000 </r>
       <r>  -14.0583    1.0000 </r>
       <r>  -14.0522    1.0000 </r>
       <r>  -14.0315    1.0000 </r>
       <r>  -13.9970    1.0000 </r>
       <r>  -13.9911    1.0000 </r>
       <r>  -13.9815    1.0000 </r>
       <r>  -13.9522    1.0000 </r>
       <r>  -13.8878    1.0000 </r>
       <r>  -13.8590    1.0000 </r>
       <r>  -13.8496    1.0000 </r>
       <r>  -13.8397    1.0000 </r>
       <r>  -13.8163    1.0000 </r>
       <r>  -13.7704    1.0000 </r>
       <r>  -13.7541    1.0000 </r>
       <r>   -7.9957    1.0000 </r>
       <r>   -7.9876    1.0000 </r>
       <r>   -7.6210    1.0000 </r>
       <r>   -7.5833    1.0000 </r>
       <r>   -7.4904    1.0000 </r>
       <r>   -7.4421    1.0000 </r>
       <r>   -7.3434    1.0000 </r>
       <r>   -7.2868    1.0000 </r>
       <r>   -7.2686    1.0000 </r>
       <r>   -7.2457    1.0000 </r>
       <r>   -7.2174    1.0000 </r>
       <r>   -7.2027    1.0000 </r>
       <r>   -7.1891    1.0000 </r>
       <r>   -7.1750    1.0000 </r>
       <r>   -7.1543    1.0000 </r>
       <r>   -7.1528    1.0000 </r>
       <r>   -7.1506    1.0000 </r>
       <r>   -7.1450    1.0000 </r>
       <r>   -7.1367    1.0000 </r>
       <r>   -7.1294    1.0000 </r>
       <r>   -7.1266    1.0000 </r>
       <r>   -7.1204    1.0000 </r>
       <r>   -7.1126    1.0000 </r>
       <r>   -7.1067    1.0000 </r>
       <r>   -7.1045    1.0000 </r>
       <r>   -7.0927    1.0000 </r>
       <r>   -7.0895    1.0000 </r>
       <r>   -7.0764    1.0000 </r>
       <r>   -7.0735    1.0000 </r>
       <r>   -7.0591    1.0000 </r>
       <r>   -7.0234    1.0000 </r>
       <r>   -6.8329    1.0000 </r>
       <r>   -3.3791    1.0000 </r>
       <r>   -3.2746    1.0000 </r>
       <r>   -3.2682    1.0000 </r>
       <r>   -3.2516    1.0000 </r>
       <r>   -3.1477    1.0000 </r>
       <r>   -3.1183    1.0000 </r>
       <r>   -3.0687    1.0000 </r>
       <r>   -2.9433    1.0000 </r>
       <r>   -2.5783    1.0000 </r>
       <r>   -2.5481    1.0000 </r>
       <r>   -2.5213    1.0000 </r>
       <r>   -2.4855    1.0000 </r>
       <r>   -2.4582    1.0000 </r>
       <r>   -2.3841    1.0000 </r>
       <r>   -2.3692    1.0000 </r>
       <r>   -2.3408    1.0000 </r>
       <r>   -2.1630    1.0000 </r>
       <r>   -2.1001    1.0000 </r>
       <r>   -2.0730    1.0000 </r>
       <r>   -2.0408    1.0000 </r>
       <r>   -2.0161    1.0000 </r>
       <r>   -1.9302    1.0000 </r>
       <r>   -1.8669    1.0000 </r>
       <r>   -1.8464    1.0000 </r>
       <r>   -1.8023    1.0000 </r>
       <r>   -1.7752    1.0000 </r>
       <r>   -1.7547    1.0000 </r>
       <r>   -1.6964    1.0000 </r>
       <r>   -1.6701    1.0000 </r>
       <r>   -1.6027    1.0000 </r>
       <r>   -1.5534    1.0000 </r>
       <r>   -1.5286    1.0000 </r>
       <r>   -1.5137    1.0000 </r>
       <r>   -1.5063    1.0000 </r>
       <r>   -1.4896    1.0000 </r>
       <r>   -1.4693    1.0000 </r>
       <r>   -1.4582    1.0000 </r>
       <r>   -1.4350    1.0000 </r>
       <r>   -1.4305    1.0000 </r>
       <r>   -1.4177    1.0000 </r>
       <r>   -1.3960    1.0000 </r>
       <r>   -1.3906    1.0000 </r>
       <r>   -1.3779    1.0000 </r>
       <r>   -1.3442    1.0000 </r>
       <r>   -1.3335    1.0000 </r>
       <r>   -1.3134    1.0000 </r>
       <r>   -1.3053    1.0000 </r>
       <r>   -1.2916    1.0000 </r>
       <r>   -1.2817    1.0000 </r>
       <r>   -1.2773    1.0000 </r>
       <r>   -1.2506    1.0000 </r>
       <r>   -1.2217    1.0000 </r>
       <r>   -1.2090    1.0000 </r>
       <r>   -1.1799    1.0000 </r>
       <r>   -1.1606    1.0000 </r>
       <r>   -1.1328    1.0000 </r>
       <r>   -1.1163    1.0000 </r>
       <r>   -1.1015    1.0000 </r>
       <r>   -1.0959    1.0000 </r>
       <r>   -1.0398    1.0000 </r>
       <r>   -1.0262    1.0000 </r>
       <r>   -0.9213    1.0000 </r>
       <r>   -0.8754    1.0000 </r>
       <r>   -0.7624    1.0000 </r>
       <r>   -0.6839    1.0000 </r>
       <r>   -0.5782    1.0000 </r>
       <r>   -0.4831    1.0000 </r>
       <r>   -0.2584    1.0000 </r>
       <r>    0.0597    1.0000 </r>
       <r>    2.6932    0.0000 </r>
       <r>    2.9456    0.0000 </r>
       <r>    2.9518    0.0000 </r>
       <r>    2.9740    0.0000 </r>
       <r>    3.1345    0.0000 </r>
       <r>    3.3149    0.0000 </r>
       <r>    3.3310    0.0000 </r>
       <r>    3.4030    0.0000 </r>
       <r>    4.1640    0.0000 </r>
       <r>    4.1792    0.0000 </r>
       <r>    4.2760    0.0000 </r>
       <r>    4.4613    0.0000 </r>
       <r>    4.5101    0.0000 </r>
       <r>    4.5494    0.0000 </r>
       <r>    4.6010    0.0000 </r>
       <r>    4.7463    0.0000 </r>
       <r>    4.8483    0.0000 </r>
       <r>    4.9502    0.0000 </r>
       <r>    5.3247    0.0000 </r>
       <r>    5.5728    0.0000 </r>
       <r>    5.6887    0.0000 </r>
       <r>    5.8053    0.0000 </r>
       <r>    5.9073    0.0000 </r>
       <r>    5.9465    0.0000 </r>
       <r>    6.0097    0.0000 </r>
       <r>    6.0586    0.0000 </r>
       <r>    6.1413    0.0000 </r>
       <r>    6.2308    0.0000 </r>
       <r>    6.2711    0.0000 </r>
       <r>    6.3401    0.0000 </r>
       <r>    6.3517    0.0000 </r>
       <r>    6.4009    0.0000 </r>
       <r>    6.4624    0.0000 </r>
       <r>    6.5134    0.0000 </r>
       <r>    6.5831    0.0000 </r>
       <r>    6.6440    0.0000 </r>
      </set>
      <set comment="kpoint 3">
       <r>  -20.9006    1.0000 </r>
       <r>  -20.8116    1.0000 </r>
       <r>  -20.7534    1.0000 </r>
       <r>  -20.7274    1.0000 </r>
       <r>  -20.7269    1.0000 </r>
       <r>  -20.7083    1.0000 </r>
       <r>  -20.7059    1.0000 </r>
       <r>  -20.6862    1.0000 </r>
       <r>  -16.6865    1.0000 </r>
       <r>  -16.6842    1.0000 </r>
       <r>  -16.6527    1.0000 </r>
       <r>  -16.6427    1.0000 </r>
       <r>  -16.6352    1.0000 </r>
       <r>  -16.6251    1.0000 </r>
       <r>  -16.5856    1.0000 </r>
       <r>  -16.5693    1.0000 </r>
       <r>  -16.5692    1.0000 </r>
       <r>  -16.5635    1.0000 </r>
       <r>  -16.5623    1.0000 </r>
       <r>  -16.5574    1.0000 </r>
       <r>  -16.5267    1.0000 </r>
       <r>  -16.5193    1.0000 </r>
       <r>  -16.4530    1.0000 </r>
       <r>  -16.4495    1.0000 </r>
       <r>  -16.4431    1.0000 </r>
       <r>  -16.4379    1.0000 </r>
       <r>  -16.4247    1.0000 </r>
       <r>  -16.4174    1.0000 </r>
       <r>  -16.4111    1.0000 </r>
       <r>  -16.3995    1.0000 </r>
       <r>  -16.3967    1.0000 </r>
       <r>  -16.3716    1.0000 </r>
       <r>  -16.3691    1.0000 </r>
       <r>  -16.3155    1.0000 </r>
       <r>  -16.3073    1.0000 </r>
       <r>  -16.3067    1.0000 </r>
       <r>  -16.3017    1.0000 </r>
       <r>  -16.3015    1.0000 </r>
       <r>  -16.3014    1.0000 </r>
       <r>  -16.2971    1.0000 </r>
       <r>  -16.2915    1.0000 </r>
       <r>  -16.2907    1.0000 </r>
       <r>  -16.2906    1.0000 </r>
       <r>  -16.2898    1.0000 </r>
       <r>  -16.2857    1.0000 </r>
       <r>  -16.2857    1.0000 </r>
       <r>  -16.2784    1.0000 </r>
       <r>  -16.2771    1.0000 </r>
       <r>  -14.4758    1.0000 </r>
       <r>  -14.4010    1.0000 </r>
       <r>  -14.3035    1.0000 </r>
       <r>  -14.2464    1.0000 </r>
       <r>  -14.2111    1.0000 </r>
       <r>  -14.1467    1.0000 </r>
       <r>  -14.1023    1.0000 </r>
       <r>  -14.0904    1.0000 </r>
       <r>  -14.0748    1.0000 </r>
       <r>  -14.0721    1.0000 </r>
       <r>  -14.0410    1.0000 </r>
       <r>  -14.0240    1.0000 </r>
       <r>  -14.0143    1.0000 </r>
       <r>  -14.0007    1.0000 </r>
       <r>  -13.9669    1.0000 </r>
       <r>  -13.9525    1.0000 </r>
       <r>  -13.9097    1.0000 </r>
       <r>  -13.8861    1.0000 </r>
       <r>  -13.8756    1.0000 </r>
       <r>  -13.8272    1.0000 </r>
       <r>  -13.8164    1.0000 </r>
       <r>  -13.7550    1.0000 </r>
       <r>  -13.7384    1.0000 </r>
       <r>   -8.0386    1.0000 </r>
       <r>   -7.9546    1.0000 </r>
       <r>   -7.6672    1.0000 </r>
       <r>   -7.5272    1.0000 </r>
       <r>   -7.4613    1.0000 </r>
       <r>   -7.4547    1.0000 </r>
       <r>   -7.3475    1.0000 </r>
       <r>   -7.2859    1.0000 </r>
       <r>   -7.2667    1.0000 </r>
       <r>   -7.2462    1.0000 </r>
       <r>   -7.2150    1.0000 </r>
       <r>   -7.1975    1.0000 </r>
       <r>   -7.1767    1.0000 </r>
       <r>   -7.1581    1.0000 </r>
       <r>   -7.1565    1.0000 </r>
       <r>   -7.1508    1.0000 </r>
       <r>   -7.1468    1.0000 </r>
       <r>   -7.1414    1.0000 </r>
       <r>   -7.1360    1.0000 </r>
       <r>   -7.1349    1.0000 </r>
       <r>   -7.1263    1.0000 </r>
       <r>   -7.1217    1.0000 </r>
       <r>   -7.1150    1.0000 </r>
       <r>   -7.1025    1.0000 </r>
       <r>   -7.1014    1.0000 </r>
       <r>   -7.0963    1.0000 </r>
       <r>   -7.0934    1.0000 </r>
       <r>   -7.0886    1.0000 </r>
       <r>   -7.0771    1.0000 </r>
       <r>   -7.0684    1.0000 </r>
       <r>   -6.9967    1.0000 </r>
       <r>   -6.8881    1.0000 </r>
       <r>   -3.2946    1.0000 </r>
       <r>   -3.2787    1.0000 </r>
       <r>   -3.2313    1.0000 </r>
       <r>   -3.1762    1.0000 </r>
       <r>   -3.1536    1.0000 </r>
       <r>   -3.1310    1.0000 </r>
       <r>   -3.1083    1.0000 </r>
       <r>   -2.9872    1.0000 </r>
       <r>   -2.9004    1.0000 </r>
       <r>   -2.5603    1.0000 </r>
       <r>   -2.5105    1.0000 </r>
       <r>   -2.4871    1.0000 </r>
       <r>   -2.4610    1.0000 </r>
       <r>   -2.3953    1.0000 </r>
       <r>   -2.3870    1.0000 </r>
       <r>   -2.1816    1.0000 </r>
       <r>   -2.1195    1.0000 </r>
       <r>   -2.0743    1.0000 </r>
       <r>   -2.0297    1.0000 </r>
       <r>   -1.9964    1.0000 </r>
       <r>   -1.9868    1.0000 </r>
       <r>   -1.9458    1.0000 </r>
       <r>   -1.9038    1.0000 </r>
       <r>   -1.8756    1.0000 </r>
       <r>   -1.8039    1.0000 </r>
       <r>   -1.7629    1.0000 </r>
       <r>   -1.7204    1.0000 </r>
       <r>   -1.6903    1.0000 </r>
       <r>   -1.6744    1.0000 </r>
       <r>   -1.6188    1.0000 </r>
       <r>   -1.5893    1.0000 </r>
       <r>   -1.5513    1.0000 </r>
       <r>   -1.5293    1.0000 </r>
       <r>   -1.4967    1.0000 </r>
       <r>   -1.4903    1.0000 </r>
       <r>   -1.4733    1.0000 </r>
       <r>   -1.4630    1.0000 </r>
       <r>   -1.4418    1.0000 </r>
       <r>   -1.4234    1.0000 </r>
       <r>   -1.4063    1.0000 </r>
       <r>   -1.3941    1.0000 </r>
       <r>   -1.3840    1.0000 </r>
       <r>   -1.3617    1.0000 </r>
       <r>   -1.3538    1.0000 </r>
       <r>   -1.3418    1.0000 </r>
       <r>   -1.3172    1.0000 </r>
       <r>   -1.3141    1.0000 </r>
       <r>   -1.2935    1.0000 </r>
       <r>   -1.2769    1.0000 </r>
       <r>   -1.2608    1.0000 </r>
       <r>   -1.2344    1.0000 </r>
       <r>   -1.2167    1.0000 </r>
       <r>   -1.2016    1.0000 </r>
       <r>   -1.1897    1.0000 </r>
       <r>   -1.1635    1.0000 </r>
       <r>   -1.1284    1.0000 </r>
       <r>   -1.1145    1.0000 </r>
       <r>   -1.1084    1.0000 </r>
       <r>   -1.0805    1.0000 </r>
       <r>   -1.0739    1.0000 </r>
       <r>   -1.0330    1.0000 </r>
       <r>   -0.8848    1.0000 </r>
       <r>   -0.8498    1.0000 </r>
       <r>   -0.7607    1.0000 </r>
       <r>   -0.6400    1.0000 </r>
       <r>   -0.6065    1.0000 </r>
       <r>   -0.4947    1.0000 </r>
       <r>   -0.1342    1.0000 </r>
       <r>    0.0067    1.0000 </r>
       <r>    2.5037    0.0000 </r>
       <r>    2.8890    0.0000 </r>
       <r>    2.9274    0.0000 </r>
       <r>    3.0683    0.0000 </r>
       <r>    3.2054    0.0000 </r>
       <r>    3.2493    0.0000 </r>
       <r>    3.3196    0.0000 </r>
       <r>    3.3406    0.0000 </r>
       <r>    3.4764    0.0000 </r>
       <r>    3.9885    0.0000 </r>
       <r>    4.4261    0.0000 </r>
       <r>    4.4772    0.0000 </r>
       <r>    4.6109    0.0000 </r>
       <r>    4.6395    0.0000 </r>
       <r>    4.8110    0.0000 </r>
       <r>    4.9026    0.0000 </r>
       <r>    4.9180    0.0000 </r>
       <r>    5.4599    0.0000 </r>
       <r>    5.5820    0.0000 </r>
       <r>    5.6555    0.0000 </r>
       <r>    5.7256    0.0000 </r>
       <r>    5.7554    0.0000 </r>
       <r>    5.8543    0.0000 </r>
       <r>    5.9105    0.0000 </r>
       <r>    6.0054    0.0000 </r>
       <r>    6.1004    0.0000 </r>
       <r>    6.1422    0.0000 </r>
       <r>    6.1787    0.0000 </r>
       <r>    6.2781    0.0000 </r>
       <r>    6.3537    0.0000 </r>
       <r>    6.3978    0.0000 </r>
       <r>    6.4712    0.0000 </r>
       <r>    6.5023    0.0000 </r>
       <r>    6.5718    0.0000 </r>
       <r>    6.5936    0.0000 </r>
       <r>    6.6366    0.0000 </r>
      </set>
      <set comment="kpoint 4">
       <r>  -20.9006    1.0000 </r>
       <r>  -20.8116    1.0000 </r>
       <r>  -20.7533    1.0000 </r>
       <r>  -20.7273    1.0000 </r>
       <r>  -20.7270    1.0000 </r>
       <r>  -20.7083    1.0000 </r>
       <r>  -20.7060    1.0000 </r>
       <r>  -20.6862    1.0000 </r>
       <r>  -16.6859    1.0000 </r>
       <r>  -16.6835    1.0000 </r>
       <r>  -16.6503    1.0000 </r>
       <r>  -16.6426    1.0000 </r>
       <r>  -16.6331    1.0000 </r>
       <r>  -16.6227    1.0000 </r>
       <r>  -16.5856    1.0000 </r>
       <r>  -16.5693    1.0000 </r>
       <r>  -16.5692    1.0000 </r>
       <r>  -16.5635    1.0000 </r>
       <r>  -16.5623    1.0000 </r>
       <r>  -16.5574    1.0000 </r>
       <r>  -16.5268    1.0000 </r>
       <r>  -16.5193    1.0000 </r>
       <r>  -16.4530    1.0000 </r>
       <r>  -16.4458    1.0000 </r>
       <r>  -16.4384    1.0000 </r>
       <r>  -16.4281    1.0000 </r>
       <r>  -16.4262    1.0000 </r>
       <r>  -16.4163    1.0000 </r>
       <r>  -16.4130    1.0000 </r>
       <r>  -16.4111    1.0000 </r>
       <r>  -16.4016    1.0000 </r>
       <r>  -16.3779    1.0000 </r>
       <r>  -16.3732    1.0000 </r>
       <r>  -16.3156    1.0000 </r>
       <r>  -16.3074    1.0000 </r>
       <r>  -16.3068    1.0000 </r>
       <r>  -16.3017    1.0000 </r>
       <r>  -16.3015    1.0000 </r>
       <r>  -16.3014    1.0000 </r>
       <r>  -16.2972    1.0000 </r>
       <r>  -16.2915    1.0000 </r>
       <r>  -16.2908    1.0000 </r>
       <r>  -16.2907    1.0000 </r>
       <r>  -16.2899    1.0000 </r>
       <r>  -16.2858    1.0000 </r>
       <r>  -16.2857    1.0000 </r>
       <r>  -16.2784    1.0000 </r>
       <r>  -16.2771    1.0000 </r>
       <r>  -14.4711    1.0000 </r>
       <r>  -14.3929    1.0000 </r>
       <r>  -14.3029    1.0000 </r>
       <r>  -14.2786    1.0000 </r>
       <r>  -14.2181    1.0000 </r>
       <r>  -14.1704    1.0000 </r>
       <r>  -14.1420    1.0000 </r>
       <r>  -14.1280    1.0000 </r>
       <r>  -14.0775    1.0000 </r>
       <r>  -14.0712    1.0000 </r>
       <r>  -13.9982    1.0000 </r>
       <r>  -13.9941    1.0000 </r>
       <r>  -13.9618    1.0000 </r>
       <r>  -13.9557    1.0000 </r>
       <r>  -13.9300    1.0000 </r>
       <r>  -13.9201    1.0000 </r>
       <r>  -13.9029    1.0000 </r>
       <r>  -13.8897    1.0000 </r>
       <r>  -13.8692    1.0000 </r>
       <r>  -13.8478    1.0000 </r>
       <r>  -13.8326    1.0000 </r>
       <r>  -13.7953    1.0000 </r>
       <r>  -13.7775    1.0000 </r>
       <r>   -7.8852    1.0000 </r>
       <r>   -7.7622    1.0000 </r>
       <r>   -7.7262    1.0000 </r>
       <r>   -7.7196    1.0000 </r>
       <r>   -7.4851    1.0000 </r>
       <r>   -7.3481    1.0000 </r>
       <r>   -7.2988    1.0000 </r>
       <r>   -7.2865    1.0000 </r>
       <r>   -7.2678    1.0000 </r>
       <r>   -7.2470    1.0000 </r>
       <r>   -7.2293    1.0000 </r>
       <r>   -7.2218    1.0000 </r>
       <r>   -7.2029    1.0000 </r>
       <r>   -7.1934    1.0000 </r>
       <r>   -7.1790    1.0000 </r>
       <r>   -7.1668    1.0000 </r>
       <r>   -7.1560    1.0000 </r>
       <r>   -7.1512    1.0000 </r>
       <r>   -7.1393    1.0000 </r>
       <r>   -7.1361    1.0000 </r>
       <r>   -7.1303    1.0000 </r>
       <r>   -7.1216    1.0000 </r>
       <r>   -7.1205    1.0000 </r>
       <r>   -7.1165    1.0000 </r>
       <r>   -7.1120    1.0000 </r>
       <r>   -7.1028    1.0000 </r>
       <r>   -7.0988    1.0000 </r>
       <r>   -7.0930    1.0000 </r>
       <r>   -7.0822    1.0000 </r>
       <r>   -7.0701    1.0000 </r>
       <r>   -7.0623    1.0000 </r>
       <r>   -7.0400    1.0000 </r>
       <r>   -3.2466    1.0000 </r>
       <r>   -3.1653    1.0000 </r>
       <r>   -3.1626    1.0000 </r>
       <r>   -3.0221    1.0000 </r>
       <r>   -2.9538    1.0000 </r>
       <r>   -2.7046    1.0000 </r>
       <r>   -2.6683    1.0000 </r>
       <r>   -2.6626    1.0000 </r>
       <r>   -2.5943    1.0000 </r>
       <r>   -2.5811    1.0000 </r>
       <r>   -2.5497    1.0000 </r>
       <r>   -2.4423    1.0000 </r>
       <r>   -2.4169    1.0000 </r>
       <r>   -2.3972    1.0000 </r>
       <r>   -2.3663    1.0000 </r>
       <r>   -2.3378    1.0000 </r>
       <r>   -2.3111    1.0000 </r>
       <r>   -2.3004    1.0000 </r>
       <r>   -2.2825    1.0000 </r>
       <r>   -2.1130    1.0000 </r>
       <r>   -2.0253    1.0000 </r>
       <r>   -2.0184    1.0000 </r>
       <r>   -1.9643    1.0000 </r>
       <r>   -1.8920    1.0000 </r>
       <r>   -1.8185    1.0000 </r>
       <r>   -1.7901    1.0000 </r>
       <r>   -1.7492    1.0000 </r>
       <r>   -1.7437    1.0000 </r>
       <r>   -1.6958    1.0000 </r>
       <r>   -1.6726    1.0000 </r>
       <r>   -1.6592    1.0000 </r>
       <r>   -1.6408    1.0000 </r>
       <r>   -1.6208    1.0000 </r>
       <r>   -1.5987    1.0000 </r>
       <r>   -1.5814    1.0000 </r>
       <r>   -1.5166    1.0000 </r>
       <r>   -1.5052    1.0000 </r>
       <r>   -1.4928    1.0000 </r>
       <r>   -1.4740    1.0000 </r>
       <r>   -1.4494    1.0000 </r>
       <r>   -1.4290    1.0000 </r>
       <r>   -1.3911    1.0000 </r>
       <r>   -1.3718    1.0000 </r>
       <r>   -1.3301    1.0000 </r>
       <r>   -1.3225    1.0000 </r>
       <r>   -1.2837    1.0000 </r>
       <r>   -1.2812    1.0000 </r>
       <r>   -1.2554    1.0000 </r>
       <r>   -1.2494    1.0000 </r>
       <r>   -1.2280    1.0000 </r>
       <r>   -1.1989    1.0000 </r>
       <r>   -1.1780    1.0000 </r>
       <r>   -1.1690    1.0000 </r>
       <r>   -1.1654    1.0000 </r>
       <r>   -1.1485    1.0000 </r>
       <r>   -1.1356    1.0000 </r>
       <r>   -1.1295    1.0000 </r>
       <r>   -1.1124    1.0000 </r>
       <r>   -1.1091    1.0000 </r>
       <r>   -1.0757    1.0000 </r>
       <r>   -1.0499    1.0000 </r>
       <r>   -0.9515    1.0000 </r>
       <r>   -0.9201    1.0000 </r>
       <r>   -0.8588    1.0000 </r>
       <r>   -0.8382    1.0000 </r>
       <r>   -0.6446    1.0000 </r>
       <r>   -0.4695    1.0000 </r>
       <r>   -0.4487    1.0000 </r>
       <r>   -0.4288    1.0000 </r>
       <r>    2.5479    0.0000 </r>
       <r>    3.1372    0.0000 </r>
       <r>    3.1537    0.0000 </r>
       <r>    3.1943    0.0000 </r>
       <r>    3.3778    0.0000 </r>
       <r>    3.9761    0.0000 </r>
       <r>    4.2683    0.0000 </r>
       <r>    4.2970    0.0000 </r>
       <r>    4.3623    0.0000 </r>
       <r>    4.3724    0.0000 </r>
       <r>    4.4642    0.0000 </r>
       <r>    4.5053    0.0000 </r>
       <r>    4.5543    0.0000 </r>
       <r>    4.5695    0.0000 </r>
       <r>    4.5867    0.0000 </r>
       <r>    4.6647    0.0000 </r>
       <r>    4.7353    0.0000 </r>
       <r>    4.7724    0.0000 </r>
       <r>    4.8867    0.0000 </r>
       <r>    4.8928    0.0000 </r>
       <r>    4.9233    0.0000 </r>
       <r>    5.6975    0.0000 </r>
       <r>    5.7708    0.0000 </r>
       <r>    5.7962    0.0000 </r>
       <r>    5.9268    0.0000 </r>
       <r>    5.9780    0.0000 </r>
       <r>    6.0651    0.0000 </r>
       <r>    6.1160    0.0000 </r>
       <r>    6.1687    0.0000 </r>
       <r>    6.2849    0.0000 </r>
       <r>    6.3260    0.0000 </r>
       <r>    6.3667    0.0000 </r>
       <r>    6.4886    0.0000 </r>
       <r>    6.4982    0.0000 </r>
       <r>    6.5477    0.0000 </r>
       <r>    6.5990    0.0000 </r>
      </set>
      <set comment="kpoint 5">
       <r>  -20.9006    1.0000 </r>
       <r>  -20.8116    1.0000 </r>
       <r>  -20.7534    1.0000 </r>
       <r>  -20.7275    1.0000 </r>
       <r>  -20.7269    1.0000 </r>
       <r>  -20.7083    1.0000 </r>
       <r>  -20.7059    1.0000 </r>
       <r>  -20.6862    1.0000 </r>
       <r>  -16.6864    1.0000 </r>
       <r>  -16.6845    1.0000 </r>
       <r>  -16.6553    1.0000 </r>
       <r>  -16.6433    1.0000 </r>
       <r>  -16.6328    1.0000 </r>
       <r>  -16.6251    1.0000 </r>
       <r>  -16.5855    1.0000 </r>
       <r>  -16.5693    1.0000 </r>
       <r>  -16.5692    1.0000 </r>
       <r>  -16.5635    1.0000 </r>
       <r>  -16.5623    1.0000 </r>
       <r>  -16.5575    1.0000 </r>
       <r>  -16.5267    1.0000 </r>
       <r>  -16.5193    1.0000 </r>
       <r>  -16.4647    1.0000 </r>
       <r>  -16.4530    1.0000 </r>
       <r>  -16.4468    1.0000 </r>
       <r>  -16.4398    1.0000 </r>
       <r>  -16.4165    1.0000 </r>
       <r>  -16.4099    1.0000 </r>
       <r>  -16.4074    1.0000 </r>
       <r>  -16.3925    1.0000 </r>
       <r>  -16.3891    1.0000 </r>
       <r>  -16.3761    1.0000 </r>
       <r>  -16.3758    1.0000 </r>
       <r>  -16.3156    1.0000 </r>
       <r>  -16.3074    1.0000 </r>
       <r>  -16.3068    1.0000 </r>
       <r>  -16.3017    1.0000 </r>
       <r>  -16.3015    1.0000 </r>
       <r>  -16.3014    1.0000 </r>
       <r>  -16.2972    1.0000 </r>
       <r>  -16.2915    1.0000 </r>
       <r>  -16.2907    1.0000 </r>
       <r>  -16.2906    1.0000 </r>
       <r>  -16.2899    1.0000 </r>
       <r>  -16.2857    1.0000 </r>
       <r>  -16.2857    1.0000 </r>
       <r>  -16.2784    1.0000 </r>
       <r>  -16.2771    1.0000 </r>
       <r>  -14.4759    1.0000 </r>
       <r>  -14.4059    1.0000 </r>
       <r>  -14.2979    1.0000 </r>
       <r>  -14.2350    1.0000 </r>
       <r>  -14.1913    1.0000 </r>
       <r>  -14.1451    1.0000 </r>
       <r>  -14.1301    1.0000 </r>
       <r>  -14.0768    1.0000 </r>
       <r>  -14.0737    1.0000 </r>
       <r>  -14.0569    1.0000 </r>
       <r>  -14.0548    1.0000 </r>
       <r>  -14.0522    1.0000 </r>
       <r>  -14.0401    1.0000 </r>
       <r>  -14.0153    1.0000 </r>
       <r>  -13.9711    1.0000 </r>
       <r>  -13.9507    1.0000 </r>
       <r>  -13.9097    1.0000 </r>
       <r>  -13.8645    1.0000 </r>
       <r>  -13.8458    1.0000 </r>
       <r>  -13.8168    1.0000 </r>
       <r>  -13.7917    1.0000 </r>
       <r>  -13.7786    1.0000 </r>
       <r>  -13.7530    1.0000 </r>
       <r>   -8.0635    1.0000 </r>
       <r>   -7.9748    1.0000 </r>
       <r>   -7.6494    1.0000 </r>
       <r>   -7.5176    1.0000 </r>
       <r>   -7.4848    1.0000 </r>
       <r>   -7.4400    1.0000 </r>
       <r>   -7.3496    1.0000 </r>
       <r>   -7.2873    1.0000 </r>
       <r>   -7.2675    1.0000 </r>
       <r>   -7.2458    1.0000 </r>
       <r>   -7.2140    1.0000 </r>
       <r>   -7.1998    1.0000 </r>
       <r>   -7.1806    1.0000 </r>
       <r>   -7.1608    1.0000 </r>
       <r>   -7.1569    1.0000 </r>
       <r>   -7.1514    1.0000 </r>
       <r>   -7.1473    1.0000 </r>
       <r>   -7.1390    1.0000 </r>
       <r>   -7.1362    1.0000 </r>
       <r>   -7.1310    1.0000 </r>
       <r>   -7.1265    1.0000 </r>
       <r>   -7.1226    1.0000 </r>
       <r>   -7.1163    1.0000 </r>
       <r>   -7.1141    1.0000 </r>
       <r>   -7.1035    1.0000 </r>
       <r>   -7.0951    1.0000 </r>
       <r>   -7.0897    1.0000 </r>
       <r>   -7.0833    1.0000 </r>
       <r>   -7.0751    1.0000 </r>
       <r>   -7.0693    1.0000 </r>
       <r>   -6.9441    1.0000 </r>
       <r>   -6.8489    1.0000 </r>
       <r>   -3.3928    1.0000 </r>
       <r>   -3.2930    1.0000 </r>
       <r>   -3.2746    1.0000 </r>
       <r>   -3.2471    1.0000 </r>
       <r>   -3.2179    1.0000 </r>
       <r>   -3.1533    1.0000 </r>
       <r>   -3.1129    1.0000 </r>
       <r>   -3.0565    1.0000 </r>
       <r>   -2.9201    1.0000 </r>
       <r>   -2.5376    1.0000 </r>
       <r>   -2.5150    1.0000 </r>
       <r>   -2.4776    1.0000 </r>
       <r>   -2.4039    1.0000 </r>
       <r>   -2.3993    1.0000 </r>
       <r>   -2.3283    1.0000 </r>
       <r>   -2.1576    1.0000 </r>
       <r>   -2.1158    1.0000 </r>
       <r>   -2.0644    1.0000 </r>
       <r>   -2.0524    1.0000 </r>
       <r>   -2.0019    1.0000 </r>
       <r>   -1.9761    1.0000 </r>
       <r>   -1.9452    1.0000 </r>
       <r>   -1.8836    1.0000 </r>
       <r>   -1.8329    1.0000 </r>
       <r>   -1.7733    1.0000 </r>
       <r>   -1.7536    1.0000 </r>
       <r>   -1.7008    1.0000 </r>
       <r>   -1.6789    1.0000 </r>
       <r>   -1.6100    1.0000 </r>
       <r>   -1.5906    1.0000 </r>
       <r>   -1.5558    1.0000 </r>
       <r>   -1.5458    1.0000 </r>
       <r>   -1.5300    1.0000 </r>
       <r>   -1.5123    1.0000 </r>
       <r>   -1.4974    1.0000 </r>
       <r>   -1.4816    1.0000 </r>
       <r>   -1.4581    1.0000 </r>
       <r>   -1.4396    1.0000 </r>
       <r>   -1.4303    1.0000 </r>
       <r>   -1.4182    1.0000 </r>
       <r>   -1.4031    1.0000 </r>
       <r>   -1.3894    1.0000 </r>
       <r>   -1.3703    1.0000 </r>
       <r>   -1.3622    1.0000 </r>
       <r>   -1.3421    1.0000 </r>
       <r>   -1.3268    1.0000 </r>
       <r>   -1.3102    1.0000 </r>
       <r>   -1.2994    1.0000 </r>
       <r>   -1.2731    1.0000 </r>
       <r>   -1.2658    1.0000 </r>
       <r>   -1.2494    1.0000 </r>
       <r>   -1.2317    1.0000 </r>
       <r>   -1.2107    1.0000 </r>
       <r>   -1.1824    1.0000 </r>
       <r>   -1.1650    1.0000 </r>
       <r>   -1.1371    1.0000 </r>
       <r>   -1.1229    1.0000 </r>
       <r>   -1.0848    1.0000 </r>
       <r>   -1.0766    1.0000 </r>
       <r>   -1.0356    1.0000 </r>
       <r>   -0.9857    1.0000 </r>
       <r>   -0.9107    1.0000 </r>
       <r>   -0.8893    1.0000 </r>
       <r>   -0.7278    1.0000 </r>
       <r>   -0.6074    1.0000 </r>
       <r>   -0.5465    1.0000 </r>
       <r>   -0.5037    1.0000 </r>
       <r>   -0.0673    1.0000 </r>
       <r>    0.0172    1.0000 </r>
       <r>    2.6011    0.0000 </r>
       <r>    2.8671    0.0000 </r>
       <r>    2.9374    0.0000 </r>
       <r>    2.9594    0.0000 </r>
       <r>    3.1221    0.0000 </r>
       <r>    3.2425    0.0000 </r>
       <r>    3.3008    0.0000 </r>
       <r>    3.3489    0.0000 </r>
       <r>    3.4890    0.0000 </r>
       <r>    4.0226    0.0000 </r>
       <r>    4.3046    0.0000 </r>
       <r>    4.3890    0.0000 </r>
       <r>    4.5382    0.0000 </r>
       <r>    4.6076    0.0000 </r>
       <r>    4.7218    0.0000 </r>
       <r>    4.7605    0.0000 </r>
       <r>    4.8692    0.0000 </r>
       <r>    5.4174    0.0000 </r>
       <r>    5.5812    0.0000 </r>
       <r>    5.6619    0.0000 </r>
       <r>    5.6817    0.0000 </r>
       <r>    5.8722    0.0000 </r>
       <r>    5.9514    0.0000 </r>
       <r>    6.0514    0.0000 </r>
       <r>    6.0794    0.0000 </r>
       <r>    6.1035    0.0000 </r>
       <r>    6.1661    0.0000 </r>
       <r>    6.2311    0.0000 </r>
       <r>    6.2459    0.0000 </r>
       <r>    6.3002    0.0000 </r>
       <r>    6.3501    0.0000 </r>
       <r>    6.3865    0.0000 </r>
       <r>    6.4809    0.0000 </r>
       <r>    6.5557    0.0000 </r>
       <r>    6.5696    0.0000 </r>
       <r>    6.6025    0.0000 </r>
      </set>
      <set comment="kpoint 6">
       <r>  -20.9006    1.0000 </r>
       <r>  -20.8116    1.0000 </r>
       <r>  -20.7533    1.0000 </r>
       <r>  -20.7274    1.0000 </r>
       <r>  -20.7269    1.0000 </r>
       <r>  -20.7083    1.0000 </r>
       <r>  -20.7059    1.0000 </r>
       <r>  -20.6862    1.0000 </r>
       <r>  -16.6858    1.0000 </r>
       <r>  -16.6837    1.0000 </r>
       <r>  -16.6529    1.0000 </r>
       <r>  -16.6432    1.0000 </r>
       <r>  -16.6308    1.0000 </r>
       <r>  -16.6226    1.0000 </r>
       <r>  -16.5854    1.0000 </r>
       <r>  -16.5692    1.0000 </r>
       <r>  -16.5692    1.0000 </r>
       <r>  -16.5635    1.0000 </r>
       <r>  -16.5623    1.0000 </r>
       <r>  -16.5574    1.0000 </r>
       <r>  -16.5267    1.0000 </r>
       <r>  -16.5193    1.0000 </r>
       <r>  -16.4632    1.0000 </r>
       <r>  -16.4530    1.0000 </r>
       <r>  -16.4473    1.0000 </r>
       <r>  -16.4229    1.0000 </r>
       <r>  -16.4135    1.0000 </r>
       <r>  -16.4135    1.0000 </r>
       <r>  -16.4102    1.0000 </r>
       <r>  -16.4028    1.0000 </r>
       <r>  -16.3913    1.0000 </r>
       <r>  -16.3877    1.0000 </r>
       <r>  -16.3772    1.0000 </r>
       <r>  -16.3156    1.0000 </r>
       <r>  -16.3074    1.0000 </r>
       <r>  -16.3068    1.0000 </r>
       <r>  -16.3017    1.0000 </r>
       <r>  -16.3015    1.0000 </r>
       <r>  -16.3014    1.0000 </r>
       <r>  -16.2972    1.0000 </r>
       <r>  -16.2915    1.0000 </r>
       <r>  -16.2907    1.0000 </r>
       <r>  -16.2906    1.0000 </r>
       <r>  -16.2899    1.0000 </r>
       <r>  -16.2858    1.0000 </r>
       <r>  -16.2857    1.0000 </r>
       <r>  -16.2784    1.0000 </r>
       <r>  -16.2771    1.0000 </r>
       <r>  -14.4710    1.0000 </r>
       <r>  -14.3962    1.0000 </r>
       <r>  -14.3133    1.0000 </r>
       <r>  -14.2515    1.0000 </r>
       <r>  -14.2084    1.0000 </r>
       <r>  -14.1577    1.0000 </r>
       <r>  -14.1425    1.0000 </r>
       <r>  -14.1293    1.0000 </r>
       <r>  -14.0876    1.0000 </r>
       <r>  -14.0582    1.0000 </r>
       <r>  -14.0519    1.0000 </r>
       <r>  -14.0342    1.0000 </r>
       <r>  -14.0210    1.0000 </r>
       <r>  -13.9103    1.0000 </r>
       <r>  -13.9083    1.0000 </r>
       <r>  -13.9054    1.0000 </r>
       <r>  -13.8698    1.0000 </r>
       <r>  -13.8557    1.0000 </r>
       <r>  -13.8535    1.0000 </r>
       <r>  -13.8503    1.0000 </r>
       <r>  -13.8311    1.0000 </r>
       <r>  -13.8207    1.0000 </r>
       <r>  -13.8007    1.0000 </r>
       <r>   -7.9035    1.0000 </r>
       <r>   -7.7873    1.0000 </r>
       <r>   -7.7447    1.0000 </r>
       <r>   -7.7429    1.0000 </r>
       <r>   -7.4556    1.0000 </r>
       <r>   -7.3551    1.0000 </r>
       <r>   -7.3011    1.0000 </r>
       <r>   -7.2792    1.0000 </r>
       <r>   -7.2702    1.0000 </r>
       <r>   -7.2535    1.0000 </r>
       <r>   -7.2188    1.0000 </r>
       <r>   -7.2128    1.0000 </r>
       <r>   -7.2108    1.0000 </r>
       <r>   -7.1854    1.0000 </r>
       <r>   -7.1693    1.0000 </r>
       <r>   -7.1647    1.0000 </r>
       <r>   -7.1440    1.0000 </r>
       <r>   -7.1409    1.0000 </r>
       <r>   -7.1358    1.0000 </r>
       <r>   -7.1258    1.0000 </r>
[...]
        <r>  0.0000  0.0024  0.0005 </r>
        <r>  0.0000  0.0030  0.0001 </r>
        <r>  0.0009  0.0003  0.0008 </r>
        <r>  0.0005  0.0010  0.0009 </r>
        <r>  0.0001  0.0014  0.0013 </r>
        <r>  0.0008  0.0022  0.0009 </r>
        <r>  0.0004  0.0024  0.0005 </r>
        <r>  0.0003  0.0044  0.0010 </r>
        <r>  0.0000  0.0028  0.0003 </r>
       </set>
       <set comment="band 199">
        <r>  0.0014  0.0008  0.0040 </r>
        <r>  0.0019  0.0008  0.0043 </r>
        <r>  0.0005  0.0015  0.0063 </r>
        <r>  0.0002  0.0001  0.0051 </r>
        <r>  0.0021  0.0002  0.0088 </r>
        <r>  0.0048  0.0011  0.0109 </r>
        <r>  0.0071  0.0009  0.0138 </r>
        <r>  0.0003  0.0003  0.0023 </r>
        <r>  0.0000  0.0021  0.0000 </r>
        <r>  0.0004  0.0095  0.0006 </r>
        <r>  0.0000  0.0040  0.0002 </r>
        <r>  0.0000  0.0038  0.0004 </r>
        <r>  0.0000  0.0053  0.0003 </r>
        <r>  0.0000  0.0038  0.0001 </r>
        <r>  0.0001  0.0024  0.0002 </r>
        <r>  0.0002  0.0085  0.0005 </r>
        <r>  0.0001  0.0015  0.0010 </r>
        <r>  0.0011  0.0028  0.0013 </r>
        <r>  0.0001  0.0009  0.0016 </r>
        <r>  0.0051  0.0022  0.0022 </r>
        <r>  0.0001  0.0010  0.0003 </r>
        <r>  0.0001  0.0035  0.0012 </r>
        <r>  0.0000  0.0023  0.0002 </r>
        <r>  0.0000  0.0017  0.0003 </r>
        <r>  0.0001  0.0077  0.0002 </r>
        <r>  0.0007  0.0015  0.0008 </r>
        <r>  0.0005  0.0017  0.0016 </r>
        <r>  0.0000  0.0012  0.0005 </r>
        <r>  0.0005  0.0014  0.0004 </r>
        <r>  0.0000  0.0034  0.0012 </r>
        <r>  0.0001  0.0002  0.0004 </r>
        <r>  0.0033  0.0001  0.0035 </r>
        <r>  0.0007  0.0030  0.0004 </r>
        <r>  0.0005  0.0038  0.0008 </r>
        <r>  0.0003  0.0006  0.0019 </r>
        <r>  0.0002  0.0016  0.0007 </r>
        <r>  0.0001  0.0025  0.0010 </r>
        <r>  0.0002  0.0012  0.0006 </r>
        <r>  0.0001  0.0018  0.0007 </r>
       </set>
       <set comment="band 200">
        <r>  0.0137  0.0010  0.0072 </r>
        <r>  0.0021  0.0007  0.0115 </r>
        <r>  0.0010  0.0000  0.0090 </r>
        <r>  0.0005  0.0003  0.0099 </r>
        <r>  0.0015  0.0016  0.0061 </r>
        <r>  0.0003  0.0008  0.0036 </r>
        <r>  0.0003  0.0002  0.0052 </r>
        <r>  0.0001  0.0009  0.0070 </r>
        <r>  0.0000  0.0040  0.0001 </r>
        <r>  0.0002  0.0026  0.0001 </r>
        <r>  0.0000  0.0027  0.0002 </r>
        <r>  0.0000  0.0045  0.0002 </r>
        <r>  0.0000  0.0079  0.0002 </r>
        <r>  0.0000  0.0009  0.0001 </r>
        <r>  0.0000  0.0032  0.0001 </r>
        <r>  0.0000  0.0127  0.0004 </r>
        <r>  0.0000  0.0072  0.0005 </r>
        <r>  0.0000  0.0019  0.0007 </r>
        <r>  0.0001  0.0033  0.0003 </r>
        <r>  0.0018  0.0055  0.0014 </r>
        <r>  0.0000  0.0003  0.0014 </r>
        <r>  0.0026  0.0003  0.0026 </r>
        <r>  0.0005  0.0016  0.0028 </r>
        <r>  0.0008  0.0011  0.0014 </r>
        <r>  0.0000  0.0002  0.0005 </r>
        <r>  0.0001  0.0012  0.0004 </r>
        <r>  0.0002  0.0044  0.0002 </r>
        <r>  0.0003  0.0038  0.0009 </r>
        <r>  0.0002  0.0027  0.0004 </r>
        <r>  0.0012  0.0008  0.0011 </r>
        <r>  0.0017  0.0008  0.0011 </r>
        <r>  0.0000  0.0010  0.0002 </r>
        <r>  0.0010  0.0009  0.0012 </r>
        <r>  0.0000  0.0016  0.0007 </r>
        <r>  0.0005  0.0045  0.0003 </r>
        <r>  0.0000  0.0032  0.0009 </r>
        <r>  0.0027  0.0048  0.0014 </r>
        <r>  0.0021  0.0012  0.0018 </r>
        <r>  0.0003  0.0003  0.0007 </r>
       </set>
       <set comment="band 201">
        <r>  0.0000  0.0008  0.0093 </r>
        <r>  0.0009  0.0001  0.0053 </r>
        <r>  0.0085  0.0003  0.0127 </r>
        <r>  0.0041  0.0011  0.0060 </r>
        <r>  0.0005  0.0004  0.0024 </r>
        <r>  0.0020  0.0005  0.0049 </r>
        <r>  0.0003  0.0015  0.0058 </r>
        <r>  0.0001  0.0015  0.0173 </r>
        <r>  0.0000  0.0003  0.0004 </r>
        <r>  0.0000  0.0055  0.0009 </r>
        <r>  0.0000  0.0043  0.0002 </r>
        <r>  0.0000  0.0026  0.0001 </r>
        <r>  0.0000  0.0074  0.0001 </r>
        <r>  0.0001  0.0019  0.0002 </r>
        <r>  0.0001  0.0066  0.0002 </r>
        <r>  0.0001  0.0098  0.0006 </r>
        <r>  0.0018  0.0024  0.0023 </r>
        <r>  0.0024  0.0031  0.0023 </r>
        <r>  0.0000  0.0012  0.0006 </r>
        <r>  0.0009  0.0022  0.0011 </r>
        <r>  0.0006  0.0045  0.0006 </r>
        <r>  0.0000  0.0031  0.0011 </r>
        <r>  0.0007  0.0015  0.0003 </r>
        <r>  0.0006  0.0014  0.0012 </r>
        <r>  0.0014  0.0010  0.0008 </r>
        <r>  0.0009  0.0021  0.0005 </r>
        <r>  0.0003  0.0007  0.0007 </r>
        <r>  0.0001  0.0004  0.0010 </r>
        <r>  0.0005  0.0011  0.0010 </r>
        <r>  0.0000  0.0029  0.0006 </r>
        <r>  0.0000  0.0008  0.0002 </r>
        <r>  0.0000  0.0037  0.0007 </r>
        <r>  0.0000  0.0020  0.0015 </r>
        <r>  0.0001  0.0008  0.0008 </r>
        <r>  0.0004  0.0014  0.0008 </r>
        <r>  0.0004  0.0030  0.0004 </r>
        <r>  0.0013  0.0059  0.0005 </r>
        <r>  0.0012  0.0030  0.0028 </r>
        <r>  0.0003  0.0031  0.0018 </r>
       </set>
       <set comment="band 202">
        <r>  0.0018  0.0022  0.0059 </r>
        <r>  0.0069  0.0022  0.0030 </r>
        <r>  0.0001  0.0004  0.0039 </r>
        <r>  0.0007  0.0003  0.0071 </r>
        <r>  0.0038  0.0008  0.0127 </r>
        <r>  0.0069  0.0000  0.0083 </r>
        <r>  0.0004  0.0010  0.0090 </r>
        <r>  0.0000  0.0006  0.0047 </r>
        <r>  0.0000  0.0010  0.0002 </r>
        <r>  0.0000  0.0151  0.0002 </r>
        <r>  0.0000  0.0047  0.0004 </r>
        <r>  0.0000  0.0071  0.0000 </r>
        <r>  0.0002  0.0050  0.0002 </r>
        <r>  0.0000  0.0049  0.0001 </r>
        <r>  0.0000  0.0024  0.0003 </r>
        <r>  0.0002  0.0111  0.0002 </r>
        <r>  0.0003  0.0040  0.0008 </r>
        <r>  0.0001  0.0024  0.0002 </r>
        <r>  0.0018  0.0011  0.0016 </r>
        <r>  0.0005  0.0041  0.0022 </r>
        <r>  0.0001  0.0021  0.0007 </r>
        <r>  0.0019  0.0030  0.0027 </r>
        <r>  0.0004  0.0026  0.0017 </r>
        <r>  0.0000  0.0015  0.0007 </r>
        <r>  0.0000  0.0022  0.0003 </r>
        <r>  0.0001  0.0011  0.0008 </r>
        <r>  0.0021  0.0024  0.0039 </r>
        <r>  0.0006  0.0022  0.0012 </r>
        <r>  0.0005  0.0004  0.0008 </r>
        <r>  0.0011  0.0010  0.0011 </r>
        <r>  0.0000  0.0023  0.0007 </r>
        <r>  0.0000  0.0016  0.0006 </r>
        <r>  0.0004  0.0056  0.0008 </r>
        <r>  0.0000  0.0012  0.0004 </r>
        <r>  0.0004  0.0013  0.0005 </r>
        <r>  0.0002  0.0008  0.0007 </r>
        <r>  0.0032  0.0035  0.0021 </r>
        <r>  0.0015  0.0012  0.0014 </r>
        <r>  0.0002  0.0004  0.0016 </r>
       </set>
       <set comment="band 203">
        <r>  0.0002  0.0010  0.0181 </r>
        <r>  0.0049  0.0009  0.0133 </r>
        <r>  0.0040  0.0004  0.0101 </r>
        <r>  0.0000  0.0005  0.0033 </r>
        <r>  0.0080  0.0004  0.0032 </r>
        <r>  0.0004  0.0017  0.0060 </r>
        <r>  0.0001  0.0001  0.0042 </r>
        <r>  0.0005  0.0006  0.0133 </r>
        <r>  0.0000  0.0068  0.0001 </r>
        <r>  0.0000  0.0023  0.0000 </r>
        <r>  0.0000  0.0054  0.0001 </r>
        <r>  0.0000  0.0004  0.0004 </r>
        <r>  0.0000  0.0116  0.0001 </r>
        <r>  0.0000  0.0090  0.0002 </r>
        <r>  0.0000  0.0011  0.0002 </r>
        <r>  0.0001  0.0016  0.0001 </r>
        <r>  0.0000  0.0008  0.0003 </r>
        <r>  0.0005  0.0052  0.0021 </r>
        <r>  0.0016  0.0043  0.0029 </r>
        <r>  0.0009  0.0005  0.0013 </r>
        <r>  0.0005  0.0037  0.0009 </r>
        <r>  0.0006  0.0010  0.0033 </r>
        <r>  0.0017  0.0020  0.0018 </r>
        <r>  0.0010  0.0042  0.0019 </r>
        <r>  0.0000  0.0017  0.0004 </r>
        <r>  0.0001  0.0014  0.0003 </r>
        <r>  0.0000  0.0006  0.0007 </r>
        <r>  0.0012  0.0013  0.0031 </r>
        <r>  0.0005  0.0041  0.0005 </r>
        <r>  0.0001  0.0009  0.0004 </r>
        <r>  0.0009  0.0018  0.0014 </r>
        <r>  0.0003  0.0006  0.0012 </r>
        <r>  0.0001  0.0002  0.0009 </r>
        <r>  0.0007  0.0003  0.0005 </r>
        <r>  0.0013  0.0019  0.0019 </r>
        <r>  0.0003  0.0000  0.0010 </r>
        <r>  0.0000  0.0021  0.0011 </r>
        <r>  0.0000  0.0030  0.0006 </r>
        <r>  0.0002  0.0016  0.0008 </r>
       </set>
       <set comment="band 204">
        <r>  0.0004  0.0004  0.0129 </r>
        <r>  0.0016  0.0004  0.0033 </r>
        <r>  0.0025  0.0013  0.0075 </r>
        <r>  0.0018  0.0010  0.0113 </r>
        <r>  0.0026  0.0011  0.0165 </r>
        <r>  0.0005  0.0005  0.0080 </r>
        <r>  0.0003  0.0006  0.0097 </r>
        <r>  0.0055  0.0016  0.0047 </r>
        <r>  0.0000  0.0009  0.0005 </r>
        <r>  0.0000  0.0039  0.0002 </r>
        <r>  0.0000  0.0015  0.0001 </r>
        <r>  0.0000  0.0045  0.0001 </r>
        <r>  0.0000  0.0060  0.0003 </r>
        <r>  0.0000  0.0032  0.0007 </r>
        <r>  0.0000  0.0141  0.0001 </r>
        <r>  0.0000  0.0036  0.0005 </r>
        <r>  0.0010  0.0023  0.0015 </r>
        <r>  0.0003  0.0045  0.0015 </r>
        <r>  0.0017  0.0036  0.0020 </r>
        <r>  0.0000  0.0030  0.0009 </r>
        <r>  0.0016  0.0030  0.0024 </r>
        <r>  0.0003  0.0014  0.0006 </r>
        <r>  0.0001  0.0043  0.0011 </r>
        <r>  0.0002  0.0044  0.0013 </r>
        <r>  0.0001  0.0006  0.0009 </r>
        <r>  0.0009  0.0012  0.0015 </r>
        <r>  0.0003  0.0014  0.0013 </r>
        <r>  0.0008  0.0007  0.0007 </r>
        <r>  0.0000  0.0013  0.0006 </r>
        <r>  0.0001  0.0017  0.0003 </r>
        <r>  0.0010  0.0016  0.0019 </r>
        <r>  0.0002  0.0002  0.0007 </r>
        <r>  0.0000  0.0018  0.0007 </r>
        <r>  0.0006  0.0002  0.0006 </r>
        <r>  0.0001  0.0016  0.0008 </r>
        <r>  0.0003  0.0043  0.0009 </r>
        <r>  0.0007  0.0018  0.0009 </r>
        <r>  0.0015  0.0007  0.0019 </r>
        <r>  0.0000  0.0012  0.0017 </r>
       </set>
       <set comment="band 205">
        <r>  0.0000  0.0002  0.0169 </r>
        <r>  0.0001  0.0002  0.0096 </r>
        <r>  0.0034  0.0008  0.0236 </r>
        <r>  0.0049  0.0002  0.0023 </r>
        <r>  0.0001  0.0005  0.0036 </r>
        <r>  0.0014  0.0006  0.0085 </r>
        <r>  0.0031  0.0019  0.0146 </r>
        <r>  0.0000  0.0010  0.0122 </r>
        <r>  0.0000  0.0013  0.0004 </r>
        <r>  0.0000  0.0017  0.0002 </r>
        <r>  0.0000  0.0101  0.0002 </r>
        <r>  0.0000  0.0080  0.0001 </r>
        <r>  0.0000  0.0032  0.0001 </r>
        <r>  0.0000  0.0003  0.0001 </r>
        <r>  0.0000  0.0044  0.0002 </r>
        <r>  0.0000  0.0079  0.0002 </r>
        <r>  0.0001  0.0037  0.0011 </r>
        <r>  0.0000  0.0002  0.0009 </r>
        <r>  0.0000  0.0038  0.0006 </r>
        <r>  0.0005  0.0020  0.0003 </r>
        <r>  0.0023  0.0002  0.0034 </r>
        <r>  0.0003  0.0002  0.0007 </r>
        <r>  0.0000  0.0002  0.0004 </r>
        <r>  0.0006  0.0008  0.0013 </r>
        <r>  0.0001  0.0020  0.0005 </r>
        <r>  0.0005  0.0006  0.0012 </r>
        <r>  0.0000  0.0010  0.0002 </r>
        <r>  0.0003  0.0032  0.0007 </r>
        <r>  0.0024  0.0033  0.0039 </r>
        <r>  0.0008  0.0013  0.0022 </r>
        <r>  0.0006  0.0026  0.0019 </r>
        <r>  0.0006  0.0031  0.0014 </r>
        <r>  0.0000  0.0017  0.0005 </r>
        <r>  0.0005  0.0000  0.0002 </r>
        <r>  0.0024  0.0037  0.0028 </r>
        <r>  0.0001  0.0005  0.0008 </r>
        <r>  0.0000  0.0019  0.0010 </r>
        <r>  0.0005  0.0019  0.0007 </r>
        <r>  0.0000  0.0005  0.0016 </r>
       </set>
       <set comment="band 206">
        <r>  0.0004  0.0005  0.0041 </r>
        <r>  0.0005  0.0001  0.0214 </r>
        <r>  0.0025  0.0001  0.0231 </r>
        <r>  0.0010  0.0004  0.0082 </r>
        <r>  0.0003  0.0000  0.0057 </r>
        <r>  0.0009  0.0005  0.0031 </r>
        <r>  0.0001  0.0009  0.0358 </r>
        <r>  0.0018  0.0000  0.0134 </r>
        <r>  0.0000  0.0057  0.0004 </r>
        <r>  0.0000  0.0017  0.0006 </r>
        <r>  0.0000  0.0044  0.0000 </r>
        <r>  0.0000  0.0033  0.0003 </r>
        <r>  0.0000  0.0016  0.0002 </r>
        <r>  0.0000  0.0054  0.0006 </r>
        <r>  0.0000  0.0084  0.0002 </r>
        <r>  0.0000  0.0013  0.0002 </r>
        <r>  0.0000  0.0013  0.0005 </r>
        <r>  0.0001  0.0001  0.0002 </r>
        <r>  0.0003  0.0011  0.0005 </r>
        <r>  0.0001  0.0002  0.0007 </r>
        <r>  0.0023  0.0016  0.0040 </r>
        <r>  0.0000  0.0020  0.0002 </r>
        <r>  0.0000  0.0004  0.0006 </r>
        <r>  0.0003  0.0026  0.0007 </r>
        <r>  0.0005  0.0007  0.0030 </r>
        <r>  0.0001  0.0026  0.0028 </r>
        <r>  0.0005  0.0029  0.0011 </r>
        <r>  0.0006  0.0003  0.0008 </r>
        <r>  0.0018  0.0005  0.0038 </r>
        <r>  0.0000  0.0012  0.0014 </r>
        <r>  0.0001  0.0024  0.0004 </r>
        <r>  0.0003  0.0014  0.0019 </r>
        <r>  0.0001  0.0005  0.0004 </r>
        <r>  0.0002  0.0036  0.0028 </r>
        <r>  0.0003  0.0029  0.0018 </r>
        <r>  0.0000  0.0013  0.0011 </r>
        <r>  0.0010  0.0006  0.0013 </r>
        <r>  0.0000  0.0009  0.0009 </r>
        <r>  0.0010  0.0001  0.0024 </r>
       </set>
       <set comment="band 207">
        <r>  0.0010  0.0000  0.0101 </r>
        <r>  0.0000  0.0002  0.0130 </r>
        <r>  0.0002  0.0015  0.0326 </r>
        <r>  0.0024  0.0002  0.0094 </r>
        <r>  0.0001  0.0002  0.0128 </r>
        <r>  0.0027  0.0001  0.0072 </r>
        <r>  0.0002  0.0015  0.0172 </r>
        <r>  0.0036  0.0006  0.0035 </r>
        <r>  0.0000  0.0053  0.0007 </r>
        <r>  0.0001  0.0004  0.0002 </r>
        <r>  0.0001  0.0040  0.0005 </r>
        <r>  0.0001  0.0046  0.0001 </r>
        <r>  0.0000  0.0060  0.0001 </r>
        <r>  0.0000  0.0033  0.0003 </r>
        <r>  0.0000  0.0061  0.0004 </r>
        <r>  0.0001  0.0042  0.0004 </r>
        <r>  0.0012  0.0009  0.0027 </r>
        <r>  0.0003  0.0029  0.0013 </r>
        <r>  0.0002  0.0019  0.0006 </r>
        <r>  0.0005  0.0008  0.0016 </r>
        <r>  0.0006  0.0021  0.0016 </r>
        <r>  0.0005  0.0023  0.0010 </r>
        <r>  0.0000  0.0003  0.0003 </r>
        <r>  0.0000  0.0006  0.0010 </r>
        <r>  0.0002  0.0007  0.0004 </r>
        <r>  0.0007  0.0014  0.0016 </r>
        <r>  0.0000  0.0005  0.0017 </r>
        <r>  0.0014  0.0008  0.0019 </r>
        <r>  0.0001  0.0034  0.0026 </r>
        <r>  0.0001  0.0012  0.0004 </r>
        <r>  0.0006  0.0006  0.0018 </r>
        <r>  0.0002  0.0009  0.0022 </r>
        <r>  0.0003  0.0026  0.0002 </r>
        <r>  0.0001  0.0050  0.0011 </r>
        <r>  0.0008  0.0013  0.0038 </r>
        <r>  0.0007  0.0014  0.0009 </r>
        <r>  0.0002  0.0014  0.0013 </r>
        <r>  0.0002  0.0019  0.0009 </r>
        <r>  0.0004  0.0009  0.0008 </r>
       </set>
       <set comment="band 208">
        <r>  0.0011  0.0002  0.0176 </r>
        <r>  0.0017  0.0004  0.0043 </r>
        <r>  0.0018  0.0003  0.0139 </r>
        <r>  0.0011  0.0000  0.0192 </r>
        <r>  0.0001  0.0000  0.0144 </r>
        <r>  0.0003  0.0002  0.0108 </r>
        <r>  0.0010  0.0016  0.0180 </r>
        <r>  0.0020  0.0001  0.0071 </r>
        <r>  0.0000  0.0120  0.0002 </r>
        <r>  0.0000  0.0197  0.0001 </r>
        <r>  0.0000  0.0004  0.0009 </r>
        <r>  0.0001  0.0020  0.0006 </r>
        <r>  0.0000  0.0019  0.0002 </r>
        <r>  0.0001  0.0083  0.0000 </r>
        <r>  0.0000  0.0024  0.0007 </r>
        <r>  0.0001  0.0038  0.0003 </r>
        <r>  0.0002  0.0018  0.0022 </r>
        <r>  0.0005  0.0032  0.0007 </r>
        <r>  0.0001  0.0003  0.0013 </r>
        <r>  0.0000  0.0009  0.0006 </r>
        <r>  0.0002  0.0001  0.0004 </r>
        <r>  0.0001  0.0003  0.0002 </r>
        <r>  0.0003  0.0018  0.0008 </r>
        <r>  0.0013  0.0002  0.0029 </r>
        <r>  0.0002  0.0006  0.0010 </r>
        <r>  0.0002  0.0006  0.0008 </r>
        <r>  0.0006  0.0014  0.0023 </r>
        <r>  0.0016  0.0050  0.0022 </r>
        <r>  0.0003  0.0009  0.0023 </r>
        <r>  0.0001  0.0037  0.0007 </r>
        <r>  0.0000  0.0006  0.0008 </r>
        <r>  0.0004  0.0050  0.0008 </r>
        <r>  0.0006  0.0011  0.0026 </r>
        <r>  0.0012  0.0011  0.0032 </r>
        <r>  0.0000  0.0020  0.0019 </r>
        <r>  0.0005  0.0002  0.0014 </r>
        <r>  0.0002  0.0007  0.0023 </r>
        <r>  0.0004  0.0002  0.0007 </r>
        <r>  0.0001  0.0005  0.0001 </r>
       </set>
      </set>
     </set>
    </set>
   </array>
  </projected>
 </calculation>
 <structure name="finalpos" >
  <crystal>
   <varray name="basis" >
    <v>       8.45648900       0.00000000       8.04030100 </v>
    <v>       0.00000000      11.72984700       0.00000000 </v>
    <v>      -8.45648900       0.00000000       8.04030100 </v>
   </varray>
   <i name="volume">   1595.08833419 </i>
   <varray name="rec_basis" >
    <v>       0.05912619      -0.00000000       0.06218673 </v>
    <v>       0.00000000       0.08525260      -0.00000000 </v>
    <v>      -0.05912619       0.00000000       0.06218673 </v>
   </varray>
  </crystal>
  <varray name="positions" >
   <v>       0.25088700       0.23698400       0.19404900 </v>
   <v>       0.77671900       0.24510500       0.71770700 </v>
   <v>       0.76717300       0.76323200       0.25877400 </v>
   <v>       0.19439100       0.74872300       0.77249200 </v>
   <v>       0.29707900       0.25056000       0.73124000 </v>
   <v>       0.78734300       0.24599000       0.22741700 </v>
   <v>       0.73628600       0.75208500       0.80494400 </v>
   <v>       0.21514200       0.75285300       0.28932500 </v>
   <v>       0.99852000       0.00060400       0.99799500 </v>
   <v>       0.49952100       0.00263400       0.48737500 </v>
   <v>       0.49441200       0.00131200       0.99414900 </v>
   <v>       0.00498800       0.00025600       0.50543100 </v>
   <v>       0.50130600       0.50542300       0.00163600 </v>
   <v>       0.00539900       0.49422600       0.50535200 </v>
   <v>       0.99987400       0.49828100       0.00075100 </v>
   <v>       0.50601200       0.48806500       0.50743900 </v>
   <v>       0.46643700       0.75180600       0.95284600 </v>
   <v>       0.97918500       0.74716800       0.48944900 </v>
   <v>       0.96863900       0.24974500       0.97735900 </v>
   <v>       0.45516100       0.24227100       0.45374300 </v>
   <v>       0.01804400       0.74974800       0.03165100 </v>
   <v>       0.51923200       0.25512600       0.03655000 </v>
   <v>       0.03774800       0.24736900       0.54545100 </v>
   <v>       0.24824000       0.47023600       0.95474400 </v>
   <v>       0.75130600       0.45427100       0.45780200 </v>
   <v>       0.94503900       0.52870400       0.75246900 </v>
   <v>       0.54708400       0.03338000       0.74071600 </v>
   <v>       0.03701100       0.02266700       0.25496300 </v>
   <v>       0.74816600       0.97799600       0.04025300 </v>
   <v>       0.25563200       0.95867900       0.54830500 </v>
   <v>       0.24374000       0.02984000       0.93918800 </v>
   <v>       0.74732300       0.02985800       0.44927300 </v>
   <v>       0.43625800       0.97262300       0.23815800 </v>
   <v>       0.94431800       0.96924600       0.75031300 </v>
   <v>       0.75023600       0.52913100       0.05627300 </v>
   <v>       0.26002600       0.53341000       0.55332600 </v>
   <v>       0.55344800       0.47473800       0.76530700 </v>
   <v>       0.05082800       0.47018900       0.25722500 </v>
   <v>       0.50273200       0.66322500       0.35752700 </v>
  </varray>
 </structure>
</modeling>
