CsPbBr3 cubic bulk                      
           1
     8.456489    0.000000    8.040301
     0.000000   11.729847    0.000000
    -8.456489    0.000000    8.040301
   Cs   Pb   Br
   8   8  23
Direct configuration=     1
   0.25088700  0.23698400  0.19404900
   0.77671900  0.24510500  0.71770700
   0.76717300  0.76323200  0.25877400
   0.19439100  0.74872300  0.77249200
   0.29707900  0.25056000  0.73124000
   0.78734300  0.24599000  0.22741700
   0.73628600  0.75208500  0.80494400
   0.21514200  0.75285300  0.28932500
   0.99852000  0.00060400  0.99799500
   0.49952100  0.00263400  0.48737500
   0.49441200  0.00131200  0.99414900
   0.00498800  0.00025600  0.50543100
   0.50130600  0.50542300  0.00163600
   0.00539900  0.49422600  0.50535200
   0.99987400  0.49828100  0.00075100
   0.50601200  0.48806500  0.50743900
   0.46643700  0.75180600  0.95284600
   0.97918500  0.74716800  0.48944900
   0.96863900  0.24974500  0.97735900
   0.45516100  0.24227100  0.45374300
   0.01804400  0.74974800  0.03165100
   0.51923200  0.25512600  0.03655000
   0.03774800  0.24736900  0.54545100
   0.24824000  0.47023600  0.95474400
   0.75130600  0.45427100  0.45780200
   0.94503900  0.52870400  0.75246900
   0.54708400  0.03338000  0.74071600
   0.03701100  0.02266700  0.25496300
   0.74816600  0.97799600  0.04025300
   0.25563200  0.95867900  0.54830500
   0.24374000  0.02984000  0.93918800
   0.74732300  0.02985800  0.44927300
   0.43625800  0.97262300  0.23815800
   0.94431800  0.96924600  0.75031300
   0.75023600  0.52913100  0.05627300
   0.26002600  0.53341000  0.55332600
   0.55344800  0.47473800  0.76530700
   0.05082800  0.47018900  0.25722500
   0.50273200  0.66322500  0.35752700
