       N       E                     dE             d eps       ncg     rms          rms(c)
DAV:   1     0.134037517753E+04    0.13404E+04   -0.11060E+05  3488   0.973E+02
DAV:   2    -0.111103280674E+04   -0.24514E+04   -0.23680E+04  4096   0.300E+02
DAV:   3    -0.147219585634E+04   -0.36116E+03   -0.35919E+03  4408   0.137E+02
DAV:   4    -0.148444441033E+04   -0.12249E+02   -0.12213E+02  3960   0.333E+01
DAV:   5    -0.148497563676E+04   -0.53123E+00   -0.53096E+00  4440   0.541E+00    0.124E+01
DAV:   6    -0.140724905564E+04    0.77727E+02   -0.23255E+01  4328   0.311E+01    0.848E+00
DAV:   7    -0.140673237766E+04    0.51668E+00   -0.94044E+00  4168   0.597E+00    0.394E+00
DAV:   8    -0.140689238775E+04   -0.16001E+00   -0.51611E-01  4176   0.222E+00    0.224E+00
DAV:   9    -0.140694386914E+04   -0.51481E-01   -0.13406E-01  3832   0.122E+00    0.433E-01
DAV:  10    -0.140694667739E+04   -0.28082E-02   -0.18188E-02  4664   0.433E-01    0.311E-01
DAV:  11    -0.140694935558E+04   -0.26782E-02   -0.33042E-03  4088   0.172E-01    0.126E-01
DAV:  12    -0.140695155051E+04   -0.21949E-02   -0.41849E-03  3664   0.175E-01    0.103E-01
DAV:  13    -0.140695128726E+04    0.26325E-03   -0.16858E-03  4552   0.112E-01    0.544E-02
DAV:  14    -0.140695127775E+04    0.95187E-05   -0.39748E-04  3920   0.395E-02    0.341E-02
DAV:  15    -0.140695129155E+04   -0.13808E-04   -0.40716E-05  3672   0.153E-02    0.178E-02
DAV:  16    -0.140695132423E+04   -0.32672E-04   -0.46286E-05  3848   0.182E-02    0.972E-03
DAV:  17    -0.140695132395E+04    0.27499E-06   -0.10342E-05  4280   0.837E-03    0.613E-03
DAV:  18    -0.140695132416E+04   -0.20537E-06   -0.29873E-06  3072   0.351E-03
   1 F= -.14069513E+04 E0= -.14069513E+04  d E =-.948262E-20
