 vasp.5.4.4.18Apr17-6-g9f103f2a35 (build Jun 22 2020 09:27:21) complex           
 executed on tx2_gcc-7.3_libsci-1 date 2021.10.12  05:43:25
 running on   64 total cores
 distrk:  each k-point on   64 cores,    1 groups
 distr:  one band on NCORES_PER_BAND=   8 cores,    8 groups


--------------------------------------------------------------------------------------------------------


 INCAR:
 POTCAR:    PAW_PBE Cs_sv 08Apr2002               
 POTCAR:    PAW_PBE Pb_d 06Sep2000                
 POTCAR:    PAW_PBE Br 06Sep2000                  
 POTCAR:    PAW_PBE Cs_sv 08Apr2002               
   SHA256 =  c1463496f0f6037ed62c6012a8013a89ee9ad6ffb38599dcd6c079e7ed31779b Cs
   COPYR  = (c) Copyright 08Apr2002 Georg Kresse                                
   COPYR  = This file is part of the software VASP. Any use, copying, and all ot
   COPYR  = If you do not have a valid VASP license, you may not use, copy or di
   VRHFIN =Cs: 5s5p6s                                                           
   LEXCH  = PE                                                                  
   EATOM  =   555.6835 eV,   40.8416 Ry                                         
                                                                                
   TITEL  = PAW_PBE Cs_sv 08Apr2002                                             
   LULTRA =        F    use ultrasoft PP ?                                      
   IUNSCR =        1    unscreen: 0-lin 1-nonlin 2-no                           
   RPACOR =    2.200    partial core radius                                     
   POMASS =  132.900; ZVAL   =    9.000    mass and valenz                      
   RCORE  =    2.500    outmost cutoff radius                                   
   RWIGS  =    2.500; RWIGS  =    1.323    wigner-seitz radius (au A)           
   ENMAX  =  220.318; ENMIN  =  165.238 eV                                      
   RCLOC  =    2.207    cutoff for local pot                                    
   LCOR   =        T    correct aug charges                                     
   LPAW   =        T    paw PP                                                  
   EAUG   =  407.933                                                            
   DEXC   =    0.000                                                            
   RMAX   =    2.554    core radius for proj-oper                               
   RAUG   =    1.300    factor for augmentation sphere                          
   RDEP   =    2.590    radius for radial grids                                 
   RDEPT  =    2.117    core radius for aug-charge                              
                                                                                
   Atomic configuration                                                         
   13 entries                                                                   
     n  l   j            E        occ.                                          
     1  0  0.50    -35790.1377   2.0000                                         
     2  0  0.50     -5613.6201   2.0000                                         
     2  1  1.50     -5035.0101   6.0000                                         
     3  0  0.50     -1167.0767   2.0000                                         
     3  1  1.50      -980.9754   6.0000                                         
     3  2  2.50      -708.0703  10.0000                                         
     4  0  0.50      -220.2386   2.0000                                         
     4  1  1.50      -160.7596   6.0000                                         
     4  2  2.50       -74.2354  10.0000                                         
     5  0  0.50       -26.7287   2.0000                                         
     6  0  0.50        -2.0862   1.0000                                         
     5  1  1.50       -13.5159   6.0000                                         
     5  2  2.50        -0.4136   0.0000                                         
   Description                                                                  
     l       E           TYP  RCUT    TYP  RCUT                                 
     0    -26.7287425     23  1.900                                             
     0     -2.0862306     23  1.900                                             
     1    -13.5158719     23  2.500                                             
     1     -2.7211652     23  2.500                                             
     2     -0.4136171     23  2.500                                             
  local pseudopotential read in
  partial core-charges read in
  partial kinetic energy density read in
  atomic valenz-charges read in
  non local Contribution for L=           0  read in
    real space projection operators read in
  non local Contribution for L=           0  read in
    real space projection operators read in
  non local Contribution for L=           1  read in
    real space projection operators read in
  non local Contribution for L=           1  read in
    real space projection operators read in
  non local Contribution for L=           2  read in
    real space projection operators read in
    PAW grid and wavefunctions read in

   number of l-projection  operators is LMAX  =           5
   number of lm-projection operators is LMMAX =          13

 POTCAR:    PAW_PBE Pb_d 06Sep2000                
   SHA256 =  fb885b08f0fba73a15f6a6b0e39bd200c13ec96ef97cf3ecd8e63bade5137abd Pb
   COPYR  = (c) Copyright 06Sep2000 Georg Kresse                                
   COPYR  = This file is part of the software VASP. Any use, copying, and all ot
   COPYR  = If you do not have a valid VASP license, you may not use, copy or di
   VRHFIN =Pb:                                                                  
   LEXCH  = PE                                                                  
   EATOM  =  1661.6185 eV,  122.1255 Ry                                         
                                                                                
   TITEL  = PAW_PBE Pb_d 06Sep2000                                              
   LULTRA =        F    use ultrasoft PP ?                                      
   IUNSCR =        1    unscreen: 0-lin 1-nonlin 2-no                           
   RPACOR =    2.200    partial core radius                                     
   POMASS =  207.200; ZVAL   =   14.000    mass and valenz                      
   RCORE  =    2.500    outmost cutoff radius                                   
   RWIGS  =    3.260; RWIGS  =    1.725    wigner-seitz radius (au A)           
   ENMAX  =  237.835; ENMIN  =  178.376 eV                                      
   ICORE  =        3    local potential                                         
   LCOR   =        T    correct aug charges                                     
   LPAW   =        T    paw PP                                                  
   EAUG   =  391.914                                                            
   DEXC   =    0.000                                                            
   RMAX   =    2.565    core radius for proj-oper                               
   RAUG   =    1.300    factor for augmentation sphere                          
   RDEP   =    2.643    radius for radial grids                                 
   RDEPT  =    2.092    core radius for aug-charge                              
                                                                                
   Atomic configuration                                                         
   16 entries                                                                   
     n  l   j            E        occ.                                          
     1  0  0.50    -88091.8466   2.0000                                         
     2  0  0.50    -15753.4197   2.0000                                         
     2  1  1.50    -13508.1797   6.0000                                         
     3  0  0.50     -3781.7194   2.0000                                         
     3  1  1.50     -3138.2529   6.0000                                         
     3  2  2.50     -2483.2977  10.0000                                         
     4  0  0.50      -856.2895   2.0000                                         
     4  1  1.50      -645.4942   6.0000                                         
     4  2  2.50      -401.8768  10.0000                                         
     4  3  3.50      -132.9059  14.0000                                         
     5  0  0.50      -144.0950   2.0000                                         
     5  1  1.50       -85.7879   6.0000                                         
     5  2  2.50       -21.1769  10.0000                                         
     6  0  0.50       -12.0372   2.0000                                         
     6  1  1.50        -3.4971   2.0000                                         
     5  3  2.50        -2.7212   0.0000                                         
   Description                                                                  
     l       E           TYP  RCUT    TYP  RCUT                                 
     2    -21.1768523     23  2.500                                             
     2      1.3605826     23  2.500                                             
     0    -12.0371562     23  2.500                                             
     0     13.6058260     23  2.500                                             
     1     -3.4971339     23  2.500                                             
     1     13.6058260     23  2.500                                             
     3     -1.3605826      7  2.500                                             
  local pseudopotential read in
  partial core-charges read in
  partial kinetic energy density read in
  atomic valenz-charges read in
  non local Contribution for L=           2  read in
    real space projection operators read in
  non local Contribution for L=           2  read in
    real space projection operators read in
  non local Contribution for L=           0  read in
    real space projection operators read in
  non local Contribution for L=           0  read in
    real space projection operators read in
  non local Contribution for L=           1  read in
    real space projection operators read in
  non local Contribution for L=           1  read in
    real space projection operators read in
    PAW grid and wavefunctions read in

   number of l-projection  operators is LMAX  =           6
   number of lm-projection operators is LMMAX =          18

 POTCAR:    PAW_PBE Br 06Sep2000                  
   SHA256 =  96a73d2954943bbee26f4990d676cc6c3bf44b8dd2c75cd4b3b825d8403f0103 Br
   COPYR  = (c) Copyright 06Sep2000 Georg Kresse                                
   COPYR  = This file is part of the software VASP. Any use, copying, and all ot
   COPYR  = If you do not have a valid VASP license, you may not use, copy or di
   VRHFIN =Br: s2p5                                                             
   LEXCH  = PE                                                                  
   EATOM  =   368.4488 eV,   27.0802 Ry                                         
                                                                                
   TITEL  = PAW_PBE Br 06Sep2000                                                
   LULTRA =        F    use ultrasoft PP ?                                      
   IUNSCR =        1    unscreen: 0-lin 1-nonlin 2-no                           
   RPACOR =    1.900    partial core radius                                     
   POMASS =   79.904; ZVAL   =    7.000    mass and valenz                      
   RCORE  =    2.100    outmost cutoff radius                                   
   RWIGS  =    2.200; RWIGS  =    1.164    wigner-seitz radius (au A)           
   ENMAX  =  216.285; ENMIN  =  162.214 eV                                      
   ICORE  =        3    local potential                                         
   LCOR   =        T    correct aug charges                                     
   LPAW   =        T    paw PP                                                  
   EAUG   =  503.852                                                            
   DEXC   =    0.000                                                            
   RMAX   =    2.139    core radius for proj-oper                               
   RAUG   =    1.300    factor for augmentation sphere                          
   RDEP   =    2.186    radius for radial grids                                 
   RDEPT  =    1.890    core radius for aug-charge                              
                                                                                
   Atomic configuration                                                         
   10 entries                                                                   
     n  l   j            E        occ.                                          
     1  0  0.50    -13316.2796   2.0000                                         
     2  0  0.50     -1732.8239   2.0000                                         
     2  1  1.50     -1528.2193   6.0000                                         
     3  0  0.50      -238.0460   2.0000                                         
     3  1  1.50      -173.4609   6.0000                                         
     3  2  2.50       -66.7132  10.0000                                         
     4  0  0.50       -20.1334   2.0000                                         
     4  1  0.50        -7.8591   5.0000                                         
     4  2  2.50        -8.1635   0.0000                                         
     4  3  2.50        -8.1635   0.0000                                         
   Description                                                                  
     l       E           TYP  RCUT    TYP  RCUT                                 
     0    -20.1333652     23  2.100                                             
     0    -21.4939478     23  2.100                                             
     1     -7.8591052     23  2.100                                             
     1     -3.1608434     23  2.100                                             
     2     -8.1634956     23  2.100                                             
     3     -1.3605826      7  2.100                                             
  local pseudopotential read in
  partial core-charges read in
  partial kinetic energy density read in
  atomic valenz-charges read in
  non local Contribution for L=           0  read in
    real space projection operators read in
  non local Contribution for L=           0  read in
    real space projection operators read in
  non local Contribution for L=           1  read in
    real space projection operators read in
  non local Contribution for L=           1  read in
    real space projection operators read in
  non local Contribution for L=           2  read in
    real space projection operators read in
    PAW grid and wavefunctions read in

   number of l-projection  operators is LMAX  =           5
   number of lm-projection operators is LMMAX =          13

 Optimization of the real space projectors (new method)

 maximal supplied QI-value         = 15.12
 optimisation between [QCUT,QGAM] = [  8.77, 17.69] = [ 21.53, 87.61] Ry 
 Optimized for a Real-space Cutoff    1.85 Angstroem

   l    n(q)    QCUT    max X(q) W(low)/X(q) W(high)/X(q)  e(spline) 
   0     10     8.768    25.322    0.81E-04    0.51E-04    0.48E-06
   0     10     8.768    99.187    0.78E-04    0.50E-04    0.47E-06
   1      9     8.768    11.761    0.21E-03    0.20E-03    0.37E-06
   1      9     8.768     8.275    0.24E-03    0.22E-03    0.41E-06
   2      9     8.768     3.829    0.23E-04    0.15E-03    0.18E-06
 Optimization of the real space projectors (new method)

 maximal supplied QI-value         = 15.12
 optimisation between [QCUT,QGAM] = [  8.77, 17.69] = [ 21.53, 87.61] Ry 
 Optimized for a Real-space Cutoff    1.59 Angstroem

   l    n(q)    QCUT    max X(q) W(low)/X(q) W(high)/X(q)  e(spline) 
   2      7     8.768     3.846    0.48E-04    0.11E-03    0.11E-06
   2      7     8.768     8.593    0.20E-03    0.22E-04    0.24E-06
   0      8     8.768    20.082    0.68E-04    0.88E-04    0.41E-07
   0      8     8.768     8.597    0.89E-04    0.13E-03    0.59E-07
   1      8     8.768    33.223    0.15E-03    0.53E-04    0.87E-07
   1      8     8.768    15.899    0.14E-03    0.44E-04    0.78E-07
 Optimization of the real space projectors (new method)

 maximal supplied QI-value         = 17.95
 optimisation between [QCUT,QGAM] = [  8.80, 17.59] = [ 21.67, 86.68] Ry 
 Optimized for a Real-space Cutoff    1.59 Angstroem

   l    n(q)    QCUT    max X(q) W(low)/X(q) W(high)/X(q)  e(spline) 
   0      8     8.797   175.082    0.82E-04    0.14E-03    0.89E-07
   0      8     8.797   174.004    0.79E-04    0.14E-03    0.86E-07
   1      8     8.797    54.315    0.16E-03    0.14E-04    0.30E-06
   1      8     8.797    42.441    0.16E-03    0.14E-04    0.30E-06
   2      7     8.797     3.596    0.92E-04    0.15E-03    0.85E-07
  PAW_PBE Cs_sv 08Apr2002               :
 energy of atom  1       EATOM= -555.6835
 kinetic energy error for atom=    0.0069 (will be added to EATOM!!)
  PAW_PBE Pb_d 06Sep2000                :
 energy of atom  2       EATOM=-1661.6185
 kinetic energy error for atom=    0.0498 (will be added to EATOM!!)
  PAW_PBE Br 06Sep2000                  :
 energy of atom  3       EATOM= -368.4488
 kinetic energy error for atom=    0.0072 (will be added to EATOM!!)


 POSCAR: Cs8 Pb8 Br23                            
  positions in direct lattice
  No initial velocities read in

 METAGGA = SCAN     LMAXTAU =  6    LMIXTAU =  F

 exchange correlation table for  LEXCH =        8
   RHO(1)=    0.500       N(1)  =     2000
   RHO(2)=  100.500       N(2)  =     4000

 VTST: version 3.2, (02/03/18)

 CHAIN: initializing optimizer
 
 OPT: Using VASP Conjugate-Gradient optimizer
 CHAIN: Read ICHAIN            0

 POSCAR: Cs8 Pb8 Br23                            
  positions in direct lattice
  No initial velocities read in



--------------------------------------------------------------------------------------------------------


 ion  position               nearest neighbor table
   1  0.272  0.246  0.205-
   2  0.774  0.239  0.719-
   3  0.712  0.761  0.264-
   4  0.204  0.754  0.777-
   5  0.278  0.239  0.729-
   6  0.796  0.246  0.224-
   7  0.737  0.759  0.796-
   8  0.222  0.757  0.287-
   9  0.001  0.000  0.001-  19 2.97  21 2.97  29 2.99  30 2.99  32 2.99  35 3.01
  10  0.500  0.998  0.500-  28 2.99  34 3.00  31 3.01  33 3.01  20 3.02  22 3.03
  11  0.499  1.000  1.000-  32 2.98  30 2.99  28 3.00  17 3.00  23 3.00  34 3.01
  12  0.999  0.999  0.499-  35 2.99  24 2.99  18 3.00  33 3.00  29 3.00  31 3.01
  13  0.498  0.502  0.008-  26 2.95  17 2.96  23 2.96  25 2.98  36 2.99
  14  0.006  0.501  0.500-  37 2.95  18 2.96  24 2.96  38 2.99  27 3.01
  15  0.000  0.500  1.000-  19 2.96  21 2.97  36 3.01  38 3.02  27 3.02  25 3.04
  16  0.492  0.503  0.497-  39 2.18  26 2.92  37 2.94  22 2.95  20 2.96
  17  0.474  0.748  0.959-  13 2.96  11 3.00
  18  0.965  0.748  0.463-  14 2.96  12 3.00
  19  0.971  0.250  0.971-  15 2.96   9 2.97
  20  0.463  0.253  0.476-  16 2.96  10 3.02
  21  0.028  0.750  0.030-  15 2.97   9 2.97
  22  0.550  0.746  0.530-  16 2.95  10 3.03
  23  0.531  0.252  0.032-  13 2.96  11 3.00
  24  0.022  0.251  0.533-  14 2.96  12 2.99
  25  0.250  0.467  0.946-  13 2.98  15 3.04
  26  0.450  0.539  0.251-  16 2.92  13 2.95
  27  0.943  0.530  0.746-  14 3.01  15 3.02
  28  0.547  0.032  0.752-  10 2.99  11 3.00
  29  0.051  0.035  0.252-   9 2.99  12 3.00
  30  0.753  0.975  0.047-   9 2.99  11 2.99
  31  0.253  0.960  0.548-  10 3.01  12 3.01
  32  0.248  0.031  0.952-  11 2.98   9 2.99
  33  0.747  0.036  0.450-  12 3.00  10 3.01
  34  0.451  0.964  0.248-  10 3.00  11 3.01
  35  0.954  0.970  0.747-  12 2.99   9 3.01
  36  0.752  0.532  0.051-  13 2.99  15 3.01
  37  0.252  0.537  0.556-  16 2.94  14 2.95
  38  0.054  0.466  0.254-  14 2.99  15 3.02
  39  0.650  0.464  0.597-  16 2.18


IMPORTANT INFORMATION: All symmetrisations will be switched off!
NOSYMM: (Re-)initialisation of all symmetry stuff for point group C_1.



 KPOINTS: 1x1x1                                   

Automatic generation of k-mesh.
Space group operators:
 irot       det(A)        alpha          n_x          n_y          n_z        tau_x        tau_y        tau_z
    1     1.000000     0.000001     1.000000     0.000000     0.000000     0.000000     0.000000     0.000000
 
 Subroutine IBZKPT returns following result:
 ===========================================
 
 Found      8 irreducible k-points:
 
 Following reciprocal coordinates:
            Coordinates               Weight
  0.000000  0.000000  0.000000      1.000000
  0.500000  0.000000  0.000000      1.000000
  0.000000  0.500000  0.000000      1.000000
  0.500000  0.500000  0.000000      1.000000
  0.000000  0.000000  0.500000      1.000000
  0.500000  0.000000  0.500000      1.000000
  0.000000  0.500000  0.500000      1.000000
  0.500000  0.500000  0.500000      1.000000
 
 Following cartesian coordinates:
            Coordinates               Weight
 -0.000000  0.000000  0.000000      1.000000
  0.029563  0.000000  0.031093      1.000000
 -0.000000  0.042626  0.000000      1.000000
  0.029563  0.042626  0.031093      1.000000
 -0.029563  0.000000  0.031093      1.000000
  0.000000  0.000000  0.062187      1.000000
 -0.029563  0.042626  0.031093      1.000000
  0.000000  0.042626  0.062187      1.000000
 


--------------------------------------------------------------------------------------------------------




 Dimension of arrays:
   k-points           NKPTS =      8   k-points in BZ     NKDIM =      8   number of bands    NBANDS=    208
   number of dos      NEDOS =    301   number of ions     NIONS =     39
   non local maximal  LDIM  =      6   non local SUM 2l+1 LMDIM =     18
   total plane-waves  NPLWV = 343000
   max r-space proj   IRMAX =   5734   max aug-charges    IRDMAX=  91523
   dimension x,y,z NGX =    70 NGY =   70 NGZ =   70
   dimension x,y,z NGXF=   140 NGYF=  140 NGZF=  140
   support grid    NGXF=   280 NGYF=  280 NGZF=  280
   ions per type =               8   8  23
   NGX,Y,Z   is equivalent  to a cutoff of   9.97,  9.92,  9.97 a.u.
   NGXF,Y,Z  is equivalent  to a cutoff of  19.95, 19.84, 19.95 a.u.

 SYSTEM =  CsPbBr3 cubic bulk                      
 POSCAR =  Cs8 Pb8 Br23                            

 Startparameter for this run:
   NWRITE =      2    write-flag & timer
   PREC   = accura    normal or accurate (medium, high low for compatibility)
   ISTART =      0    job   : 0-new  1-cont  2-samecut
   ICHARG =      2    charge: 1-file 2-atom 10-const
   ISPIN  =      1    spin polarized calculation?
   LNONCOLLINEAR =      F non collinear calculations
   LSORBIT =      F    spin-orbit coupling
   INIWAV =      1    electr: 0-lowe 1-rand  2-diag
   LASPH  =      T    aspherical Exc in radial PAW
   METAGGA=      F    non-selfconsistent MetaGGA calc.

 Electronic Relaxation 1
   ENCUT  =  300.0 eV  22.05 Ry    4.70 a.u.  16.48 16.57 16.48*2*pi/ulx,y,z
   ENINI  =  300.0     initial cutoff
   ENAUG  =  503.9 eV  augmentation charge cutoff
   NELM   =    200;   NELMIN=  2; NELMDL= -5     # of ELM steps 
   EDIFF  = 0.1E-05   stopping-criterion for ELM
   LREAL  =      T    real-space projection
   NLSPLINE    = F    spline interpolate recip. space projectors
   LCOMPAT=      F    compatible to vasp.4.4
   GGA_COMPAT  = T    GGA compatible to vasp.4.4-vasp.4.6
   LMAXPAW     = -100 max onsite density
   LMAXMIX     =    2 max onsite mixed and CHGCAR
   VOSKOWN=      0    Vosko Wilk Nusair interpolation
   ROPT   =   -0.00025  -0.00025  -0.00025
 Ionic relaxation
   EDIFFG = -.1E-01   stopping-criterion for IOM
   NSW    =      0    number of steps for IOM
   NBLOCK =      1;   KBLOCK =      1    inner block; outer block 
   IBRION =     -1    ionic relax: 0-MD 1-quasi-New 2-CG
   NFREE  =      1    steps in history (QN), initial steepest desc. (CG)
   ISIF   =      2    stress and relaxation
   IWAVPR =     10    prediction:  0-non 1-charg 2-wave 3-comb
   ISYM   =      0    0-nonsym 1-usesym 2-fastsym
   LCORR  =      T    Harris-Foulkes like correction to forces

   POTIM  = 0.5000    time-step for ionic-motion
   TEIN   =    0.0    initial temperature
   TEBEG  =    0.0;   TEEND  =   0.0 temperature during run
   SMASS  =  -3.00    Nose mass-parameter (am)
   estimated Nose-frequenzy (Omega)   =  0.10E-29 period in steps =****** mass=  -0.311E-26a.u.
   SCALEE = 1.0000    scale energy and forces
   NPACO  =    256;   APACO  = 16.0  distance and # of slots for P.C.
   PSTRESS=    0.0 pullay stress

  Mass of Ions in am
   POMASS = 132.90207.20 79.90
  Ionic Valenz
   ZVAL   =   9.00 14.00  7.00
  Atomic Wigner-Seitz radii
   RWIGS  =  -1.00 -1.00 -1.00
  virtual crystal weights 
   VCA    =   1.00  1.00  1.00
   NELECT =     344.0000    total number of electrons
   NUPDOWN=       0.0000    fix difference up-down

 DOS related values:
   EMIN   =  10.00;   EMAX   =-10.00  energy-range for DOS
   EFERMI =   0.00
   ISMEAR =     0;   SIGMA  =   0.01  broadening in eV -4-tet -1-fermi 0-gaus

 Electronic relaxation 2 (details)
   IALGO  =     38    algorithm
   LDIAG  =      T    sub-space diagonalisation (order eigenvalues)
   LSUBROT=      F    optimize rotation matrix (better conditioning)
   TURBO    =      0    0=normal 1=particle mesh
   IRESTART =      0    0=no restart 2=restart with 2 vectors
   NREBOOT  =      0    no. of reboots
   NMIN     =      0    reboot dimension
   EREF     =   0.00    reference energy to select bands
   IMIX   =      4    mixing-type and parameters
     AMIX     =   0.40;   BMIX     =  1.00
     AMIX_MAG =   1.60;   BMIX_MAG =  1.00
     AMIN     =   0.10
     WC   =   100.;   INIMIX=   1;  MIXPRE=   1;  MAXMIX= -45

 Intra band minimization:
   WEIMIN = 0.0000     energy-eigenvalue tresh-hold
   EBREAK =  0.12E-08  absolut break condition
   DEPER  =   0.30     relativ break condition  

   TIME   =   0.40     timestep for ELM

  volume/ion in A,a.u.               =      40.90       276.00
  Fermi-wavevector in a.u.,A,eV,Ry     =   0.981747  1.855232 13.113654  0.963826
  Thomas-Fermi vector in A             =   2.112777

 Write flags
   LWAVE        =      F    write WAVECAR
   LDOWNSAMPLE  =      F    k-point downsampling of WAVECAR
   LCHARG       =      F    write CHGCAR
   LVTOT        =      F    write LOCPOT, total local potential
   LVHAR        =      T    write LOCPOT, Hartree potential only
   LELF         =      F    write electronic localiz. function (ELF)
   LORBIT       =     10    0 simple, 1 ext, 2 COOP (PROOUT), +10 PAW based schemes


 Dipole corrections
   LMONO  =      F    monopole corrections only (constant potential shift)
   LDIPOL =      F    correct potential (dipole corrections)
   IDIPOL =      0    1-x, 2-y, 3-z, 4-all directions 
   EPSILON=  1.0000000 bulk dielectric constant

 Exchange correlation treatment:
   GGA     =    --    GGA type
   LEXCH   =     8    internal setting for exchange type
   VOSKOWN=      0    Vosko Wilk Nusair interpolation
   LHFCALC =     F    Hartree Fock is set to
   LHFONE  =     F    Hartree Fock one center treatment
   AEXX    =    0.0000 exact exchange contribution

 Linear response parameters
   LEPSILON=     F    determine dielectric tensor
   LRPA    =     F    only Hartree local field effects (RPA)
   LNABLA  =     F    use nabla operator in PAW spheres
   LVEL    =     F    velocity operator in full k-point grid
   LINTERFAST=   F  fast interpolation
   KINTER  =     0    interpolate to denser k-point grid
   CSHIFT  =0.1000    complex shift for real part using Kramers Kronig
   OMEGAMAX=  -1.0    maximum frequency
   DEG_THRESHOLD= 0.2000000E-02 threshold for treating states as degnerate
   RTIME   =   -0.100 relaxation time in fs
  (WPLASMAI=    0.000 imaginary part of plasma frequency in eV, 0.658/RTIME)
   DFIELD  = 0.0000000 0.0000000 0.0000000 field for delta impulse in time

 Orbital magnetization related:
   ORBITALMAG=     F  switch on orbital magnetization
   LCHIMAG   =     F  perturbation theory with respect to B field
   DQ        =  0.001000  dq finite difference perturbation B field
   LLRAUG    =     F  two centre corrections for induced B field



--------------------------------------------------------------------------------------------------------


 Static calculation
 charge density and potential will be updated during run
 non-spin polarized calculation
 Variant of blocked Davidson
 Davidson routine will perform the subspace rotation
 perform sub-space diagonalisation
    after iterative eigenvector-optimisation
 modified Broyden-mixing scheme, WC =      100.0
 initial mixing is a Kerker type mixing with AMIX =  0.4000 and BMIX =      1.0000
 Hartree-type preconditioning will be used
 using additional bands           36
 real space projection scheme for non local part
 use partial core corrections
 calculate Harris-corrections to forces   (improved forces if not selfconsistent)
 use gradient corrections 
 use of overlap-Matrix (Vanderbilt PP)
 Gauss-broadening in eV      SIGMA  =   0.01


--------------------------------------------------------------------------------------------------------


  energy-cutoff  :      300.00
  volume of cell :     1595.09
      direct lattice vectors                 reciprocal lattice vectors
     8.456489000  0.000000000  8.040301000     0.059126193 -0.000000000  0.062186727
     0.000000000 11.729847000  0.000000000     0.000000000  0.085252604 -0.000000000
    -8.456489000  0.000000000  8.040301000    -0.059126193  0.000000000  0.062186727

  length of vectors
    11.668703715 11.729847000 11.668703715     0.085808482  0.085252604  0.085808482



 k-points in units of 2pi/SCALE and weight: 1x1x1                                   
  -0.00000000  0.00000000  0.00000000       0.125
   0.02956310  0.00000000  0.03109336       0.125
  -0.00000000  0.04262630  0.00000000       0.125
   0.02956310  0.04262630  0.03109336       0.125
  -0.02956310  0.00000000  0.03109336       0.125
   0.00000000  0.00000000  0.06218673       0.125
  -0.02956310  0.04262630  0.03109336       0.125
   0.00000000  0.04262630  0.06218673       0.125

 k-points in reciprocal lattice and weights: 1x1x1                                   
   0.00000000  0.00000000  0.00000000       0.125
   0.50000000  0.00000000  0.00000000       0.125
   0.00000000  0.50000000  0.00000000       0.125
   0.50000000  0.50000000  0.00000000       0.125
   0.00000000  0.00000000  0.50000000       0.125
   0.50000000  0.00000000  0.50000000       0.125
   0.00000000  0.50000000  0.50000000       0.125
   0.50000000  0.50000000  0.50000000       0.125

 position of ions in fractional coordinates (direct lattice) 
   0.27225900  0.24589300  0.20548700
   0.77447100  0.23874000  0.71924000
   0.71173900  0.76146200  0.26371400
   0.20448900  0.75422500  0.77745500
   0.27846000  0.23894400  0.72879700
   0.79647300  0.24566500  0.22447700
   0.73663500  0.75893100  0.79644200
   0.22213300  0.75677100  0.28749200
   0.00106300  0.00027400  0.00110900
   0.50013600  0.99819900  0.49997200
   0.49948800  0.99978300  0.99966600
   0.99945300  0.99867000  0.49915100
   0.49829600  0.50159900  0.00783400
   0.00556900  0.50078700  0.50021600
   0.00020300  0.49971500  0.99959200
   0.49183600  0.50263300  0.49652300
   0.47426400  0.74814600  0.95858700
   0.96517800  0.74754100  0.46345000
   0.97145800  0.25039500  0.97092600
   0.46306300  0.25252200  0.47639000
   0.02841700  0.74968700  0.03035200
   0.54954500  0.74600100  0.53019400
   0.53090300  0.25203900  0.03228800
   0.02168200  0.25089000  0.53311300
   0.25001900  0.46710000  0.94575200
   0.44952200  0.53871800  0.25055100
   0.94328800  0.52987500  0.74574800
   0.54723900  0.03247500  0.75201900
   0.05077600  0.03478500  0.25224400
   0.75276000  0.97451000  0.04670100
   0.25250200  0.96012800  0.54829700
   0.24833100  0.03106900  0.95241900
   0.74742900  0.03623400  0.44960500
   0.45069700  0.96437300  0.24761900
   0.95431300  0.97026800  0.74712500
   0.75165100  0.53158000  0.05109500
   0.25215800  0.53687600  0.55624100
   0.05363800  0.46557700  0.25350100
   0.64988400  0.46441800  0.59720200

 position of ions in cartesian coordinates  (Angst):
   0.56465668  2.88428727  3.84122164
   0.46706034  2.80038367 12.00988605
   3.78871848  8.93183276  7.84293573
  -4.84528068  8.84694385  7.89512533
  -3.80826989  2.80277656  8.09864946
   4.83707788  2.88161286  8.20874531
  -0.50575724  8.90214451 12.32640054
  -0.55270766  8.87680804  4.09753840
  -0.00038900  0.00321398  0.01746353
   0.00138686 11.70872155  8.04116935
  -4.22974976 11.72730162 12.05364941
   4.23079836 11.71424630 12.04922724
   4.14758651  5.88367953  4.06943755
  -4.18297691  5.87415489  4.06666364
  -8.45132209  5.86158049  8.03865274
  -0.03963556  5.89580819  7.94670386
  -4.09567212  8.77563811 11.52055333
   4.24285731  8.76854156 11.48659914
   0.00449885  2.93709504 15.61735202
  -0.11269963  2.96204442  7.55348490
  -0.01636331  8.79371381  0.47252045
   0.16364152  8.75047759  8.68142656
   4.21653226  2.95637891  4.52822516
  -4.32491063  2.94290131  4.46071879
  -5.88345846  5.47901153  9.61435877
   1.68259607  6.31907972  5.62879764
   1.67049484  6.21535268 13.58035784
  -1.73171982  0.38092678 10.44642540
  -1.70371193  0.40802273  2.43637201
   5.97078017 11.43085320  6.42790708
  -2.50138716 11.26215454  6.43866500
  -5.95411243  0.36443462  9.65439143
   2.51854538  0.42501928  9.62451367
   1.71732687 11.31194774  5.61467083
   1.75208304 11.38109519 13.68007365
   5.92424411  6.23535207  6.45431947
  -2.57147454  6.29747334  6.49977129
  -1.69013926  5.46114698  2.46949001
   0.44550475  5.44755208 10.02694681



--------------------------------------------------------------------------------------------------------


 k-point  1 :   0.0000 0.0000 0.0000  plane waves:   18809
 k-point  2 :   0.5000 0.0000 0.0000  plane waves:   18808
 k-point  3 :   0.0000 0.5000 0.0000  plane waves:   18794
 k-point  4 :   0.5000 0.5000 0.0000  plane waves:   18804
 k-point  5 :   0.0000 0.0000 0.5000  plane waves:   18808
 k-point  6 :   0.5000 0.0000 0.5000  plane waves:   18790
 k-point  7 :   0.0000 0.5000 0.5000  plane waves:   18804
 k-point  8 :   0.5000 0.5000 0.5000  plane waves:   18800

 maximum and minimum number of plane-waves per node :      2389     2304

 maximum number of plane-waves:     18809
 maximum index in each direction: 
   IXMAX=   16   IYMAX=   16   IZMAX=   16
   IXMIN=  -16   IYMIN=  -17   IZMIN=  -16


 real space projection operators:
  total allocation   :      16731.02 KBytes
  max/ min on nodes  :       2185.37       1818.84


 parallel 3D FFT for wavefunctions:
    minimum data exchange during FFTs selected (reduces bandwidth)
 parallel 3D FFT for charge:
    minimum data exchange during FFTs selected (reduces bandwidth)


 total amount of memory used by VASP MPI-rank0    60642. kBytes
=======================================================================

   base      :      30000. kBytes
   nonlr-proj:       6477. kBytes
   fftplans  :       8423. kBytes
   grid      :       7465. kBytes
   one-center:         77. kBytes
   wavefun   :       8200. kBytes

     INWAV:  cpu time    0.0000: real time    0.0000
 Broyden mixing: mesh for mixing (old mesh)
   NGX = 33   NGY = 33   NGZ = 33
  (NGX  =140   NGY  =140   NGZ  =140)
  gives a total of  35937 points

 initial charge density was supplied:
 charge density of overlapping atoms calculated
 number of electron     345.0000000 magnetization 
 keeping initial charge density in first step


--------------------------------------------------------------------------------------------------------


 Maximum index for non-local projection operator          734
 Maximum index for augmentation-charges         3015 (set IRDMAX)


--------------------------------------------------------------------------------------------------------


 First call to EWALD:  gamma=   0.152
 Maximum number of real-space cells 3x 3x 3
 Maximum number of reciprocal cells 3x 3x 3

    FEWALD:  cpu time    0.0039: real time    0.0039


--------------------------------------- Iteration      1(   1)  ---------------------------------------


    POTLOK:  cpu time    0.2640: real time    0.2735
    SETDIJ:  cpu time    1.1985: real time    1.1985
     EDDAV:  cpu time   16.5595: real time   16.5661
       DOS:  cpu time    0.0008: real time    0.0008
    --------------------------------------------
      LOOP:  cpu time   18.0228: real time   18.0389

 eigenvalue-minimisations  :  3488
 total energy-change (2. order) : 0.1340375E+04  (-0.1105978E+05)
 number of electron     345.0000000 magnetization 
 augmentation part      345.0000000 magnetization 

 Free energy of the ion-electron system (eV)
  ---------------------------------------------------
  alpha Z        PSCENC =       872.70583573
  Ewald energy   TEWEN  =    -17858.90655824
  -Hartree energ DENC   =     -7488.34806065
  -exchange      EXHF   =         0.00000000
  -V(xc)+E(xc)   XCENC  =       908.96040593
  PAW double counting   =     21345.28103884   -22405.85761495
  entropy T*S    EENTRO =        -0.00177859
  eigenvalues    EBANDS =      -245.57670622
  atomic energy  EATOM  =     26212.11861568
  Solvation  Ediel_sol  =         0.00000000
  ---------------------------------------------------
  free energy    TOTEN  =      1340.37517753 eV

  energy without entropy =     1340.37695612  energy(sigma->0) =     1340.37606682


--------------------------------------------------------------------------------------------------------




--------------------------------------- Iteration      1(   2)  ---------------------------------------


     EDDAV:  cpu time   18.3813: real time   18.4002
       DOS:  cpu time    0.0004: real time    0.0004
    --------------------------------------------
      LOOP:  cpu time   18.3818: real time   18.4006

 eigenvalue-minimisations  :  4096
 total energy-change (2. order) :-0.2451408E+04  (-0.2368019E+04)
 number of electron     345.0000000 magnetization 
 augmentation part      345.0000000 magnetization 

 Free energy of the ion-electron system (eV)
  ---------------------------------------------------
  alpha Z        PSCENC =       872.70583573
  Ewald energy   TEWEN  =    -17858.90655824
  -Hartree energ DENC   =     -7488.34806065
  -exchange      EXHF   =         0.00000000
  -V(xc)+E(xc)   XCENC  =       908.96040593
  PAW double counting   =     21345.28103884   -22405.85761495
  entropy T*S    EENTRO =        -0.00000000
  eigenvalues    EBANDS =     -2696.98646908
  atomic energy  EATOM  =     26212.11861568
  Solvation  Ediel_sol  =         0.00000000
  ---------------------------------------------------
  free energy    TOTEN  =     -1111.03280674 eV

  energy without entropy =    -1111.03280674  energy(sigma->0) =    -1111.03280674


--------------------------------------------------------------------------------------------------------




--------------------------------------- Iteration      1(   3)  ---------------------------------------


     EDDAV:  cpu time   19.2106: real time   19.2406
       DOS:  cpu time    0.0004: real time    0.0004
    --------------------------------------------
      LOOP:  cpu time   19.2110: real time   19.2410

 eigenvalue-minimisations  :  4408
 total energy-change (2. order) :-0.3611630E+03  (-0.3591876E+03)
 number of electron     345.0000000 magnetization 
 augmentation part      345.0000000 magnetization 

 Free energy of the ion-electron system (eV)
  ---------------------------------------------------
  alpha Z        PSCENC =       872.70583573
  Ewald energy   TEWEN  =    -17858.90655824
  -Hartree energ DENC   =     -7488.34806065
  -exchange      EXHF   =         0.00000000
  -V(xc)+E(xc)   XCENC  =       908.96040593
  PAW double counting   =     21345.28103884   -22405.85761495
  entropy T*S    EENTRO =        -0.00000000
  eigenvalues    EBANDS =     -3058.14951868
  atomic energy  EATOM  =     26212.11861568
  Solvation  Ediel_sol  =         0.00000000
  ---------------------------------------------------
  free energy    TOTEN  =     -1472.19585634 eV

  energy without entropy =    -1472.19585634  energy(sigma->0) =    -1472.19585634


--------------------------------------------------------------------------------------------------------




--------------------------------------- Iteration      1(   4)  ---------------------------------------


     EDDAV:  cpu time   17.9519: real time   17.9814
       DOS:  cpu time    0.0004: real time    0.0004
    --------------------------------------------
      LOOP:  cpu time   17.9523: real time   17.9818

 eigenvalue-minimisations  :  3960
 total energy-change (2. order) :-0.1224855E+02  (-0.1221297E+02)
 number of electron     345.0000000 magnetization 
 augmentation part      345.0000000 magnetization 

 Free energy of the ion-electron system (eV)
  ---------------------------------------------------
  alpha Z        PSCENC =       872.70583573
  Ewald energy   TEWEN  =    -17858.90655824
  -Hartree energ DENC   =     -7488.34806065
  -exchange      EXHF   =         0.00000000
  -V(xc)+E(xc)   XCENC  =       908.96040593
  PAW double counting   =     21345.28103884   -22405.85761495
  entropy T*S    EENTRO =        -0.00000000
  eigenvalues    EBANDS =     -3070.39807267
  atomic energy  EATOM  =     26212.11861568
  Solvation  Ediel_sol  =         0.00000000
  ---------------------------------------------------
  free energy    TOTEN  =     -1484.44441033 eV

  energy without entropy =    -1484.44441033  energy(sigma->0) =    -1484.44441033


--------------------------------------------------------------------------------------------------------




--------------------------------------- Iteration      1(   5)  ---------------------------------------


     EDDAV:  cpu time   19.3198: real time   19.3504
       DOS:  cpu time    0.0007: real time    0.0007
    CHARGE:  cpu time    2.6974: real time    2.6975
    MIXING:  cpu time    0.0015: real time    0.0015
    --------------------------------------------
      LOOP:  cpu time   22.0195: real time   22.0501

 eigenvalue-minimisations  :  4440
 total energy-change (2. order) :-0.5312264E+00  (-0.5309589E+00)
 number of electron     343.9999998 magnetization 
 augmentation part       -5.1101315 magnetization 

 Broyden mixing:
  rms(total) = 0.12365E+01    rms(broyden)= 0.12359E+01
  rms(prec ) = 0.15679E+01
  weight for this iteration     100.00

 Free energy of the ion-electron system (eV)
  ---------------------------------------------------
  alpha Z        PSCENC =       872.70583573
  Ewald energy   TEWEN  =    -17858.90655824
  -Hartree energ DENC   =     -7488.34806065
  -exchange      EXHF   =         0.00000000
  -V(xc)+E(xc)   XCENC  =       908.96040593
  PAW double counting   =     21345.28103884   -22405.85761495
  entropy T*S    EENTRO =        -0.00000000
  eigenvalues    EBANDS =     -3070.92929910
  atomic energy  EATOM  =     26212.11861568
  Solvation  Ediel_sol  =         0.00000000
  ---------------------------------------------------
  free energy    TOTEN  =     -1484.97563676 eV

  energy without entropy =    -1484.97563676  energy(sigma->0) =    -1484.97563676


--------------------------------------------------------------------------------------------------------




--------------------------------------- Iteration      1(   6)  ---------------------------------------


    POTLOK:  cpu time    0.2563: real time    0.3132
    SETDIJ:  cpu time    1.1964: real time    1.1965
     EDDAV:  cpu time   19.0208: real time   19.0216
       DOS:  cpu time    0.0005: real time    0.0005
    CHARGE:  cpu time    2.6810: real time    2.6812
    MIXING:  cpu time    0.0015: real time    0.0015
    --------------------------------------------
      LOOP:  cpu time   23.1567: real time   23.2145

 eigenvalue-minimisations  :  4328
 total energy-change (2. order) : 0.7772658E+02  (-0.2325501E+01)
 number of electron     343.9999998 magnetization 
 augmentation part       -3.7261631 magnetization 

 Broyden mixing:
  rms(total) = 0.84774E+00    rms(broyden)= 0.84767E+00
  rms(prec ) = 0.10061E+01
  weight for this iteration     100.00

 eigenvalues of (default mixing * dielectric matrix)
  average eigenvalue GAMMA=   1.4821
  1.4821

 Free energy of the ion-electron system (eV)
  ---------------------------------------------------
  alpha Z        PSCENC =       872.70583573
  Ewald energy   TEWEN  =    -17858.90655824
  -Hartree energ DENC   =     -7471.19426328
  -exchange      EXHF   =         0.00000000
  -V(xc)+E(xc)   XCENC  =       937.00666592
  PAW double counting   =     21731.24668909   -22791.25233254
  entropy T*S    EENTRO =        -0.00000000
  eigenvalues    EBANDS =     -3038.97370800
  atomic energy  EATOM  =     26212.11861568
  Solvation  Ediel_sol  =         0.00000000
  ---------------------------------------------------
  free energy    TOTEN  =     -1407.24905564 eV

  energy without entropy =    -1407.24905564  energy(sigma->0) =    -1407.24905564


--------------------------------------------------------------------------------------------------------




--------------------------------------- Iteration      1(   7)  ---------------------------------------


    POTLOK:  cpu time    0.2783: real time    0.3170
    SETDIJ:  cpu time    1.1958: real time    1.1958
     EDDAV:  cpu time   18.5298: real time   18.5306
       DOS:  cpu time    0.0005: real time    0.0005
    CHARGE:  cpu time    2.6803: real time    2.6804
    MIXING:  cpu time    0.0017: real time    0.0017
    --------------------------------------------
      LOOP:  cpu time   22.6864: real time   22.7261

 eigenvalue-minimisations  :  4168
 total energy-change (2. order) : 0.5166780E+00  (-0.9404441E+00)
 number of electron     343.9999998 magnetization 
 augmentation part       -3.1339399 magnetization 

 Broyden mixing:
  rms(total) = 0.39378E+00    rms(broyden)= 0.39376E+00
  rms(prec ) = 0.43134E+00
  weight for this iteration     100.00

 eigenvalues of (default mixing * dielectric matrix)
  average eigenvalue GAMMA=   1.4058
  1.0790  1.7326

 Free energy of the ion-electron system (eV)
  ---------------------------------------------------
  alpha Z        PSCENC =       872.70583573
  Ewald energy   TEWEN  =    -17858.90655824
  -Hartree energ DENC   =     -7519.09896811
  -exchange      EXHF   =         0.00000000
  -V(xc)+E(xc)   XCENC  =       942.63882891
  PAW double counting   =     22508.15790404   -23567.21599762
  entropy T*S    EENTRO =        -0.00000000
  eigenvalues    EBANDS =     -2997.13203806
  atomic energy  EATOM  =     26212.11861568
  Solvation  Ediel_sol  =         0.00000000
  ---------------------------------------------------
  free energy    TOTEN  =     -1406.73237766 eV

  energy without entropy =    -1406.73237766  energy(sigma->0) =    -1406.73237766


--------------------------------------------------------------------------------------------------------




--------------------------------------- Iteration      1(   8)  ---------------------------------------


    POTLOK:  cpu time    0.2834: real time    0.3102
    SETDIJ:  cpu time    1.1987: real time    1.1987
     EDDAV:  cpu time   18.5734: real time   18.5745
       DOS:  cpu time    0.0004: real time    0.0004
    CHARGE:  cpu time    2.6872: real time    2.6873
    MIXING:  cpu time    0.0016: real time    0.0016
    --------------------------------------------
      LOOP:  cpu time   22.7445: real time   22.7726

 eigenvalue-minimisations  :  4176
 total energy-change (2. order) :-0.1600101E+00  (-0.5161050E-01)
 number of electron     343.9999998 magnetization 
 augmentation part       -3.2392661 magnetization 

 Broyden mixing:
  rms(total) = 0.22407E+00    rms(broyden)= 0.22406E+00
  rms(prec ) = 0.24981E+00
  weight for this iteration     100.00

 eigenvalues of (default mixing * dielectric matrix)
  average eigenvalue GAMMA=   1.6947
  1.1039  1.3680  2.6123

 Free energy of the ion-electron system (eV)
  ---------------------------------------------------
  alpha Z        PSCENC =       872.70583573
  Ewald energy   TEWEN  =    -17858.90655824
  -Hartree energ DENC   =     -7524.01292671
  -exchange      EXHF   =         0.00000000
  -V(xc)+E(xc)   XCENC  =       943.17809693
  PAW double counting   =     22776.77090253   -23836.50195342
  entropy T*S    EENTRO =        -0.00000000
  eigenvalues    EBANDS =     -2992.24440026
  atomic energy  EATOM  =     26212.11861568
  Solvation  Ediel_sol  =         0.00000000
  ---------------------------------------------------
  free energy    TOTEN  =     -1406.89238775 eV

  energy without entropy =    -1406.89238775  energy(sigma->0) =    -1406.89238775


--------------------------------------------------------------------------------------------------------




--------------------------------------- Iteration      1(   9)  ---------------------------------------


    POTLOK:  cpu time    0.2971: real time    0.3028
    SETDIJ:  cpu time    1.1975: real time    1.1975
     EDDAV:  cpu time   17.5835: real time   17.5841
       DOS:  cpu time    0.0004: real time    0.0004
    CHARGE:  cpu time    2.6764: real time    2.6766
    MIXING:  cpu time    0.0018: real time    0.0018
    --------------------------------------------
      LOOP:  cpu time   21.7567: real time   21.7633

 eigenvalue-minimisations  :  3832
 total energy-change (2. order) :-0.5148139E-01  (-0.1340639E-01)
 number of electron     343.9999998 magnetization 
 augmentation part       -3.2888783 magnetization 

 Broyden mixing:
  rms(total) = 0.43300E-01    rms(broyden)= 0.43297E-01
  rms(prec ) = 0.55855E-01
  weight for this iteration     100.00

 eigenvalues of (default mixing * dielectric matrix)
  average eigenvalue GAMMA=   1.4919
  2.4990  1.2956  1.2956  0.8772

 Free energy of the ion-electron system (eV)
  ---------------------------------------------------
  alpha Z        PSCENC =       872.70583573
  Ewald energy   TEWEN  =    -17858.90655824
  -Hartree energ DENC   =     -7529.13529022
  -exchange      EXHF   =         0.00000000
  -V(xc)+E(xc)   XCENC  =       944.71150447
  PAW double counting   =     23107.00465079   -24167.95695943
  entropy T*S    EENTRO =        -0.00000000
  eigenvalues    EBANDS =     -2987.48566792
  atomic energy  EATOM  =     26212.11861568
  Solvation  Ediel_sol  =         0.00000000
  ---------------------------------------------------
  free energy    TOTEN  =     -1406.94386914 eV

  energy without entropy =    -1406.94386914  energy(sigma->0) =    -1406.94386914


--------------------------------------------------------------------------------------------------------




--------------------------------------- Iteration      1(  10)  ---------------------------------------


    POTLOK:  cpu time    0.3002: real time    0.3167
    SETDIJ:  cpu time    1.1982: real time    1.1982
     EDDAV:  cpu time   19.9748: real time   19.9756
       DOS:  cpu time    0.0004: real time    0.0004
    CHARGE:  cpu time    2.6841: real time    2.6842
    MIXING:  cpu time    0.0020: real time    0.0020
    --------------------------------------------
      LOOP:  cpu time   24.1597: real time   24.1771

 eigenvalue-minimisations  :  4664
 total energy-change (2. order) :-0.2808246E-02  (-0.1818780E-02)
 number of electron     343.9999998 magnetization 
 augmentation part       -3.2769483 magnetization 

 Broyden mixing:
  rms(total) = 0.31115E-01    rms(broyden)= 0.31114E-01
  rms(prec ) = 0.41306E-01
  weight for this iteration     100.00

 eigenvalues of (default mixing * dielectric matrix)
  average eigenvalue GAMMA=   1.3463
  2.4275  1.3716  1.3716  0.7804  0.7804

 Free energy of the ion-electron system (eV)
  ---------------------------------------------------
  alpha Z        PSCENC =       872.70583573
  Ewald energy   TEWEN  =    -17858.90655824
  -Hartree energ DENC   =     -7527.55734520
  -exchange      EXHF   =         0.00000000
  -V(xc)+E(xc)   XCENC  =       944.62052581
  PAW double counting   =     23073.94037600   -24134.92165057
  entropy T*S    EENTRO =        -0.00000000
  eigenvalues    EBANDS =     -2988.94647659
  atomic energy  EATOM  =     26212.11861568
  Solvation  Ediel_sol  =         0.00000000
  ---------------------------------------------------
  free energy    TOTEN  =     -1406.94667739 eV

  energy without entropy =    -1406.94667739  energy(sigma->0) =    -1406.94667739


--------------------------------------------------------------------------------------------------------




--------------------------------------- Iteration      1(  11)  ---------------------------------------


    POTLOK:  cpu time    0.2902: real time    0.3165
    SETDIJ:  cpu time    1.1982: real time    1.1982
     EDDAV:  cpu time   18.3319: real time   18.3327
       DOS:  cpu time    0.0004: real time    0.0004
    CHARGE:  cpu time    2.6881: real time    2.6882
    MIXING:  cpu time    0.0016: real time    0.0016
    --------------------------------------------
      LOOP:  cpu time   22.5103: real time   22.5377

 eigenvalue-minimisations  :  4088
 total energy-change (2. order) :-0.2678185E-02  (-0.3304249E-03)
 number of electron     343.9999998 magnetization 
 augmentation part       -3.2749979 magnetization 

 Broyden mixing:
  rms(total) = 0.12642E-01    rms(broyden)= 0.12641E-01
  rms(prec ) = 0.21553E-01
  weight for this iteration     100.00

 eigenvalues of (default mixing * dielectric matrix)
  average eigenvalue GAMMA=   1.6366
  2.7914  2.7914  1.2479  1.2479  0.8706  0.8706

 Free energy of the ion-electron system (eV)
  ---------------------------------------------------
  alpha Z        PSCENC =       872.70583573
  Ewald energy   TEWEN  =    -17858.90655824
  -Hartree energ DENC   =     -7526.51668367
  -exchange      EXHF   =         0.00000000
  -V(xc)+E(xc)   XCENC  =       944.61261992
  PAW double counting   =     23053.40538884   -24114.52737971
  entropy T*S    EENTRO =        -0.00000000
  eigenvalues    EBANDS =     -2989.84119412
  atomic energy  EATOM  =     26212.11861568
  Solvation  Ediel_sol  =         0.00000000
  ---------------------------------------------------
  free energy    TOTEN  =     -1406.94935558 eV

  energy without entropy =    -1406.94935558  energy(sigma->0) =    -1406.94935558


--------------------------------------------------------------------------------------------------------




--------------------------------------- Iteration      1(  12)  ---------------------------------------


    POTLOK:  cpu time    0.2566: real time    0.2802
    SETDIJ:  cpu time    1.1983: real time    1.1983
     EDDAV:  cpu time   17.0840: real time   17.0847
       DOS:  cpu time    0.0005: real time    0.0005
    CHARGE:  cpu time    2.6914: real time    2.6915
    MIXING:  cpu time    0.0017: real time    0.0017
    --------------------------------------------
      LOOP:  cpu time   21.2325: real time   21.2569

 eigenvalue-minimisations  :  3664
 total energy-change (2. order) :-0.2194937E-02  (-0.4184915E-03)
 number of electron     343.9999998 magnetization 
 augmentation part       -3.2772471 magnetization 

 Broyden mixing:
  rms(total) = 0.10315E-01    rms(broyden)= 0.10314E-01
  rms(prec ) = 0.13007E-01
  weight for this iteration     100.00

 eigenvalues of (default mixing * dielectric matrix)
  average eigenvalue GAMMA=   1.6383
  3.1885  2.5007  1.3687  1.3687  0.9500  1.0457  1.0457

 Free energy of the ion-electron system (eV)
  ---------------------------------------------------
  alpha Z        PSCENC =       872.70583573
  Ewald energy   TEWEN  =    -17858.90655824
  -Hartree energ DENC   =     -7526.31168175
  -exchange      EXHF   =         0.00000000
  -V(xc)+E(xc)   XCENC  =       944.67930132
  PAW double counting   =     23044.44530419   -24105.75292771
  entropy T*S    EENTRO =        -0.00000000
  eigenvalues    EBANDS =     -2989.92943973
  atomic energy  EATOM  =     26212.11861568
  Solvation  Ediel_sol  =         0.00000000
  ---------------------------------------------------
  free energy    TOTEN  =     -1406.95155051 eV

  energy without entropy =    -1406.95155051  energy(sigma->0) =    -1406.95155051


--------------------------------------------------------------------------------------------------------




--------------------------------------- Iteration      1(  13)  ---------------------------------------


    POTLOK:  cpu time    0.2970: real time    0.3053
    SETDIJ:  cpu time    1.1965: real time    1.1965
     EDDAV:  cpu time   19.6629: real time   19.6636
       DOS:  cpu time    0.0004: real time    0.0004
    CHARGE:  cpu time    2.6948: real time    2.6949
    MIXING:  cpu time    0.0018: real time    0.0018
    --------------------------------------------
      LOOP:  cpu time   23.8533: real time   23.8625

 eigenvalue-minimisations  :  4552
 total energy-change (2. order) : 0.2632481E-03  (-0.1685845E-03)
 number of electron     343.9999998 magnetization 
 augmentation part       -3.2782224 magnetization 

 Broyden mixing:
  rms(total) = 0.54371E-02    rms(broyden)= 0.54364E-02
  rms(prec ) = 0.62400E-02
  weight for this iteration     100.00

 eigenvalues of (default mixing * dielectric matrix)
  average eigenvalue GAMMA=   1.5245
  3.3034  2.3182  1.7723  1.1226  1.1226  1.0158  1.0158  0.5252

 Free energy of the ion-electron system (eV)
  ---------------------------------------------------
  alpha Z        PSCENC =       872.70583573
  Ewald energy   TEWEN  =    -17858.90655824
  -Hartree energ DENC   =     -7527.30142556
  -exchange      EXHF   =         0.00000000
  -V(xc)+E(xc)   XCENC  =       944.73328864
  PAW double counting   =     23047.29051410   -24108.56218322
  entropy T*S    EENTRO =        -0.00000000
  eigenvalues    EBANDS =     -2989.02937440
  atomic energy  EATOM  =     26212.11861568
  Solvation  Ediel_sol  =         0.00000000
  ---------------------------------------------------
  free energy    TOTEN  =     -1406.95128726 eV

  energy without entropy =    -1406.95128726  energy(sigma->0) =    -1406.95128726


--------------------------------------------------------------------------------------------------------




--------------------------------------- Iteration      1(  14)  ---------------------------------------


    POTLOK:  cpu time    0.2749: real time    0.3175
    SETDIJ:  cpu time    1.1943: real time    1.1944
     EDDAV:  cpu time   17.8312: real time   17.8320
       DOS:  cpu time    0.0004: real time    0.0004
    CHARGE:  cpu time    2.6884: real time    2.6885
    MIXING:  cpu time    0.0018: real time    0.0018
    --------------------------------------------
      LOOP:  cpu time   21.9909: real time   22.0345

 eigenvalue-minimisations  :  3920
 total energy-change (2. order) : 0.9518719E-05  (-0.3974821E-04)
 number of electron     343.9999998 magnetization 
 augmentation part       -3.2781152 magnetization 

 Broyden mixing:
  rms(total) = 0.34126E-02    rms(broyden)= 0.34118E-02
  rms(prec ) = 0.42125E-02
  weight for this iteration     100.00

 eigenvalues of (default mixing * dielectric matrix)
  average eigenvalue GAMMA=   1.5310
  3.2016  2.1668  1.9929  1.1738  1.1738  0.8951  0.9459  1.1143  1.1143

 Free energy of the ion-electron system (eV)
  ---------------------------------------------------
  alpha Z        PSCENC =       872.70583573
  Ewald energy   TEWEN  =    -17858.90655824
  -Hartree energ DENC   =     -7527.50615222
  -exchange      EXHF   =         0.00000000
  -V(xc)+E(xc)   XCENC  =       944.73856185
  PAW double counting   =     23048.53197213   -24109.78908199
  entropy T*S    EENTRO =        -0.00000000
  eigenvalues    EBANDS =     -2988.84447069
  atomic energy  EATOM  =     26212.11861568
  Solvation  Ediel_sol  =         0.00000000
  ---------------------------------------------------
  free energy    TOTEN  =     -1406.95127775 eV

  energy without entropy =    -1406.95127775  energy(sigma->0) =    -1406.95127775


--------------------------------------------------------------------------------------------------------




--------------------------------------- Iteration      1(  15)  ---------------------------------------


    POTLOK:  cpu time    0.3087: real time    0.3143
    SETDIJ:  cpu time    1.1940: real time    1.1941
     EDDAV:  cpu time   17.1158: real time   17.1165
       DOS:  cpu time    0.0004: real time    0.0004
    CHARGE:  cpu time    2.6858: real time    2.6859
    MIXING:  cpu time    0.0018: real time    0.0018
    --------------------------------------------
      LOOP:  cpu time   21.3065: real time   21.3131

 eigenvalue-minimisations  :  3672
 total energy-change (2. order) :-0.1380818E-04  (-0.4071621E-05)
 number of electron     343.9999998 magnetization 
 augmentation part       -3.2780125 magnetization 

 Broyden mixing:
  rms(total) = 0.17788E-02    rms(broyden)= 0.17778E-02
  rms(prec ) = 0.23376E-02
  weight for this iteration     100.00

 eigenvalues of (default mixing * dielectric matrix)
  average eigenvalue GAMMA=   1.6383
  3.8261  2.4571  2.4571  1.4833  1.2510  1.1182  1.1182  0.8991  0.8864  0.8864

 Free energy of the ion-electron system (eV)
  ---------------------------------------------------
  alpha Z        PSCENC =       872.70583573
  Ewald energy   TEWEN  =    -17858.90655824
  -Hartree energ DENC   =     -7527.58585672
  -exchange      EXHF   =         0.00000000
  -V(xc)+E(xc)   XCENC  =       944.73689521
  PAW double counting   =     23048.43405828   -24109.68931798
  entropy T*S    EENTRO =        -0.00000000
  eigenvalues    EBANDS =     -2988.76496351
  atomic energy  EATOM  =     26212.11861568
  Solvation  Ediel_sol  =         0.00000000
  ---------------------------------------------------
  free energy    TOTEN  =     -1406.95129155 eV

  energy without entropy =    -1406.95129155  energy(sigma->0) =    -1406.95129155


--------------------------------------------------------------------------------------------------------




--------------------------------------- Iteration      1(  16)  ---------------------------------------


    POTLOK:  cpu time    0.2887: real time    0.3100
    SETDIJ:  cpu time    1.1978: real time    1.1979
     EDDAV:  cpu time   17.6309: real time   17.6316
       DOS:  cpu time    0.0004: real time    0.0004
    CHARGE:  cpu time    2.6914: real time    2.6916
    MIXING:  cpu time    0.0019: real time    0.0019
    --------------------------------------------
      LOOP:  cpu time   21.8112: real time   21.8333

 eigenvalue-minimisations  :  3848
 total energy-change (2. order) :-0.3267150E-04  (-0.4628590E-05)
 number of electron     343.9999998 magnetization 
 augmentation part       -3.2776886 magnetization 

 Broyden mixing:
  rms(total) = 0.97179E-03    rms(broyden)= 0.96980E-03
  rms(prec ) = 0.11114E-02
  weight for this iteration     100.00

 eigenvalues of (default mixing * dielectric matrix)
  average eigenvalue GAMMA=   1.6630
  4.3136  2.5913  2.5913  1.6110  1.0355  1.0355  1.2729  1.0453  1.0453  0.9585
  0.7931

 Free energy of the ion-electron system (eV)
  ---------------------------------------------------
  alpha Z        PSCENC =       872.70583573
  Ewald energy   TEWEN  =    -17858.90655824
  -Hartree energ DENC   =     -7527.65697084
  -exchange      EXHF   =         0.00000000
  -V(xc)+E(xc)   XCENC  =       944.72921879
  PAW double counting   =     23047.92058500   -24109.16694242
  entropy T*S    EENTRO =        -0.00000000
  eigenvalues    EBANDS =     -2988.69510792
  atomic energy  EATOM  =     26212.11861568
  Solvation  Ediel_sol  =         0.00000000
  ---------------------------------------------------
  free energy    TOTEN  =     -1406.95132423 eV

  energy without entropy =    -1406.95132423  energy(sigma->0) =    -1406.95132423


--------------------------------------------------------------------------------------------------------




--------------------------------------- Iteration      1(  17)  ---------------------------------------


    POTLOK:  cpu time    0.3153: real time    0.3166
    SETDIJ:  cpu time    1.1975: real time    1.1976
     EDDAV:  cpu time   18.8843: real time   18.8851
       DOS:  cpu time    0.0005: real time    0.0005
    CHARGE:  cpu time    2.6887: real time    2.6888
    MIXING:  cpu time    0.0019: real time    0.0019
    --------------------------------------------
      LOOP:  cpu time   23.0883: real time   23.0905

 eigenvalue-minimisations  :  4280
 total energy-change (2. order) : 0.2749912E-06  (-0.1034190E-05)
 number of electron     343.9999998 magnetization 
 augmentation part       -3.2775818 magnetization 

 Broyden mixing:
  rms(total) = 0.61326E-03    rms(broyden)= 0.61016E-03
  rms(prec ) = 0.67110E-03
  weight for this iteration     100.00

 eigenvalues of (default mixing * dielectric matrix)
  average eigenvalue GAMMA=   1.6238
  4.3888  2.6852  2.5397  1.8036  1.1765  1.1765  1.1760  1.1760  0.9771  0.9771
  0.7049  0.7049

 Free energy of the ion-electron system (eV)
  ---------------------------------------------------
  alpha Z        PSCENC =       872.70583573
  Ewald energy   TEWEN  =    -17858.90655824
  -Hartree energ DENC   =     -7527.65300741
  -exchange      EXHF   =         0.00000000
  -V(xc)+E(xc)   XCENC  =       944.72759268
  PAW double counting   =     23048.05364916   -24109.29746696
  entropy T*S    EENTRO =        -0.00000000
  eigenvalues    EBANDS =     -2988.69998459
  atomic energy  EATOM  =     26212.11861568
  Solvation  Ediel_sol  =         0.00000000
  ---------------------------------------------------
  free energy    TOTEN  =     -1406.95132395 eV

  energy without entropy =    -1406.95132395  energy(sigma->0) =    -1406.95132395


--------------------------------------------------------------------------------------------------------




--------------------------------------- Iteration      1(  18)  ---------------------------------------


    POTLOK:  cpu time    0.3124: real time    0.3152
    SETDIJ:  cpu time    1.1984: real time    1.1984
     EDDAV:  cpu time   15.4335: real time   15.4343
       DOS:  cpu time    0.0004: real time    0.0004
    --------------------------------------------
      LOOP:  cpu time   16.9446: real time   16.9483

 eigenvalue-minimisations  :  3072
 total energy-change (2. order) :-0.2053748E-06  (-0.2987254E-06)
 number of electron     343.9999998 magnetization 
 augmentation part       -3.2775818 magnetization 

 Free energy of the ion-electron system (eV)
  ---------------------------------------------------
  alpha Z        PSCENC =       872.70583573
  Ewald energy   TEWEN  =    -17858.90655824
  -Hartree energ DENC   =     -7527.64224867
  -exchange      EXHF   =         0.00000000
  -V(xc)+E(xc)   XCENC  =       944.72638389
  PAW double counting   =     23048.07430792   -24109.31770361
  entropy T*S    EENTRO =        -0.00000000
  eigenvalues    EBANDS =     -2988.70995686
  atomic energy  EATOM  =     26212.11861568
  Solvation  Ediel_sol  =         0.00000000
  ---------------------------------------------------
  free energy    TOTEN  =     -1406.95132416 eV

  energy without entropy =    -1406.95132416  energy(sigma->0) =    -1406.95132416


--------------------------------------------------------------------------------------------------------




 average (electrostatic) potential at core
  the test charge radii are     1.1312  1.1541  1.0178
  (the norm of the test charge is              1.0000)
       1 -55.1648       2 -55.2466       3 -55.2961       4 -55.1420       5 -55.2993
       6 -55.4266       7 -55.2207       8 -55.1609       9-101.5908      10-101.5191
      11-101.6142      12-101.6088      13-101.8928      14-101.9005      15-101.6908
      16-101.4635      17 -69.0678      18 -69.0535      19 -69.0301      20 -68.8061
      21 -69.0146      22 -68.8250      23 -69.0821      24 -69.0741      25 -69.0467
      26 -69.2929      27 -68.9847      28 -68.9134      29 -68.9651      30 -69.0019
      31 -68.8757      32 -68.9800      33 -68.9068      34 -68.8937      35 -68.9708
      36 -69.1057      37 -69.1552      38 -69.0414      39 -70.1451



 E-fermi :   0.5742     XC(G=0):  -7.9449     alpha+bet : -6.9586


 k-point     1 :       0.0000    0.0000    0.0000
  band No.  band energies     occupation 
      1     -20.9493      2.00000
      2     -20.8259      2.00000
      3     -20.8250      2.00000
      4     -20.8017      2.00000
      5     -20.7512      2.00000
      6     -20.6926      2.00000
      7     -20.6907      2.00000
      8     -20.6743      2.00000
      9     -17.9161      2.00000
     10     -16.6564      2.00000
     11     -16.6531      2.00000
     12     -16.6462      2.00000
     13     -16.6425      2.00000
     14     -16.5615      2.00000
     15     -16.5576      2.00000
     16     -16.5561      2.00000
     17     -16.5536      2.00000
     18     -16.5253      2.00000
     19     -16.5206      2.00000
     20     -16.4787      2.00000
     21     -16.4502      2.00000
     22     -16.4210      2.00000
     23     -16.4075      2.00000
     24     -16.4039      2.00000
     25     -16.3952      2.00000
     26     -16.3847      2.00000
     27     -16.3582      2.00000
     28     -16.3553      2.00000
     29     -16.3476      2.00000
     30     -16.3426      2.00000
     31     -16.3374      2.00000
     32     -16.3292      2.00000
     33     -16.2815      2.00000
     34     -16.2788      2.00000
     35     -16.2745      2.00000
     36     -16.2742      2.00000
     37     -16.2681      2.00000
     38     -16.2636      2.00000
     39     -16.2625      2.00000
     40     -16.2587      2.00000
     41     -16.2574      2.00000
     42     -16.2563      2.00000
     43     -16.2465      2.00000
     44     -16.2449      2.00000
     45     -16.2277      2.00000
     46     -16.1786      2.00000
     47     -16.1768      2.00000
     48     -16.1693      2.00000
     49     -14.7306      2.00000
     50     -14.3733      2.00000
     51     -14.2628      2.00000
     52     -14.2140      2.00000
     53     -14.1419      2.00000
     54     -14.1094      2.00000
     55     -14.1019      2.00000
     56     -14.0921      2.00000
     57     -14.0695      2.00000
     58     -14.0644      2.00000
     59     -14.0395      2.00000
     60     -14.0273      2.00000
     61     -14.0136      2.00000
     62     -14.0059      2.00000
     63     -13.9351      2.00000
     64     -13.9215      2.00000
     65     -13.9044      2.00000
     66     -13.8833      2.00000
     67     -13.8638      2.00000
     68     -13.7822      2.00000
     69     -13.7619      2.00000
     70     -13.6811      2.00000
     71     -13.6123      2.00000
     72      -8.2165      2.00000
     73      -7.9331      2.00000
     74      -7.7831      2.00000
     75      -7.6527      2.00000
     76      -7.4399      2.00000
     77      -7.3724      2.00000
     78      -7.3320      2.00000
     79      -7.3133      2.00000
     80      -7.2612      2.00000
     81      -7.2495      2.00000
     82      -7.2417      2.00000
     83      -7.2263      2.00000
     84      -7.2132      2.00000
     85      -7.2074      2.00000
     86      -7.2012      2.00000
     87      -7.1945      2.00000
     88      -7.1864      2.00000
     89      -7.1617      2.00000
     90      -7.1548      2.00000
     91      -7.1370      2.00000
     92      -7.1304      2.00000
     93      -7.1121      2.00000
     94      -7.1015      2.00000
     95      -7.0965      2.00000
     96      -7.0932      2.00000
     97      -7.0869      2.00000
     98      -7.0818      2.00000
     99      -7.0749      2.00000
    100      -7.0633      2.00000
    101      -7.0523      2.00000
    102      -7.0224      2.00000
    103      -6.5835      2.00000
    104      -3.5398      2.00000
    105      -3.4142      2.00000
    106      -3.3649      2.00000
    107      -3.3115      2.00000
    108      -3.2851      2.00000
    109      -3.2434      2.00000
    110      -3.2107      2.00000
    111      -3.1911      2.00000
    112      -3.1609      2.00000
    113      -3.1170      2.00000
    114      -3.0419      2.00000
    115      -3.0150      2.00000
    116      -2.5193      2.00000
    117      -2.3311      2.00000
    118      -2.1231      2.00000
    119      -2.1056      2.00000
    120      -2.0692      2.00000
    121      -1.9996      2.00000
    122      -1.9464      2.00000
    123      -1.9260      2.00000
    124      -1.8697      2.00000
    125      -1.8142      2.00000
    126      -1.8073      2.00000
    127      -1.7358      2.00000
    128      -1.7156      2.00000
    129      -1.6620      2.00000
    130      -1.6485      2.00000
    131      -1.6213      2.00000
    132      -1.5957      2.00000
    133      -1.5378      2.00000
    134      -1.5169      2.00000
    135      -1.5002      2.00000
    136      -1.4948      2.00000
    137      -1.4920      2.00000
    138      -1.4671      2.00000
    139      -1.4493      2.00000
    140      -1.4382      2.00000
    141      -1.4165      2.00000
    142      -1.3900      2.00000
    143      -1.3875      2.00000
    144      -1.3756      2.00000
    145      -1.3711      2.00000
    146      -1.3485      2.00000
    147      -1.3366      2.00000
    148      -1.3228      2.00000
    149      -1.3070      2.00000
    150      -1.2947      2.00000
    151      -1.2785      2.00000
    152      -1.2625      2.00000
    153      -1.2580      2.00000
    154      -1.2525      2.00000
    155      -1.2433      2.00000
    156      -1.2213      2.00000
    157      -1.1893      2.00000
    158      -1.1415      2.00000
    159      -1.1265      2.00000
    160      -1.0707      2.00000
    161      -1.0387      2.00000
    162      -1.0074      2.00000
    163      -0.9924      2.00000
    164      -0.9206      2.00000
    165      -0.8380      2.00000
    166      -0.8142      2.00000
    167      -0.6613      2.00000
    168      -0.5420      2.00000
    169      -0.2128      2.00000
    170      -0.1917      2.00000
    171       0.1515      2.00000
    172       0.5118      2.00000
    173       2.6866      0.00000
    174       2.7571      0.00000
    175       2.8226      0.00000
    176       2.9782      0.00000
    177       3.0741      0.00000
    178       3.1300      0.00000
    179       3.1658      0.00000
    180       3.2812      0.00000
    181       3.3507      0.00000
    182       3.5240      0.00000
    183       3.5672      0.00000
    184       3.5870      0.00000
    185       4.1820      0.00000
    186       4.7831      0.00000
    187       5.5482      0.00000
    188       5.5853      0.00000
    189       5.7113      0.00000
    190       5.8322      0.00000
    191       5.8569      0.00000
    192       5.9100      0.00000
    193       5.9331      0.00000
    194       5.9639      0.00000
    195       6.0696      0.00000
    196       6.1297      0.00000
    197       6.1705      0.00000
    198       6.1805      0.00000
    199       6.2123      0.00000
    200       6.2443      0.00000
    201       6.3004      0.00000
    202       6.3625      0.00000
    203       6.3658      0.00000
    204       6.4932      0.00000
    205       6.5326      0.00000
    206       6.5604      0.00000
    207       6.5876      0.00000
    208       6.6302      0.00000

 k-point     2 :       0.5000    0.0000    0.0000
  band No.  band energies     occupation 
      1     -20.9493      2.00000
      2     -20.8259      2.00000
      3     -20.8250      2.00000
      4     -20.8017      2.00000
      5     -20.7512      2.00000
      6     -20.6926      2.00000
      7     -20.6907      2.00000
      8     -20.6743      2.00000
      9     -17.9160      2.00000
     10     -16.6564      2.00000
     11     -16.6523      2.00000
     12     -16.6435      2.00000
     13     -16.6420      2.00000
     14     -16.5615      2.00000
     15     -16.5576      2.00000
     16     -16.5561      2.00000
     17     -16.5537      2.00000
     18     -16.5253      2.00000
     19     -16.5205      2.00000
     20     -16.4800      2.00000
     21     -16.4526      2.00000
     22     -16.4095      2.00000
     23     -16.4074      2.00000
     24     -16.3979      2.00000
     25     -16.3915      2.00000
     26     -16.3802      2.00000
     27     -16.3742      2.00000
     28     -16.3556      2.00000
     29     -16.3478      2.00000
     30     -16.3444      2.00000
     31     -16.3374      2.00000
     32     -16.3299      2.00000
     33     -16.2864      2.00000
     34     -16.2812      2.00000
     35     -16.2746      2.00000
     36     -16.2743      2.00000
     37     -16.2681      2.00000
     38     -16.2640      2.00000
     39     -16.2635      2.00000
     40     -16.2589      2.00000
     41     -16.2574      2.00000
     42     -16.2564      2.00000
     43     -16.2465      2.00000
     44     -16.2449      2.00000
     45     -16.2277      2.00000
     46     -16.1786      2.00000
     47     -16.1768      2.00000
     48     -16.1693      2.00000
     49     -14.7298      2.00000
     50     -14.3430      2.00000
     51     -14.3191      2.00000
     52     -14.1894      2.00000
     53     -14.1604      2.00000
     54     -14.1437      2.00000
     55     -14.1078      2.00000
     56     -14.1010      2.00000
     57     -14.0758      2.00000
     58     -14.0533      2.00000
     59     -14.0323      2.00000
     60     -14.0269      2.00000
     61     -14.0073      2.00000
     62     -13.9617      2.00000
     63     -13.9330      2.00000
     64     -13.9108      2.00000
     65     -13.8742      2.00000
     66     -13.8641      2.00000
     67     -13.8533      2.00000
     68     -13.7922      2.00000
     69     -13.7549      2.00000
     70     -13.7359      2.00000
     71     -13.6183      2.00000
     72      -8.0913      2.00000
     73      -7.9927      2.00000
     74      -7.7739      2.00000
     75      -7.5279      2.00000
     76      -7.4489      2.00000
     77      -7.4360      2.00000
     78      -7.3750      2.00000
     79      -7.3291      2.00000
     80      -7.3028      2.00000
     81      -7.2629      2.00000
     82      -7.2500      2.00000
     83      -7.2311      2.00000
     84      -7.2232      2.00000
     85      -7.2092      2.00000
     86      -7.2052      2.00000
     87      -7.1956      2.00000
     88      -7.1877      2.00000
     89      -7.1711      2.00000
     90      -7.1581      2.00000
     91      -7.1403      2.00000
     92      -7.1250      2.00000
     93      -7.1094      2.00000
     94      -7.1032      2.00000
     95      -7.0967      2.00000
     96      -7.0938      2.00000
     97      -7.0885      2.00000
     98      -7.0825      2.00000
     99      -7.0704      2.00000
    100      -7.0600      2.00000
    101      -7.0582      2.00000
    102      -6.9165      2.00000
    103      -6.8434      2.00000
    104      -3.5329      2.00000
    105      -3.3905      2.00000
    106      -3.3392      2.00000
    107      -3.2994      2.00000
    108      -3.2654      2.00000
    109      -3.2421      2.00000
    110      -3.2094      2.00000
    111      -3.0981      2.00000
    112      -3.0701      2.00000
    113      -2.5817      2.00000
    114      -2.5054      2.00000
    115      -2.4582      2.00000
    116      -2.4174      2.00000
    117      -2.4086      2.00000
[...]


--------------------------------------------------------------------------------------------------------


 soft charge-density along one line, spin component           1
         0         1         2         3         4         5         6         7         8         9
 total charge-density along one line

 pseudopotential strength for first ion, spin component:           1
 17.920  -4.691   0.002  -0.001   0.000  -0.002   0.001  -0.000
 -4.691   1.237  -0.000   0.000  -0.000   0.000  -0.000   0.000
  0.002  -0.000   2.242  -0.000   0.000  -2.678   0.000  -0.000
 -0.001   0.000  -0.000   2.243  -0.001   0.000  -2.678   0.001
  0.000  -0.000   0.000  -0.001   2.243  -0.000   0.001  -2.678
 -0.002   0.000  -2.678   0.000  -0.000   3.163   0.000   0.000
  0.001  -0.000   0.000  -2.678   0.001   0.000   3.164  -0.001
 -0.000   0.000  -0.000   0.001  -2.678   0.000  -0.001   3.164
  0.000  -0.000   0.001   0.000   0.001  -0.001  -0.000  -0.001
 -0.000   0.000   0.001   0.001   0.000  -0.001  -0.001  -0.000
  0.000  -0.000  -0.001  -0.002   0.000   0.001   0.002  -0.001
 -0.001   0.000   0.000   0.001   0.000  -0.000  -0.001  -0.000
  0.000  -0.000  -0.001  -0.000  -0.001   0.001   0.000   0.001
 total augmentation occupancy for first ion, spin component:           1
  1.911  -0.139   0.000  -0.000   0.000   0.001  -0.000   0.000   0.000  -0.000   0.000  -0.001   0.000
 -0.139   0.114   0.004  -0.003   0.001  -0.002  -0.001   0.001  -0.000   0.001  -0.002   0.004   0.000
  0.000   0.004   2.016   0.000   0.000   0.003   0.000   0.000   0.002   0.001  -0.001   0.000  -0.002
 -0.000  -0.003   0.000   2.018  -0.002   0.000   0.005  -0.001   0.000   0.001  -0.004   0.001  -0.000
  0.000   0.001   0.000  -0.002   2.018   0.000  -0.001   0.004   0.001   0.000   0.000   0.001  -0.002
  0.001  -0.002   0.003   0.000   0.000   0.008   0.000  -0.000  -0.001  -0.002   0.000  -0.000   0.000
 -0.000  -0.001   0.000   0.005  -0.001   0.000   0.007   0.001  -0.000  -0.000   0.002  -0.001   0.000
  0.000   0.001   0.000  -0.001   0.004  -0.000   0.001   0.008  -0.000  -0.000  -0.001  -0.001   0.002
  0.000  -0.000   0.002   0.000   0.001  -0.001  -0.000  -0.000   0.006   0.002  -0.000   0.000   0.000
 -0.000   0.001   0.001   0.001   0.000  -0.002  -0.000  -0.000   0.002   0.005   0.000  -0.000   0.000
  0.000  -0.002  -0.001  -0.004   0.000   0.000   0.002  -0.001  -0.000   0.000   0.005  -0.002  -0.001
 -0.001   0.004   0.000   0.001   0.001  -0.000  -0.001  -0.001   0.000  -0.000  -0.002   0.004   0.001
  0.000   0.000  -0.002  -0.000  -0.002   0.000   0.000   0.002   0.000   0.000  -0.001   0.001   0.004


------------------------ aborting loop because EDIFF is reached ----------------------------------------





 total charge     

# of ion       s       p       d       tot
------------------------------------------
    1        1.785   4.716   0.017   6.519
    2        1.788   4.718   0.023   6.530
    3        1.786   4.716   0.018   6.520
    4        1.786   4.717   0.019   6.521
    5        1.785   4.716   0.017   6.519
    6        1.785   4.716   0.017   6.518
    7        1.786   4.716   0.019   6.521
    8        1.786   4.717   0.018   6.520
    9        1.554   0.422   9.835  11.811
   10        1.554   0.411   9.832  11.797
   11        1.554   0.416   9.834  11.804
   12        1.554   0.415   9.833  11.802
   13        1.532   0.442   9.829  11.803
   14        1.531   0.436   9.829  11.796
   15        1.554   0.412   9.833  11.799
   16        1.519   0.736   9.890  12.146
   17        1.614   3.281   0.006   4.902
   18        1.615   3.281   0.006   4.902
   19        1.615   3.286   0.007   4.908
   20        1.614   3.285   0.007   4.906
   21        1.615   3.285   0.007   4.906
   22        1.615   3.285   0.007   4.906
   23        1.614   3.281   0.006   4.901
   24        1.615   3.283   0.006   4.904
   25        1.614   3.276   0.006   4.896
   26        1.621   3.256   0.009   4.886
   27        1.614   3.277   0.006   4.897
   28        1.614   3.282   0.006   4.902
   29        1.614   3.283   0.006   4.903
   30        1.614   3.285   0.006   4.906
   31        1.614   3.280   0.006   4.900
   32        1.614   3.285   0.006   4.905
   33        1.614   3.281   0.006   4.901
   34        1.614   3.281   0.006   4.901
   35        1.614   3.285   0.006   4.905
   36        1.614   3.279   0.006   4.899
   37        1.620   3.261   0.009   4.890
   38        1.614   3.278   0.006   4.898
   39        1.634   3.398   0.044   5.077
--------------------------------------------------
tot         63.799 116.977  79.050 259.826

    CHARGE:  cpu time    0.3959: real time    0.3959
    FORLOC:  cpu time    0.0111: real time    0.0111
    FORNL :  cpu time    1.9092: real time    1.9093
    STRESS:  cpu time   49.5922: real time   49.5939
    FORCOR:  cpu time    0.2412: real time    0.2412
    FORHAR:  cpu time    0.0277: real time    0.0277
    MIXING:  cpu time    0.0019: real time    0.0019
    OFIELD:  cpu time    0.0000: real time    0.0000

  FORCE on cell =-STRESS in cart. coord.  units (eV):
  Direction    XX          YY          ZZ          XY          YZ          ZX
  --------------------------------------------------------------------------------------
  Alpha Z   872.70584   872.70584   872.70584
  Ewald   -6324.95288 -5598.55267 -5935.48011    -4.27276  -111.70320   160.40098
  Hartree  2293.25578  2753.97210  2480.42397     2.31487   -52.20637    95.58126
  E(xc)   -1450.54912 -1450.19970 -1450.33670     0.03998    -0.10546     0.09416
  Local   -2365.43161 -3553.64312 -2933.21888     0.84204   160.80087  -253.56675
  n-local  1749.88613  1754.18550  1764.51079    -0.73353    -3.42251     3.77195
  augment   817.49442   818.65933   815.42010     0.12631     0.38370    -0.26598
  Kinetic  4402.94903  4401.93355  4401.27638     1.16134     0.94666    -0.79837
  Fock        0.00000     0.00000     0.00000     0.00000     0.00000     0.00000
  -------------------------------------------------------------------------------------
  Total      -4.64242    -0.93917    15.30137    -0.52174    -5.30630     5.21724
  in kB      -4.66305    -0.94335    15.36938    -0.52405    -5.32988     5.24042
  external pressure =        3.25 kB  Pullay stress =        0.00 kB


 VOLUME and BASIS-vectors are now :
 -----------------------------------------------------------------------------
  energy-cutoff  :      300.00
  volume of cell :     1595.09
      direct lattice vectors                 reciprocal lattice vectors
     8.456489000  0.000000000  8.040301000     0.059126193 -0.000000000  0.062186727
     0.000000000 11.729847000  0.000000000     0.000000000  0.085252604 -0.000000000
    -8.456489000  0.000000000  8.040301000    -0.059126193  0.000000000  0.062186727

  length of vectors
    11.668703715 11.729847000 11.668703715     0.085808482  0.085252604  0.085808482


 FORCES acting on ions
    electron-ion (+dipol)            ewald-force                    non-local-force                 convergence-correction
 -----------------------------------------------------------------------------------------------
   0.230E+02 -.169E+02 -.257E+02   -.230E+02 0.168E+02 0.258E+02   -.917E-02 0.136E+00 -.229E-01   0.504E-03 0.102E-02 0.115E-02
   0.376E+02 -.300E+02 0.903E+01   -.373E+02 0.294E+02 -.867E+01   -.303E+00 0.138E+00 -.420E-01   -.305E-03 0.130E-02 -.153E-02
   -.142E+02 0.465E+02 -.232E+02   0.141E+02 -.461E+02 0.231E+02   0.545E-01 -.426E+00 0.145E-01   -.137E-02 -.131E-02 -.207E-03
   -.425E+02 0.235E+02 -.168E+02   0.425E+02 -.234E+02 0.168E+02   0.692E-01 -.103E+00 -.585E-01   0.871E-03 -.102E-02 0.137E-03
   0.445E+00 -.383E+02 -.115E+02   -.509E+00 0.380E+02 0.112E+02   0.689E-01 0.317E+00 0.220E+00   0.136E-02 0.952E-03 0.453E-03
   0.637E+02 -.490E+02 0.217E+01   -.632E+02 0.484E+02 -.240E+01   -.499E+00 0.544E+00 0.229E+00   -.117E-02 0.145E-02 -.217E-03
   -.131E+02 0.371E+02 0.320E+02   0.131E+02 -.368E+02 -.320E+02   -.540E-01 -.286E+00 0.190E-01   -.357E-03 -.115E-02 -.130E-02
   -.285E+02 0.184E+02 0.170E+01   0.284E+02 -.183E+02 -.174E+01   0.110E+00 -.192E+00 0.974E-01   0.880E-04 -.888E-03 0.118E-02
   0.282E+01 0.166E+01 0.682E-01   -.266E+01 -.181E+01 -.276E+00   -.152E+00 0.140E+00 0.197E+00   -.211E-03 0.221E-03 -.262E-03
   -.279E+00 -.687E+01 -.265E+01   0.287E+00 0.691E+01 0.250E+01   -.224E-01 -.182E-01 0.114E+00   0.156E-03 0.501E-03 0.144E-03
   -.215E+01 -.672E+01 -.364E+00   0.208E+01 0.668E+01 0.629E+00   0.535E-01 0.330E-01 -.261E+00   0.256E-03 0.248E-03 0.230E-03
   0.234E+00 -.264E+01 0.515E+01   0.242E-01 0.257E+01 -.506E+01   -.249E+00 0.690E-01 -.525E-01   -.248E-03 0.317E-03 -.203E-03
   -.887E+02 0.202E+02 0.440E+02   0.926E+02 -.208E+02 -.464E+02   -.435E+01 0.705E+00 0.265E+01   0.247E-02 -.587E-03 -.804E-03
   0.473E+02 0.167E+02 0.840E+02   -.500E+02 -.173E+02 -.877E+02   0.291E+01 0.697E+00 0.424E+01   -.189E-02 -.637E-03 -.328E-02
   0.968E+01 0.363E+00 0.535E+01   -.954E+01 -.242E+00 -.515E+01   -.921E-01 -.109E+00 -.191E+00   -.753E-03 -.237E-03 -.269E-03
   0.202E+02 -.661E+01 0.543E+02   -.258E+02 0.109E+02 -.745E+02   0.342E+01 -.232E+01 0.111E+02   0.112E-02 -.506E-03 0.199E-02
   -.105E+02 0.230E+02 0.423E+02   0.105E+02 -.230E+02 -.426E+02   0.221E-01 -.483E-01 0.303E+00   0.596E-03 -.940E-03 0.102E-03
   0.220E+02 0.211E+02 0.480E+02   -.221E+02 -.211E+02 -.483E+02   0.108E+00 -.482E-01 0.241E+00   -.551E-03 -.912E-03 -.387E-03
   -.788E+01 -.138E+02 0.355E+02   0.803E+01 0.138E+02 -.357E+02   -.150E+00 0.236E-01 0.227E+00   -.256E-03 0.983E-03 -.108E-03
   -.957E+01 -.314E+01 0.246E+02   0.962E+01 0.308E+01 -.247E+02   -.846E-01 -.301E+00 -.600E-01   0.533E-03 0.934E-03 0.683E-03
   0.154E+02 0.130E+02 -.321E+02   -.156E+02 -.130E+02 0.323E+02   0.122E+00 -.597E-02 -.240E+00   -.144E-03 -.959E-03 -.213E-03
   0.351E+01 0.531E+01 -.468E+02   -.347E+01 -.530E+01 0.472E+02   -.231E-01 0.375E+00 -.358E+00   0.514E-04 -.115E-02 0.174E-03
   -.247E+02 -.218E+02 -.267E+02   0.248E+02 0.218E+02 0.270E+02   -.106E+00 0.527E-01 -.241E+00   0.154E-03 0.977E-03 0.110E-04
   -.335E+01 -.181E+02 -.146E+02   0.338E+01 0.180E+02 0.148E+02   -.408E-01 0.463E-01 -.204E+00   -.875E-04 0.767E-03 -.460E-03
   -.458E+02 0.157E+02 0.242E+02   0.460E+02 -.159E+02 -.245E+02   -.181E+00 0.186E+00 0.299E+00   0.724E-03 0.809E-04 0.328E-03
   0.560E+01 -.135E+02 0.133E+02   -.599E+01 0.136E+02 -.134E+02   0.134E+01 -.161E+00 -.532E+00   0.156E-03 -.555E-03 0.134E-02
   0.219E+02 -.107E+02 0.404E+02   -.221E+02 0.108E+02 -.407E+02   0.238E+00 -.138E+00 0.372E+00   -.319E-03 -.278E-03 -.785E-03
   -.187E+02 -.270E+02 -.179E+02   0.189E+02 0.271E+02 0.181E+02   -.216E+00 -.138E+00 -.166E+00   0.187E-03 0.293E-03 -.513E-03
   -.132E+02 -.236E+02 -.302E+02   0.134E+02 0.237E+02 0.304E+02   -.194E+00 -.184E+00 -.285E+00   -.319E-03 0.298E-03 0.215E-03
   0.253E+02 0.111E+02 -.179E+02   -.255E+02 -.113E+02 0.181E+02   0.170E+00 0.104E+00 -.171E+00   -.527E-03 -.194E-04 -.522E-03
   0.148E+02 0.213E+02 -.287E+02   -.150E+02 -.215E+02 0.289E+02   0.154E+00 0.211E+00 -.231E+00   0.664E-03 -.239E-04 0.464E-03
   -.259E+02 -.181E+02 0.188E+02   0.261E+02 0.183E+02 -.191E+02   -.178E+00 -.163E+00 0.235E+00   0.551E-03 0.313E-03 0.494E-03
   -.153E+02 -.324E+02 0.290E+02   0.155E+02 0.326E+02 -.293E+02   -.122E+00 -.166E+00 0.234E+00   -.712E-03 0.411E-03 -.419E-03
   0.190E+02 0.159E+02 0.189E+02   -.192E+02 -.161E+02 -.192E+02   0.231E+00 0.162E+00 0.197E+00   0.634E-04 0.568E-04 0.810E-03
   0.162E+02 0.173E+02 0.275E+02   -.164E+02 -.174E+02 -.277E+02   0.176E+00 0.120E+00 0.180E+00   0.828E-04 -.894E-04 -.519E-03
   0.305E+02 -.478E+01 -.137E+02   -.307E+02 0.498E+01 0.138E+02   0.130E+00 -.194E+00 -.179E+00   -.675E-03 -.494E-03 -.270E-03
   0.260E+02 -.142E+02 -.483E+02   -.257E+02 0.144E+02 0.484E+02   -.125E+01 -.161E+00 -.786E+00   0.868E-03 -.311E-03 0.951E-03
   -.123E+01 0.168E+02 -.191E+02   0.147E+01 -.170E+02 0.193E+02   -.247E+00 0.193E+00 -.238E+00   -.505E-03 0.123E-03 -.165E-03
   -.413E+02 0.345E+02 -.204E+03   0.429E+02 -.358E+02 0.211E+03   0.820E+00 -.493E+00 0.324E+01   -.495E-04 0.171E-03 -.980E-03
 -----------------------------------------------------------------------------------------------
   -.171E+01 0.141E+01 -.200E+02   0.711E-13 -.121E-12 0.853E-13   0.167E+01 -.140E+01 0.201E+02   0.100E-02 -.643E-03 -.256E-02


 POSITION                                       TOTAL-FORCE (eV/Angst)
 -----------------------------------------------------------------------------------
      0.56466      2.88429      3.84122        -0.019605      0.004544      0.051252
      0.46706      2.80038     12.00989        -0.013514     -0.452548      0.313471
      3.78872      8.93183      7.84294        -0.028858      0.070740     -0.026716
     -4.84528      8.84694      7.89513         0.019429      0.005194     -0.024804
     -3.80827      2.80278      8.09865         0.010863     -0.035980     -0.067425
      4.83708      2.88161      8.20875         0.006518     -0.038619     -0.006843
     -0.50576      8.90214     12.32640         0.034610      0.023376     -0.020516
     -0.55271      8.87681      4.09754         0.004963     -0.018485      0.037985
     -0.00039      0.00321      0.01746         0.011645     -0.004848      0.004024
      0.00139     11.70872      8.04117        -0.010729      0.004341     -0.030413
     -4.22975     11.72730     12.05365        -0.018520     -0.011720     -0.003378
      4.23080     11.71425     12.04923         0.011982     -0.007823      0.018481
      4.14759      5.88368      4.06944        -0.413643      0.117732      0.202422
     -4.18298      5.87415      4.06666         0.186302      0.102581      0.472205
     -8.45132      5.86158      8.03865         0.055841      0.010803      0.006400
     -0.03964      5.89581      7.94670        -2.184348      1.963891     -9.256475
     -4.09567      8.77564     11.52055         0.020898     -0.015256     -0.009868
      4.24286      8.76854     11.48660        -0.006315     -0.027508     -0.029544
      0.00450      2.93710     15.61735        -0.010861      0.010456     -0.002628
     -0.11270      2.96204      7.55348        -0.044588     -0.349794     -0.183773
     -0.01636      8.79371      0.47252        -0.008167     -0.008528     -0.004599
      0.16364      8.75048      8.68143         0.015429      0.384983      0.002511
      4.21653      2.95638      4.52823         0.023818      0.019385      0.002372
     -4.32491      2.94290      4.46072        -0.019015      0.023419     -0.020482
     -5.88346      5.47901      9.61436         0.011613     -0.000984      0.009034
      1.68260      6.31908      5.62880         0.998158     -0.078168     -0.633700
      1.67049      6.21535     13.58036         0.000883     -0.002002      0.085849
     -1.73172      0.38093     10.44643        -0.037860      0.020817      0.027642
     -1.70371      0.40802      2.43637        -0.005353      0.011195     -0.014753
      5.97078     11.43085      6.42791        -0.004633     -0.001319      0.008378
     -2.50139     11.26215      6.43867        -0.032058      0.004605     -0.024183
     -5.95411      0.36443      9.65439        -0.002193     -0.005698      0.000579
      2.51855      0.42502      9.62451         0.041855      0.023972      0.013876
      1.71733     11.31195      5.61467         0.031759     -0.004942     -0.033149
      1.75208     11.38110     13.68007        -0.005217     -0.012592      0.010539
      5.92424      6.23535      6.45432        -0.014107     -0.012876      0.016463
     -2.57147      6.29747      6.49977        -0.992019     -0.029223     -0.707286
     -1.69014      5.46115      2.46949        -0.018932      0.001514     -0.023307
      0.44550      5.44755     10.02695         2.403969     -1.684637      9.840357
 -----------------------------------------------------------------------------------
    total drift:                               -0.038624      0.011651      0.053623


--------------------------------------------------------------------------------------------------------



  FREE ENERGIE OF THE ION-ELECTRON SYSTEM (eV)
  ---------------------------------------------------
  free  energy   TOTEN  =     -1406.95132416 eV

  energy  without entropy=    -1406.95132416  energy(sigma->0) =    -1406.95132416



--------------------------------------------------------------------------------------------------------


    POTLOK:  cpu time    1.4318: real time    1.4319


--------------------------------------------------------------------------------------------------------


 stress matrix after NEB project (eV)
     -4.64242     -0.52170      5.21724
     -0.52174     -0.93917     -5.30651
      5.21711     -5.30630     15.30137
  FORCES: max atom, RMS    10.268870    2.285995
  FORCE total and by dimension   14.276031    9.840357
  Stress total and by dimension   19.179783   15.301374
     LOOP+:  cpu time  437.7223: real time  438.1842
    4ORBIT:  cpu time    0.0000: real time    0.0000



 total charge     

# of ion       s       p       d       tot
------------------------------------------
    1        1.785   4.716   0.017   6.519
    2        1.788   4.718   0.023   6.530
    3        1.786   4.716   0.018   6.520
    4        1.786   4.717   0.019   6.521
    5        1.785   4.716   0.017   6.519
    6        1.785   4.716   0.017   6.518
    7        1.786   4.716   0.019   6.521
    8        1.786   4.717   0.018   6.520
    9        1.554   0.422   9.835  11.811
   10        1.554   0.411   9.832  11.797
   11        1.554   0.416   9.834  11.804
   12        1.554   0.415   9.833  11.802
   13        1.532   0.442   9.829  11.803
   14        1.531   0.436   9.829  11.796
   15        1.554   0.412   9.833  11.799
   16        1.519   0.736   9.890  12.146
   17        1.614   3.281   0.006   4.902
   18        1.615   3.281   0.006   4.902
   19        1.615   3.286   0.007   4.908
   20        1.614   3.285   0.007   4.906
   21        1.615   3.285   0.007   4.906
   22        1.615   3.285   0.007   4.906
   23        1.614   3.281   0.006   4.901
   24        1.615   3.283   0.006   4.904
   25        1.614   3.276   0.006   4.896
   26        1.621   3.256   0.009   4.886
   27        1.614   3.277   0.006   4.897
   28        1.614   3.282   0.006   4.902
   29        1.614   3.283   0.006   4.903
   30        1.614   3.285   0.006   4.906
   31        1.614   3.280   0.006   4.900
   32        1.614   3.285   0.006   4.905
   33        1.614   3.281   0.006   4.901
   34        1.614   3.281   0.006   4.901
   35        1.614   3.285   0.006   4.905
   36        1.614   3.279   0.006   4.899
   37        1.620   3.261   0.009   4.890
   38        1.614   3.278   0.006   4.898
   39        1.634   3.398   0.044   5.077
--------------------------------------------------
tot         63.799 116.977  79.050 259.826


 total amount of memory used by VASP MPI-rank0    60642. kBytes
=======================================================================

   base      :      30000. kBytes
   nonlr-proj:       6477. kBytes
   fftplans  :       8423. kBytes
   grid      :       7465. kBytes
   one-center:         77. kBytes
   wavefun   :       8200. kBytes

  
  
 General timing and accounting informations for this job:
 ========================================================
  
                  Total CPU time used (sec):      450.053
                            User time (sec):      448.753
                          System time (sec):        1.300
                         Elapsed time (sec):      450.689
  
                   Maximum memory used (kb):       77684.
                   Average memory used (kb):           0.
  
                          Minor page faults:        20760
                          Major page faults:            1
                 Voluntary context switches:         1584
