CsPbBr3 cubic bulk                      
           1
     8.456489    0.000000    8.040301
     0.000000   11.729847    0.000000
    -8.456489    0.000000    8.040301
   Cs   Pb   Br
   8   8  23
Direct configuration=     1
   0.27225900  0.24589300  0.20548700
   0.77447100  0.23874000  0.71924000
   0.71173900  0.76146200  0.26371400
   0.20448900  0.75422500  0.77745500
   0.27846000  0.23894400  0.72879700
   0.79647300  0.24566500  0.22447700
   0.73663500  0.75893100  0.79644200
   0.22213300  0.75677100  0.28749200
   0.00106300  0.00027400  0.00110900
   0.50013600  0.99819900  0.49997200
   0.49948800  0.99978300  0.99966600
   0.99945300  0.99867000  0.49915100
   0.49829600  0.50159900  0.00783400
   0.00556900  0.50078700  0.50021600
   0.00020300  0.49971500  0.99959200
   0.49183600  0.50263300  0.49652300
   0.47426400  0.74814600  0.95858700
   0.96517800  0.74754100  0.46345000
   0.97145800  0.25039500  0.97092600
   0.46306300  0.25252200  0.47639000
   0.02841700  0.74968700  0.03035200
   0.54954500  0.74600100  0.53019400
   0.53090300  0.25203900  0.03228800
   0.02168200  0.25089000  0.53311300
   0.25001900  0.46710000  0.94575200
   0.44952200  0.53871800  0.25055100
   0.94328800  0.52987500  0.74574800
   0.54723900  0.03247500  0.75201900
   0.05077600  0.03478500  0.25224400
   0.75276000  0.97451000  0.04670100
   0.25250200  0.96012800  0.54829700
   0.24833100  0.03106900  0.95241900
   0.74742900  0.03623400  0.44960500
   0.45069700  0.96437300  0.24761900
   0.95431300  0.97026800  0.74712500
   0.75165100  0.53158000  0.05109500
   0.25215800  0.53687600  0.55624100
   0.05363800  0.46557700  0.25350100
   0.64988400  0.46441800  0.59720200
