<?xml version="1.0" encoding="ISO-8859-1"?>
<modeling>
 <generator>
  <i name="program" type="string">vasp </i>
  <i name="version" type="string">5.4.4.18Apr17-6-g9f103f2a35  </i>
  <i name="subversion" type="string">(build Jun 22 2020 09:27:21) complex            parallel </i>
  <i name="platform" type="string">tx2_gcc-7.3_libsci-18.07_cray-fftw-3.3.8 </i>
  <i name="date" type="string">2021 10 11 </i>
  <i name="time" type="string">22:56:58 </i>
 </generator>
 <incar>
  <i type="string" name="SYSTEM"> CsPbBr3 cubic bulk</i>
  <i type="string" name="PREC">accurate</i>
  <i type="string" name="ALGO"> NORMAL   ! Electronic minimisation algo</i>
  <i type="logical" name="ADDGRID"> T  </i>
  <i type="int" name="ISPIN">     1</i>
  <i type="int" name="NELM">   200</i>
  <i type="int" name="IBRION">     2</i>
  <i name="EDIFF">      0.00000100</i>
  <i name="EDIFFG">     -0.01000000</i>
  <i type="int" name="NSW">     0</i>
  <i type="int" name="ISIF">     2</i>
  <i type="int" name="ISYM">     0</i>
  <i name="ENCUT">    300.00000000</i>
  <i name="POTIM">      0.50000000</i>
  <i name="NUPDOWN">      0.00000000</i>
  <i name="NELECT">    344.00000000</i>
  <i type="string" name="LREAL"> AUTO</i>
  <i type="int" name="ISMEAR">     0</i>
  <i name="SIGMA">      0.01000000</i>
  <i type="logical" name="LWAVE"> F  </i>
  <i type="logical" name="LCHARG"> F  </i>
  <i type="logical" name="LVHAR"> T  </i>
  <i type="int" name="LORBIT">    10</i>
  <i type="logical" name="LASPH"> T  </i>
  <v type="int" name="KPOINT_BSE">    -1     0     0     0</v>
  <i type="int" name="NELM">   200</i>
  <i type="string" name="METAGGA"> SCAN       ! PBE exchange-correlation</i>
  <i type="logical" name="LASPH"> T  </i>
 </incar>
 <structure name="primitive_cell" >
  <crystal>
   <varray name="basis" >
    <v>       8.45648900       0.00000000       8.04030100 </v>
    <v>       0.00000000      11.72984700       0.00000000 </v>
    <v>      -8.45648900       0.00000000       8.04030100 </v>
   </varray>
   <i name="volume">   1595.08833419 </i>
   <varray name="rec_basis" >
    <v>       0.05912619      -0.00000000       0.06218673 </v>
    <v>       0.00000000       0.08525260      -0.00000000 </v>
    <v>      -0.05912619       0.00000000       0.06218673 </v>
   </varray>
  </crystal>
  <varray name="positions" >
   <v>       0.25293100       0.23806800       0.19547400 </v>
   <v>       0.03928700       0.02391800       0.25443700 </v>
   <v>       0.05162700       0.46986300       0.25608600 </v>
   <v>      -0.47914600       0.25432600       0.03896400 </v>
   <v>       0.45426100       0.24471100       0.45626600 </v>
   <v>       0.24473200       0.02971300      -0.05831400 </v>
   <v>       0.44020300      -0.03104800       0.24118400 </v>
   <v>       0.24829600       0.46967600      -0.04577100 </v>
   <v>      -0.03091400       0.24977700      -0.02399500 </v>
   <v>      -0.00118500       0.00050000      -0.00170100 </v>
   <v>       0.49574100       0.00111800      -0.00432600 </v>
   <v>      -0.00018600       0.49858400       0.00058000 </v>
   <v>       0.03646300       0.24813100      -0.45800600 </v>
   <v>      -0.49866000      -0.49633500      -0.00075400 </v>
   <v>       0.49946900       0.00370100       0.49027400 </v>
   <v>       0.25549300      -0.04091900      -0.45140800 </v>
   <v>      -0.49559600       0.48937000      -0.49338600 </v>
   <v>       0.25904800      -0.46483000      -0.44732500 </v>
   <v>      -0.21025900       0.24686600       0.22771700 </v>
   <v>       0.29384300       0.24965400      -0.26866900 </v>
   <v>       0.00401100       0.00024800      -0.49568900 </v>
   <v>       0.00416600       0.49570400      -0.49593700 </v>
   <v>       0.21599800      -0.24695200       0.28870900 </v>
   <v>      -0.49856800      -0.34066200       0.36449800 </v>
   <v>       0.01958500      -0.25031100       0.03142900 </v>
   <v>      -0.25093100      -0.02343000       0.04208800 </v>
   <v>      -0.25275700       0.03098600       0.44960200 </v>
   <v>      -0.45217900       0.03428900      -0.25655200 </v>
   <v>      -0.44629100       0.47178600      -0.23862900 </v>
   <v>       0.46772400      -0.24904400      -0.04492900 </v>
   <v>      -0.25011900       0.45787000       0.45526600 </v>
   <v>      -0.24991300      -0.47052800       0.05534600 </v>
   <v>      -0.05433000      -0.03121500      -0.25030800 </v>
   <v>      -0.05418300      -0.47054800      -0.24876900 </v>
   <v>      -0.02296600      -0.25210800       0.48458600 </v>
   <v>       0.19588600      -0.25074300      -0.22675700 </v>
   <v>      -0.22218600       0.24541600      -0.28388000 </v>
   <v>      -0.24276400      -0.23813500       0.26035700 </v>
   <v>      -0.26384700      -0.24758500      -0.19594900 </v>
  </varray>
 </structure>
 <varray name="primitive_index" >
  <v type="int" >        1 </v>
  <v type="int" >       28 </v>
  <v type="int" >       38 </v>
  <v type="int" >       22 </v>
  <v type="int" >       20 </v>
  <v type="int" >       31 </v>
  <v type="int" >       33 </v>
  <v type="int" >       24 </v>
  <v type="int" >       19 </v>
  <v type="int" >        9 </v>
  <v type="int" >       11 </v>
  <v type="int" >       15 </v>
  <v type="int" >       23 </v>
  <v type="int" >       13 </v>
  <v type="int" >       10 </v>
  <v type="int" >       30 </v>
  <v type="int" >       16 </v>
  <v type="int" >       36 </v>
  <v type="int" >        6 </v>
  <v type="int" >        5 </v>
  <v type="int" >       12 </v>
  <v type="int" >       14 </v>
  <v type="int" >        8 </v>
  <v type="int" >       39 </v>
  <v type="int" >       21 </v>
  <v type="int" >       29 </v>
  <v type="int" >       32 </v>
  <v type="int" >       27 </v>
  <v type="int" >       37 </v>
  <v type="int" >       17 </v>
  <v type="int" >       25 </v>
  <v type="int" >       35 </v>
  <v type="int" >       34 </v>
  <v type="int" >       26 </v>
  <v type="int" >       18 </v>
  <v type="int" >        4 </v>
  <v type="int" >        2 </v>
  <v type="int" >        3 </v>
  <v type="int" >        7 </v>
 </varray>
 <kpoints>
  <generation param="Gamma">
   <v type="int" name="divisions">       2        2        2 </v>
   <v name="usershift">      0.00000000       0.00000000       0.00000000 </v>
   <v name="genvec1">      0.50000000       0.00000000       0.00000000 </v>
   <v name="genvec2">      0.00000000       0.50000000       0.00000000 </v>
   <v name="genvec3">      0.00000000       0.00000000       0.50000000 </v>
   <v name="shift">      0.00000000       0.00000000       0.00000000 </v>
  </generation>
  <varray name="kpointlist" >
   <v>       0.00000000       0.00000000       0.00000000 </v>
   <v>       0.50000000       0.00000000       0.00000000 </v>
   <v>       0.00000000       0.50000000       0.00000000 </v>
   <v>       0.50000000       0.50000000       0.00000000 </v>
   <v>       0.00000000       0.00000000       0.50000000 </v>
   <v>       0.50000000       0.00000000       0.50000000 </v>
   <v>       0.00000000       0.50000000       0.50000000 </v>
   <v>       0.50000000       0.50000000       0.50000000 </v>
  </varray>
  <varray name="weights" >
   <v>       0.12500000 </v>
   <v>       0.12500000 </v>
   <v>       0.12500000 </v>
   <v>       0.12500000 </v>
   <v>       0.12500000 </v>
   <v>       0.12500000 </v>
   <v>       0.12500000 </v>
   <v>       0.12500000 </v>
  </varray>
 </kpoints>
 <parameters>
  <separator name="general" >
   <i type="string" name="SYSTEM">CsPbBr3 cubic bulk</i>
   <i type="logical" name="LCOMPAT"> F  </i>
  </separator>
  <separator name="electronic" >
   <i type="string" name="PREC">accura</i>
   <i name="ENMAX">    300.00000000</i>
   <i name="ENAUG">    503.85200000</i>
   <i name="EDIFF">      0.00000100</i>
   <i type="int" name="IALGO">    38</i>
   <i type="int" name="IWAVPR">    10</i>
   <i type="int" name="NBANDS">   208</i>
   <i name="NELECT">    344.00000000</i>
   <i type="int" name="TURBO">     0</i>
   <i type="int" name="IRESTART">     0</i>
   <i type="int" name="NREBOOT">     0</i>
   <i type="int" name="NMIN">     0</i>
   <i name="EREF">      0.00000000</i>
   <separator name="electronic smearing" >
    <i type="int" name="ISMEAR">     0</i>
    <i name="SIGMA">      0.01000000</i>
    <i name="KSPACING">      0.50000000</i>
    <i type="logical" name="KGAMMA"> T  </i>
   </separator>
   <separator name="electronic projectors" >
    <i type="logical" name="LREAL"> T  </i>
    <v name="ROPT">     -0.00025000     -0.00025000     -0.00025000</v>
    <i type="int" name="LMAXPAW">  -100</i>
    <i type="int" name="LMAXMIX">     2</i>
    <i type="logical" name="NLSPLINE"> F  </i>
   </separator>
   <separator name="electronic startup" >
    <i type="int" name="ISTART">     0</i>
    <i type="int" name="ICHARG">     2</i>
    <i type="int" name="INIWAV">     1</i>
   </separator>
   <separator name="electronic spin" >
    <i type="int" name="ISPIN">     1</i>
    <i type="logical" name="LNONCOLLINEAR"> F  </i>
    <v name="MAGMOM">      0.00000000      0.00000000      0.00000000      0.00000000      0.00000000      0.00000000      0.00000000      0.00000000      0.00000000      0.00000000      0.00000000      0.00000000      0.00000000      0.00000000      0.00000000      0.00000000      0.00000000      0.00000000      0.00000000      0.00000000
      0.00000000      0.00000000      0.00000000      0.00000000      0.00000000      0.00000000      0.00000000      0.00000000      0.00000000      0.00000000      0.00000000      0.00000000      0.00000000      0.00000000      0.00000000      0.00000000      0.00000000      0.00000000      0.00000000</v>
    <i name="NUPDOWN">      0.00000000</i>
    <i type="logical" name="LSORBIT"> F  </i>
    <v name="SAXIS">      0.00000000      0.00000000      1.00000000</v>
    <i type="logical" name="LSPIRAL"> F  </i>
    <v name="QSPIRAL">      0.00000000      0.00000000      0.00000000</v>
    <i type="logical" name="LZEROZ"> F  </i>
   </separator>
   <separator name="electronic exchange-correlation" >
    <i type="logical" name="LASPH"> T  </i>
    <i type="logical" name="LMETAGGA"> F  </i>
   </separator>
   <separator name="electronic convergence" >
    <i type="int" name="NELM">   200</i>
    <i type="int" name="NELMDL">    -5</i>
    <i type="int" name="NELMIN">     2</i>
    <i name="ENINI">    300.00000000</i>
    <separator name="electronic convergence detail" >
     <i type="logical" name="LDIAG"> T  </i>
     <i type="logical" name="LSUBROT"> F  </i>
     <i name="WEIMIN">      0.00000000</i>
     <i name="EBREAK">      0.00000000</i>
     <i name="DEPER">      0.30000000</i>
     <i type="int" name="NRMM">     4</i>
     <i name="TIME">      0.40000000</i>
    </separator>
   </separator>
   <separator name="electronic mixer" >
    <i name="AMIX">      0.40000000</i>
    <i name="BMIX">      1.00000000</i>
    <i name="AMIN">      0.10000000</i>
    <i name="AMIX_MAG">      1.60000000</i>
    <i name="BMIX_MAG">      1.00000000</i>
    <separator name="electronic mixer details" >
     <i type="int" name="IMIX">     4</i>
     <i type="logical" name="MIXFIRST"> F  </i>
     <i type="int" name="MAXMIX">   -45</i>
     <i name="WC">    100.00000000</i>
     <i type="int" name="INIMIX">     1</i>
     <i type="int" name="MIXPRE">     1</i>
     <i type="int" name="MREMOVE">     5</i>
    </separator>
   </separator>
   <separator name="electronic dipolcorrection" >
    <i type="logical" name="LDIPOL"> F  </i>
    <i type="logical" name="LMONO"> F  </i>
    <i type="int" name="IDIPOL">     0</i>
    <i name="EPSILON">      1.00000000</i>
    <v name="DIPOL">   -100.00000000   -100.00000000   -100.00000000</v>
    <i name="EFIELD">      0.00000000</i>
   </separator>
  </separator>
  <separator name="grids" >
   <i type="int" name="NGX">    70</i>
   <i type="int" name="NGY">    70</i>
   <i type="int" name="NGZ">    70</i>
   <i type="int" name="NGXF">   140</i>
   <i type="int" name="NGYF">   140</i>
   <i type="int" name="NGZF">   140</i>
   <i type="logical" name="ADDGRID"> T  </i>
  </separator>
  <separator name="ionic" >
   <i type="int" name="NSW">     0</i>
   <i type="int" name="IBRION">    -1</i>
   <i type="int" name="MDALGO">     0</i>
   <i type="int" name="ISIF">     2</i>
   <i name="PSTRESS">      0.00000000</i>
   <i name="EDIFFG">     -0.01000000</i>
   <i type="int" name="NFREE">     1</i>
   <i name="POTIM">      0.50000000</i>
   <i name="SMASS">     -3.00000000</i>
   <i name="SCALEE">      1.00000000</i>
  </separator>
  <separator name="ionic md" >
   <i name="TEBEG">      0.00010000</i>
   <i name="TEEND">      0.00010000</i>
   <i type="int" name="NBLOCK">     1</i>
   <i type="int" name="KBLOCK">     1</i>
   <i type="int" name="NPACO">   256</i>
   <i name="APACO">     16.00000000</i>
  </separator>
  <separator name="symmetry" >
   <i type="int" name="ISYM">     0</i>
   <i name="SYMPREC">      0.00001000</i>
  </separator>
  <separator name="dos" >
   <i type="int" name="LORBIT">    10</i>
   <v name="RWIGS">     -1.00000000     -1.00000000     -1.00000000</v>
   <i type="int" name="NEDOS">   301</i>
   <i name="EMIN">     10.00000000</i>
   <i name="EMAX">    -10.00000000</i>
   <i name="EFERMI">      0.00000000</i>
  </separator>
  <separator name="writing" >
   <i type="int" name="NWRITE">     2</i>
   <i type="logical" name="LWAVE"> F  </i>
   <i type="logical" name="LDOWNSAMPLE"> F  </i>
   <i type="logical" name="LCHARG"> F  </i>
   <i type="logical" name="LPARD"> F  </i>
   <i type="logical" name="LVTOT"> F  </i>
   <i type="logical" name="LVHAR"> T  </i>
   <i type="logical" name="LELF"> F  </i>
   <i type="logical" name="LOPTICS"> F  </i>
   <v name="STM">      0.00000000      0.00000000      0.00000000      0.00000000      0.00000000      0.00000000      0.00000000</v>
  </separator>
  <separator name="performance" >
   <i type="int" name="NPAR">     8</i>
   <i type="int" name="NSIM">     4</i>
   <i type="int" name="NBLK">    -1</i>
   <i type="logical" name="LPLANE"> T  </i>
   <i type="logical" name="LSCALAPACK"> T  </i>
   <i type="logical" name="LSCAAWARE"> F  </i>
   <i type="logical" name="LSCALU"> F  </i>
   <i type="logical" name="LASYNC"> F  </i>
   <i type="logical" name="LORBITALREAL"> F  </i>
  </separator>
  <separator name="miscellaneous" >
   <i type="int" name="IDIOT">     3</i>
   <i type="int" name="ISPECIAL">     0</i>
   <i type="logical" name="LMUSIC"> F  </i>
   <v name="POMASS">    132.90000000    207.20000000     79.90400000</v>
   <v name="DARWINR">      0.00000000      0.00000000      0.00000000</v>
   <v name="DARWINV">      1.00000000      1.00000000      1.00000000</v>
   <i type="logical" name="LCORR"> T  </i>
  </separator>
  <i type="logical" name="GGA_COMPAT"> T  </i>
  <i type="logical" name="LBERRY"> F  </i>
  <i type="int" name="ICORELEVEL">     0</i>
  <i type="logical" name="LDAU"> F  </i>
  <i type="int" name="I_CONSTRAINED_M">     0</i>
  <separator name="electronic exchange-correlation" >
   <i type="string" name="GGA">--</i>
   <i type="int" name="VOSKOWN">     0</i>
   <i type="logical" name="LHFCALC"> F  </i>
   <i type="string" name="PRECFOCK"></i>
   <i type="logical" name="LSYMGRAD"> F  </i>
   <i type="logical" name="LHFONE"> F  </i>
   <i type="logical" name="LRHFCALC"> F  </i>
   <i type="logical" name="LTHOMAS"> F  </i>
   <i type="logical" name="LMODELHF"> F  </i>
   <i name="ENCUT4O">     -1.00000000</i>
   <i type="int" name="EXXOEP">     0</i>
   <i type="int" name="FOURORBIT">     0</i>
   <i name="AEXX">      0.00000000</i>
   <i name="HFALPHA">      0.00000000</i>
   <i name="MCALPHA">      0.00000000</i>
   <i name="ALDAX">      1.00000000</i>
   <i name="AGGAX">      1.00000000</i>
   <i name="ALDAC">      1.00000000</i>
   <i name="AGGAC">      1.00000000</i>
   <i type="int" name="NKREDX">     1</i>
   <i type="int" name="NKREDY">     1</i>
   <i type="int" name="NKREDZ">     1</i>
   <i type="logical" name="SHIFTRED"> F  </i>
   <i type="logical" name="ODDONLY"> F  </i>
   <i type="logical" name="EVENONLY"> F  </i>
   <i type="int" name="LMAXFOCK">     0</i>
   <i type="int" name="NMAXFOCKAE">     0</i>
   <i type="logical" name="LFOCKAEDFT"> F  </i>
   <i name="HFSCREEN">      0.00000000</i>
   <i name="HFSCREENC">      0.00000000</i>
   <i type="int" name="NBANDSGWLOW">     0</i>
  </separator>
  <separator name="vdW DFT" >
   <i type="logical" name="LUSE_VDW"> F  </i>
   <i name="Zab_VDW">     -0.84910000</i>
   <i name="PARAM1">      0.12340000</i>
   <i name="PARAM2">      1.00000000</i>
   <i name="PARAM3">      0.00000000</i>
  </separator>
  <separator name="model GW" >
   <i type="int" name="MODEL_GW">     0</i>
   <i name="MODEL_EPS0">     24.53982053</i>
   <i name="MODEL_ALPHA">      1.00000000</i>
  </separator>
  <separator name="linear response parameters" >
   <i type="logical" name="LEPSILON"> F  </i>
   <i type="logical" name="LRPA"> F  </i>
   <i type="logical" name="LNABLA"> F  </i>
   <i type="logical" name="LVEL"> F  </i>
   <i type="int" name="KINTER">     0</i>
   <i name="CSHIFT">      0.10000000</i>
   <i name="OMEGAMAX">     -1.00000000</i>
   <i name="DEG_THRESHOLD">      0.00200000</i>
   <i name="RTIME">     -0.10000000</i>
   <i name="WPLASMAI">      0.00000000</i>
   <v name="DFIELD">      0.00000000      0.00000000      0.00000000</v>
   <v name="WPLASMA">      0.00000000      0.00000000      0.00000000      0.00000000      0.00000000      0.00000000      0.00000000      0.00000000      0.00000000</v>
  </separator>
  <separator name="orbital magnetization" >
   <i type="logical" name="NUCIND"> F  </i>
   <v name="MAGPOS">      0.00000000      0.00000000      0.00000000</v>
   <i type="logical" name="LNICSALL"> T  </i>
   <i type="logical" name="ORBITALMAG"> F  </i>
   <i type="logical" name="LMAGBLOCH"> F  </i>
   <i type="logical" name="LCHIMAG"> F  </i>
   <i type="logical" name="LGAUGE"> T  </i>
   <i type="int" name="MAGATOM">     0</i>
   <v name="MAGDIPOL">      0.00000000      0.00000000      0.00000000</v>
   <v name="AVECCONST">      0.00000000      0.00000000      0.00000000</v>
  </separator>
  <separator name="response functions" >
   <i type="logical" name="LADDER"> F  </i>
   <i type="logical" name="LRPAFORCE"> F  </i>
   <i type="logical" name="LFXC"> F  </i>
   <i type="logical" name="LHARTREE"> T  </i>
   <i type="int" name="IBSE">     0</i>
   <v type="int" name="KPOINT">    -1     0     0     0</v>
   <i type="logical" name="LTCTE"> F  </i>
   <i type="logical" name="LTETE"> F  </i>
   <i type="logical" name="LTRIPLET"> F  </i>
   <i type="logical" name="LFXCEPS"> F  </i>
   <i type="logical" name="LFXHEG"> F  </i>
   <i type="int" name="NATURALO">     2</i>
   <i type="logical" name="L2ORDER"> F  </i>
   <i type="logical" name="LMP2LT"> F  </i>
   <i type="logical" name="LUSEW"> F  </i>
   <i name="ENCUTGW">     -2.00000000</i>
   <i name="ENCUTGWSOFT">     -2.00000000</i>
   <i name="ENCUTLF">     -1.00000000</i>
   <i type="int" name="LMAXMP2">    -1</i>
   <i name="SCISSOR">      0.00000000</i>
   <i type="int" name="NOMEGA">     0</i>
   <i type="int" name="NOMEGAR">     0</i>
   <i type="int" name="NBANDSGW">    -1</i>
   <i type="int" name="NBANDSO">    -1</i>
   <i type="int" name="NBANDSV">    -1</i>
   <i type="int" name="NELM">   200</i>
   <i type="int" name="NELMHF">     1</i>
   <i type="int" name="DIM">     3</i>
   <i type="int" name="ANTIRES">     0</i>
   <i name="OMEGAMAX">    -30.00000000</i>
   <i name="OMEGAMIN">    -30.00000000</i>
   <i name="OMEGATL">   -200.00000000</i>
   <i type="int" name="OMEGAGRID">   140</i>
   <i name="CSHIFT">     -0.10000000</i>
   <i type="logical" name="SELFENERGY"> F  </i>
   <i type="logical" name="LSPECTRAL"> F  </i>
   <i type="logical" name="LSPECTRALGW"> F  </i>
   <i type="logical" name="LSINGLES"> F  </i>
   <i type="logical" name="LFERMIGW"> F  </i>
   <i type="logical" name="ODDONLYGW"> F  </i>
   <i type="logical" name="EVENONLYGW"> F  </i>
   <i type="int" name="NKREDLFX">     1</i>
   <i type="int" name="NKREDLFY">     1</i>
   <i type="int" name="NKREDLFZ">     1</i>
   <i type="int" name="MAXMEM">  2800</i>
   <i type="int" name="TELESCOPE">     0</i>
   <i type="int" name="TAUPAR">     1</i>
   <i type="int" name="OMEGAPAR">    -1</i>
   <i name="LAMBDA">      1.00000000</i>
  </separator>
  <separator name="External order field" >
   <i name="OFIELD_KAPPA">      0.00000000</i>
   <v name="OFIELD_K">      0.00000000      0.00000000      0.00000000</v>
   <i name="OFIELD_Q6_NEAR">      0.00000000</i>
   <i name="OFIELD_Q6_FAR">      0.00000000</i>
   <i name="OFIELD_A">      0.00000000</i>
  </separator>
 </parameters>
 <atominfo>
  <atoms>      39 </atoms>
  <types>       3 </types>
  <array name="atoms" >
   <dimension dim="1">ion</dimension>
   <field type="string">element</field>
   <field type="int">atomtype</field>
   <set>
    <rc><c>Cs</c><c>   1</c></rc>
    <rc><c>Cs</c><c>   1</c></rc>
    <rc><c>Cs</c><c>   1</c></rc>
    <rc><c>Cs</c><c>   1</c></rc>
    <rc><c>Cs</c><c>   1</c></rc>
    <rc><c>Cs</c><c>   1</c></rc>
    <rc><c>Cs</c><c>   1</c></rc>
    <rc><c>Cs</c><c>   1</c></rc>
    <rc><c>Pb</c><c>   2</c></rc>
    <rc><c>Pb</c><c>   2</c></rc>
    <rc><c>Pb</c><c>   2</c></rc>
    <rc><c>Pb</c><c>   2</c></rc>
    <rc><c>Pb</c><c>   2</c></rc>
    <rc><c>Pb</c><c>   2</c></rc>
    <rc><c>Pb</c><c>   2</c></rc>
    <rc><c>Pb</c><c>   2</c></rc>
    <rc><c>Br</c><c>   3</c></rc>
    <rc><c>Br</c><c>   3</c></rc>
    <rc><c>Br</c><c>   3</c></rc>
    <rc><c>Br</c><c>   3</c></rc>
    <rc><c>Br</c><c>   3</c></rc>
    <rc><c>Br</c><c>   3</c></rc>
    <rc><c>Br</c><c>   3</c></rc>
    <rc><c>Br</c><c>   3</c></rc>
    <rc><c>Br</c><c>   3</c></rc>
    <rc><c>Br</c><c>   3</c></rc>
    <rc><c>Br</c><c>   3</c></rc>
    <rc><c>Br</c><c>   3</c></rc>
    <rc><c>Br</c><c>   3</c></rc>
    <rc><c>Br</c><c>   3</c></rc>
    <rc><c>Br</c><c>   3</c></rc>
    <rc><c>Br</c><c>   3</c></rc>
    <rc><c>Br</c><c>   3</c></rc>
    <rc><c>Br</c><c>   3</c></rc>
    <rc><c>Br</c><c>   3</c></rc>
    <rc><c>Br</c><c>   3</c></rc>
    <rc><c>Br</c><c>   3</c></rc>
    <rc><c>Br</c><c>   3</c></rc>
    <rc><c>Br</c><c>   3</c></rc>
   </set>
  </array>
  <array name="atomtypes" >
   <dimension dim="1">type</dimension>
   <field type="int">atomspertype</field>
   <field type="string">element</field>
   <field>mass</field>
   <field>valence</field>
   <field type="string">pseudopotential</field>
   <set>
    <rc><c>   8</c><c>Cs</c><c>    132.90000000</c><c>      9.00000000</c><c>  PAW_PBE Cs_sv 08Apr2002               </c></rc>
    <rc><c>   8</c><c>Pb</c><c>    207.20000000</c><c>     14.00000000</c><c>  PAW_PBE Pb_d 06Sep2000                </c></rc>
    <rc><c>  23</c><c>Br</c><c>     79.90400000</c><c>      7.00000000</c><c>  PAW_PBE Br 06Sep2000                  </c></rc>
   </set>
  </array>
 </atominfo>
 <structure name="initialpos" >
  <crystal>
   <varray name="basis" >
    <v>       8.45648900       0.00000000       8.04030100 </v>
    <v>       0.00000000      11.72984700       0.00000000 </v>
    <v>      -8.45648900       0.00000000       8.04030100 </v>
   </varray>
   <i name="volume">   1595.08833419 </i>
   <varray name="rec_basis" >
    <v>       0.05912619      -0.00000000       0.06218673 </v>
    <v>       0.00000000       0.08525260      -0.00000000 </v>
    <v>      -0.05912619       0.00000000       0.06218673 </v>
   </varray>
  </crystal>
  <varray name="positions" >
   <v>       0.25293100       0.23806800       0.19547400 </v>
   <v>       0.77781400       0.24541600       0.71612000 </v>
   <v>       0.75723600       0.76186500       0.26035700 </v>
   <v>       0.19588600       0.74925700       0.77324300 </v>
   <v>       0.29384300       0.24965400       0.73133100 </v>
   <v>       0.78974100       0.24686600       0.22771700 </v>
   <v>       0.73615300       0.75241500       0.80405100 </v>
   <v>       0.21599800       0.75304800       0.28870900 </v>
   <v>       0.99881500       0.00050000       0.99829900 </v>
   <v>       0.49946900       0.00370100       0.49027400 </v>
   <v>       0.49574100       0.00111800       0.99567400 </v>
   <v>       0.00401100       0.00024800       0.50431100 </v>
   <v>       0.50134000       0.50366500       0.99924600 </v>
   <v>       0.00416600       0.49570400       0.50406300 </v>
   <v>       0.99981400       0.49858400       0.00058000 </v>
   <v>       0.50440400       0.48937000       0.50661400 </v>
   <v>       0.46772400       0.75095600       0.95507100 </v>
   <v>       0.97703400       0.74789200       0.48458600 </v>
   <v>       0.96908600       0.24977700       0.97600500 </v>
   <v>       0.45426100       0.24471100       0.45626600 </v>
   <v>       0.01958500       0.74968900       0.03142900 </v>
   <v>       0.52085400       0.25432600       0.03896400 </v>
   <v>       0.03646300       0.24813100       0.54199400 </v>
   <v>       0.24829600       0.46967600       0.95422900 </v>
   <v>       0.74988100       0.45787000       0.45526600 </v>
   <v>       0.94581700       0.52945200       0.75123100 </v>
   <v>       0.54782100       0.03428900       0.74344800 </v>
   <v>       0.03928700       0.02391800       0.25443700 </v>
   <v>       0.74906900       0.97657000       0.04208800 </v>
   <v>       0.25549300       0.95908100       0.54859200 </v>
   <v>       0.24473200       0.02971300       0.94168600 </v>
   <v>       0.74724300       0.03098600       0.44960200 </v>
   <v>       0.44020300       0.96895200       0.24118400 </v>
   <v>       0.94567000       0.96878500       0.74969200 </v>
   <v>       0.75008700       0.52947200       0.05534600 </v>
   <v>       0.25904800       0.53517000       0.55267500 </v>
   <v>       0.55370900       0.47178600       0.76137100 </v>
   <v>       0.05162700       0.46986300       0.25608600 </v>
   <v>       0.50143200       0.65933800       0.36449800 </v>
  </varray>
 </structure>
 <calculation>
  <scstep>
   <time name="dav">   16.65   16.66</time>
   <time name="total">   18.12   18.14</time>
   <energy>
    <i name="alphaZ">    872.70583573 </i>
    <i name="ewald"> -17895.09146199 </i>
    <i name="hartreedc">  -7459.68716480 </i>
    <i name="XCdc">    908.29321179 </i>
    <i name="pawpsdc">  21345.28103884 </i>
    <i name="pawaedc"> -22405.85761495 </i>
    <i name="eentropy">     -0.00000571 </i>
    <i name="bandstr">   -240.54818750 </i>
    <i name="atom">  26212.11861568 </i>
    <i name="e_fr_energy">   1337.21426708 </i>
    <i name="e_wo_entrp">   1337.21427279 </i>
    <i name="e_0_energy">   1337.21426994 </i>
   </energy>
  </scstep>
  <scstep>
   <time name="dav">   18.53   18.56</time>
   <time name="total">   18.53   18.56</time>
   <energy>
    <i name="e_fr_energy">  -1111.68628365 </i>
    <i name="e_wo_entrp">  -1111.68628365 </i>
    <i name="e_0_energy">  -1111.68628365 </i>
   </energy>
  </scstep>
  <scstep>
   <time name="dav">   19.49   19.54</time>
   <time name="total">   19.49   19.54</time>
   <energy>
    <i name="e_fr_energy">  -1474.53838118 </i>
    <i name="e_wo_entrp">  -1474.53838118 </i>
    <i name="e_0_energy">  -1474.53838118 </i>
   </energy>
  </scstep>
  <scstep>
   <time name="dav">   18.03   18.09</time>
   <time name="total">   18.03   18.09</time>
   <energy>
    <i name="e_fr_energy">  -1486.73121267 </i>
    <i name="e_wo_entrp">  -1486.73121267 </i>
    <i name="e_0_energy">  -1486.73121267 </i>
   </energy>
  </scstep>
  <scstep>
   <time name="dav">   19.50   19.51</time>
   <time name="total">   22.22   22.22</time>
   <energy>
    <i name="e_fr_energy">  -1487.28041944 </i>
    <i name="e_wo_entrp">  -1487.28041944 </i>
    <i name="e_0_energy">  -1487.28041944 </i>
   </energy>
  </scstep>
  <scstep>
   <time name="dav">   19.13   19.14</time>
   <time name="total">   23.32   23.36</time>
   <energy>
    <i name="e_fr_energy">  -1409.58430378 </i>
    <i name="e_wo_entrp">  -1409.58430378 </i>
    <i name="e_0_energy">  -1409.58430378 </i>
   </energy>
  </scstep>
  <scstep>
   <time name="dav">   18.52   18.52</time>
   <time name="total">   22.70   22.75</time>
   <energy>
    <i name="e_fr_energy">  -1409.06717948 </i>
    <i name="e_wo_entrp">  -1409.06717948 </i>
    <i name="e_0_energy">  -1409.06717948 </i>
   </energy>
  </scstep>
  <scstep>
   <time name="dav">   18.20   18.20</time>
   <time name="total">   22.37   22.43</time>
   <energy>
    <i name="e_fr_energy">  -1409.24134097 </i>
    <i name="e_wo_entrp">  -1409.24134097 </i>
    <i name="e_0_energy">  -1409.24134097 </i>
   </energy>
  </scstep>
  <scstep>
   <time name="dav">   17.77   17.77</time>
   <time name="total">   21.99   22.00</time>
   <energy>
    <i name="e_fr_energy">  -1409.30709563 </i>
    <i name="e_wo_entrp">  -1409.30709563 </i>
    <i name="e_0_energy">  -1409.30709563 </i>
   </energy>
  </scstep>
  <scstep>
   <time name="dav">   19.47   19.47</time>
   <time name="total">   23.63   23.69</time>
   <energy>
    <i name="e_fr_energy">  -1409.31059791 </i>
    <i name="e_wo_entrp">  -1409.31059791 </i>
    <i name="e_0_energy">  -1409.31059791 </i>
   </energy>
  </scstep>
  <scstep>
   <time name="dav">   17.51   17.51</time>
   <time name="total">   21.74   21.74</time>
   <energy>
    <i name="e_fr_energy">  -1409.31270953 </i>
    <i name="e_wo_entrp">  -1409.31270953 </i>
    <i name="e_0_energy">  -1409.31270953 </i>
   </energy>
  </scstep>
  <scstep>
   <time name="dav">   17.10   17.10</time>
   <time name="total">   21.30   21.33</time>
   <energy>
    <i name="e_fr_energy">  -1409.31576340 </i>
    <i name="e_wo_entrp">  -1409.31576340 </i>
    <i name="e_0_energy">  -1409.31576340 </i>
   </energy>
  </scstep>
  <scstep>
   <time name="dav">   19.26   19.26</time>
   <time name="total">   23.47   23.50</time>
   <energy>
    <i name="e_fr_energy">  -1409.31542003 </i>
    <i name="e_wo_entrp">  -1409.31542003 </i>
    <i name="e_0_energy">  -1409.31542003 </i>
   </energy>
  </scstep>
  <scstep>
   <time name="dav">   17.86   17.86</time>
   <time name="total">   22.08   22.09</time>
   <energy>
    <i name="e_fr_energy">  -1409.31538084 </i>
    <i name="e_wo_entrp">  -1409.31538084 </i>
    <i name="e_0_energy">  -1409.31538084 </i>
   </energy>
  </scstep>
  <scstep>
   <time name="dav">   17.44   17.45</time>
   <time name="total">   21.63   21.67</time>
   <energy>
    <i name="e_fr_energy">  -1409.31535718 </i>
    <i name="e_wo_entrp">  -1409.31535718 </i>
    <i name="e_0_energy">  -1409.31535718 </i>
   </energy>
  </scstep>
  <scstep>
   <time name="dav">   17.81   17.81</time>
   <time name="total">   22.03   22.04</time>
   <energy>
    <i name="e_fr_energy">  -1409.31542884 </i>
    <i name="e_wo_entrp">  -1409.31542884 </i>
    <i name="e_0_energy">  -1409.31542884 </i>
   </energy>
  </scstep>
  <scstep>
   <time name="dav">   17.12   17.12</time>
   <time name="total">   21.33   21.34</time>
   <energy>
    <i name="e_fr_energy">  -1409.31542745 </i>
    <i name="e_wo_entrp">  -1409.31542745 </i>
    <i name="e_0_energy">  -1409.31542745 </i>
   </energy>
  </scstep>
  <scstep>
   <time name="dav">   14.89   14.89</time>
   <time name="total">   19.06   19.08</time>
   <energy>
    <i name="e_fr_energy">  -1409.31542627 </i>
    <i name="e_wo_entrp">  -1409.31542627 </i>
    <i name="e_0_energy">  -1409.31542627 </i>
   </energy>
  </scstep>
  <scstep>
   <time name="dav">   13.25   13.25</time>
   <time name="total">   17.42   17.44</time>
   <energy>
    <i name="e_fr_energy">  -1409.31542099 </i>
    <i name="e_wo_entrp">  -1409.31542099 </i>
    <i name="e_0_energy">  -1409.31542099 </i>
   </energy>
  </scstep>
  <scstep>
   <time name="dav">   12.65   12.65</time>
   <time name="total">   16.83   16.86</time>
   <energy>
    <i name="e_fr_energy">  -1409.31541700 </i>
    <i name="e_wo_entrp">  -1409.31541700 </i>
    <i name="e_0_energy">  -1409.31541700 </i>
   </energy>
  </scstep>
  <scstep>
   <time name="dav">   12.97   12.97</time>
   <time name="total">   14.42   14.49</time>
   <energy>
    <i name="alphaZ">    872.70583573 </i>
    <i name="ewald"> -17895.09146199 </i>
    <i name="hartreedc">  -7494.87800493 </i>
    <i name="XCdc">    943.87572821 </i>
    <i name="pawpsdc">  22788.25632381 </i>
    <i name="pawaedc"> -23846.95919279 </i>
    <i name="eentropy">     -0.00000000 </i>
    <i name="bandstr">  -2989.34326096 </i>
    <i name="atom">  26212.11861568 </i>
    <i name="e_fr_energy">  -1409.31541724 </i>
    <i name="e_wo_entrp">  -1409.31541724 </i>
    <i name="e_0_energy">  -1409.31541724 </i>
   </energy>
  </scstep>
  <structure>
   <crystal>
    <varray name="basis" >
     <v>       8.45648900       0.00000000       8.04030100 </v>
     <v>       0.00000000      11.72984700       0.00000000 </v>
     <v>      -8.45648900       0.00000000       8.04030100 </v>
    </varray>
    <i name="volume">   1595.08833419 </i>
    <varray name="rec_basis" >
     <v>       0.05912619      -0.00000000       0.06218673 </v>
     <v>       0.00000000       0.08525260      -0.00000000 </v>
     <v>      -0.05912619       0.00000000       0.06218673 </v>
    </varray>
   </crystal>
   <varray name="positions" >
    <v>       0.25293100       0.23806800       0.19547400 </v>
    <v>       0.77781400       0.24541600       0.71612000 </v>
    <v>       0.75723600       0.76186500       0.26035700 </v>
    <v>       0.19588600       0.74925700       0.77324300 </v>
    <v>       0.29384300       0.24965400       0.73133100 </v>
    <v>       0.78974100       0.24686600       0.22771700 </v>
    <v>       0.73615300       0.75241500       0.80405100 </v>
    <v>       0.21599800       0.75304800       0.28870900 </v>
    <v>       0.99881500       0.00050000       0.99829900 </v>
    <v>       0.49946900       0.00370100       0.49027400 </v>
    <v>       0.49574100       0.00111800       0.99567400 </v>
    <v>       0.00401100       0.00024800       0.50431100 </v>
    <v>       0.50134000       0.50366500       0.99924600 </v>
    <v>       0.00416600       0.49570400       0.50406300 </v>
    <v>       0.99981400       0.49858400       0.00058000 </v>
    <v>       0.50440400       0.48937000       0.50661400 </v>
    <v>       0.46772400       0.75095600       0.95507100 </v>
    <v>       0.97703400       0.74789200       0.48458600 </v>
    <v>       0.96908600       0.24977700       0.97600500 </v>
    <v>       0.45426100       0.24471100       0.45626600 </v>
    <v>       0.01958500       0.74968900       0.03142900 </v>
    <v>       0.52085400       0.25432600       0.03896400 </v>
    <v>       0.03646300       0.24813100       0.54199400 </v>
    <v>       0.24829600       0.46967600       0.95422900 </v>
    <v>       0.74988100       0.45787000       0.45526600 </v>
    <v>       0.94581700       0.52945200       0.75123100 </v>
    <v>       0.54782100       0.03428900       0.74344800 </v>
    <v>       0.03928700       0.02391800       0.25443700 </v>
    <v>       0.74906900       0.97657000       0.04208800 </v>
    <v>       0.25549300       0.95908100       0.54859200 </v>
    <v>       0.24473200       0.02971300       0.94168600 </v>
    <v>       0.74724300       0.03098600       0.44960200 </v>
    <v>       0.44020300       0.96895200       0.24118400 </v>
    <v>       0.94567000       0.96878500       0.74969200 </v>
    <v>       0.75008700       0.52947200       0.05534600 </v>
    <v>       0.25904800       0.53517000       0.55267500 </v>
    <v>       0.55370900       0.47178600       0.76137100 </v>
    <v>       0.05162700       0.46986300       0.25608600 </v>
    <v>       0.50143200       0.65933800       0.36449800 </v>
   </varray>
  </structure>
  <varray name="forces" >
   <v>      -0.01348429      -0.04056049      -0.01109943 </v>
   <v>       0.01398108       0.01733297      -0.02271532 </v>
   <v>       0.12415371       0.05387104       0.05748599 </v>
   <v>       0.00041777      -0.00791964      -0.02422818 </v>
   <v>       0.01886824       0.02555654      -0.00981177 </v>
   <v>      -0.00234866       0.01097340       0.01617486 </v>
   <v>       0.00215517      -0.01452815       0.01994663 </v>
   <v>      -0.03081365       0.01009137      -0.04252089 </v>
   <v>       0.00007023      -0.00227785       0.00474479 </v>
   <v>      -0.00745728       0.14296858      -0.07368225 </v>
   <v>      -0.00377077      -0.00472820      -0.01810676 </v>
   <v>      -0.01561938       0.00870491       0.01764412 </v>
   <v>       0.19130657      -0.02808109      -0.11032341 </v>
   <v>      -0.00641472      -0.01883415       0.02908672 </v>
   <v>       0.00229606       0.00086831      -0.00726612 </v>
   <v>      -0.57796351      -0.96080999       0.62211587 </v>
   <v>       0.00449679       0.00729806      -0.00246585 </v>
   <v>      -0.00887781       0.01183193       0.01371723 </v>
   <v>      -0.00215091       0.00503171       0.00740059 </v>
   <v>       0.03313286      -0.40618071      -0.04421395 </v>
   <v>      -0.01543064      -0.00258911      -0.00475526 </v>
   <v>      -0.00621042      -0.00661882       0.00092512 </v>
   <v>       0.00021051      -0.02426436       0.00046857 </v>
   <v>      -0.00156060       0.00145040       0.01157229 </v>
   <v>       0.07729579      -0.03556843       0.07772624 </v>
   <v>      -0.02665162       0.00581753       0.01746959 </v>
   <v>       0.00444626      -0.00611847      -0.00125790 </v>
   <v>       0.00432417       0.00481643      -0.00380895 </v>
   <v>       0.00333928       0.01865007      -0.02546618 </v>
   <v>       0.00591055      -0.00500159       0.00229600 </v>
   <v>       0.00620711      -0.00147764       0.02214478 </v>
   <v>      -0.00897213      -0.00831830      -0.00591536 </v>
   <v>       0.02928391       0.02678927      -0.01629316 </v>
   <v>      -0.00883845      -0.00773728      -0.00028235 </v>
   <v>      -0.00598419      -0.00048732      -0.00463779 </v>
   <v>      -0.06946668       0.00320208      -0.03798641 </v>
   <v>      -0.32097207       0.07443160       0.29546290 </v>
   <v>       0.02522910      -0.00084196      -0.01922808 </v>
   <v>       0.58586264       1.15325737      -0.73031691 </v>
  </varray>
  <varray name="stress" >
   <v>      -6.08080679       1.74870335      -0.09171175 </v>
   <v>       1.74865685      -2.33942053      -1.03960467 </v>
   <v>      -0.09177505      -1.03955731      -3.92310053 </v>
  </varray>
  <energy>
   <i name="e_fr_energy">  -1409.31541724 </i>
   <i name="e_wo_entrp">  -1409.31541724 </i>
   <i name="e_0_energy">     -0.00000000 </i>
  </energy>
  <time name="totalsc">  486.85  487.55</time>
  <eigenvalues>
   <array>
    <dimension dim="1">band</dimension>
    <dimension dim="2">kpoint</dimension>
    <dimension dim="3">spin</dimension>
    <field>eigene</field>
    <field>occ</field>
    <set>
     <set comment="spin 1">
      <set comment="kpoint 1">
       <r>  -20.9156    1.0000 </r>
       <r>  -20.8117    1.0000 </r>
       <r>  -20.7505    1.0000 </r>
       <r>  -20.7378    1.0000 </r>
       <r>  -20.7179    1.0000 </r>
       <r>  -20.7133    1.0000 </r>
       <r>  -20.7013    1.0000 </r>
       <r>  -20.6888    1.0000 </r>
       <r>  -16.6870    1.0000 </r>
       <r>  -16.6840    1.0000 </r>
       <r>  -16.6625    1.0000 </r>
       <r>  -16.6465    1.0000 </r>
       <r>  -16.6344    1.0000 </r>
       <r>  -16.5814    1.0000 </r>
       <r>  -16.5797    1.0000 </r>
       <r>  -16.5744    1.0000 </r>
       <r>  -16.5744    1.0000 </r>
       <r>  -16.5364    1.0000 </r>
       <r>  -16.5310    1.0000 </r>
       <r>  -16.5304    1.0000 </r>
       <r>  -16.4870    1.0000 </r>
       <r>  -16.4630    1.0000 </r>
       <r>  -16.4514    1.0000 </r>
       <r>  -16.4491    1.0000 </r>
       <r>  -16.4349    1.0000 </r>
       <r>  -16.4237    1.0000 </r>
       <r>  -16.4208    1.0000 </r>
       <r>  -16.4132    1.0000 </r>
       <r>  -16.3783    1.0000 </r>
       <r>  -16.3685    1.0000 </r>
       <r>  -16.3565    1.0000 </r>
       <r>  -16.3507    1.0000 </r>
       <r>  -16.3425    1.0000 </r>
       <r>  -16.3281    1.0000 </r>
       <r>  -16.3202    1.0000 </r>
       <r>  -16.3136    1.0000 </r>
       <r>  -16.3045    1.0000 </r>
       <r>  -16.2993    1.0000 </r>
       <r>  -16.2972    1.0000 </r>
       <r>  -16.2928    1.0000 </r>
       <r>  -16.2880    1.0000 </r>
       <r>  -16.2848    1.0000 </r>
       <r>  -16.2839    1.0000 </r>
       <r>  -16.2798    1.0000 </r>
       <r>  -16.2713    1.0000 </r>
       <r>  -16.2705    1.0000 </r>
       <r>  -16.2665    1.0000 </r>
       <r>  -16.2593    1.0000 </r>
       <r>  -14.4869    1.0000 </r>
       <r>  -14.3648    1.0000 </r>
       <r>  -14.3328    1.0000 </r>
       <r>  -14.3008    1.0000 </r>
       <r>  -14.1527    1.0000 </r>
       <r>  -14.1285    1.0000 </r>
       <r>  -14.1224    1.0000 </r>
       <r>  -14.0810    1.0000 </r>
       <r>  -14.0752    1.0000 </r>
       <r>  -14.0642    1.0000 </r>
       <r>  -14.0477    1.0000 </r>
       <r>  -14.0400    1.0000 </r>
       <r>  -14.0336    1.0000 </r>
       <r>  -14.0216    1.0000 </r>
       <r>  -13.9877    1.0000 </r>
       <r>  -13.9710    1.0000 </r>
       <r>  -13.9407    1.0000 </r>
       <r>  -13.9333    1.0000 </r>
       <r>  -13.8871    1.0000 </r>
       <r>  -13.7860    1.0000 </r>
       <r>  -13.7512    1.0000 </r>
       <r>  -13.7357    1.0000 </r>
       <r>  -13.7250    1.0000 </r>
       <r>   -8.2069    1.0000 </r>
       <r>   -7.7901    1.0000 </r>
       <r>   -7.7558    1.0000 </r>
       <r>   -7.7128    1.0000 </r>
       <r>   -7.3732    1.0000 </r>
       <r>   -7.3369    1.0000 </r>
       <r>   -7.3020    1.0000 </r>
       <r>   -7.2834    1.0000 </r>
       <r>   -7.2524    1.0000 </r>
       <r>   -7.2356    1.0000 </r>
       <r>   -7.2117    1.0000 </r>
       <r>   -7.2056    1.0000 </r>
       <r>   -7.1883    1.0000 </r>
       <r>   -7.1704    1.0000 </r>
       <r>   -7.1647    1.0000 </r>
       <r>   -7.1515    1.0000 </r>
       <r>   -7.1433    1.0000 </r>
       <r>   -7.1396    1.0000 </r>
       <r>   -7.1376    1.0000 </r>
       <r>   -7.1326    1.0000 </r>
       <r>   -7.1199    1.0000 </r>
       <r>   -7.1187    1.0000 </r>
       <r>   -7.1138    1.0000 </r>
       <r>   -7.1117    1.0000 </r>
       <r>   -7.1070    1.0000 </r>
       <r>   -7.0968    1.0000 </r>
       <r>   -7.0926    1.0000 </r>
       <r>   -7.0865    1.0000 </r>
       <r>   -7.0774    1.0000 </r>
       <r>   -7.0661    1.0000 </r>
       <r>   -7.0412    1.0000 </r>
       <r>   -6.5924    1.0000 </r>
       <r>   -3.3936    1.0000 </r>
       <r>   -3.3164    1.0000 </r>
       <r>   -3.2900    1.0000 </r>
       <r>   -3.2667    1.0000 </r>
       <r>   -3.2454    1.0000 </r>
       <r>   -3.2081    1.0000 </r>
       <r>   -3.2013    1.0000 </r>
       <r>   -3.1496    1.0000 </r>
       <r>   -3.1314    1.0000 </r>
       <r>   -3.0714    1.0000 </r>
       <r>   -3.0552    1.0000 </r>
       <r>   -2.8517    1.0000 </r>
       <r>   -2.2145    1.0000 </r>
       <r>   -2.1934    1.0000 </r>
       <r>   -2.1401    1.0000 </r>
       <r>   -2.1120    1.0000 </r>
       <r>   -2.0230    1.0000 </r>
       <r>   -2.0084    1.0000 </r>
       <r>   -1.9194    1.0000 </r>
       <r>   -1.9025    1.0000 </r>
       <r>   -1.8834    1.0000 </r>
       <r>   -1.8652    1.0000 </r>
       <r>   -1.8174    1.0000 </r>
       <r>   -1.7585    1.0000 </r>
       <r>   -1.7165    1.0000 </r>
       <r>   -1.6662    1.0000 </r>
       <r>   -1.6520    1.0000 </r>
       <r>   -1.6147    1.0000 </r>
       <r>   -1.5952    1.0000 </r>
       <r>   -1.5620    1.0000 </r>
       <r>   -1.5544    1.0000 </r>
       <r>   -1.5362    1.0000 </r>
       <r>   -1.5261    1.0000 </r>
       <r>   -1.4992    1.0000 </r>
       <r>   -1.4893    1.0000 </r>
       <r>   -1.4719    1.0000 </r>
       <r>   -1.4586    1.0000 </r>
       <r>   -1.4500    1.0000 </r>
       <r>   -1.4214    1.0000 </r>
       <r>   -1.4087    1.0000 </r>
       <r>   -1.3950    1.0000 </r>
       <r>   -1.3847    1.0000 </r>
       <r>   -1.3732    1.0000 </r>
       <r>   -1.3533    1.0000 </r>
       <r>   -1.3505    1.0000 </r>
       <r>   -1.3308    1.0000 </r>
       <r>   -1.3243    1.0000 </r>
       <r>   -1.3138    1.0000 </r>
       <r>   -1.3079    1.0000 </r>
       <r>   -1.2824    1.0000 </r>
       <r>   -1.2728    1.0000 </r>
       <r>   -1.2292    1.0000 </r>
       <r>   -1.2123    1.0000 </r>
       <r>   -1.1955    1.0000 </r>
       <r>   -1.1662    1.0000 </r>
       <r>   -1.1127    1.0000 </r>
       <r>   -1.0969    1.0000 </r>
       <r>   -1.0783    1.0000 </r>
       <r>   -1.0230    1.0000 </r>
       <r>   -1.0033    1.0000 </r>
       <r>   -0.9841    1.0000 </r>
       <r>   -0.8657    1.0000 </r>
       <r>   -0.8044    1.0000 </r>
       <r>   -0.7537    1.0000 </r>
       <r>   -0.6490    1.0000 </r>
       <r>   -0.3226    1.0000 </r>
       <r>   -0.2357    1.0000 </r>
       <r>   -0.1147    1.0000 </r>
       <r>    0.3792    1.0000 </r>
       <r>    2.6212    0.0000 </r>
       <r>    2.7374    0.0000 </r>
       <r>    2.8269    0.0000 </r>
       <r>    2.9550    0.0000 </r>
       <r>    3.0107    0.0000 </r>
       <r>    3.1141    0.0000 </r>
       <r>    3.1579    0.0000 </r>
       <r>    3.2113    0.0000 </r>
       <r>    3.3010    0.0000 </r>
       <r>    3.4877    0.0000 </r>
       <r>    3.5011    0.0000 </r>
       <r>    3.5346    0.0000 </r>
       <r>    4.2101    0.0000 </r>
       <r>    4.8303    0.0000 </r>
       <r>    5.1777    0.0000 </r>
       <r>    5.5038    0.0000 </r>
       <r>    5.6354    0.0000 </r>
       <r>    5.7736    0.0000 </r>
       <r>    5.8237    0.0000 </r>
       <r>    5.8591    0.0000 </r>
       <r>    5.8753    0.0000 </r>
       <r>    5.9288    0.0000 </r>
       <r>    6.0010    0.0000 </r>
       <r>    6.0489    0.0000 </r>
       <r>    6.1202    0.0000 </r>
       <r>    6.1562    0.0000 </r>
       <r>    6.1956    0.0000 </r>
       <r>    6.2136    0.0000 </r>
       <r>    6.2709    0.0000 </r>
       <r>    6.3569    0.0000 </r>
       <r>    6.4127    0.0000 </r>
       <r>    6.4835    0.0000 </r>
       <r>    6.5382    0.0000 </r>
       <r>    6.5544    0.0000 </r>
       <r>    6.5653    0.0000 </r>
       <r>    6.6903    0.0000 </r>
      </set>
      <set comment="kpoint 2">
       <r>  -20.9156    1.0000 </r>
       <r>  -20.8117    1.0000 </r>
       <r>  -20.7505    1.0000 </r>
       <r>  -20.7377    1.0000 </r>
       <r>  -20.7179    1.0000 </r>
       <r>  -20.7134    1.0000 </r>
       <r>  -20.7013    1.0000 </r>
       <r>  -20.6888    1.0000 </r>
       <r>  -16.6864    1.0000 </r>
       <r>  -16.6833    1.0000 </r>
       <r>  -16.6602    1.0000 </r>
       <r>  -16.6446    1.0000 </r>
       <r>  -16.6341    1.0000 </r>
       <r>  -16.5814    1.0000 </r>
       <r>  -16.5797    1.0000 </r>
       <r>  -16.5744    1.0000 </r>
       <r>  -16.5744    1.0000 </r>
       <r>  -16.5363    1.0000 </r>
       <r>  -16.5305    1.0000 </r>
       <r>  -16.5276    1.0000 </r>
       <r>  -16.4869    1.0000 </r>
       <r>  -16.4621    1.0000 </r>
       <r>  -16.4490    1.0000 </r>
       <r>  -16.4400    1.0000 </r>
       <r>  -16.4334    1.0000 </r>
       <r>  -16.4257    1.0000 </r>
       <r>  -16.4212    1.0000 </r>
       <r>  -16.4171    1.0000 </r>
       <r>  -16.3879    1.0000 </r>
       <r>  -16.3743    1.0000 </r>
       <r>  -16.3603    1.0000 </r>
       <r>  -16.3509    1.0000 </r>
       <r>  -16.3425    1.0000 </r>
       <r>  -16.3282    1.0000 </r>
       <r>  -16.3202    1.0000 </r>
       <r>  -16.3137    1.0000 </r>
       <r>  -16.3045    1.0000 </r>
       <r>  -16.2994    1.0000 </r>
       <r>  -16.2972    1.0000 </r>
       <r>  -16.2928    1.0000 </r>
       <r>  -16.2880    1.0000 </r>
       <r>  -16.2848    1.0000 </r>
       <r>  -16.2839    1.0000 </r>
       <r>  -16.2799    1.0000 </r>
       <r>  -16.2713    1.0000 </r>
       <r>  -16.2705    1.0000 </r>
       <r>  -16.2666    1.0000 </r>
       <r>  -16.2593    1.0000 </r>
       <r>  -14.4790    1.0000 </r>
       <r>  -14.3574    1.0000 </r>
       <r>  -14.3297    1.0000 </r>
       <r>  -14.3283    1.0000 </r>
       <r>  -14.1789    1.0000 </r>
       <r>  -14.1614    1.0000 </r>
       <r>  -14.1256    1.0000 </r>
       <r>  -14.1246    1.0000 </r>
       <r>  -14.0744    1.0000 </r>
       <r>  -14.0615    1.0000 </r>
       <r>  -14.0405    1.0000 </r>
       <r>  -14.0358    1.0000 </r>
       <r>  -13.9946    1.0000 </r>
       <r>  -13.9860    1.0000 </r>
       <r>  -13.9819    1.0000 </r>
       <r>  -13.9684    1.0000 </r>
       <r>  -13.8834    1.0000 </r>
       <r>  -13.8621    1.0000 </r>
       <r>  -13.8461    1.0000 </r>
       <r>  -13.8225    1.0000 </r>
       <r>  -13.7957    1.0000 </r>
       <r>  -13.7846    1.0000 </r>
       <r>  -13.7434    1.0000 </r>
       <r>   -7.9901    1.0000 </r>
       <r>   -7.9844    1.0000 </r>
       <r>   -7.6264    1.0000 </r>
       <r>   -7.5877    1.0000 </r>
       <r>   -7.4819    1.0000 </r>
       <r>   -7.4341    1.0000 </r>
       <r>   -7.3548    1.0000 </r>
       <r>   -7.2980    1.0000 </r>
       <r>   -7.2805    1.0000 </r>
       <r>   -7.2439    1.0000 </r>
       <r>   -7.2171    1.0000 </r>
       <r>   -7.2027    1.0000 </r>
       <r>   -7.1943    1.0000 </r>
       <r>   -7.1722    1.0000 </r>
       <r>   -7.1586    1.0000 </r>
       <r>   -7.1529    1.0000 </r>
       <r>   -7.1485    1.0000 </r>
       <r>   -7.1407    1.0000 </r>
       <r>   -7.1370    1.0000 </r>
       <r>   -7.1304    1.0000 </r>
       <r>   -7.1280    1.0000 </r>
       <r>   -7.1151    1.0000 </r>
       <r>   -7.1118    1.0000 </r>
       <r>   -7.1064    1.0000 </r>
       <r>   -7.1056    1.0000 </r>
       <r>   -7.0899    1.0000 </r>
       <r>   -7.0870    1.0000 </r>
       <r>   -7.0804    1.0000 </r>
       <r>   -7.0730    1.0000 </r>
       <r>   -7.0621    1.0000 </r>
       <r>   -7.0237    1.0000 </r>
       <r>   -6.8240    1.0000 </r>
       <r>   -3.3629    1.0000 </r>
       <r>   -3.2863    1.0000 </r>
       <r>   -3.2588    1.0000 </r>
       <r>   -3.2390    1.0000 </r>
       <r>   -3.1905    1.0000 </r>
       <r>   -3.1411    1.0000 </r>
       <r>   -3.1012    1.0000 </r>
       <r>   -2.9252    1.0000 </r>
       <r>   -2.5948    1.0000 </r>
       <r>   -2.5586    1.0000 </r>
       <r>   -2.5157    1.0000 </r>
       <r>   -2.4973    1.0000 </r>
       <r>   -2.4505    1.0000 </r>
       <r>   -2.3860    1.0000 </r>
       <r>   -2.3776    1.0000 </r>
       <r>   -2.3355    1.0000 </r>
       <r>   -2.1767    1.0000 </r>
       <r>   -2.1145    1.0000 </r>
       <r>   -2.0684    1.0000 </r>
       <r>   -2.0451    1.0000 </r>
       <r>   -2.0186    1.0000 </r>
       <r>   -1.9350    1.0000 </r>
       <r>   -1.9121    1.0000 </r>
       <r>   -1.8411    1.0000 </r>
       <r>   -1.8187    1.0000 </r>
       <r>   -1.7677    1.0000 </r>
       <r>   -1.7313    1.0000 </r>
       <r>   -1.7200    1.0000 </r>
       <r>   -1.6858    1.0000 </r>
       <r>   -1.6050    1.0000 </r>
       <r>   -1.5598    1.0000 </r>
       <r>   -1.5373    1.0000 </r>
       <r>   -1.5161    1.0000 </r>
       <r>   -1.4996    1.0000 </r>
       <r>   -1.4791    1.0000 </r>
       <r>   -1.4681    1.0000 </r>
       <r>   -1.4553    1.0000 </r>
       <r>   -1.4342    1.0000 </r>
       <r>   -1.4187    1.0000 </r>
       <r>   -1.4076    1.0000 </r>
       <r>   -1.3908    1.0000 </r>
       <r>   -1.3880    1.0000 </r>
       <r>   -1.3801    1.0000 </r>
       <r>   -1.3482    1.0000 </r>
       <r>   -1.3388    1.0000 </r>
       <r>   -1.3101    1.0000 </r>
       <r>   -1.2995    1.0000 </r>
       <r>   -1.2895    1.0000 </r>
       <r>   -1.2821    1.0000 </r>
       <r>   -1.2753    1.0000 </r>
       <r>   -1.2510    1.0000 </r>
       <r>   -1.2204    1.0000 </r>
       <r>   -1.2131    1.0000 </r>
       <r>   -1.1816    1.0000 </r>
       <r>   -1.1550    1.0000 </r>
       <r>   -1.1313    1.0000 </r>
       <r>   -1.1171    1.0000 </r>
       <r>   -1.1081    1.0000 </r>
       <r>   -1.0917    1.0000 </r>
       <r>   -1.0486    1.0000 </r>
       <r>   -1.0263    1.0000 </r>
       <r>   -0.9222    1.0000 </r>
       <r>   -0.8713    1.0000 </r>
       <r>   -0.7700    1.0000 </r>
       <r>   -0.5881    1.0000 </r>
       <r>   -0.5698    1.0000 </r>
       <r>   -0.4725    1.0000 </r>
       <r>   -0.2545    1.0000 </r>
       <r>    0.0692    1.0000 </r>
       <r>    2.7271    0.0000 </r>
       <r>    2.9419    0.0000 </r>
       <r>    2.9576    0.0000 </r>
       <r>    2.9771    0.0000 </r>
       <r>    3.1245    0.0000 </r>
       <r>    3.3174    0.0000 </r>
       <r>    3.3322    0.0000 </r>
       <r>    3.4095    0.0000 </r>
       <r>    4.1632    0.0000 </r>
       <r>    4.1680    0.0000 </r>
       <r>    4.2795    0.0000 </r>
       <r>    4.4696    0.0000 </r>
       <r>    4.5128    0.0000 </r>
       <r>    4.5815    0.0000 </r>
       <r>    4.6226    0.0000 </r>
       <r>    4.7521    0.0000 </r>
       <r>    4.8539    0.0000 </r>
       <r>    5.2156    0.0000 </r>
       <r>    5.3067    0.0000 </r>
       <r>    5.5734    0.0000 </r>
       <r>    5.6982    0.0000 </r>
       <r>    5.8018    0.0000 </r>
       <r>    5.9303    0.0000 </r>
       <r>    5.9583    0.0000 </r>
       <r>    6.0129    0.0000 </r>
       <r>    6.0786    0.0000 </r>
       <r>    6.1310    0.0000 </r>
       <r>    6.2224    0.0000 </r>
       <r>    6.2759    0.0000 </r>
       <r>    6.3347    0.0000 </r>
       <r>    6.3590    0.0000 </r>
       <r>    6.4028    0.0000 </r>
       <r>    6.4756    0.0000 </r>
       <r>    6.5161    0.0000 </r>
       <r>    6.5763    0.0000 </r>
       <r>    6.6430    0.0000 </r>
      </set>
      <set comment="kpoint 3">
       <r>  -20.9156    1.0000 </r>
       <r>  -20.8117    1.0000 </r>
       <r>  -20.7505    1.0000 </r>
       <r>  -20.7377    1.0000 </r>
       <r>  -20.7179    1.0000 </r>
       <r>  -20.7133    1.0000 </r>
       <r>  -20.7013    1.0000 </r>
       <r>  -20.6888    1.0000 </r>
       <r>  -16.6864    1.0000 </r>
       <r>  -16.6838    1.0000 </r>
       <r>  -16.6597    1.0000 </r>
       <r>  -16.6466    1.0000 </r>
       <r>  -16.6343    1.0000 </r>
       <r>  -16.5814    1.0000 </r>
       <r>  -16.5797    1.0000 </r>
       <r>  -16.5744    1.0000 </r>
       <r>  -16.5744    1.0000 </r>
       <r>  -16.5363    1.0000 </r>
       <r>  -16.5310    1.0000 </r>
       <r>  -16.5304    1.0000 </r>
       <r>  -16.4869    1.0000 </r>
       <r>  -16.4524    1.0000 </r>
       <r>  -16.4491    1.0000 </r>
       <r>  -16.4376    1.0000 </r>
       <r>  -16.4312    1.0000 </r>
       <r>  -16.4277    1.0000 </r>
       <r>  -16.4199    1.0000 </r>
       <r>  -16.4064    1.0000 </r>
       <r>  -16.3941    1.0000 </r>
       <r>  -16.3782    1.0000 </r>
       <r>  -16.3657    1.0000 </r>
       <r>  -16.3547    1.0000 </r>
       <r>  -16.3425    1.0000 </r>
       <r>  -16.3281    1.0000 </r>
       <r>  -16.3202    1.0000 </r>
       <r>  -16.3136    1.0000 </r>
       <r>  -16.3045    1.0000 </r>
       <r>  -16.2993    1.0000 </r>
       <r>  -16.2972    1.0000 </r>
       <r>  -16.2927    1.0000 </r>
       <r>  -16.2879    1.0000 </r>
       <r>  -16.2848    1.0000 </r>
       <r>  -16.2838    1.0000 </r>
       <r>  -16.2798    1.0000 </r>
       <r>  -16.2713    1.0000 </r>
       <r>  -16.2705    1.0000 </r>
       <r>  -16.2665    1.0000 </r>
       <r>  -16.2593    1.0000 </r>
       <r>  -14.4729    1.0000 </r>
       <r>  -14.3710    1.0000 </r>
       <r>  -14.3522    1.0000 </r>
       <r>  -14.2835    1.0000 </r>
       <r>  -14.2266    1.0000 </r>
       <r>  -14.1485    1.0000 </r>
       <r>  -14.1042    1.0000 </r>
       <r>  -14.0912    1.0000 </r>
       <r>  -14.0791    1.0000 </r>
       <r>  -14.0630    1.0000 </r>
       <r>  -14.0428    1.0000 </r>
       <r>  -14.0286    1.0000 </r>
       <r>  -14.0219    1.0000 </r>
       <r>  -13.9879    1.0000 </r>
       <r>  -13.9720    1.0000 </r>
       <r>  -13.9343    1.0000 </r>
       <r>  -13.9163    1.0000 </r>
       <r>  -13.8856    1.0000 </r>
       <r>  -13.8714    1.0000 </r>
       <r>  -13.8278    1.0000 </r>
       <r>  -13.8056    1.0000 </r>
       <r>  -13.7476    1.0000 </r>
       <r>  -13.7313    1.0000 </r>
       <r>   -8.0312    1.0000 </r>
       <r>   -7.9534    1.0000 </r>
       <r>   -7.6648    1.0000 </r>
       <r>   -7.5210    1.0000 </r>
       <r>   -7.4648    1.0000 </r>
       <r>   -7.4586    1.0000 </r>
       <r>   -7.3601    1.0000 </r>
       <r>   -7.2981    1.0000 </r>
       <r>   -7.2781    1.0000 </r>
       <r>   -7.2442    1.0000 </r>
       <r>   -7.2141    1.0000 </r>
       <r>   -7.1970    1.0000 </r>
       <r>   -7.1749    1.0000 </r>
       <r>   -7.1700    1.0000 </r>
       <r>   -7.1572    1.0000 </r>
       <r>   -7.1523    1.0000 </r>
       <r>   -7.1495    1.0000 </r>
       <r>   -7.1407    1.0000 </r>
       <r>   -7.1335    1.0000 </r>
       <r>   -7.1319    1.0000 </r>
       <r>   -7.1212    1.0000 </r>
       <r>   -7.1208    1.0000 </r>
       <r>   -7.1144    1.0000 </r>
       <r>   -7.1062    1.0000 </r>
       <r>   -7.0976    1.0000 </r>
       <r>   -7.0934    1.0000 </r>
       <r>   -7.0912    1.0000 </r>
       <r>   -7.0872    1.0000 </r>
       <r>   -7.0791    1.0000 </r>
       <r>   -7.0673    1.0000 </r>
       <r>   -6.9876    1.0000 </r>
       <r>   -6.8863    1.0000 </r>
       <r>   -3.2924    1.0000 </r>
       <r>   -3.2736    1.0000 </r>
       <r>   -3.2340    1.0000 </r>
       <r>   -3.1807    1.0000 </r>
       <r>   -3.1542    1.0000 </r>
       <r>   -3.1384    1.0000 </r>
       <r>   -3.1216    1.0000 </r>
       <r>   -3.0538    1.0000 </r>
       <r>   -2.9047    1.0000 </r>
       <r>   -2.5599    1.0000 </r>
       <r>   -2.4997    1.0000 </r>
       <r>   -2.4778    1.0000 </r>
       <r>   -2.4575    1.0000 </r>
       <r>   -2.3915    1.0000 </r>
       <r>   -2.3824    1.0000 </r>
       <r>   -2.1720    1.0000 </r>
       <r>   -2.1050    1.0000 </r>
       <r>   -2.0757    1.0000 </r>
       <r>   -2.0288    1.0000 </r>
       <r>   -2.0066    1.0000 </r>
       <r>   -2.0003    1.0000 </r>
       <r>   -1.9590    1.0000 </r>
       <r>   -1.9084    1.0000 </r>
       <r>   -1.8843    1.0000 </r>
       <r>   -1.8110    1.0000 </r>
       <r>   -1.7649    1.0000 </r>
       <r>   -1.7567    1.0000 </r>
       <r>   -1.6887    1.0000 </r>
       <r>   -1.6782    1.0000 </r>
       <r>   -1.6544    1.0000 </r>
       <r>   -1.5858    1.0000 </r>
       <r>   -1.5655    1.0000 </r>
       <r>   -1.5314    1.0000 </r>
       <r>   -1.4993    1.0000 </r>
       <r>   -1.4801    1.0000 </r>
       <r>   -1.4713    1.0000 </r>
       <r>   -1.4640    1.0000 </r>
       <r>   -1.4308    1.0000 </r>
       <r>   -1.4229    1.0000 </r>
       <r>   -1.4014    1.0000 </r>
       <r>   -1.3919    1.0000 </r>
       <r>   -1.3848    1.0000 </r>
       <r>   -1.3583    1.0000 </r>
       <r>   -1.3553    1.0000 </r>
       <r>   -1.3445    1.0000 </r>
       <r>   -1.3196    1.0000 </r>
       <r>   -1.3085    1.0000 </r>
       <r>   -1.2892    1.0000 </r>
       <r>   -1.2707    1.0000 </r>
       <r>   -1.2600    1.0000 </r>
       <r>   -1.2332    1.0000 </r>
       <r>   -1.2185    1.0000 </r>
       <r>   -1.1993    1.0000 </r>
       <r>   -1.1935    1.0000 </r>
       <r>   -1.1626    1.0000 </r>
       <r>   -1.1254    1.0000 </r>
       <r>   -1.1171    1.0000 </r>
       <r>   -1.1025    1.0000 </r>
       <r>   -1.0829    1.0000 </r>
       <r>   -1.0774    1.0000 </r>
       <r>   -1.0297    1.0000 </r>
       <r>   -0.8816    1.0000 </r>
       <r>   -0.8551    1.0000 </r>
       <r>   -0.7452    1.0000 </r>
       <r>   -0.6402    1.0000 </r>
       <r>   -0.6128    1.0000 </r>
       <r>   -0.4534    1.0000 </r>
       <r>   -0.1042    1.0000 </r>
       <r>    0.0202    1.0000 </r>
       <r>    2.5286    0.0000 </r>
       <r>    2.8874    0.0000 </r>
       <r>    2.9338    0.0000 </r>
       <r>    3.0651    0.0000 </r>
       <r>    3.2134    0.0000 </r>
       <r>    3.2686    0.0000 </r>
       <r>    3.3247    0.0000 </r>
       <r>    3.3490    0.0000 </r>
       <r>    3.4752    0.0000 </r>
       <r>    4.0246    0.0000 </r>
       <r>    4.4340    0.0000 </r>
       <r>    4.4706    0.0000 </r>
       <r>    4.6324    0.0000 </r>
       <r>    4.6397    0.0000 </r>
       <r>    4.8366    0.0000 </r>
       <r>    4.9101    0.0000 </r>
       <r>    5.1053    0.0000 </r>
       <r>    5.4474    0.0000 </r>
       <r>    5.6066    0.0000 </r>
       <r>    5.6640    0.0000 </r>
       <r>    5.7445    0.0000 </r>
       <r>    5.7583    0.0000 </r>
       <r>    5.8688    0.0000 </r>
       <r>    5.9251    0.0000 </r>
       <r>    6.0270    0.0000 </r>
       <r>    6.0914    0.0000 </r>
       <r>    6.1452    0.0000 </r>
       <r>    6.1782    0.0000 </r>
       <r>    6.2765    0.0000 </r>
       <r>    6.3422    0.0000 </r>
       <r>    6.3867    0.0000 </r>
       <r>    6.4779    0.0000 </r>
       <r>    6.5085    0.0000 </r>
       <r>    6.5826    0.0000 </r>
       <r>    6.6010    0.0000 </r>
       <r>    6.6437    0.0000 </r>
      </set>
      <set comment="kpoint 4">
       <r>  -20.9156    1.0000 </r>
       <r>  -20.8116    1.0000 </r>
       <r>  -20.7505    1.0000 </r>
       <r>  -20.7377    1.0000 </r>
       <r>  -20.7179    1.0000 </r>
       <r>  -20.7134    1.0000 </r>
       <r>  -20.7013    1.0000 </r>
       <r>  -20.6888    1.0000 </r>
       <r>  -16.6856    1.0000 </r>
       <r>  -16.6830    1.0000 </r>
       <r>  -16.6575    1.0000 </r>
       <r>  -16.6447    1.0000 </r>
       <r>  -16.6341    1.0000 </r>
       <r>  -16.5815    1.0000 </r>
       <r>  -16.5796    1.0000 </r>
       <r>  -16.5744    1.0000 </r>
       <r>  -16.5744    1.0000 </r>
       <r>  -16.5364    1.0000 </r>
       <r>  -16.5305    1.0000 </r>
       <r>  -16.5276    1.0000 </r>
       <r>  -16.4868    1.0000 </r>
       <r>  -16.4490    1.0000 </r>
       <r>  -16.4388    1.0000 </r>
       <r>  -16.4373    1.0000 </r>
       <r>  -16.4317    1.0000 </r>
       <r>  -16.4231    1.0000 </r>
       <r>  -16.4217    1.0000 </r>
       <r>  -16.4100    1.0000 </r>
       <r>  -16.4078    1.0000 </r>
       <r>  -16.3802    1.0000 </r>
       <r>  -16.3721    1.0000 </r>
       <r>  -16.3571    1.0000 </r>
       <r>  -16.3425    1.0000 </r>
       <r>  -16.3282    1.0000 </r>
       <r>  -16.3203    1.0000 </r>
       <r>  -16.3137    1.0000 </r>
       <r>  -16.3045    1.0000 </r>
       <r>  -16.2993    1.0000 </r>
       <r>  -16.2972    1.0000 </r>
       <r>  -16.2928    1.0000 </r>
       <r>  -16.2880    1.0000 </r>
       <r>  -16.2848    1.0000 </r>
       <r>  -16.2839    1.0000 </r>
       <r>  -16.2798    1.0000 </r>
       <r>  -16.2713    1.0000 </r>
       <r>  -16.2705    1.0000 </r>
       <r>  -16.2666    1.0000 </r>
       <r>  -16.2593    1.0000 </r>
       <r>  -14.4686    1.0000 </r>
       <r>  -14.3598    1.0000 </r>
       <r>  -14.3476    1.0000 </r>
       <r>  -14.2920    1.0000 </r>
       <r>  -14.2666    1.0000 </r>
       <r>  -14.1888    1.0000 </r>
       <r>  -14.1351    1.0000 </r>
       <r>  -14.1109    1.0000 </r>
       <r>  -14.0869    1.0000 </r>
       <r>  -14.0599    1.0000 </r>
       <r>  -14.0026    1.0000 </r>
       <r>  -13.9868    1.0000 </r>
       <r>  -13.9719    1.0000 </r>
       <r>  -13.9571    1.0000 </r>
       <r>  -13.9304    1.0000 </r>
       <r>  -13.9260    1.0000 </r>
       <r>  -13.9128    1.0000 </r>
       <r>  -13.8891    1.0000 </r>
       <r>  -13.8457    1.0000 </r>
       <r>  -13.8266    1.0000 </r>
       <r>  -13.8218    1.0000 </r>
       <r>  -13.7931    1.0000 </r>
       <r>  -13.7809    1.0000 </r>
       <r>   -7.8805    1.0000 </r>
       <r>   -7.7528    1.0000 </r>
       <r>   -7.7343    1.0000 </r>
       <r>   -7.7081    1.0000 </r>
       <r>   -7.4947    1.0000 </r>
       <r>   -7.3609    1.0000 </r>
       <r>   -7.3079    1.0000 </r>
       <r>   -7.2968    1.0000 </r>
       <r>   -7.2766    1.0000 </r>
       <r>   -7.2477    1.0000 </r>
       <r>   -7.2251    1.0000 </r>
       <r>   -7.2195    1.0000 </r>
       <r>   -7.1999    1.0000 </r>
       <r>   -7.1918    1.0000 </r>
       <r>   -7.1803    1.0000 </r>
       <r>   -7.1646    1.0000 </r>
       <r>   -7.1564    1.0000 </r>
       <r>   -7.1515    1.0000 </r>
       <r>   -7.1379    1.0000 </r>
       <r>   -7.1360    1.0000 </r>
       <r>   -7.1263    1.0000 </r>
       <r>   -7.1248    1.0000 </r>
       <r>   -7.1167    1.0000 </r>
       <r>   -7.1154    1.0000 </r>
       <r>   -7.1109    1.0000 </r>
       <r>   -7.1014    1.0000 </r>
       <r>   -7.0977    1.0000 </r>
       <r>   -7.0895    1.0000 </r>
       <r>   -7.0829    1.0000 </r>
       <r>   -7.0706    1.0000 </r>
       <r>   -7.0626    1.0000 </r>
       <r>   -7.0380    1.0000 </r>
       <r>   -3.2345    1.0000 </r>
       <r>   -3.2058    1.0000 </r>
       <r>   -3.1488    1.0000 </r>
       <r>   -3.0800    1.0000 </r>
       <r>   -2.9602    1.0000 </r>
       <r>   -2.7050    1.0000 </r>
       <r>   -2.6653    1.0000 </r>
       <r>   -2.6632    1.0000 </r>
       <r>   -2.6029    1.0000 </r>
       <r>   -2.5883    1.0000 </r>
       <r>   -2.5410    1.0000 </r>
       <r>   -2.4366    1.0000 </r>
       <r>   -2.4156    1.0000 </r>
       <r>   -2.3930    1.0000 </r>
       <r>   -2.3631    1.0000 </r>
       <r>   -2.3342    1.0000 </r>
       <r>   -2.3155    1.0000 </r>
       <r>   -2.3049    1.0000 </r>
       <r>   -2.2976    1.0000 </r>
       <r>   -2.1052    1.0000 </r>
       <r>   -2.0248    1.0000 </r>
       <r>   -2.0151    1.0000 </r>
       <r>   -1.9783    1.0000 </r>
       <r>   -1.9083    1.0000 </r>
       <r>   -1.8131    1.0000 </r>
       <r>   -1.8070    1.0000 </r>
       <r>   -1.7581    1.0000 </r>
       <r>   -1.7430    1.0000 </r>
       <r>   -1.7226    1.0000 </r>
       <r>   -1.6747    1.0000 </r>
       <r>   -1.6658    1.0000 </r>
       <r>   -1.6459    1.0000 </r>
       <r>   -1.6214    1.0000 </r>
       <r>   -1.5966    1.0000 </r>
       <r>   -1.5807    1.0000 </r>
       <r>   -1.5272    1.0000 </r>
       <r>   -1.5070    1.0000 </r>
       <r>   -1.4976    1.0000 </r>
       <r>   -1.4637    1.0000 </r>
       <r>   -1.4447    1.0000 </r>
       <r>   -1.4303    1.0000 </r>
       <r>   -1.3852    1.0000 </r>
       <r>   -1.3629    1.0000 </r>
       <r>   -1.3314    1.0000 </r>
       <r>   -1.3111    1.0000 </r>
       <r>   -1.2872    1.0000 </r>
       <r>   -1.2792    1.0000 </r>
       <r>   -1.2625    1.0000 </r>
       <r>   -1.2471    1.0000 </r>
       <r>   -1.2312    1.0000 </r>
       <r>   -1.1956    1.0000 </r>
       <r>   -1.1744    1.0000 </r>
       <r>   -1.1705    1.0000 </r>
       <r>   -1.1578    1.0000 </r>
       <r>   -1.1533    1.0000 </r>
       <r>   -1.1342    1.0000 </r>
       <r>   -1.1273    1.0000 </r>
       <r>   -1.1140    1.0000 </r>
       <r>   -1.0990    1.0000 </r>
       <r>   -1.0799    1.0000 </r>
       <r>   -1.0473    1.0000 </r>
       <r>   -0.9527    1.0000 </r>
       <r>   -0.9106    1.0000 </r>
       <r>   -0.8583    1.0000 </r>
       <r>   -0.8538    1.0000 </r>
       <r>   -0.5990    1.0000 </r>
       <r>   -0.4561    1.0000 </r>
       <r>   -0.4303    1.0000 </r>
       <r>   -0.4082    1.0000 </r>
       <r>    2.5746    0.0000 </r>
       <r>    3.1288    0.0000 </r>
       <r>    3.1605    0.0000 </r>
       <r>    3.2033    0.0000 </r>
       <r>    3.3637    0.0000 </r>
       <r>    4.0080    0.0000 </r>
       <r>    4.2798    0.0000 </r>
       <r>    4.3074    0.0000 </r>
       <r>    4.3707    0.0000 </r>
       <r>    4.3797    0.0000 </r>
       <r>    4.4867    0.0000 </r>
       <r>    4.5194    0.0000 </r>
       <r>    4.5592    0.0000 </r>
       <r>    4.5753    0.0000 </r>
       <r>    4.6110    0.0000 </r>
       <r>    4.6612    0.0000 </r>
       <r>    4.7348    0.0000 </r>
       <r>    4.7630    0.0000 </r>
       <r>    4.8986    0.0000 </r>
       <r>    4.9056    0.0000 </r>
       <r>    5.1433    0.0000 </r>
       <r>    5.6730    0.0000 </r>
       <r>    5.7697    0.0000 </r>
       <r>    5.8148    0.0000 </r>
       <r>    5.9342    0.0000 </r>
       <r>    5.9764    0.0000 </r>
       <r>    6.0730    0.0000 </r>
       <r>    6.1203    0.0000 </r>
       <r>    6.1822    0.0000 </r>
       <r>    6.2838    0.0000 </r>
       <r>    6.3134    0.0000 </r>
       <r>    6.3830    0.0000 </r>
       <r>    6.4791    0.0000 </r>
       <r>    6.4856    0.0000 </r>
       <r>    6.5349    0.0000 </r>
       <r>    6.6154    0.0000 </r>
      </set>
      <set comment="kpoint 5">
       <r>  -20.9156    1.0000 </r>
       <r>  -20.8117    1.0000 </r>
       <r>  -20.7505    1.0000 </r>
       <r>  -20.7378    1.0000 </r>
       <r>  -20.7179    1.0000 </r>
       <r>  -20.7133    1.0000 </r>
       <r>  -20.7014    1.0000 </r>
       <r>  -20.6888    1.0000 </r>
       <r>  -16.6866    1.0000 </r>
       <r>  -16.6837    1.0000 </r>
       <r>  -16.6625    1.0000 </r>
       <r>  -16.6443    1.0000 </r>
       <r>  -16.6345    1.0000 </r>
       <r>  -16.5814    1.0000 </r>
       <r>  -16.5797    1.0000 </r>
       <r>  -16.5744    1.0000 </r>
       <r>  -16.5743    1.0000 </r>
       <r>  -16.5364    1.0000 </r>
       <r>  -16.5311    1.0000 </r>
       <r>  -16.5304    1.0000 </r>
       <r>  -16.4869    1.0000 </r>
       <r>  -16.4607    1.0000 </r>
       <r>  -16.4491    1.0000 </r>
       <r>  -16.4439    1.0000 </r>
       <r>  -16.4352    1.0000 </r>
       <r>  -16.4275    1.0000 </r>
       <r>  -16.4075    1.0000 </r>
       <r>  -16.4021    1.0000 </r>
       <r>  -16.3878    1.0000 </r>
       <r>  -16.3743    1.0000 </r>
       <r>  -16.3686    1.0000 </r>
       <r>  -16.3583    1.0000 </r>
       <r>  -16.3426    1.0000 </r>
       <r>  -16.3281    1.0000 </r>
       <r>  -16.3203    1.0000 </r>
       <r>  -16.3136    1.0000 </r>
       <r>  -16.3045    1.0000 </r>
       <r>  -16.2994    1.0000 </r>
       <r>  -16.2971    1.0000 </r>
       <r>  -16.2928    1.0000 </r>
       <r>  -16.2880    1.0000 </r>
       <r>  -16.2847    1.0000 </r>
       <r>  -16.2840    1.0000 </r>
       <r>  -16.2799    1.0000 </r>
       <r>  -16.2713    1.0000 </r>
       <r>  -16.2705    1.0000 </r>
       <r>  -16.2665    1.0000 </r>
       <r>  -16.2593    1.0000 </r>
       <r>  -14.4755    1.0000 </r>
       <r>  -14.3866    1.0000 </r>
       <r>  -14.3287    1.0000 </r>
       <r>  -14.2806    1.0000 </r>
       <r>  -14.2099    1.0000 </r>
       <r>  -14.1340    1.0000 </r>
       <r>  -14.1257    1.0000 </r>
       <r>  -14.0828    1.0000 </r>
       <r>  -14.0812    1.0000 </r>
       <r>  -14.0709    1.0000 </r>
       <r>  -14.0534    1.0000 </r>
       <r>  -14.0425    1.0000 </r>
       <r>  -14.0405    1.0000 </r>
       <r>  -14.0222    1.0000 </r>
       <r>  -13.9570    1.0000 </r>
       <r>  -13.9379    1.0000 </r>
       <r>  -13.9114    1.0000 </r>
       <r>  -13.8564    1.0000 </r>
       <r>  -13.8415    1.0000 </r>
       <r>  -13.8248    1.0000 </r>
       <r>  -13.7897    1.0000 </r>
       <r>  -13.7820    1.0000 </r>
       <r>  -13.7312    1.0000 </r>
       <r>   -8.0598    1.0000 </r>
       <r>   -7.9697    1.0000 </r>
       <r>   -7.6456    1.0000 </r>
       <r>   -7.5133    1.0000 </r>
       <r>   -7.4857    1.0000 </r>
       <r>   -7.4449    1.0000 </r>
       <r>   -7.3623    1.0000 </r>
       <r>   -7.2995    1.0000 </r>
       <r>   -7.2792    1.0000 </r>
       <r>   -7.2458    1.0000 </r>
       <r>   -7.2128    1.0000 </r>
       <r>   -7.2009    1.0000 </r>
       <r>   -7.1778    1.0000 </r>
       <r>   -7.1702    1.0000 </r>
       <r>   -7.1625    1.0000 </r>
       <r>   -7.1524    1.0000 </r>
       <r>   -7.1450    1.0000 </r>
       <r>   -7.1383    1.0000 </r>
       <r>   -7.1334    1.0000 </r>
       <r>   -7.1311    1.0000 </r>
       <r>   -7.1218    1.0000 </r>
       <r>   -7.1193    1.0000 </r>
       <r>   -7.1185    1.0000 </r>
       <r>   -7.1108    1.0000 </r>
       <r>   -7.1026    1.0000 </r>
       <r>   -7.0922    1.0000 </r>
       <r>   -7.0882    1.0000 </r>
       <r>   -7.0830    1.0000 </r>
       <r>   -7.0777    1.0000 </r>
       <r>   -7.0675    1.0000 </r>
       <r>   -6.9361    1.0000 </r>
       <r>   -6.8459    1.0000 </r>
       <r>   -3.3805    1.0000 </r>
       <r>   -3.2939    1.0000 </r>
       <r>   -3.2700    1.0000 </r>
       <r>   -3.2509    1.0000 </r>
       <r>   -3.2176    1.0000 </r>
       <r>   -3.1619    1.0000 </r>
       <r>   -3.1485    1.0000 </r>
       <r>   -3.1090    1.0000 </r>
       <r>   -2.9123    1.0000 </r>
       <r>   -2.5275    1.0000 </r>
       <r>   -2.5126    1.0000 </r>
       <r>   -2.4732    1.0000 </r>
       <r>   -2.4028    1.0000 </r>
       <r>   -2.3896    1.0000 </r>
       <r>   -2.3326    1.0000 </r>
       <r>   -2.1613    1.0000 </r>
       <r>   -2.1040    1.0000 </r>
       <r>   -2.0681    1.0000 </r>
       <r>   -2.0366    1.0000 </r>
       <r>   -2.0213    1.0000 </r>
       <r>   -1.9868    1.0000 </r>
       <r>   -1.9455    1.0000 </r>
       <r>   -1.8998    1.0000 </r>
       <r>   -1.8493    1.0000 </r>
       <r>   -1.8302    1.0000 </r>
       <r>   -1.7736    1.0000 </r>
       <r>   -1.7064    1.0000 </r>
       <r>   -1.6721    1.0000 </r>
       <r>   -1.6059    1.0000 </r>
       <r>   -1.5912    1.0000 </r>
       <r>   -1.5632    1.0000 </r>
       <r>   -1.5449    1.0000 </r>
       <r>   -1.5349    1.0000 </r>
       <r>   -1.5194    1.0000 </r>
       <r>   -1.4951    1.0000 </r>
       <r>   -1.4782    1.0000 </r>
       <r>   -1.4535    1.0000 </r>
       <r>   -1.4447    1.0000 </r>
       <r>   -1.4220    1.0000 </r>
       <r>   -1.4186    1.0000 </r>
       <r>   -1.3998    1.0000 </r>
       <r>   -1.3915    1.0000 </r>
       <r>   -1.3609    1.0000 </r>
       <r>   -1.3604    1.0000 </r>
       <r>   -1.3341    1.0000 </r>
       <r>   -1.3253    1.0000 </r>
       <r>   -1.3075    1.0000 </r>
       <r>   -1.2985    1.0000 </r>
       <r>   -1.2795    1.0000 </r>
       <r>   -1.2675    1.0000 </r>
       <r>   -1.2488    1.0000 </r>
       <r>   -1.2274    1.0000 </r>
       <r>   -1.2098    1.0000 </r>
       <r>   -1.1831    1.0000 </r>
       <r>   -1.1598    1.0000 </r>
       <r>   -1.1369    1.0000 </r>
       <r>   -1.1315    1.0000 </r>
       <r>   -1.0872    1.0000 </r>
       <r>   -1.0762    1.0000 </r>
       <r>   -1.0372    1.0000 </r>
       <r>   -0.9866    1.0000 </r>
       <r>   -0.9069    1.0000 </r>
       <r>   -0.8891    1.0000 </r>
       <r>   -0.7054    1.0000 </r>
       <r>   -0.6073    1.0000 </r>
       <r>   -0.5376    1.0000 </r>
       <r>   -0.4662    1.0000 </r>
       <r>   -0.0374    1.0000 </r>
       <r>    0.0284    1.0000 </r>
       <r>    2.6357    0.0000 </r>
       <r>    2.8647    0.0000 </r>
       <r>    2.9336    0.0000 </r>
       <r>    2.9699    0.0000 </r>
       <r>    3.1320    0.0000 </r>
       <r>    3.2438    0.0000 </r>
       <r>    3.3204    0.0000 </r>
       <r>    3.3546    0.0000 </r>
       <r>    3.4748    0.0000 </r>
       <r>    4.0377    0.0000 </r>
       <r>    4.3142    0.0000 </r>
       <r>    4.3849    0.0000 </r>
       <r>    4.5407    0.0000 </r>
       <r>    4.6124    0.0000 </r>
       <r>    4.7712    0.0000 </r>
       <r>    4.8435    0.0000 </r>
       <r>    4.9788    0.0000 </r>
       <r>    5.4057    0.0000 </r>
       <r>    5.5861    0.0000 </r>
       <r>    5.6780    0.0000 </r>
       <r>    5.6867    0.0000 </r>
       <r>    5.8758    0.0000 </r>
       <r>    5.9639    0.0000 </r>
       <r>    6.0566    0.0000 </r>
       <r>    6.0963    0.0000 </r>
       <r>    6.1312    0.0000 </r>
       <r>    6.1670    0.0000 </r>
       <r>    6.2346    0.0000 </r>
       <r>    6.2561    0.0000 </r>
       <r>    6.3006    0.0000 </r>
       <r>    6.3396    0.0000 </r>
       <r>    6.3817    0.0000 </r>
       <r>    6.4887    0.0000 </r>
       <r>    6.5543    0.0000 </r>
       <r>    6.5732    0.0000 </r>
       <r>    6.6125    0.0000 </r>
      </set>
      <set comment="kpoint 6">
       <r>  -20.9156    1.0000 </r>
       <r>  -20.8116    1.0000 </r>
       <r>  -20.7505    1.0000 </r>
       <r>  -20.7377    1.0000 </r>
       <r>  -20.7179    1.0000 </r>
       <r>  -20.7133    1.0000 </r>
       <r>  -20.7014    1.0000 </r>
       <r>  -20.6888    1.0000 </r>
       <r>  -16.6860    1.0000 </r>
       <r>  -16.6830    1.0000 </r>
       <r>  -16.6602    1.0000 </r>
       <r>  -16.6424    1.0000 </r>
       <r>  -16.6343    1.0000 </r>
       <r>  -16.5814    1.0000 </r>
       <r>  -16.5797    1.0000 </r>
       <r>  -16.5744    1.0000 </r>
       <r>  -16.5743    1.0000 </r>
       <r>  -16.5364    1.0000 </r>
       <r>  -16.5305    1.0000 </r>
       <r>  -16.5276    1.0000 </r>
       <r>  -16.4868    1.0000 </r>
       <r>  -16.4577    1.0000 </r>
       <r>  -16.4491    1.0000 </r>
       <r>  -16.4358    1.0000 </r>
       <r>  -16.4335    1.0000 </r>
       <r>  -16.4244    1.0000 </r>
       <r>  -16.4106    1.0000 </r>
       <r>  -16.4048    1.0000 </r>
       <r>  -16.3974    1.0000 </r>
       <r>  -16.3824    1.0000 </r>
       <r>  -16.3705    1.0000 </r>
       <r>  -16.3606    1.0000 </r>
       <r>  -16.3425    1.0000 </r>
       <r>  -16.3282    1.0000 </r>
       <r>  -16.3203    1.0000 </r>
       <r>  -16.3137    1.0000 </r>
       <r>  -16.3045    1.0000 </r>
       <r>  -16.2994    1.0000 </r>
       <r>  -16.2971    1.0000 </r>
       <r>  -16.2928    1.0000 </r>
       <r>  -16.2880    1.0000 </r>
       <r>  -16.2847    1.0000 </r>
       <r>  -16.2839    1.0000 </r>
       <r>  -16.2799    1.0000 </r>
       <r>  -16.2713    1.0000 </r>
       <r>  -16.2705    1.0000 </r>
       <r>  -16.2666    1.0000 </r>
       <r>  -16.2593    1.0000 </r>
       <r>  -14.4712    1.0000 </r>
       <r>  -14.3728    1.0000 </r>
       <r>  -14.3280    1.0000 </r>
       <r>  -14.3017    1.0000 </r>
       <r>  -14.2408    1.0000 </r>
       <r>  -14.1743    1.0000 </r>
       <r>  -14.1264    1.0000 </r>
       <r>  -14.1238    1.0000 </r>
       <r>  -14.0751    1.0000 </r>
       <r>  -14.0735    1.0000 </r>
       <r>  -14.0417    1.0000 </r>
       <r>  -14.0399    1.0000 </r>
       <r>  -14.0276    1.0000 </r>
       <r>  -13.9080    1.0000 </r>
       <r>  -13.9051    1.0000 </r>
       <r>  -13.9032    1.0000 </r>
       <r>  -13.8731    1.0000 </r>
       <r>  -13.8583    1.0000 </r>
       <r>  -13.8452    1.0000 </r>
       <r>  -13.8374    1.0000 </r>
       <r>  -13.8318    1.0000 </r>
       <r>  -13.8145    1.0000 </r>
       <r>  -13.7884    1.0000 </r>
       <r>   -7.9025    1.0000 </r>
       <r>   -7.7784    1.0000 </r>
       <r>   -7.7491    1.0000 </r>
       <r>   -7.7305    1.0000 </r>
       <r>   -7.4645    1.0000 </r>
       <r>   -7.3665    1.0000 </r>
       <r>   -7.3114    1.0000 </r>
       <r>   -7.2873    1.0000 </r>
       <r>   -7.2729    1.0000 </r>
       <r>   -7.2617    1.0000 </r>
       <r>   -7.2205    1.0000 </r>
       <r>   -7.2110    1.0000 </r>
       <r>   -7.2090    1.0000 </r>
       <r>   -7.1909    1.0000 </r>
       <r>   -7.1722    1.0000 </r>
       <r>   -7.1635    1.0000 </r>
       <r>   -7.1432    1.0000 </r>
       <r>   -7.1380    1.0000 </r>
       <r>   -7.1340    1.0000 </r>
       <r>   -7.1280    1.0000 </r>
[...]
        <r>  0.0000  0.0017  0.0008 </r>
        <r>  0.0006  0.0018  0.0009 </r>
        <r>  0.0001  0.0016  0.0005 </r>
        <r>  0.0009  0.0022  0.0011 </r>
        <r>  0.0002  0.0014  0.0010 </r>
        <r>  0.0010  0.0012  0.0013 </r>
        <r>  0.0001  0.0052  0.0005 </r>
        <r>  0.0001  0.0047  0.0007 </r>
        <r>  0.0000  0.0024  0.0005 </r>
       </set>
       <set comment="band 199">
        <r>  0.0001  0.0007  0.0045 </r>
        <r>  0.0019  0.0007  0.0055 </r>
        <r>  0.0005  0.0010  0.0075 </r>
        <r>  0.0001  0.0001  0.0004 </r>
        <r>  0.0035  0.0001  0.0120 </r>
        <r>  0.0061  0.0012  0.0143 </r>
        <r>  0.0031  0.0005  0.0115 </r>
        <r>  0.0009  0.0012  0.0063 </r>
        <r>  0.0000  0.0011  0.0000 </r>
        <r>  0.0005  0.0054  0.0007 </r>
        <r>  0.0000  0.0023  0.0002 </r>
        <r>  0.0000  0.0050  0.0002 </r>
        <r>  0.0000  0.0057  0.0006 </r>
        <r>  0.0000  0.0042  0.0001 </r>
        <r>  0.0001  0.0005  0.0002 </r>
        <r>  0.0001  0.0079  0.0009 </r>
        <r>  0.0001  0.0016  0.0003 </r>
        <r>  0.0003  0.0023  0.0003 </r>
        <r>  0.0004  0.0017  0.0020 </r>
        <r>  0.0040  0.0034  0.0029 </r>
        <r>  0.0001  0.0008  0.0009 </r>
        <r>  0.0000  0.0053  0.0017 </r>
        <r>  0.0000  0.0023  0.0003 </r>
        <r>  0.0010  0.0017  0.0013 </r>
        <r>  0.0004  0.0059  0.0008 </r>
        <r>  0.0003  0.0001  0.0005 </r>
        <r>  0.0010  0.0012  0.0017 </r>
        <r>  0.0002  0.0016  0.0005 </r>
        <r>  0.0004  0.0017  0.0004 </r>
        <r>  0.0003  0.0023  0.0009 </r>
        <r>  0.0000  0.0010  0.0001 </r>
        <r>  0.0027  0.0010  0.0027 </r>
        <r>  0.0015  0.0012  0.0008 </r>
        <r>  0.0000  0.0027  0.0006 </r>
        <r>  0.0001  0.0006  0.0023 </r>
        <r>  0.0000  0.0026  0.0002 </r>
        <r>  0.0002  0.0004  0.0009 </r>
        <r>  0.0005  0.0011  0.0010 </r>
        <r>  0.0002  0.0026  0.0010 </r>
       </set>
       <set comment="band 200">
        <r>  0.0098  0.0010  0.0044 </r>
        <r>  0.0002  0.0005  0.0110 </r>
        <r>  0.0003  0.0001  0.0026 </r>
        <r>  0.0033  0.0012  0.0117 </r>
        <r>  0.0016  0.0017  0.0032 </r>
        <r>  0.0014  0.0006  0.0011 </r>
        <r>  0.0007  0.0009  0.0096 </r>
        <r>  0.0001  0.0007  0.0080 </r>
        <r>  0.0000  0.0019  0.0001 </r>
        <r>  0.0003  0.0026  0.0002 </r>
        <r>  0.0000  0.0053  0.0001 </r>
        <r>  0.0000  0.0025  0.0001 </r>
        <r>  0.0000  0.0108  0.0001 </r>
        <r>  0.0000  0.0007  0.0001 </r>
        <r>  0.0001  0.0045  0.0001 </r>
        <r>  0.0000  0.0234  0.0006 </r>
        <r>  0.0005  0.0084  0.0013 </r>
        <r>  0.0005  0.0006  0.0002 </r>
        <r>  0.0002  0.0022  0.0001 </r>
        <r>  0.0028  0.0048  0.0016 </r>
        <r>  0.0000  0.0009  0.0009 </r>
        <r>  0.0019  0.0010  0.0016 </r>
        <r>  0.0000  0.0012  0.0016 </r>
        <r>  0.0013  0.0008  0.0021 </r>
        <r>  0.0005  0.0008  0.0009 </r>
        <r>  0.0007  0.0001  0.0003 </r>
        <r>  0.0000  0.0019  0.0003 </r>
        <r>  0.0000  0.0024  0.0006 </r>
        <r>  0.0000  0.0017  0.0004 </r>
        <r>  0.0010  0.0019  0.0014 </r>
        <r>  0.0010  0.0009  0.0007 </r>
        <r>  0.0001  0.0036  0.0004 </r>
        <r>  0.0009  0.0013  0.0002 </r>
        <r>  0.0000  0.0018  0.0009 </r>
        <r>  0.0007  0.0034  0.0007 </r>
        <r>  0.0001  0.0057  0.0010 </r>
        <r>  0.0032  0.0087  0.0013 </r>
        <r>  0.0005  0.0026  0.0005 </r>
        <r>  0.0000  0.0003  0.0018 </r>
       </set>
       <set comment="band 201">
        <r>  0.0036  0.0004  0.0104 </r>
        <r>  0.0035  0.0004  0.0050 </r>
        <r>  0.0081  0.0001  0.0181 </r>
        <r>  0.0023  0.0005  0.0048 </r>
        <r>  0.0002  0.0002  0.0048 </r>
        <r>  0.0004  0.0006  0.0064 </r>
        <r>  0.0001  0.0010  0.0024 </r>
        <r>  0.0001  0.0017  0.0162 </r>
        <r>  0.0000  0.0024  0.0003 </r>
        <r>  0.0000  0.0090  0.0007 </r>
        <r>  0.0000  0.0011  0.0002 </r>
        <r>  0.0000  0.0040  0.0002 </r>
        <r>  0.0000  0.0066  0.0002 </r>
        <r>  0.0001  0.0014  0.0002 </r>
        <r>  0.0000  0.0045  0.0003 </r>
        <r>  0.0001  0.0005  0.0004 </r>
        <r>  0.0021  0.0014  0.0022 </r>
        <r>  0.0015  0.0038  0.0025 </r>
        <r>  0.0000  0.0020  0.0009 </r>
        <r>  0.0000  0.0034  0.0007 </r>
        <r>  0.0004  0.0042  0.0011 </r>
        <r>  0.0007  0.0026  0.0019 </r>
        <r>  0.0009  0.0014  0.0011 </r>
        <r>  0.0000  0.0013  0.0005 </r>
        <r>  0.0011  0.0005  0.0005 </r>
        <r>  0.0003  0.0023  0.0006 </r>
        <r>  0.0007  0.0032  0.0010 </r>
        <r>  0.0003  0.0018  0.0012 </r>
        <r>  0.0007  0.0023  0.0011 </r>
        <r>  0.0002  0.0026  0.0004 </r>
        <r>  0.0009  0.0008  0.0006 </r>
        <r>  0.0000  0.0017  0.0005 </r>
        <r>  0.0005  0.0032  0.0026 </r>
        <r>  0.0001  0.0005  0.0004 </r>
        <r>  0.0000  0.0029  0.0003 </r>
        <r>  0.0002  0.0005  0.0004 </r>
        <r>  0.0000  0.0027  0.0005 </r>
        <r>  0.0022  0.0012  0.0032 </r>
        <r>  0.0005  0.0027  0.0011 </r>
       </set>
       <set comment="band 202">
        <r>  0.0014  0.0020  0.0060 </r>
        <r>  0.0080  0.0022  0.0026 </r>
        <r>  0.0005  0.0005  0.0037 </r>
        <r>  0.0002  0.0001  0.0082 </r>
        <r>  0.0018  0.0009  0.0142 </r>
        <r>  0.0077  0.0001  0.0056 </r>
        <r>  0.0005  0.0010  0.0071 </r>
        <r>  0.0001  0.0006  0.0061 </r>
        <r>  0.0000  0.0012  0.0002 </r>
        <r>  0.0000  0.0119  0.0001 </r>
        <r>  0.0000  0.0070  0.0003 </r>
        <r>  0.0000  0.0067  0.0000 </r>
        <r>  0.0002  0.0063  0.0002 </r>
        <r>  0.0000  0.0028  0.0000 </r>
        <r>  0.0000  0.0025  0.0003 </r>
        <r>  0.0001  0.0108  0.0002 </r>
        <r>  0.0001  0.0050  0.0004 </r>
        <r>  0.0000  0.0015  0.0003 </r>
        <r>  0.0021  0.0015  0.0016 </r>
        <r>  0.0001  0.0038  0.0023 </r>
        <r>  0.0000  0.0031  0.0010 </r>
        <r>  0.0023  0.0034  0.0033 </r>
        <r>  0.0002  0.0029  0.0011 </r>
        <r>  0.0000  0.0032  0.0008 </r>
        <r>  0.0001  0.0026  0.0003 </r>
        <r>  0.0001  0.0021  0.0008 </r>
        <r>  0.0018  0.0020  0.0032 </r>
        <r>  0.0002  0.0023  0.0007 </r>
        <r>  0.0006  0.0001  0.0007 </r>
        <r>  0.0009  0.0007  0.0009 </r>
        <r>  0.0001  0.0020  0.0008 </r>
        <r>  0.0001  0.0010  0.0009 </r>
        <r>  0.0003  0.0041  0.0009 </r>
        <r>  0.0000  0.0007  0.0006 </r>
        <r>  0.0010  0.0013  0.0010 </r>
        <r>  0.0002  0.0008  0.0008 </r>
        <r>  0.0033  0.0044  0.0022 </r>
        <r>  0.0020  0.0004  0.0013 </r>
        <r>  0.0001  0.0012  0.0017 </r>
       </set>
       <set comment="band 203">
        <r>  0.0009  0.0013  0.0174 </r>
        <r>  0.0025  0.0008  0.0130 </r>
        <r>  0.0036  0.0003  0.0081 </r>
        <r>  0.0001  0.0005  0.0025 </r>
        <r>  0.0108  0.0002  0.0021 </r>
        <r>  0.0000  0.0017  0.0099 </r>
        <r>  0.0000  0.0001  0.0061 </r>
        <r>  0.0002  0.0005  0.0133 </r>
        <r>  0.0000  0.0068  0.0001 </r>
        <r>  0.0000  0.0042  0.0001 </r>
        <r>  0.0000  0.0036  0.0002 </r>
        <r>  0.0000  0.0016  0.0004 </r>
        <r>  0.0000  0.0093  0.0001 </r>
        <r>  0.0000  0.0111  0.0002 </r>
        <r>  0.0000  0.0011  0.0002 </r>
        <r>  0.0001  0.0032  0.0002 </r>
        <r>  0.0001  0.0001  0.0004 </r>
        <r>  0.0005  0.0068  0.0018 </r>
        <r>  0.0008  0.0042  0.0025 </r>
        <r>  0.0012  0.0009  0.0009 </r>
        <r>  0.0004  0.0026  0.0006 </r>
        <r>  0.0002  0.0005  0.0030 </r>
        <r>  0.0022  0.0016  0.0027 </r>
        <r>  0.0008  0.0033  0.0017 </r>
        <r>  0.0000  0.0013  0.0004 </r>
        <r>  0.0001  0.0007  0.0003 </r>
        <r>  0.0003  0.0006  0.0014 </r>
        <r>  0.0016  0.0018  0.0034 </r>
        <r>  0.0002  0.0045  0.0003 </r>
        <r>  0.0004  0.0008  0.0006 </r>
        <r>  0.0009  0.0015  0.0014 </r>
        <r>  0.0002  0.0011  0.0008 </r>
        <r>  0.0003  0.0010  0.0009 </r>
        <r>  0.0006  0.0005  0.0005 </r>
        <r>  0.0010  0.0018  0.0015 </r>
        <r>  0.0004  0.0001  0.0010 </r>
        <r>  0.0001  0.0015  0.0014 </r>
        <r>  0.0001  0.0036  0.0011 </r>
        <r>  0.0002  0.0010  0.0007 </r>
       </set>
       <set comment="band 204">
        <r>  0.0005  0.0003  0.0101 </r>
        <r>  0.0019  0.0003  0.0033 </r>
        <r>  0.0044  0.0014  0.0068 </r>
        <r>  0.0024  0.0010  0.0107 </r>
        <r>  0.0028  0.0012  0.0135 </r>
        <r>  0.0002  0.0006  0.0081 </r>
        <r>  0.0000  0.0008  0.0130 </r>
        <r>  0.0050  0.0016  0.0034 </r>
        <r>  0.0000  0.0010  0.0004 </r>
        <r>  0.0000  0.0032  0.0002 </r>
        <r>  0.0000  0.0029  0.0001 </r>
        <r>  0.0000  0.0042  0.0001 </r>
        <r>  0.0000  0.0063  0.0002 </r>
        <r>  0.0000  0.0034  0.0006 </r>
        <r>  0.0000  0.0150  0.0001 </r>
        <r>  0.0000  0.0017  0.0006 </r>
        <r>  0.0007  0.0027  0.0017 </r>
        <r>  0.0003  0.0051  0.0014 </r>
        <r>  0.0019  0.0053  0.0023 </r>
        <r>  0.0000  0.0025  0.0009 </r>
        <r>  0.0026  0.0028  0.0033 </r>
        <r>  0.0002  0.0010  0.0005 </r>
        <r>  0.0001  0.0045  0.0011 </r>
        <r>  0.0001  0.0041  0.0010 </r>
        <r>  0.0001  0.0003  0.0011 </r>
        <r>  0.0007  0.0014  0.0012 </r>
        <r>  0.0002  0.0013  0.0010 </r>
        <r>  0.0007  0.0008  0.0006 </r>
        <r>  0.0003  0.0022  0.0007 </r>
        <r>  0.0000  0.0014  0.0002 </r>
        <r>  0.0013  0.0022  0.0018 </r>
        <r>  0.0001  0.0003  0.0007 </r>
        <r>  0.0000  0.0019  0.0007 </r>
        <r>  0.0009  0.0003  0.0007 </r>
        <r>  0.0006  0.0021  0.0012 </r>
        <r>  0.0003  0.0038  0.0010 </r>
        <r>  0.0004  0.0008  0.0007 </r>
        <r>  0.0012  0.0008  0.0015 </r>
        <r>  0.0000  0.0011  0.0015 </r>
       </set>
       <set comment="band 205">
        <r>  0.0001  0.0003  0.0211 </r>
        <r>  0.0004  0.0002  0.0085 </r>
        <r>  0.0020  0.0005  0.0264 </r>
        <r>  0.0040  0.0001  0.0031 </r>
        <r>  0.0000  0.0006  0.0057 </r>
        <r>  0.0016  0.0006  0.0082 </r>
        <r>  0.0041  0.0014  0.0108 </r>
        <r>  0.0001  0.0006  0.0132 </r>
        <r>  0.0000  0.0014  0.0005 </r>
        <r>  0.0000  0.0011  0.0002 </r>
        <r>  0.0000  0.0081  0.0002 </r>
        <r>  0.0000  0.0069  0.0001 </r>
        <r>  0.0000  0.0021  0.0002 </r>
        <r>  0.0000  0.0007  0.0002 </r>
        <r>  0.0000  0.0050  0.0002 </r>
        <r>  0.0000  0.0103  0.0002 </r>
        <r>  0.0000  0.0029  0.0005 </r>
        <r>  0.0000  0.0000  0.0010 </r>
        <r>  0.0000  0.0029  0.0004 </r>
        <r>  0.0002  0.0015  0.0003 </r>
        <r>  0.0018  0.0004  0.0026 </r>
        <r>  0.0005  0.0004  0.0011 </r>
        <r>  0.0000  0.0005  0.0005 </r>
        <r>  0.0008  0.0009  0.0017 </r>
        <r>  0.0001  0.0023  0.0004 </r>
        <r>  0.0009  0.0007  0.0015 </r>
        <r>  0.0000  0.0010  0.0002 </r>
        <r>  0.0005  0.0034  0.0010 </r>
        <r>  0.0022  0.0025  0.0039 </r>
        <r>  0.0009  0.0012  0.0022 </r>
        <r>  0.0003  0.0027  0.0019 </r>
        <r>  0.0006  0.0026  0.0013 </r>
        <r>  0.0000  0.0013  0.0006 </r>
        <r>  0.0004  0.0001  0.0001 </r>
        <r>  0.0021  0.0037  0.0024 </r>
        <r>  0.0001  0.0011  0.0005 </r>
        <r>  0.0000  0.0025  0.0011 </r>
        <r>  0.0007  0.0023  0.0010 </r>
        <r>  0.0000  0.0007  0.0022 </r>
       </set>
       <set comment="band 206">
        <r>  0.0004  0.0005  0.0013 </r>
        <r>  0.0007  0.0001  0.0212 </r>
        <r>  0.0024  0.0000  0.0243 </r>
        <r>  0.0006  0.0004  0.0090 </r>
        <r>  0.0004  0.0000  0.0066 </r>
        <r>  0.0014  0.0005  0.0044 </r>
        <r>  0.0000  0.0009  0.0364 </r>
        <r>  0.0017  0.0000  0.0119 </r>
        <r>  0.0000  0.0055  0.0003 </r>
        <r>  0.0000  0.0018  0.0006 </r>
        <r>  0.0000  0.0052  0.0000 </r>
        <r>  0.0000  0.0056  0.0004 </r>
        <r>  0.0000  0.0013  0.0002 </r>
        <r>  0.0000  0.0055  0.0006 </r>
        <r>  0.0000  0.0066  0.0002 </r>
        <r>  0.0000  0.0015  0.0002 </r>
        <r>  0.0000  0.0013  0.0004 </r>
        <r>  0.0001  0.0001  0.0002 </r>
        <r>  0.0004  0.0009  0.0005 </r>
        <r>  0.0001  0.0002  0.0005 </r>
        <r>  0.0019  0.0021  0.0035 </r>
        <r>  0.0000  0.0019  0.0002 </r>
        <r>  0.0000  0.0003  0.0006 </r>
        <r>  0.0001  0.0022  0.0005 </r>
        <r>  0.0005  0.0007  0.0029 </r>
        <r>  0.0001  0.0026  0.0029 </r>
        <r>  0.0007  0.0031  0.0013 </r>
        <r>  0.0005  0.0001  0.0005 </r>
        <r>  0.0019  0.0006  0.0042 </r>
        <r>  0.0001  0.0009  0.0015 </r>
        <r>  0.0001  0.0030  0.0004 </r>
        <r>  0.0004  0.0020  0.0021 </r>
        <r>  0.0001  0.0003  0.0005 </r>
        <r>  0.0001  0.0039  0.0028 </r>
        <r>  0.0001  0.0025  0.0017 </r>
        <r>  0.0000  0.0011  0.0010 </r>
        <r>  0.0012  0.0008  0.0014 </r>
        <r>  0.0001  0.0009  0.0011 </r>
        <r>  0.0007  0.0001  0.0025 </r>
       </set>
       <set comment="band 207">
        <r>  0.0009  0.0000  0.0105 </r>
        <r>  0.0000  0.0002  0.0105 </r>
        <r>  0.0001  0.0017  0.0345 </r>
        <r>  0.0019  0.0003  0.0103 </r>
        <r>  0.0000  0.0002  0.0131 </r>
        <r>  0.0026  0.0001  0.0078 </r>
        <r>  0.0000  0.0013  0.0184 </r>
        <r>  0.0036  0.0005  0.0038 </r>
        <r>  0.0000  0.0055  0.0008 </r>
        <r>  0.0001  0.0005  0.0003 </r>
        <r>  0.0001  0.0038  0.0004 </r>
        <r>  0.0001  0.0043  0.0002 </r>
        <r>  0.0000  0.0050  0.0002 </r>
        <r>  0.0000  0.0032  0.0003 </r>
        <r>  0.0000  0.0067  0.0004 </r>
        <r>  0.0001  0.0048  0.0003 </r>
        <r>  0.0012  0.0010  0.0027 </r>
        <r>  0.0002  0.0030  0.0015 </r>
        <r>  0.0001  0.0018  0.0005 </r>
        <r>  0.0006  0.0008  0.0016 </r>
        <r>  0.0008  0.0016  0.0019 </r>
        <r>  0.0007  0.0023  0.0012 </r>
        <r>  0.0000  0.0003  0.0004 </r>
        <r>  0.0000  0.0008  0.0011 </r>
        <r>  0.0001  0.0005  0.0004 </r>
        <r>  0.0006  0.0011  0.0014 </r>
        <r>  0.0000  0.0004  0.0017 </r>
        <r>  0.0014  0.0005  0.0020 </r>
        <r>  0.0001  0.0032  0.0022 </r>
        <r>  0.0001  0.0012  0.0004 </r>
        <r>  0.0004  0.0006  0.0017 </r>
        <r>  0.0001  0.0009  0.0021 </r>
        <r>  0.0002  0.0024  0.0001 </r>
        <r>  0.0000  0.0052  0.0011 </r>
        <r>  0.0009  0.0016  0.0041 </r>
        <r>  0.0007  0.0015  0.0008 </r>
        <r>  0.0002  0.0014  0.0011 </r>
        <r>  0.0002  0.0018  0.0010 </r>
        <r>  0.0004  0.0010  0.0010 </r>
       </set>
       <set comment="band 208">
        <r>  0.0013  0.0002  0.0089 </r>
        <r>  0.0004  0.0004  0.0063 </r>
        <r>  0.0006  0.0005  0.0193 </r>
        <r>  0.0031  0.0003  0.0175 </r>
        <r>  0.0000  0.0001  0.0144 </r>
        <r>  0.0012  0.0002  0.0106 </r>
        <r>  0.0025  0.0010  0.0192 </r>
        <r>  0.0011  0.0001  0.0091 </r>
        <r>  0.0000  0.0147  0.0001 </r>
        <r>  0.0000  0.0124  0.0000 </r>
        <r>  0.0001  0.0002  0.0005 </r>
        <r>  0.0000  0.0008  0.0008 </r>
        <r>  0.0000  0.0034  0.0001 </r>
        <r>  0.0001  0.0125  0.0000 </r>
        <r>  0.0001  0.0016  0.0010 </r>
        <r>  0.0001  0.0029  0.0003 </r>
        <r>  0.0002  0.0013  0.0031 </r>
        <r>  0.0009  0.0017  0.0010 </r>
        <r>  0.0001  0.0004  0.0005 </r>
        <r>  0.0001  0.0010  0.0005 </r>
        <r>  0.0001  0.0004  0.0006 </r>
        <r>  0.0003  0.0008  0.0007 </r>
        <r>  0.0002  0.0013  0.0005 </r>
        <r>  0.0011  0.0008  0.0027 </r>
        <r>  0.0003  0.0004  0.0013 </r>
        <r>  0.0003  0.0024  0.0010 </r>
        <r>  0.0006  0.0028  0.0020 </r>
        <r>  0.0017  0.0035  0.0023 </r>
        <r>  0.0001  0.0010  0.0022 </r>
        <r>  0.0000  0.0024  0.0005 </r>
        <r>  0.0001  0.0005  0.0005 </r>
        <r>  0.0000  0.0026  0.0006 </r>
        <r>  0.0007  0.0011  0.0019 </r>
        <r>  0.0018  0.0019  0.0041 </r>
        <r>  0.0000  0.0029  0.0017 </r>
        <r>  0.0006  0.0006  0.0019 </r>
        <r>  0.0001  0.0006  0.0020 </r>
        <r>  0.0000  0.0027  0.0006 </r>
        <r>  0.0000  0.0003  0.0004 </r>
       </set>
      </set>
     </set>
    </set>
   </array>
  </projected>
 </calculation>
 <structure name="finalpos" >
  <crystal>
   <varray name="basis" >
    <v>       8.45648900       0.00000000       8.04030100 </v>
    <v>       0.00000000      11.72984700       0.00000000 </v>
    <v>      -8.45648900       0.00000000       8.04030100 </v>
   </varray>
   <i name="volume">   1595.08833419 </i>
   <varray name="rec_basis" >
    <v>       0.05912619      -0.00000000       0.06218673 </v>
    <v>       0.00000000       0.08525260      -0.00000000 </v>
    <v>      -0.05912619       0.00000000       0.06218673 </v>
   </varray>
  </crystal>
  <varray name="positions" >
   <v>       0.25293100       0.23806800       0.19547400 </v>
   <v>       0.77781400       0.24541600       0.71612000 </v>
   <v>       0.75723600       0.76186500       0.26035700 </v>
   <v>       0.19588600       0.74925700       0.77324300 </v>
   <v>       0.29384300       0.24965400       0.73133100 </v>
   <v>       0.78974100       0.24686600       0.22771700 </v>
   <v>       0.73615300       0.75241500       0.80405100 </v>
   <v>       0.21599800       0.75304800       0.28870900 </v>
   <v>       0.99881500       0.00050000       0.99829900 </v>
   <v>       0.49946900       0.00370100       0.49027400 </v>
   <v>       0.49574100       0.00111800       0.99567400 </v>
   <v>       0.00401100       0.00024800       0.50431100 </v>
   <v>       0.50134000       0.50366500       0.99924600 </v>
   <v>       0.00416600       0.49570400       0.50406300 </v>
   <v>       0.99981400       0.49858400       0.00058000 </v>
   <v>       0.50440400       0.48937000       0.50661400 </v>
   <v>       0.46772400       0.75095600       0.95507100 </v>
   <v>       0.97703400       0.74789200       0.48458600 </v>
   <v>       0.96908600       0.24977700       0.97600500 </v>
   <v>       0.45426100       0.24471100       0.45626600 </v>
   <v>       0.01958500       0.74968900       0.03142900 </v>
   <v>       0.52085400       0.25432600       0.03896400 </v>
   <v>       0.03646300       0.24813100       0.54199400 </v>
   <v>       0.24829600       0.46967600       0.95422900 </v>
   <v>       0.74988100       0.45787000       0.45526600 </v>
   <v>       0.94581700       0.52945200       0.75123100 </v>
   <v>       0.54782100       0.03428900       0.74344800 </v>
   <v>       0.03928700       0.02391800       0.25443700 </v>
   <v>       0.74906900       0.97657000       0.04208800 </v>
   <v>       0.25549300       0.95908100       0.54859200 </v>
   <v>       0.24473200       0.02971300       0.94168600 </v>
   <v>       0.74724300       0.03098600       0.44960200 </v>
   <v>       0.44020300       0.96895200       0.24118400 </v>
   <v>       0.94567000       0.96878500       0.74969200 </v>
   <v>       0.75008700       0.52947200       0.05534600 </v>
   <v>       0.25904800       0.53517000       0.55267500 </v>
   <v>       0.55370900       0.47178600       0.76137100 </v>
   <v>       0.05162700       0.46986300       0.25608600 </v>
   <v>       0.50143200       0.65933800       0.36449800 </v>
  </varray>
 </structure>
</modeling>
