CsPbBr3 cubic bulk                      
           1
     8.456489    0.000000    8.040301
     0.000000   11.729847    0.000000
    -8.456489    0.000000    8.040301
   Cs   Pb   Br
   8   8  23
Direct configuration=     1
   0.25293100  0.23806800  0.19547400
   0.77781400  0.24541600  0.71612000
   0.75723600  0.76186500  0.26035700
   0.19588600  0.74925700  0.77324300
   0.29384300  0.24965400  0.73133100
   0.78974100  0.24686600  0.22771700
   0.73615300  0.75241500  0.80405100
   0.21599800  0.75304800  0.28870900
   0.99881500  0.00050000  0.99829900
   0.49946900  0.00370100  0.49027400
   0.49574100  0.00111800  0.99567400
   0.00401100  0.00024800  0.50431100
   0.50134000  0.50366500  0.99924600
   0.00416600  0.49570400  0.50406300
   0.99981400  0.49858400  0.00058000
   0.50440400  0.48937000  0.50661400
   0.46772400  0.75095600  0.95507100
   0.97703400  0.74789200  0.48458600
   0.96908600  0.24977700  0.97600500
   0.45426100  0.24471100  0.45626600
   0.01958500  0.74968900  0.03142900
   0.52085400  0.25432600  0.03896400
   0.03646300  0.24813100  0.54199400
   0.24829600  0.46967600  0.95422900
   0.74988100  0.45787000  0.45526600
   0.94581700  0.52945200  0.75123100
   0.54782100  0.03428900  0.74344800
   0.03928700  0.02391800  0.25443700
   0.74906900  0.97657000  0.04208800
   0.25549300  0.95908100  0.54859200
   0.24473200  0.02971300  0.94168600
   0.74724300  0.03098600  0.44960200
   0.44020300  0.96895200  0.24118400
   0.94567000  0.96878500  0.74969200
   0.75008700  0.52947200  0.05534600
   0.25904800  0.53517000  0.55267500
   0.55370900  0.47178600  0.76137100
   0.05162700  0.46986300  0.25608600
   0.50143200  0.65933800  0.36449800
