 vasp.5.4.4.18Apr17-6-g9f103f2a35 (build Jun 22 2020 09:36:46) gamma-only        
 executed on tx2_gcc-7.3_libsci-1 date 2020.11.10  07:31:51
 running on  256 total cores
 distrk:  each k-point on  256 cores,    1 groups
 distr:  one band on NCORES_PER_BAND=  32 cores,    8 groups


--------------------------------------------------------------------------------------------------------


 INCAR:
 POTCAR:    PAW_PBE Cs_sv 08Apr2002               
 POTCAR:    PAW_PBE Pb_d 06Sep2000                
 POTCAR:    PAW_PBE Br 06Sep2000                  
 POTCAR:    PAW_PBE Cs_sv 08Apr2002               
 POTCAR:    PAW_PBE Pb_d 06Sep2000                
 POTCAR:    PAW_PBE Br 06Sep2000                  
 POTCAR:    PAW_PBE Cs_sv 08Apr2002               
   SHA256 =  c1463496f0f6037ed62c6012a8013a89ee9ad6ffb38599dcd6c079e7ed31779b Cs
   COPYR  = (c) Copyright 08Apr2002 Georg Kresse                                
   COPYR  = This file is part of the software VASP. Any use, copying, and all ot
   COPYR  = If you do not have a valid VASP license, you may not use, copy or di
   VRHFIN =Cs: 5s5p6s                                                           
   LEXCH  = PE                                                                  
   EATOM  =   555.6835 eV,   40.8416 Ry                                         
                                                                                
   TITEL  = PAW_PBE Cs_sv 08Apr2002                                             
   LULTRA =        F    use ultrasoft PP ?                                      
   IUNSCR =        1    unscreen: 0-lin 1-nonlin 2-no                           
   RPACOR =    2.200    partial core radius                                     
   POMASS =  132.900; ZVAL   =    9.000    mass and valenz                      
   RCORE  =    2.500    outmost cutoff radius                                   
   RWIGS  =    2.500; RWIGS  =    1.323    wigner-seitz radius (au A)           
   ENMAX  =  220.318; ENMIN  =  165.238 eV                                      
   RCLOC  =    2.207    cutoff for local pot                                    
   LCOR   =        T    correct aug charges                                     
   LPAW   =        T    paw PP                                                  
   EAUG   =  407.933                                                            
   DEXC   =    0.000                                                            
   RMAX   =    2.554    core radius for proj-oper                               
   RAUG   =    1.300    factor for augmentation sphere                          
   RDEP   =    2.590    radius for radial grids                                 
   RDEPT  =    2.117    core radius for aug-charge                              
                                                                                
   Atomic configuration                                                         
   13 entries                                                                   
     n  l   j            E        occ.                                          
     1  0  0.50    -35790.1377   2.0000                                         
     2  0  0.50     -5613.6201   2.0000                                         
     2  1  1.50     -5035.0101   6.0000                                         
     3  0  0.50     -1167.0767   2.0000                                         
     3  1  1.50      -980.9754   6.0000                                         
     3  2  2.50      -708.0703  10.0000                                         
     4  0  0.50      -220.2386   2.0000                                         
     4  1  1.50      -160.7596   6.0000                                         
     4  2  2.50       -74.2354  10.0000                                         
     5  0  0.50       -26.7287   2.0000                                         
     6  0  0.50        -2.0862   1.0000                                         
     5  1  1.50       -13.5159   6.0000                                         
     5  2  2.50        -0.4136   0.0000                                         
   Description                                                                  
     l       E           TYP  RCUT    TYP  RCUT                                 
     0    -26.7287425     23  1.900                                             
     0     -2.0862306     23  1.900                                             
     1    -13.5158719     23  2.500                                             
     1     -2.7211652     23  2.500                                             
     2     -0.4136171     23  2.500                                             
  local pseudopotential read in
  partial core-charges read in
  partial kinetic energy density read in
  atomic valenz-charges read in
  non local Contribution for L=           0  read in
    real space projection operators read in
  non local Contribution for L=           0  read in
    real space projection operators read in
  non local Contribution for L=           1  read in
    real space projection operators read in
  non local Contribution for L=           1  read in
    real space projection operators read in
  non local Contribution for L=           2  read in
    real space projection operators read in
    PAW grid and wavefunctions read in

   number of l-projection  operators is LMAX  =           5
   number of lm-projection operators is LMMAX =          13

 POTCAR:    PAW_PBE Pb_d 06Sep2000                
   SHA256 =  fb885b08f0fba73a15f6a6b0e39bd200c13ec96ef97cf3ecd8e63bade5137abd Pb
   COPYR  = (c) Copyright 06Sep2000 Georg Kresse                                
   COPYR  = This file is part of the software VASP. Any use, copying, and all ot
   COPYR  = If you do not have a valid VASP license, you may not use, copy or di
   VRHFIN =Pb:                                                                  
   LEXCH  = PE                                                                  
   EATOM  =  1661.6185 eV,  122.1255 Ry                                         
                                                                                
   TITEL  = PAW_PBE Pb_d 06Sep2000                                              
   LULTRA =        F    use ultrasoft PP ?                                      
   IUNSCR =        1    unscreen: 0-lin 1-nonlin 2-no                           
   RPACOR =    2.200    partial core radius                                     
   POMASS =  207.200; ZVAL   =   14.000    mass and valenz                      
   RCORE  =    2.500    outmost cutoff radius                                   
   RWIGS  =    3.260; RWIGS  =    1.725    wigner-seitz radius (au A)           
   ENMAX  =  237.835; ENMIN  =  178.376 eV                                      
   ICORE  =        3    local potential                                         
   LCOR   =        T    correct aug charges                                     
   LPAW   =        T    paw PP                                                  
   EAUG   =  391.914                                                            
   DEXC   =    0.000                                                            
   RMAX   =    2.565    core radius for proj-oper                               
   RAUG   =    1.300    factor for augmentation sphere                          
   RDEP   =    2.643    radius for radial grids                                 
   RDEPT  =    2.092    core radius for aug-charge                              
                                                                                
   Atomic configuration                                                         
   16 entries                                                                   
     n  l   j            E        occ.                                          
     1  0  0.50    -88091.8466   2.0000                                         
     2  0  0.50    -15753.4197   2.0000                                         
     2  1  1.50    -13508.1797   6.0000                                         
     3  0  0.50     -3781.7194   2.0000                                         
     3  1  1.50     -3138.2529   6.0000                                         
     3  2  2.50     -2483.2977  10.0000                                         
     4  0  0.50      -856.2895   2.0000                                         
     4  1  1.50      -645.4942   6.0000                                         
     4  2  2.50      -401.8768  10.0000                                         
     4  3  3.50      -132.9059  14.0000                                         
     5  0  0.50      -144.0950   2.0000                                         
     5  1  1.50       -85.7879   6.0000                                         
     5  2  2.50       -21.1769  10.0000                                         
     6  0  0.50       -12.0372   2.0000                                         
     6  1  1.50        -3.4971   2.0000                                         
     5  3  2.50        -2.7212   0.0000                                         
   Description                                                                  
     l       E           TYP  RCUT    TYP  RCUT                                 
     2    -21.1768523     23  2.500                                             
     2      1.3605826     23  2.500                                             
     0    -12.0371562     23  2.500                                             
     0     13.6058260     23  2.500                                             
     1     -3.4971339     23  2.500                                             
     1     13.6058260     23  2.500                                             
     3     -1.3605826      7  2.500                                             
  local pseudopotential read in
  partial core-charges read in
  partial kinetic energy density read in
  atomic valenz-charges read in
  non local Contribution for L=           2  read in
    real space projection operators read in
  non local Contribution for L=           2  read in
    real space projection operators read in
  non local Contribution for L=           0  read in
    real space projection operators read in
  non local Contribution for L=           0  read in
    real space projection operators read in
  non local Contribution for L=           1  read in
    real space projection operators read in
  non local Contribution for L=           1  read in
    real space projection operators read in
    PAW grid and wavefunctions read in

   number of l-projection  operators is LMAX  =           6
   number of lm-projection operators is LMMAX =          18

 POTCAR:    PAW_PBE Br 06Sep2000                  
   SHA256 =  96a73d2954943bbee26f4990d676cc6c3bf44b8dd2c75cd4b3b825d8403f0103 Br
   COPYR  = (c) Copyright 06Sep2000 Georg Kresse                                
   COPYR  = This file is part of the software VASP. Any use, copying, and all ot
   COPYR  = If you do not have a valid VASP license, you may not use, copy or di
   VRHFIN =Br: s2p5                                                             
   LEXCH  = PE                                                                  
   EATOM  =   368.4488 eV,   27.0802 Ry                                         
                                                                                
   TITEL  = PAW_PBE Br 06Sep2000                                                
   LULTRA =        F    use ultrasoft PP ?                                      
   IUNSCR =        1    unscreen: 0-lin 1-nonlin 2-no                           
   RPACOR =    1.900    partial core radius                                     
   POMASS =   79.904; ZVAL   =    7.000    mass and valenz                      
   RCORE  =    2.100    outmost cutoff radius                                   
   RWIGS  =    2.200; RWIGS  =    1.164    wigner-seitz radius (au A)           
   ENMAX  =  216.285; ENMIN  =  162.214 eV                                      
   ICORE  =        3    local potential                                         
   LCOR   =        T    correct aug charges                                     
   LPAW   =        T    paw PP                                                  
   EAUG   =  503.852                                                            
   DEXC   =    0.000                                                            
   RMAX   =    2.139    core radius for proj-oper                               
   RAUG   =    1.300    factor for augmentation sphere                          
   RDEP   =    2.186    radius for radial grids                                 
   RDEPT  =    1.890    core radius for aug-charge                              
                                                                                
   Atomic configuration                                                         
   10 entries                                                                   
     n  l   j            E        occ.                                          
     1  0  0.50    -13316.2796   2.0000                                         
     2  0  0.50     -1732.8239   2.0000                                         
     2  1  1.50     -1528.2193   6.0000                                         
     3  0  0.50      -238.0460   2.0000                                         
     3  1  1.50      -173.4609   6.0000                                         
     3  2  2.50       -66.7132  10.0000                                         
     4  0  0.50       -20.1334   2.0000                                         
     4  1  0.50        -7.8591   5.0000                                         
     4  2  2.50        -8.1635   0.0000                                         
     4  3  2.50        -8.1635   0.0000                                         
   Description                                                                  
     l       E           TYP  RCUT    TYP  RCUT                                 
     0    -20.1333652     23  2.100                                             
     0    -21.4939478     23  2.100                                             
     1     -7.8591052     23  2.100                                             
     1     -3.1608434     23  2.100                                             
     2     -8.1634956     23  2.100                                             
     3     -1.3605826      7  2.100                                             
  local pseudopotential read in
  partial core-charges read in
  partial kinetic energy density read in
  atomic valenz-charges read in
  non local Contribution for L=           0  read in
    real space projection operators read in
  non local Contribution for L=           0  read in
    real space projection operators read in
  non local Contribution for L=           1  read in
    real space projection operators read in
  non local Contribution for L=           1  read in
    real space projection operators read in
  non local Contribution for L=           2  read in
    real space projection operators read in
    PAW grid and wavefunctions read in

   number of l-projection  operators is LMAX  =           5
   number of lm-projection operators is LMMAX =          13

 POTCAR:    PAW_PBE Cs_sv 08Apr2002               
   SHA256 =  c1463496f0f6037ed62c6012a8013a89ee9ad6ffb38599dcd6c079e7ed31779b Cs
   COPYR  = (c) Copyright 08Apr2002 Georg Kresse                                
   COPYR  = This file is part of the software VASP. Any use, copying, and all ot
   COPYR  = If you do not have a valid VASP license, you may not use, copy or di
   VRHFIN =Cs: 5s5p6s                                                           
   LEXCH  = PE                                                                  
   EATOM  =   555.6835 eV,   40.8416 Ry                                         
                                                                                
   TITEL  = PAW_PBE Cs_sv 08Apr2002                                             
   LULTRA =        F    use ultrasoft PP ?                                      
   IUNSCR =        1    unscreen: 0-lin 1-nonlin 2-no                           
   RPACOR =    2.200    partial core radius                                     
   POMASS =  132.900; ZVAL   =    9.000    mass and valenz                      
   RCORE  =    2.500    outmost cutoff radius                                   
   RWIGS  =    2.500; RWIGS  =    1.323    wigner-seitz radius (au A)           
   ENMAX  =  220.318; ENMIN  =  165.238 eV                                      
   RCLOC  =    2.207    cutoff for local pot                                    
   LCOR   =        T    correct aug charges                                     
   LPAW   =        T    paw PP                                                  
   EAUG   =  407.933                                                            
   DEXC   =    0.000                                                            
   RMAX   =    2.554    core radius for proj-oper                               
   RAUG   =    1.300    factor for augmentation sphere                          
   RDEP   =    2.590    radius for radial grids                                 
   RDEPT  =    2.117    core radius for aug-charge                              
                                                                                
   Atomic configuration                                                         
   13 entries                                                                   
     n  l   j            E        occ.                                          
     1  0  0.50    -35790.1377   2.0000                                         
     2  0  0.50     -5613.6201   2.0000                                         
     2  1  1.50     -5035.0101   6.0000                                         
     3  0  0.50     -1167.0767   2.0000                                         
     3  1  1.50      -980.9754   6.0000                                         
     3  2  2.50      -708.0703  10.0000                                         
     4  0  0.50      -220.2386   2.0000                                         
     4  1  1.50      -160.7596   6.0000                                         
     4  2  2.50       -74.2354  10.0000                                         
     5  0  0.50       -26.7287   2.0000                                         
     6  0  0.50        -2.0862   1.0000                                         
     5  1  1.50       -13.5159   6.0000                                         
     5  2  2.50        -0.4136   0.0000                                         
   Description                                                                  
     l       E           TYP  RCUT    TYP  RCUT                                 
     0    -26.7287425     23  1.900                                             
     0     -2.0862306     23  1.900                                             
     1    -13.5158719     23  2.500                                             
     1     -2.7211652     23  2.500                                             
     2     -0.4136171     23  2.500                                             
  local pseudopotential read in
  partial core-charges read in
  partial kinetic energy density read in
  atomic valenz-charges read in
  non local Contribution for L=           0  read in
    real space projection operators read in
  non local Contribution for L=           0  read in
    real space projection operators read in
  non local Contribution for L=           1  read in
    real space projection operators read in
  non local Contribution for L=           1  read in
    real space projection operators read in
  non local Contribution for L=           2  read in
    real space projection operators read in
    PAW grid and wavefunctions read in

   number of l-projection  operators is LMAX  =           5
   number of lm-projection operators is LMMAX =          13

 POTCAR:    PAW_PBE Pb_d 06Sep2000                
   SHA256 =  fb885b08f0fba73a15f6a6b0e39bd200c13ec96ef97cf3ecd8e63bade5137abd Pb
   COPYR  = (c) Copyright 06Sep2000 Georg Kresse                                
   COPYR  = This file is part of the software VASP. Any use, copying, and all ot
   COPYR  = If you do not have a valid VASP license, you may not use, copy or di
   VRHFIN =Pb:                                                                  
   LEXCH  = PE                                                                  
   EATOM  =  1661.6185 eV,  122.1255 Ry                                         
                                                                                
   TITEL  = PAW_PBE Pb_d 06Sep2000                                              
   LULTRA =        F    use ultrasoft PP ?                                      
   IUNSCR =        1    unscreen: 0-lin 1-nonlin 2-no                           
   RPACOR =    2.200    partial core radius                                     
   POMASS =  207.200; ZVAL   =   14.000    mass and valenz                      
   RCORE  =    2.500    outmost cutoff radius                                   
   RWIGS  =    3.260; RWIGS  =    1.725    wigner-seitz radius (au A)           
   ENMAX  =  237.835; ENMIN  =  178.376 eV                                      
   ICORE  =        3    local potential                                         
   LCOR   =        T    correct aug charges                                     
   LPAW   =        T    paw PP                                                  
   EAUG   =  391.914                                                            
   DEXC   =    0.000                                                            
   RMAX   =    2.565    core radius for proj-oper                               
   RAUG   =    1.300    factor for augmentation sphere                          
   RDEP   =    2.643    radius for radial grids                                 
   RDEPT  =    2.092    core radius for aug-charge                              
                                                                                
   Atomic configuration                                                         
   16 entries                                                                   
     n  l   j            E        occ.                                          
     1  0  0.50    -88091.8466   2.0000                                         
     2  0  0.50    -15753.4197   2.0000                                         
     2  1  1.50    -13508.1797   6.0000                                         
     3  0  0.50     -3781.7194   2.0000                                         
     3  1  1.50     -3138.2529   6.0000                                         
     3  2  2.50     -2483.2977  10.0000                                         
     4  0  0.50      -856.2895   2.0000                                         
     4  1  1.50      -645.4942   6.0000                                         
     4  2  2.50      -401.8768  10.0000                                         
     4  3  3.50      -132.9059  14.0000                                         
     5  0  0.50      -144.0950   2.0000                                         
     5  1  1.50       -85.7879   6.0000                                         
     5  2  2.50       -21.1769  10.0000                                         
     6  0  0.50       -12.0372   2.0000                                         
     6  1  1.50        -3.4971   2.0000                                         
     5  3  2.50        -2.7212   0.0000                                         
   Description                                                                  
     l       E           TYP  RCUT    TYP  RCUT                                 
     2    -21.1768523     23  2.500                                             
     2      1.3605826     23  2.500                                             
     0    -12.0371562     23  2.500                                             
     0     13.6058260     23  2.500                                             
     1     -3.4971339     23  2.500                                             
     1     13.6058260     23  2.500                                             
     3     -1.3605826      7  2.500                                             
  local pseudopotential read in
  partial core-charges read in
  partial kinetic energy density read in
  atomic valenz-charges read in
  non local Contribution for L=           2  read in
    real space projection operators read in
  non local Contribution for L=           2  read in
    real space projection operators read in
  non local Contribution for L=           0  read in
    real space projection operators read in
  non local Contribution for L=           0  read in
    real space projection operators read in
  non local Contribution for L=           1  read in
    real space projection operators read in
  non local Contribution for L=           1  read in
    real space projection operators read in
    PAW grid and wavefunctions read in

   number of l-projection  operators is LMAX  =           6
   number of lm-projection operators is LMMAX =          18

 POTCAR:    PAW_PBE Br 06Sep2000                  
   SHA256 =  96a73d2954943bbee26f4990d676cc6c3bf44b8dd2c75cd4b3b825d8403f0103 Br
   COPYR  = (c) Copyright 06Sep2000 Georg Kresse                                
   COPYR  = This file is part of the software VASP. Any use, copying, and all ot
   COPYR  = If you do not have a valid VASP license, you may not use, copy or di
   VRHFIN =Br: s2p5                                                             
   LEXCH  = PE                                                                  
   EATOM  =   368.4488 eV,   27.0802 Ry                                         
                                                                                
   TITEL  = PAW_PBE Br 06Sep2000                                                
   LULTRA =        F    use ultrasoft PP ?                                      
   IUNSCR =        1    unscreen: 0-lin 1-nonlin 2-no                           
   RPACOR =    1.900    partial core radius                                     
   POMASS =   79.904; ZVAL   =    7.000    mass and valenz                      
   RCORE  =    2.100    outmost cutoff radius                                   
   RWIGS  =    2.200; RWIGS  =    1.164    wigner-seitz radius (au A)           
   ENMAX  =  216.285; ENMIN  =  162.214 eV                                      
   ICORE  =        3    local potential                                         
   LCOR   =        T    correct aug charges                                     
   LPAW   =        T    paw PP                                                  
   EAUG   =  503.852                                                            
   DEXC   =    0.000                                                            
   RMAX   =    2.139    core radius for proj-oper                               
   RAUG   =    1.300    factor for augmentation sphere                          
   RDEP   =    2.186    radius for radial grids                                 
   RDEPT  =    1.890    core radius for aug-charge                              
                                                                                
   Atomic configuration                                                         
   10 entries                                                                   
     n  l   j            E        occ.                                          
     1  0  0.50    -13316.2796   2.0000                                         
     2  0  0.50     -1732.8239   2.0000                                         
     2  1  1.50     -1528.2193   6.0000                                         
     3  0  0.50      -238.0460   2.0000                                         
     3  1  1.50      -173.4609   6.0000                                         
     3  2  2.50       -66.7132  10.0000                                         
     4  0  0.50       -20.1334   2.0000                                         
     4  1  0.50        -7.8591   5.0000                                         
     4  2  2.50        -8.1635   0.0000                                         
     4  3  2.50        -8.1635   0.0000                                         
   Description                                                                  
     l       E           TYP  RCUT    TYP  RCUT                                 
     0    -20.1333652     23  2.100                                             
     0    -21.4939478     23  2.100                                             
     1     -7.8591052     23  2.100                                             
     1     -3.1608434     23  2.100                                             
     2     -8.1634956     23  2.100                                             
     3     -1.3605826      7  2.100                                             
  local pseudopotential read in
  partial core-charges read in
  partial kinetic energy density read in
  atomic valenz-charges read in
  non local Contribution for L=           0  read in
    real space projection operators read in
  non local Contribution for L=           0  read in
    real space projection operators read in
  non local Contribution for L=           1  read in
    real space projection operators read in
  non local Contribution for L=           1  read in
    real space projection operators read in
  non local Contribution for L=           2  read in
    real space projection operators read in
    PAW grid and wavefunctions read in

   number of l-projection  operators is LMAX  =           5
   number of lm-projection operators is LMMAX =          13

 Optimization of the real space projectors (new method)

 maximal supplied QI-value         = 15.12
 optimisation between [QCUT,QGAM] = [  8.77, 17.69] = [ 21.53, 87.61] Ry 
 Optimized for a Real-space Cutoff    1.85 Angstroem

   l    n(q)    QCUT    max X(q) W(low)/X(q) W(high)/X(q)  e(spline) 
   0     10     8.768    25.322    0.81E-04    0.51E-04    0.48E-06
   0     10     8.768    99.187    0.78E-04    0.50E-04    0.47E-06
   1      9     8.768    11.761    0.21E-03    0.20E-03    0.37E-06
   1      9     8.768     8.275    0.24E-03    0.22E-03    0.41E-06
   2      9     8.768     3.829    0.23E-04    0.15E-03    0.18E-06
 Optimization of the real space projectors (new method)

 maximal supplied QI-value         = 15.12
 optimisation between [QCUT,QGAM] = [  8.77, 17.69] = [ 21.53, 87.61] Ry 
 Optimized for a Real-space Cutoff    1.59 Angstroem

   l    n(q)    QCUT    max X(q) W(low)/X(q) W(high)/X(q)  e(spline) 
   2      7     8.768     3.846    0.48E-04    0.11E-03    0.11E-06
   2      7     8.768     8.593    0.20E-03    0.22E-04    0.24E-06
   0      8     8.768    20.082    0.68E-04    0.88E-04    0.41E-07
   0      8     8.768     8.597    0.89E-04    0.13E-03    0.59E-07
   1      8     8.768    33.223    0.15E-03    0.53E-04    0.87E-07
   1      8     8.768    15.899    0.14E-03    0.44E-04    0.78E-07
 Optimization of the real space projectors (new method)

 maximal supplied QI-value         = 17.95
 optimisation between [QCUT,QGAM] = [  8.80, 17.59] = [ 21.67, 86.68] Ry 
 Optimized for a Real-space Cutoff    1.59 Angstroem

   l    n(q)    QCUT    max X(q) W(low)/X(q) W(high)/X(q)  e(spline) 
   0      8     8.797   175.082    0.82E-04    0.14E-03    0.89E-07
   0      8     8.797   174.004    0.79E-04    0.14E-03    0.86E-07
   1      8     8.797    54.315    0.16E-03    0.14E-04    0.30E-06
   1      8     8.797    42.441    0.16E-03    0.14E-04    0.30E-06
   2      7     8.797     3.596    0.92E-04    0.15E-03    0.85E-07
 Optimization of the real space projectors (new method)

 maximal supplied QI-value         = 15.12
 optimisation between [QCUT,QGAM] = [  8.77, 17.69] = [ 21.53, 87.61] Ry 
 Optimized for a Real-space Cutoff    1.85 Angstroem

   l    n(q)    QCUT    max X(q) W(low)/X(q) W(high)/X(q)  e(spline) 
   0     10     8.768    25.322    0.81E-04    0.51E-04    0.48E-06
   0     10     8.768    99.187    0.78E-04    0.50E-04    0.47E-06
   1      9     8.768    11.761    0.21E-03    0.20E-03    0.37E-06
   1      9     8.768     8.275    0.24E-03    0.22E-03    0.41E-06
   2      9     8.768     3.829    0.23E-04    0.15E-03    0.18E-06
 Optimization of the real space projectors (new method)

 maximal supplied QI-value         = 15.12
 optimisation between [QCUT,QGAM] = [  8.77, 17.69] = [ 21.53, 87.61] Ry 
 Optimized for a Real-space Cutoff    1.59 Angstroem

   l    n(q)    QCUT    max X(q) W(low)/X(q) W(high)/X(q)  e(spline) 
   2      7     8.768     3.846    0.48E-04    0.11E-03    0.11E-06
   2      7     8.768     8.593    0.20E-03    0.22E-04    0.24E-06
   0      8     8.768    20.082    0.68E-04    0.88E-04    0.41E-07
   0      8     8.768     8.597    0.89E-04    0.13E-03    0.59E-07
   1      8     8.768    33.223    0.15E-03    0.53E-04    0.87E-07
   1      8     8.768    15.899    0.14E-03    0.44E-04    0.78E-07
 Optimization of the real space projectors (new method)

 maximal supplied QI-value         = 17.95
 optimisation between [QCUT,QGAM] = [  8.80, 17.59] = [ 21.67, 86.68] Ry 
 Optimized for a Real-space Cutoff    1.59 Angstroem

   l    n(q)    QCUT    max X(q) W(low)/X(q) W(high)/X(q)  e(spline) 
   0      8     8.797   175.082    0.82E-04    0.14E-03    0.89E-07
   0      8     8.797   174.004    0.79E-04    0.14E-03    0.86E-07
   1      8     8.797    54.315    0.16E-03    0.14E-04    0.30E-06
   1      8     8.797    42.441    0.16E-03    0.14E-04    0.30E-06
   2      7     8.797     3.596    0.92E-04    0.15E-03    0.85E-07
  PAW_PBE Cs_sv 08Apr2002               :
 energy of atom  1       EATOM= -555.6835
 kinetic energy error for atom=    0.0069 (will be added to EATOM!!)
  PAW_PBE Pb_d 06Sep2000                :
 energy of atom  2       EATOM=-1661.6185
 kinetic energy error for atom=    0.0498 (will be added to EATOM!!)
  PAW_PBE Br 06Sep2000                  :
 energy of atom  3       EATOM= -368.4488
 kinetic energy error for atom=    0.0072 (will be added to EATOM!!)
  PAW_PBE Cs_sv 08Apr2002               :
 energy of atom  4       EATOM= -555.6835
 kinetic energy error for atom=    0.0069 (will be added to EATOM!!)
  PAW_PBE Pb_d 06Sep2000                :
 energy of atom  5       EATOM=-1661.6185
 kinetic energy error for atom=    0.0498 (will be added to EATOM!!)
  PAW_PBE Br 06Sep2000                  :
 energy of atom  6       EATOM= -368.4488
 kinetic energy error for atom=    0.0072 (will be added to EATOM!!)


 POSCAR: Cs64 Pb64 Br191                         
  positions in direct lattice
  velocities in cartesian coordinates

 METAGGA = SCAN     LMAXTAU =  6    LMIXTAU =  F

 exchange correlation table for  LEXCH =        8
   RHO(1)=    0.500       N(1)  =     2000
   RHO(2)=  100.500       N(2)  =     4000

 VTST: version 3.2, (02/03/18)

 CHAIN: initializing optimizer
 
 OPT: Using VASP Conjugate-Gradient optimizer
 CHAIN: Read ICHAIN            0

 POSCAR: Cs64 Pb64 Br191                         
  positions in direct lattice
  velocities in cartesian coordinates



--------------------------------------------------------------------------------------------------------


 ion  position               nearest neighbor table
   1  0.886  0.875  0.353-
   2  0.137  0.875  0.604-
   3  0.886  0.375  0.352-
   4  0.138  0.375  0.605-
   5  0.887  0.875  0.854-
   6  0.136  0.875  0.104-
   7  0.386  0.875  0.354-
   8  0.635  0.875  0.604-
   9  0.887  0.375  0.854-
  10  0.136  0.375  0.103-
  11  0.386  0.875  0.854-
  12  0.636  0.875  0.104-
  13  0.386  0.375  0.854-
  14  0.636  0.375  0.104-
  15  0.104  0.125  0.386-
  16  0.354  0.125  0.636-
  17  0.105  0.625  0.386-
  18  0.104  0.125  0.887-
  19  0.354  0.125  0.136-
  20  0.603  0.125  0.386-
  21  0.854  0.125  0.637-
  22  0.104  0.625  0.886-
  23  0.354  0.625  0.136-
  24  0.860  0.626  0.643-
  25  0.604  0.125  0.886-
  26  0.854  0.125  0.136-
  27  0.604  0.625  0.887-
  28  0.854  0.625  0.136-
  29  0.897  0.875  0.114-
  30  0.147  0.875  0.364-
  31  0.897  0.375  0.114-
  32  0.147  0.375  0.364-
  33  0.900  0.875  0.617-
  34  0.147  0.875  0.864-
  35  0.396  0.875  0.114-
  36  0.646  0.875  0.363-
  37  0.900  0.375  0.618-
  38  0.147  0.375  0.864-
  39  0.396  0.375  0.114-
  40  0.397  0.875  0.614-
  41  0.647  0.875  0.864-
  42  0.646  0.375  0.864-
  43  0.114  0.125  0.147-
  44  0.364  0.125  0.396-
  45  0.114  0.625  0.147-
  46  0.114  0.125  0.646-
  47  0.364  0.125  0.897-
  48  0.614  0.125  0.146-
  49  0.865  0.125  0.396-
  50  0.115  0.625  0.647-
  51  0.364  0.625  0.897-
  52  0.614  0.625  0.146-
  53  0.871  0.625  0.390-
  54  0.614  0.125  0.647-
  55  0.864  0.125  0.897-
  56  0.865  0.625  0.898-
  57  0.750  0.750  0.249- 252 2.98 132 2.99 143 3.00 225 3.00 310 3.01 203 3.04
  58  0.000  0.750  0.500- 226 2.98 144 2.99 241 3.00 200 3.00 133 3.00 220 3.07
  59  0.750  0.250  0.250- 141 2.99 250 2.99 136 3.00 227 3.01 216 3.01 207 3.03
  60  0.000  0.251  0.500- 142 2.99 228 3.00 239 3.00 204 3.01 137 3.01 217 3.02
  61  0.750  0.750  0.750- 209 2.99 149 2.99 138 3.00 223 3.01 229 3.01 315 3.06
  62  0.000  0.750  0.000- 150 2.99 139 3.00 230 3.00 197 3.01 247 3.01 224 3.01
  63  0.250  0.750  0.250- 127 2.99 300 3.00 248 3.00 213 3.01 231 3.01 198 3.01
  64  0.500  0.750  0.500- 128 2.99 311 2.99 301 3.00 208 3.00 314 3.01 232 3.06
  65  0.750  0.251  0.750- 145 2.99 210 3.00 233 3.00 221 3.01 298 3.01 246 3.02
  66  0.000  0.250  0.000- 146 2.99 140 3.00 234 3.00 199 3.00 243 3.01 222 3.01
  67  0.250  0.751  0.750- 130 2.99 153 2.99 201 3.00 218 3.01 236 3.01 242 3.01
  68  0.500  0.751  0.000- 131 2.99 154 3.00 251 3.00 219 3.00 237 3.01 202 3.01
  69  0.250  0.250  0.750- 151 2.99 134 3.00 205 3.00 312 3.01 240 3.01 214 3.01
  70  0.500  0.250  0.000- 152 2.99 135 3.00 215 3.01 249 3.01 206 3.01 238 3.01
  71  0.001  0.751  0.250- 155 2.99 197 2.99 115 3.00 213 3.00 241 3.01 225 3.01
  72  0.250  0.750  0.500- 116 2.99 156 3.00 242 3.00 198 3.01 311 3.02 226 3.02
  73  0.000  0.250  0.250- 113 2.99 157 3.00 211 3.00 199 3.00 227 3.01 239 3.01
  74  0.001  0.751  0.751- 158 2.99 121 2.99 218 2.99 247 3.00 200 3.02 229 3.02
  75  0.250  0.750  0.000- 122 2.99 159 3.00 230 3.01 219 3.01 201 3.01 248 3.01
  76  0.500  0.751  0.250- 160 2.99 231 2.99 202 2.99 123 3.00 310 3.02 314 3.03
  77  0.752  0.755  0.501- 161 2.80 220 2.98 203 2.99 232 2.99 315 3.00
  78  0.000  0.250  0.750- 117 2.98 214 3.00 162 3.00 243 3.00 233 3.02 204 3.02
  79  0.250  0.250  0.000- 118 2.99 163 3.00 234 3.01 215 3.01 205 3.01 244 3.01
  80  0.750  0.249  0.500- 120 2.96 313 2.98 246 2.99 217 2.99 207 3.00 164 3.13
  81  0.500  0.751  0.751- 165 2.99 236 2.99 297 3.00 251 3.00 208 3.02 223 3.02
  82  0.750  0.751  0.000- 126 2.99 166 3.00 237 3.00 224 3.00 209 3.02 252 3.02
  83  0.500  0.250  0.750- 124 2.99 249 3.00 312 3.00 167 3.00 221 3.01 308 3.01
  84  0.750  0.250  0.000- 125 2.99 168 3.00 238 3.00 222 3.00 210 3.01 250 3.02
  85  0.000  0.000  0.250- 113 2.99 155 2.99 253 3.00 267 3.00 169 3.01 183 3.01
  86  0.250  0.000  0.500- 156 3.00 114 3.00 268 3.00 184 3.01 170 3.01 254 3.01
  87  0.001  0.500  0.250- 157 2.98 269 3.00 255 3.00 115 3.00 185 3.01 171 3.01
  88  0.000  0.001  0.750- 117 2.99 158 2.99 256 3.00 187 3.00 173 3.01 270 3.02
  89  0.250  0.000  0.000- 159 2.99 118 3.00 174 3.01 257 3.01 188 3.01 271 3.01
  90  0.500  0.001  0.250- 119 2.99 160 3.00 175 3.00 272 3.00 258 3.01 189 3.01
  91  0.750  0.002  0.500- 120 2.96 176 2.99 190 2.99 259 2.99 273 3.00 161 3.13
  92  0.001  0.500  0.751- 162 2.98 260 2.99 121 2.99 191 3.00 274 3.02 177 3.02
  93  0.250  0.500  0.000- 163 2.99 122 3.00 178 3.01 192 3.01 261 3.01 275 3.01
  94  0.753  0.495  0.502- 164 2.80 262 2.98 307 2.99 305 3.00 277 3.00
  95  0.500  0.000  0.750- 165 2.99 124 3.00 180 3.00 193 3.00 263 3.01 278 3.01
  96  0.750  0.000  0.000- 166 3.00 125 3.00 181 3.00 264 3.00 194 3.01 279 3.01
  97  0.500  0.500  0.751- 167 2.99 304 3.00 195 3.00 297 3.00 318 3.02 265 3.02
  98  0.750  0.500  0.000- 168 2.99 126 3.00 182 3.00 266 3.00 280 3.02 196 3.02
  99  0.750  0.001  0.250- 194 2.99 132 3.00 141 3.00 258 3.01 169 3.01 273 3.03
 100  0.000  0.000  0.500- 170 3.00 183 3.00 142 3.00 133 3.00 270 3.01 259 3.02
 101  0.750  0.500  0.250- 196 2.98 136 2.98 171 3.00 316 3.01 143 3.01 277 3.05
 102  0.001  0.500  0.500- 172 2.99 137 2.99 274 3.00 185 3.00 144 3.01 262 3.05
 103  0.750  0.000  0.750- 279 2.99 145 3.00 138 3.00 263 3.00 173 3.01 190 3.02
 104  0.000  0.000  0.000- 139 2.99 146 3.00 267 3.01 174 3.01 187 3.01 264 3.01
 105  0.250  0.001  0.250- 127 3.00 147 3.00 188 3.00 253 3.01 268 3.01 175 3.01
 106  0.500  0.001  0.500- 254 2.99 128 2.99 148 3.00 189 3.00 278 3.00 176 3.04
 107  0.750  0.501  0.751- 280 2.99 298 2.99 149 3.00 265 3.00 177 3.01 307 3.06
 108  0.000  0.500  0.000- 140 2.99 150 3.00 178 3.00 191 3.01 269 3.01 266 3.01
 109  0.250  0.000  0.750- 130 2.99 151 3.00 271 3.00 184 3.01 256 3.01 180 3.01
 110  0.500  0.001  0.000- 131 2.99 152 3.00 257 3.00 193 3.01 272 3.01 181 3.01
 111  0.250  0.500  0.750- 134 2.99 275 3.00 153 3.00 260 3.01 304 3.01 186 3.01
 112  0.500  0.500  0.000- 135 2.99 195 3.00 154 3.00 261 3.00 182 3.01 276 3.01
 113  0.984  0.125  0.231-  73 2.99  85 2.99
 114  0.234  0.126  0.481- 292 2.99  86 3.00
 115  0.984  0.625  0.233-  71 3.00  87 3.00
 116  0.234  0.625  0.481-  72 2.99 294 3.00
 117  0.985  0.125  0.730-  78 2.98  88 2.99
 118  0.235  0.126  0.981-  79 2.99  89 3.00
 119  0.485  0.125  0.231- 291 2.99  90 2.99
 120  0.735  0.125  0.481-  80 2.96  91 2.96
 121  0.989  0.625  0.735-  74 2.99  92 2.99
 122  0.235  0.626  0.981-  75 2.99  93 3.00
 123  0.486  0.625  0.234-  76 3.00 293 3.01
 124  0.484  0.125  0.731-  83 2.99  95 3.00
 125  0.735  0.126  0.981-  84 2.99  96 3.00
 126  0.734  0.626  0.982-  82 2.99  98 3.00
 127  0.231  0.875  0.235-  63 2.99 105 3.00
 128  0.482  0.875  0.485-  64 2.99 106 2.99
 129  0.230  0.375  0.234- 295 2.99 289 3.00
 130  0.231  0.876  0.735- 109 2.99  67 2.99
 131  0.481  0.876  0.985- 110 2.99  68 2.99
 132  0.731  0.875  0.235-  57 2.99  99 3.00
 133  0.978  0.875  0.485-  58 3.00 100 3.00
 134  0.231  0.376  0.735- 111 2.99  69 3.00
 135  0.481  0.376  0.985- 112 2.99  70 3.00
 136  0.731  0.376  0.235- 101 2.98  59 3.00
 137  0.978  0.376  0.485- 102 2.99  60 3.01
 138  0.731  0.875  0.734-  61 3.00 103 3.00
 139  0.981  0.875  0.985- 104 2.99  62 3.00
 140  0.981  0.375  0.985- 108 2.99  66 3.00
 141  0.770  0.126  0.267-  59 2.99  99 3.00
 142  0.019  0.126  0.516-  60 2.99 100 3.00
 143  0.770  0.626  0.266-  57 3.00 101 3.01
 144  0.022  0.625  0.515-  58 2.99 102 3.01
 145  0.769  0.126  0.766-  65 2.99 103 3.00
 146  0.020  0.125  0.016-  66 2.99 104 3.00
 147  0.270  0.126  0.266- 289 2.99 105 3.00
 148  0.521  0.126  0.516- 290 2.99 106 3.00
 149  0.769  0.626  0.768-  61 2.99 107 3.00
 150  0.019  0.625  0.016-  62 2.99 108 3.00
 151  0.270  0.126  0.766-  69 2.99 109 3.00
 152  0.520  0.126  0.016-  70 2.99 110 3.00
 153  0.269  0.626  0.767-  67 2.99 111 3.00
 154  0.519  0.626  0.016-  68 3.00 112 3.00
 155  0.016  0.876  0.269-  71 2.99  85 2.99
 156  0.266  0.875  0.519-  72 3.00  86 3.00
 157  0.016  0.375  0.269-  87 2.98  73 3.00
 158  0.016  0.876  0.769-  74 2.99  88 2.99
 159  0.266  0.876  0.020-  89 2.99  75 3.00
 160  0.515  0.876  0.270-  76 2.99  90 3.00
 161  0.768  0.871  0.521-  77 2.80  91 3.13
 162  0.016  0.375  0.770-  92 2.98  78 3.00
 163  0.266  0.376  0.019-  93 2.99  79 3.00
 164  0.768  0.379  0.523-  94 2.80  80 3.13
 165  0.516  0.876  0.770-  81 2.99  95 2.99
 166  0.766  0.875  0.020-  82 3.00  96 3.00
 167  0.516  0.375  0.769-  97 2.99  83 3.00
 168  0.766  0.376  0.020-  98 2.99  84 3.00
 169  0.874  0.982  0.225-  99 3.01  85 3.01
 170  0.124  0.982  0.475- 100 3.00  86 3.01
 171  0.874  0.482  0.225- 101 3.00  87 3.01
 172  0.124  0.482  0.476- 102 2.99 294 3.01
 173  0.874  0.982  0.725- 103 3.01  88 3.01
 174  0.124  0.982  0.975- 104 3.01  89 3.01
 175  0.374  0.982  0.225-  90 3.00 105 3.01
 176  0.625  0.982  0.475-  91 2.99 106 3.04
 177  0.874  0.483  0.725- 107 3.01  92 3.02
 178  0.124  0.482  0.975- 108 3.00  93 3.01
 179  0.374  0.482  0.225- 293 2.99 295 3.01
 180  0.374  0.982  0.725-  95 3.00 109 3.01
 181  0.624  0.982  0.975-  96 3.00 110 3.01
 182  0.624  0.482  0.975-  98 3.00 112 3.01
 183  0.975  0.018  0.374- 100 3.00  85 3.01
 184  0.225  0.018  0.624-  86 3.01 109 3.01
 185  0.977  0.517  0.374- 102 3.00  87 3.01
 186  0.226  0.518  0.624- 294 3.00 111 3.01
 187  0.975  0.018  0.874-  88 3.00 104 3.01
 188  0.225  0.018  0.124- 105 3.00  89 3.01
 189  0.475  0.018  0.374- 106 3.00  90 3.01
 190  0.725  0.018  0.624-  91 2.99 103 3.02
 191  0.974  0.518  0.874-  92 3.00 108 3.01
 192  0.225  0.518  0.124- 295 3.00  93 3.01
 193  0.475  0.018  0.874-  95 3.00 110 3.01
 194  0.725  0.018  0.124-  99 2.99  96 3.01
 195  0.475  0.518  0.874-  97 3.00 112 3.00
 196  0.725  0.518  0.125- 101 2.98  98 3.02
 197  0.026  0.768  0.126-  71 2.99  62 3.01
 198  0.275  0.768  0.376-  72 3.01  63 3.01
 199  0.026  0.268  0.126-  73 3.00  66 3.00
 200  0.025  0.768  0.626-  58 3.00  74 3.02
 201  0.276  0.768  0.876-  67 3.00  75 3.01
 202  0.526  0.768  0.126-  76 2.99  68 3.01
 203  0.777  0.766  0.377-  77 2.99  57 3.04
 204  0.026  0.268  0.626-  60 3.01  78 3.02
 205  0.276  0.268  0.876-  69 3.00  79 3.01
 206  0.526  0.268  0.126- 291 3.00  70 3.01
 207  0.775  0.269  0.377-  80 3.00  59 3.03
 208  0.526  0.768  0.626-  64 3.00  81 3.02
 209  0.776  0.768  0.876-  61 2.99  82 3.02
 210  0.776  0.268  0.876-  65 3.00  84 3.01
 211  0.126  0.232  0.276-  73 3.00 289 3.01
 212  0.377  0.232  0.525- 290 2.99 292 3.02
 213  0.126  0.732  0.275-  71 3.00  63 3.01
 214  0.126  0.232  0.776-  78 3.00  69 3.01
 215  0.376  0.232  0.026-  70 3.01  79 3.01
 216  0.626  0.232  0.276-  59 3.01 291 3.01
 217  0.876  0.232  0.526-  80 2.99  60 3.02
 218  0.126  0.733  0.776-  74 2.99  67 3.01
 219  0.376  0.732  0.026-  68 3.00  75 3.01
 220  0.875  0.725  0.524-  77 2.98  58 3.07
 221  0.626  0.232  0.776-  65 3.01  83 3.01
 222  0.876  0.232  0.026-  84 3.00  66 3.01
 223  0.626  0.732  0.776-  61 3.01  81 3.02
 224  0.876  0.732  0.026-  82 3.00  62 3.01
 225  0.874  0.768  0.225-  57 3.00  71 3.01
 226  0.124  0.769  0.476-  58 2.98  72 3.02
 227  0.874  0.268  0.225-  59 3.01  73 3.01
 228  0.124  0.269  0.475-  60 3.00 292 3.01
 229  0.874  0.768  0.725-  61 3.01  74 3.02
 230  0.124  0.768  0.975-  62 3.00  75 3.01
 231  0.374  0.768  0.224-  76 2.99  63 3.01
 232  0.626  0.766  0.473-  77 2.99  64 3.06
 233  0.874  0.268  0.725-  65 3.00  78 3.02
 234  0.124  0.268  0.975-  66 3.00  79 3.01
 235  0.374  0.268  0.225- 291 3.00 289 3.01
 236  0.374  0.768  0.725-  81 2.99  67 3.01
 237  0.624  0.768  0.975-  82 3.00  68 3.01
 238  0.624  0.268  0.975-  84 3.00  70 3.01
 239  0.975  0.233  0.374-  60 3.00  73 3.01
 240  0.225  0.232  0.624- 292 3.01  69 3.01
 241  0.977  0.734  0.374-  58 3.00  71 3.01
 242  0.225  0.732  0.624-  72 3.00  67 3.01
 243  0.975  0.232  0.874-  78 3.00  66 3.01
 244  0.225  0.232  0.124- 289 3.00  79 3.01
 245  0.475  0.232  0.374- 290 3.00 291 3.02
 246  0.725  0.232  0.624-  80 2.99  65 3.02
 247  0.974  0.733  0.874-  74 3.00  62 3.01
 248  0.225  0.732  0.124-  63 3.00  75 3.01
 249  0.475  0.232  0.874-  83 3.00  70 3.01
 250  0.725  0.232  0.124-  59 2.99  84 3.02
 251  0.474  0.733  0.874-  81 3.00  68 3.00
 252  0.725  0.732  0.124-  57 2.98  82 3.02
 253  0.126  0.018  0.276-  85 3.00 105 3.01
 254  0.376  0.018  0.525- 106 2.99  86 3.01
 255  0.126  0.518  0.276-  87 3.00 295 3.01
 256  0.126  0.018  0.776-  88 3.00 109 3.01
 257  0.376  0.018  0.026- 110 3.00  89 3.01
 258  0.626  0.018  0.276-  99 3.01  90 3.01
 259  0.876  0.018  0.526-  91 2.99 100 3.02
 260  0.126  0.518  0.776-  92 2.99 111 3.01
 261  0.376  0.518  0.026- 112 3.00  93 3.01
 262  0.876  0.525  0.525-  94 2.98 102 3.05
 263  0.626  0.018  0.776- 103 3.00  95 3.01
 264  0.876  0.018  0.026-  96 3.00 104 3.01
 265  0.626  0.518  0.776- 107 3.00  97 3.02
 266  0.876  0.518  0.026-  98 3.00 108 3.01
 267  0.026  0.982  0.126-  85 3.00 104 3.01
 268  0.276  0.982  0.376-  86 3.00 105 3.01
 269  0.026  0.482  0.126-  87 3.00 108 3.01
 270  0.026  0.982  0.626- 100 3.01  88 3.02
 271  0.276  0.982  0.876- 109 3.00  89 3.01
 272  0.526  0.982  0.126-  90 3.00 110 3.01
 273  0.775  0.982  0.377-  91 3.00  99 3.03
 274  0.026  0.482  0.626- 102 3.00  92 3.02
 275  0.276  0.482  0.876- 111 3.00  93 3.01
 276  0.526  0.482  0.126- 293 2.99 112 3.01
 277  0.778  0.486  0.378-  94 3.00 101 3.05
 278  0.526  0.982  0.626- 106 3.00  95 3.01
 279  0.776  0.982  0.876- 103 2.99  96 3.01
 280  0.776  0.482  0.876- 107 2.99  98 3.02
 281  0.387  0.375  0.356-
 282  0.634  0.375  0.604-
 283  0.593  0.625  0.379-
 284  0.354  0.625  0.638-
 285  0.398  0.375  0.614-
 286  0.646  0.376  0.364-
 287  0.612  0.625  0.653-
 288  0.362  0.625  0.396-
 289  0.250  0.250  0.250- 147 2.99 129 3.00 244 3.00 235 3.01 211 3.01 309 3.01
 290  0.500  0.250  0.500- 148 2.99 212 2.99 245 3.00 308 3.00 299 3.01 313 3.04
 291  0.500  0.250  0.250- 119 2.99 235 3.00 302 3.00 206 3.00 216 3.01 245 3.02
 292  0.250  0.250  0.500- 114 2.99 309 3.00 303 3.01 240 3.01 228 3.01 212 3.02
 293  0.500  0.499  0.250- 302 2.98 179 2.99 276 2.99 123 3.01 316 3.02 306 3.03
 294  0.250  0.500  0.500- 303 2.99 116 3.00 186 3.00 319 3.01 172 3.01 317 3.02
 295  0.250  0.500  0.250- 129 2.99 192 3.00 300 3.00 255 3.01 179 3.01 319 3.01
 296  0.500  0.502  0.500- 317 2.99 299 2.99 301 3.00 318 3.00 306 3.01 305 3.06
 297  0.482  0.626  0.734-  81 3.00  97 3.00
 298  0.730  0.376  0.733- 107 2.99  65 3.01
 299  0.485  0.376  0.486- 296 2.99 290 3.01
 300  0.269  0.625  0.265-  63 3.00 295 3.00
 301  0.524  0.626  0.517-  64 3.00 296 3.00
 302  0.516  0.375  0.271- 293 2.98 291 3.00
 303  0.267  0.376  0.520- 294 2.99 292 3.01
 304  0.374  0.482  0.725-  97 3.00 111 3.01
 305  0.627  0.487  0.474-  94 3.00 296 3.06
 306  0.474  0.518  0.374- 296 3.01 293 3.03
 307  0.726  0.524  0.623-  94 2.99 107 3.06
 308  0.526  0.268  0.626- 290 3.00  83 3.01
 309  0.276  0.268  0.376- 292 3.00 289 3.01
 310  0.626  0.733  0.276-  57 3.01  76 3.02
 311  0.377  0.732  0.526-  64 2.99  72 3.02
 312  0.374  0.268  0.724-  83 3.00  69 3.01
 313  0.625  0.268  0.475-  80 2.98 290 3.04
 314  0.473  0.733  0.374-  64 3.01  76 3.03
 315  0.726  0.728  0.623-  77 3.00  61 3.06
 316  0.626  0.518  0.276- 101 3.01 293 3.02
 317  0.377  0.520  0.525- 296 2.99 294 3.02
 318  0.526  0.484  0.626- 296 3.00  97 3.02
 319  0.275  0.482  0.376- 294 3.01 295 3.01


IMPORTANT INFORMATION: All symmetrisations will be switched off!
NOSYMM: (Re-)initialisation of all symmetry stuff for point group C_1.



 KPOINTS: 1x1x1                                   

Automatic generation of k-mesh.
Space group operators:
 irot       det(A)        alpha          n_x          n_y          n_z        tau_x        tau_y        tau_z
    1     1.000000     0.000000     1.000000     0.000000     0.000000     0.000000     0.000000     0.000000
 
 Subroutine IBZKPT returns following result:
 ===========================================
 
 Found      1 irreducible k-points:
 
 Following reciprocal coordinates:
            Coordinates               Weight
  0.000000  0.000000  0.000000      1.000000
 
 Following cartesian coordinates:
            Coordinates               Weight
 -0.000000  0.000000  0.000000      1.000000
 


--------------------------------------------------------------------------------------------------------




 Dimension of arrays:
   k-points           NKPTS =      1   k-points in BZ     NKDIM =      1   number of bands    NBANDS=   1688
   number of dos      NEDOS =    301   number of ions     NIONS =    319
   non local maximal  LDIM  =      6   non local SUM 2l+1 LMDIM =     18
   total plane-waves  NPLWV = ******
   max r-space proj   IRMAX =   5716   max aug-charges    IRDMAX=  91227
   dimension x,y,z NGX =   140 NGY =  140 NGZ =  140
   dimension x,y,z NGXF=   280 NGYF=  280 NGZF=  280
   support grid    NGXF=   560 NGYF=  560 NGZF=  560
   ions per type =              56  56 168   8   8  23
   NGX,Y,Z   is equivalent  to a cutoff of   9.97,  9.89,  9.97 a.u.
   NGXF,Y,Z  is equivalent  to a cutoff of  19.95, 19.78, 19.95 a.u.

 SYSTEM =  CsPbBr3 cubic bulk                      
 POSCAR =  Cs64 Pb64 Br191                         

 Startparameter for this run:
   NWRITE =      2    write-flag & timer
   PREC   = accura    normal or accurate (medium, high low for compatibility)
   ISTART =      0    job   : 0-new  1-cont  2-samecut
   ICHARG =      2    charge: 1-file 2-atom 10-const
   ISPIN  =      1    spin polarized calculation?
   LNONCOLLINEAR =      F non collinear calculations
   LSORBIT =      F    spin-orbit coupling
   INIWAV =      1    electr: 0-lowe 1-rand  2-diag
   LASPH  =      T    aspherical Exc in radial PAW
   METAGGA=      F    non-selfconsistent MetaGGA calc.

 Electronic Relaxation 1
   ENCUT  =  300.0 eV  22.05 Ry    4.70 a.u.  32.96 33.23 32.96*2*pi/ulx,y,z
   ENINI  =  300.0     initial cutoff
   ENAUG  =  503.9 eV  augmentation charge cutoff
   NELM   =    200;   NELMIN=  2; NELMDL=  0     # of ELM steps 
   EDIFF  = 0.1E-05   stopping-criterion for ELM
   LREAL  =      T    real-space projection
   NLSPLINE    = F    spline interpolate recip. space projectors
   LCOMPAT=      F    compatible to vasp.4.4
   GGA_COMPAT  = T    GGA compatible to vasp.4.4-vasp.4.6
   LMAXPAW     = -100 max onsite density
   LMAXMIX     =    2 max onsite mixed and CHGCAR
   VOSKOWN=      0    Vosko Wilk Nusair interpolation
   ROPT   =   -0.00025  -0.00025  -0.00025  -0.00025
   ROPT   =   -0.00025  -0.00025
 Ionic relaxation
   EDIFFG = -.1E-01   stopping-criterion for IOM
   NSW    =     75    number of steps for IOM
   NBLOCK =      1;   KBLOCK =     75    inner block; outer block 
   IBRION =      2    ionic relax: 0-MD 1-quasi-New 2-CG
   NFREE  =      1    steps in history (QN), initial steepest desc. (CG)
   ISIF   =      2    stress and relaxation
   IWAVPR =     11    prediction:  0-non 1-charg 2-wave 3-comb
   ISYM   =      0    0-nonsym 1-usesym 2-fastsym
   LCORR  =      T    Harris-Foulkes like correction to forces

   POTIM  = 0.5000    time-step for ionic-motion
   TEIN   =    0.0    initial temperature
   TEBEG  =    0.0;   TEEND  =   0.0 temperature during run
   SMASS  =  -3.00    Nose mass-parameter (am)
   estimated Nose-frequenzy (Omega)   =  0.10E-29 period in steps =****** mass=  -0.124E-25a.u.
   SCALEE = 1.0000    scale energy and forces
   NPACO  =    256;   APACO  = 16.0  distance and # of slots for P.C.
   PSTRESS=    0.0 pullay stress

  Mass of Ions in am
   POMASS = 132.90207.20 79.90132.90207.20 79.90
  Ionic Valenz
   ZVAL   =   9.00 14.00  7.00  9.00 14.00  7.00
  Atomic Wigner-Seitz radii
   RWIGS  =  -1.00 -1.00 -1.00 -1.00 -1.00 -1.00
  virtual crystal weights 
   VCA    =   1.00  1.00  1.00  1.00  1.00  1.00
   NELECT =    2808.0000    total number of electrons
   NUPDOWN=       0.0000    fix difference up-down

 DOS related values:
   EMIN   =  10.00;   EMAX   =-10.00  energy-range for DOS
   EFERMI =   0.00
   ISMEAR =     0;   SIGMA  =   0.01  broadening in eV -4-tet -1-fermi 0-gaus

 Electronic relaxation 2 (details)
   IALGO  =     38    algorithm
   LDIAG  =      T    sub-space diagonalisation (order eigenvalues)
   LSUBROT=      F    optimize rotation matrix (better conditioning)
   TURBO    =      0    0=normal 1=particle mesh
   IRESTART =      0    0=no restart 2=restart with 2 vectors
   NREBOOT  =      0    no. of reboots
   NMIN     =      0    reboot dimension
   EREF     =   0.00    reference energy to select bands
   IMIX   =      4    mixing-type and parameters
     AMIX     =   0.40;   BMIX     =  1.00
     AMIX_MAG =   1.60;   BMIX_MAG =  1.00
     AMIN     =   0.10
     WC   =   100.;   INIMIX=   1;  MIXPRE=   1;  MAXMIX= -45

 Intra band minimization:
   WEIMIN = 0.0010     energy-eigenvalue tresh-hold
   EBREAK =  0.15E-09  absolut break condition
   DEPER  =   0.30     relativ break condition  

   TIME   =   0.40     timestep for ELM

  volume/ion in A,a.u.               =      40.13       270.83
  Fermi-wavevector in a.u.,A,eV,Ry     =   0.987293  1.865713 13.262239  0.974747
  Thomas-Fermi vector in A             =   2.118736

 Write flags
   LWAVE        =      F    write WAVECAR
   LDOWNSAMPLE  =      F    k-point downsampling of WAVECAR
   LCHARG       =      F    write CHGCAR
   LVTOT        =      F    write LOCPOT, total local potential
   LVHAR        =      T    write LOCPOT, Hartree potential only
   LELF         =      F    write electronic localiz. function (ELF)
   LORBIT       =     10    0 simple, 1 ext, 2 COOP (PROOUT), +10 PAW based schemes


 Dipole corrections
   LMONO  =      F    monopole corrections only (constant potential shift)
   LDIPOL =      F    correct potential (dipole corrections)
   IDIPOL =      0    1-x, 2-y, 3-z, 4-all directions 
   EPSILON=  1.0000000 bulk dielectric constant

 Exchange correlation treatment:
   GGA     =    --    GGA type
   LEXCH   =     8    internal setting for exchange type
   VOSKOWN=      0    Vosko Wilk Nusair interpolation
   LHFCALC =     F    Hartree Fock is set to
   LHFONE  =     F    Hartree Fock one center treatment
   AEXX    =    0.0000 exact exchange contribution

 Linear response parameters
   LEPSILON=     F    determine dielectric tensor
   LRPA    =     F    only Hartree local field effects (RPA)
   LNABLA  =     F    use nabla operator in PAW spheres
   LVEL    =     F    velocity operator in full k-point grid
   LINTERFAST=   F  fast interpolation
   KINTER  =     0    interpolate to denser k-point grid
   CSHIFT  =0.1000    complex shift for real part using Kramers Kronig
   OMEGAMAX=  -1.0    maximum frequency
   DEG_THRESHOLD= 0.2000000E-02 threshold for treating states as degnerate
   RTIME   =   -0.100 relaxation time in fs
  (WPLASMAI=    0.000 imaginary part of plasma frequency in eV, 0.658/RTIME)
   DFIELD  = 0.0000000 0.0000000 0.0000000 field for delta impulse in time

 Orbital magnetization related:
   ORBITALMAG=     F  switch on orbital magnetization
   LCHIMAG   =     F  perturbation theory with respect to B field
   DQ        =  0.001000  dq finite difference perturbation B field
   LLRAUG    =     F  two centre corrections for induced B field



--------------------------------------------------------------------------------------------------------


 conjugate gradient relaxation of ions
 charge density and potential will be updated during run
 non-spin polarized calculation
 Variant of blocked Davidson
 Davidson routine will perform the subspace rotation
 perform sub-space diagonalisation
    after iterative eigenvector-optimisation
 modified Broyden-mixing scheme, WC =      100.0
 initial mixing is a Kerker type mixing with AMIX =  0.4000 and BMIX =      1.0000
 Hartree-type preconditioning will be used
 using additional bands          284
 real space projection scheme for non local part
 use partial core corrections
 calculate Harris-corrections to forces   (improved forces if not selfconsistent)
 use gradient corrections 
 use of overlap-Matrix (Vanderbilt PP)
 Gauss-broadening in eV      SIGMA  =   0.01


--------------------------------------------------------------------------------------------------------


  energy-cutoff  :      300.00
  volume of cell :    12802.17
      direct lattice vectors                 reciprocal lattice vectors
    16.840035000  0.000000000 16.155961000     0.029691150 -0.000000000  0.030948329
     0.000000000 23.527616000  0.000000000     0.000000000  0.042503244 -0.000000000
   -16.840035000  0.000000000 16.155961000    -0.029691150  0.000000000  0.030948329

  length of vectors
    23.336706165 23.527616000 23.336706165     0.042887801  0.042503244  0.042887801



 k-points in units of 2pi/SCALE and weight: 1x1x1                                   
  -0.00000000  0.00000000  0.00000000       1.000

 k-points in reciprocal lattice and weights: 1x1x1                                   
   0.00000000  0.00000000  0.00000000       1.000

 position of ions in fractional coordinates (direct lattice) 
   0.88638569  0.87541713  0.35252599
   0.13669989  0.87525092  0.60434756
   0.88626096  0.37505047  0.35223489
   0.13782739  0.37511135  0.60451231
   0.88650685  0.87536929  0.85431181
   0.13635450  0.87527666  0.10381345
   0.38582932  0.87535205  0.35414635
   0.63512229  0.87526721  0.60437842
   0.88654905  0.37494859  0.85445063
   0.13614448  0.37507143  0.10347943
   0.38618190  0.87544491  0.85413385
   0.63613408  0.87534727  0.10369991
   0.38625108  0.37496624  0.85390154
   0.63623702  0.37502691  0.10379693
   0.10382431  0.12517253  0.38616747
   0.35361341  0.12518727  0.63613196
   0.10491135  0.62516345  0.38567875
   0.10408542  0.12515884  0.88650641
   0.35371071  0.12519481  0.13611973
   0.60314269  0.12513175  0.38553386
   0.85437610  0.12513871  0.63690835
   0.10384548  0.62518536  0.88602464
   0.35434136  0.62516447  0.13646354
   0.85996404  0.62550505  0.64349851
   0.60388273  0.12515620  0.88639700
   0.85397677  0.12519116  0.13607725
   0.60369161  0.62528257  0.88694017
   0.85428913  0.62517293  0.13610870
   0.89662628  0.87527139  0.11407000
   0.14668671  0.87512047  0.36409373
   0.89670519  0.37505332  0.11408464
   0.14666995  0.37513422  0.36391417
   0.90001486  0.87546900  0.61728955
   0.14671665  0.87533888  0.86431769
   0.39627679  0.87535347  0.11401059
   0.64559730  0.87536542  0.36309036
   0.90035541  0.37478556  0.61750766
   0.14682181  0.37500872  0.86434926
   0.39623035  0.37498418  0.11392207
   0.39657675  0.87533133  0.61406189
   0.64652115  0.87530521  0.86416048
   0.64635417  0.37507687  0.86410783
   0.11419057  0.12516864  0.14654831
   0.36394472  0.12516102  0.39623374
   0.11384525  0.62515914  0.14676176
   0.11434392  0.12516329  0.64623289
   0.36408325  0.12515874  0.89668546
   0.61401056  0.12518808  0.14647757
   0.86532467  0.12516987  0.39611711
   0.11494978  0.62510494  0.64663298
   0.36424878  0.62521716  0.89653714
   0.61378288  0.62512824  0.14620344
   0.87106391  0.62521448  0.39015434
   0.61414904  0.12509707  0.64748659
   0.86416673  0.12517246  0.89666503
   0.86451241  0.62516223  0.89797173
   0.75005900  0.75047581  0.24938831
   0.00046941  0.75027103  0.50034974
   0.75003036  0.25008394  0.24991646
   0.00023500  0.25061484  0.50011179
   0.75008086  0.75016043  0.75044729
   0.00022465  0.75043969  0.00006534
   0.24994971  0.75043342  0.24984131
   0.49994124  0.75029867  0.50023797
   0.75005805  0.25050121  0.75032898
   0.00021055  0.25022316  0.00018201
   0.25019380  0.75056650  0.75035952
   0.49992144  0.75051700  0.00004244
   0.25025292  0.25018542  0.75024533
   0.50005066  0.25030241  0.00013026
   0.00052991  0.75081640  0.24964274
   0.25021105  0.75040121  0.50027956
   0.00030862  0.25017176  0.24999599
   0.00081603  0.75079283  0.75087607
   0.25012920  0.75039774  0.00011783
   0.49969998  0.75111714  0.24967153
   0.75184189  0.75496909  0.50107554
   0.00045434  0.24977722  0.75039581
   0.25015543  0.25040879  0.00015519
   0.75020657  0.24856701  0.50011955
   0.49974987  0.75085176  0.75054906
   0.75011816  0.75053838  0.00007233
   0.49996154  0.25002415  0.75029728
   0.75013584  0.25041546  0.00014775
   0.00023828  0.00043885  0.24995345
   0.25004780  0.00040802  0.50005324
   0.00053268  0.49980344  0.24967471
   0.00036371  0.00067387  0.75036158
   0.25010881  0.00038673  0.00011369
   0.49986796  0.00051823  0.24987879
   0.75013902  0.00156590  0.50002771
   0.00085508  0.49956797  0.75086669
   0.25009588  0.50047025  0.00010761
   0.75310328  0.49528713  0.50249407
   0.49993738  0.00045555  0.75021566
   0.75010447  0.00041001  0.00012201
   0.49980632  0.50005782  0.75057266
   0.75010052  0.50027099  0.00009133
   0.75009158  0.00063453  0.24988711
   0.00025107  0.00010071  0.50008080
   0.75015105  0.50025853  0.24969532
   0.00074983  0.50016076  0.50045725
   0.75013255  0.00031628  0.75045170
   0.00021837  0.00045442  0.00019410
   0.25005927  0.00052586  0.25004290
   0.49999629  0.00061766  0.50017918
   0.75012760  0.50050368  0.75058144
   0.00026824  0.50032295  0.00008908
   0.25021226  0.00045651  0.75022744
   0.50008603  0.00053170  0.00014711
   0.25033095  0.50024483  0.75047477
   0.49995889  0.50031325  0.00007476
   0.98430831  0.12544871  0.23121349
   0.23449440  0.12560535  0.48105204
   0.98357746  0.62546888  0.23342813
   0.23389227  0.62547497  0.48136588
   0.98473765  0.12536715  0.73046228
   0.23460264  0.12554236  0.98115454
   0.48451481  0.12546081  0.23110136
   0.73510177  0.12510575  0.48133148
   0.98855871  0.62530562  0.73484440
   0.23452905  0.62557824  0.98077349
   0.48574350  0.62530218  0.23355352
   0.48416868  0.12542867  0.73065759
   0.73459191  0.12554995  0.98115756
   0.73439414  0.62553078  0.98159012
   0.23107151  0.87544542  0.23463784
   0.48241143  0.87541458  0.48455429
   0.23031114  0.37540366  0.23408230
   0.23109344  0.87555830  0.73468281
   0.48107688  0.87558774  0.98478921
   0.73130172  0.87539985  0.23488973
   0.97828482  0.87507816  0.48498605
   0.23145843  0.37550482  0.73493379
   0.48108065  0.37555790  0.98459175
   0.73094592  0.37562348  0.23547098
   0.97787833  0.37594820  0.48477632
   0.73084048  0.87516815  0.73354422
   0.98102882  0.87548141  0.98470084
   0.98113891  0.37543501  0.98477863
   0.77001853  0.12550861  0.26658255
   0.01870425  0.12556615  0.51571344
   0.76983182  0.62555204  0.26648338
   0.02154503  0.62549936  0.51526496
   0.76936907  0.12561373  0.76576992
   0.01966513  0.12546215  0.01612990
   0.26959757  0.12553018  0.26598929
   0.52082951  0.12558161  0.51626822
   0.76941351  0.62554725  0.76814593
   0.01943415  0.62548621  0.01590113
   0.26989463  0.12551838  0.76603263
   0.51985726  0.12559948  0.01615200
   0.26872196  0.62557574  0.76674327
   0.51915530  0.62557707  0.01620173
   0.01636023  0.87555697  0.26942353
   0.26615399  0.87540080  0.51944350
   0.01637144  0.37536296  0.26933493
   0.01589814  0.87565725  0.76937424
   0.26598349  0.87553262  0.01956129
   0.51547980  0.87551287  0.26992687
   0.76781344  0.87115634  0.52117861
   0.01594440  0.37501536  0.76961461
   0.26593812  0.37561437  0.01942691
   0.76773678  0.37890821  0.52251996
   0.51614301  0.87556936  0.76964913
   0.76604295  0.87547067  0.01970867
   0.51615344  0.37542612  0.76883119
   0.76613311  0.37563979  0.01977696
   0.87400428  0.98217719  0.22470984
   0.12393282  0.98199357  0.47475724
   0.87401079  0.48224975  0.22482624
   0.12394676  0.48152926  0.47559006
   0.87403676  0.98249556  0.72494017
   0.12407551  0.98223984  0.97469038
   0.37417681  0.98219784  0.22473903
   0.62520019  0.98187731  0.47492775
   0.87412328  0.48258883  0.72503469
   0.12405747  0.48222643  0.97457307
   0.37424609  0.48199782  0.22466740
   0.37418158  0.98213333  0.72458553
   0.62421127  0.98218114  0.97470512
   0.62423292  0.48219884  0.97478397
   0.97465606  0.01783438  0.37422415
   0.22468973  0.01805644  0.62402044
   0.97695206  0.51659609  0.37429650
   0.22551190  0.51843549  0.62405387
   0.97462214  0.01817265  0.87400876
   0.22462704  0.01810165  0.12416818
   0.47478373  0.01818026  0.37426858
   0.72468191  0.01785085  0.62359476
   0.97447148  0.51780769  0.87408895
   0.22460086  0.51821397  0.12411807
   0.47466766  0.01817140  0.87404691
   0.72464863  0.01811440  0.12437366
   0.47463608  0.51782582  0.87424641
   0.72481697  0.51815228  0.12467308
   0.02579290  0.76803864  0.12610695
   0.27536487  0.76797128  0.37627189
   0.02562903  0.26804746  0.12618416
   0.02540236  0.76790515  0.62619004
   0.27580137  0.76824797  0.87613853
   0.52573462  0.76804976  0.12639766
   0.77717328  0.76578394  0.37707374
   0.02609380  0.26841298  0.62610915
   0.27569379  0.26804485  0.87610805
   0.52568321  0.26821385  0.12627812
   0.77540515  0.26851049  0.37690439
   0.52574576  0.76785427  0.62611649
   0.77553843  0.76823257  0.87562906
   0.77552398  0.26825859  0.87594613
   0.12606978  0.23214442  0.27572416
   0.37654867  0.23236467  0.52530799
   0.12611606  0.73228346  0.27547282
   0.12612318  0.23208157  0.77567655
   0.37620140  0.23223488  0.02566829
   0.62620102  0.23230675  0.27579159
   0.87583254  0.23240406  0.52613061
   0.12626340  0.73304381  0.77609218
   0.37618861  0.73222786  0.02575613
   0.87455231  0.72502236  0.52407679
   0.62619403  0.23213820  0.77562126
   0.87606762  0.23223318  0.02557423
   0.62622764  0.73244324  0.77614430
   0.87601712  0.73227991  0.02568631
   0.87401098  0.76803630  0.22480163
   0.12354503  0.76863893  0.47572388
   0.87397618  0.26815245  0.22470507
   0.12398608  0.26854665  0.47480799
   0.87409188  0.76775729  0.72492188
   0.12402836  0.76813095  0.97459633
   0.37420452  0.76804987  0.22447983
   0.62593373  0.76589130  0.47300457
   0.87402231  0.26782665  0.72495847
   0.12406156  0.26805137  0.97464554
   0.37416904  0.26834436  0.22490511
   0.37424360  0.76834568  0.72454971
   0.62419315  0.76813786  0.97470350
   0.62418903  0.26816820  0.97469606
   0.97469296  0.23251075  0.37426289
   0.22473818  0.23222716  0.62403176
   0.97687102  0.73415368  0.37425885
   0.22486329  0.73225166  0.62412801
   0.97466033  0.23209171  0.87401627
   0.22468308  0.23218041  0.12417481
   0.47481077  0.23215803  0.37434286
   0.72458752  0.23232276  0.62363199
   0.97439694  0.73250737  0.87411331
   0.22458859  0.73212163  0.12418222
   0.47467375  0.23216230  0.87408739
   0.72468258  0.23222695  0.12442664
   0.47447419  0.73278054  0.87421876
   0.72470213  0.73209413  0.12444462
   0.12608239  0.01813251  0.27572029
   0.37648758  0.01805883  0.52546800
   0.12613299  0.51803207  0.27550288
   0.12611476  0.01823317  0.77566363
   0.37621555  0.01813287  0.02567203
   0.62622496  0.01801122  0.27572995
   0.87574135  0.01788065  0.52600027
   0.12630408  0.51754636  0.77587129
   0.37621031  0.51814876  0.02573799
   0.87579319  0.52533716  0.52519660
   0.62622982  0.01812386  0.77561299
   0.87608320  0.01809567  0.02561303
   0.62630276  0.51817362  0.77626178
   0.87605965  0.51806942  0.02568406
   0.02563023  0.98221455  0.12617232
   0.27550456  0.98228591  0.37621560
   0.02577984  0.48234377  0.12610592
   0.02576944  0.98215636  0.62607059
   0.27562822  0.98229734  0.87608861
   0.52566978  0.98220804  0.12623287
   0.77539013  0.98193033  0.37678378
   0.02583761  0.48221162  0.62620087
   0.27584710  0.48216984  0.87609752
   0.52565081  0.48215799  0.12638065
   0.77760054  0.48550820  0.37766700
   0.52565436  0.98225395  0.62603840
   0.77556976  0.98211431  0.87594047
   0.77555792  0.48207685  0.87571756
   0.38668132  0.37499453  0.35638606
   0.63415416  0.37529101  0.60399257
   0.59301051  0.62532145  0.37910555
   0.35361578  0.62529349  0.63781167
   0.39770672  0.37517020  0.61416255
   0.64574378  0.37564749  0.36413559
   0.61159005  0.62546748  0.65267326
   0.36196893  0.62527510  0.39572497
   0.25007489  0.25039568  0.24998203
   0.50010192  0.24991330  0.50023168
   0.49993059  0.25028261  0.24995518
   0.25010950  0.25047821  0.50010015
   0.49969639  0.49924597  0.24966886
   0.25027414  0.50034055  0.50022496
   0.25000209  0.49997792  0.24986579
   0.50033765  0.50181696  0.50037528
   0.48226492  0.62557243  0.73448897
   0.73018400  0.37599517  0.73311922
   0.48513424  0.37630645  0.48566968
   0.26873372  0.62532368  0.26533256
   0.52448226  0.62616877  0.51670852
   0.51589562  0.37526343  0.27072491
   0.26735896  0.37570095  0.51987414
   0.37435984  0.48204094  0.72452601
   0.62686437  0.48650329  0.47392881
   0.47359008  0.51811802  0.37433499
   0.72628571  0.52416289  0.62303597
   0.52568147  0.26779909  0.62609766
   0.27559076  0.26818513  0.37624099
   0.62628040  0.73300315  0.27564034
   0.37664025  0.73161273  0.52561398
   0.37416945  0.26820094  0.72445344
   0.62536751  0.26818026  0.47497456
   0.47318934  0.73269238  0.37435971
   0.72564552  0.72791118  0.62267256
   0.62628054  0.51765800  0.27557160
   0.37691757  0.51964131  0.52519238
   0.52635227  0.48438219  0.62617148
   0.27547682  0.48215063  0.37619926

 position of ions in cartesian coordinates  (Angst):
   8.99021601 20.59647797 20.01580880
  -7.87520300 20.59256762 11.97233372
   8.99301771  8.82404348 20.00909077
  -7.85899029  8.82547574 11.99321130
   0.54216563 20.59535245 28.12459833
   0.54799237 20.59317323  3.88014402
   0.53354243 20.59494699 11.95501810
   0.51772789 20.59295090 20.02532518
   0.54053851  8.82164634 28.12752295
   0.55008065  8.82453662  3.87135449
  -7.88032729 20.59713163 20.03849296
   8.96621002 20.59483433 11.95272919
  -7.87525009  8.82206163 20.03585750
   8.96630986  8.82348914 11.95595967
  -4.75466864  2.94501119  7.91628814
  -4.75762226  2.94535801 15.99028771
  -4.72813287 14.70860551  7.92595448
 -13.17599686  2.94468903 16.00396303
   3.66423967  2.94553540  7.91368145
   3.66454016  2.94405184 15.97301978
   3.66216449  2.94421547 24.09313330
 -13.17192456 14.70912115 15.99230306
   3.66907010 14.70862962  7.92942486
   3.64528708 14.71664260 24.28988224
  -4.75755018  2.94462710 24.07690113
  12.08945307  2.94544962 15.99527401
  -4.76991555 14.71140810 24.08258895
  12.09418358 14.70882863 16.00082865
  13.17827507 20.59304924 16.32876965
  -3.66114174 20.58949826  8.25214891
  13.17935751  8.82411046 16.33028105
  -3.65840018  8.82601394  8.24897714
   4.76110419 20.59769834 24.51351094
 -12.08442669 20.59463697 16.33423128
   4.75337265 20.59498025  8.24418298
   4.75742663 20.59526143 16.29631851
   4.76316611  8.81781083 24.52253661
 -12.08318732  8.82306120 16.33644031
   4.75408137  8.82248372  8.24200266
  -3.66245727 20.59445937 16.32783845
  -3.66505389 20.59384489 24.40651353
  -3.66697916  8.82466449 24.40296512
  -0.54490550  2.94491968  4.21248721
  -0.54374834  2.94474035 12.28141354
  -0.55431519 14.70850424  4.21035660
  -8.95702876  2.94479381 12.28784925
  -8.96903993  2.94468679 20.36893017
   7.87327194  2.94537703 12.28641659
   7.90147170  2.94494860 20.37980429
  -8.95356367 14.70722891 12.30410128
  -8.96375460 14.70986926 20.36920803
   7.87405422 14.70777716 12.27830933
   8.09853399 14.70980616 20.37619277
  -0.56140542  2.94323581 20.38293610
  -0.54727245  2.94500954 28.44792924
  -0.56345598 14.70857688 28.47462501
   8.43131195 17.65690675 16.14703192
  -8.41800234 17.65208864  8.09121464
   8.42193544  5.88387881 16.15510182
  -8.41794262  5.89636963  8.08358316
  -0.00617081 17.64948655 24.24247424
   0.00268291 17.65605685  0.00468503
   0.00182534 17.65590926  8.07460419
  -0.00499690 17.65273895 16.15885623
  -0.00456239  5.89369623 24.24019439
   0.00048057  5.88715443  0.00634217
  -8.42280821 17.65904048 16.16490035
   8.41797977 17.65787580  8.07739699
  -8.41988973  5.88626642 16.16401082
   8.41867705  5.88901908  8.08090331
  -4.19506867 17.66491987  4.04177954
  -4.21116253 17.65515158 12.12489706
  -4.20474401  5.88594504  4.04391154
 -12.63103719 17.66436544 12.14430824
   4.21020017 17.65506989  4.04298134
   4.21048783 17.67199571 12.10681679
   4.22291422 17.76262278 20.24208510
 -12.62904056  5.87666240 12.13070576
   4.21001283  5.89152197  4.04400869
   4.21147414  5.84818913 20.20022006
  -4.22346721 17.66575182 20.19978074
  12.63079800 17.65837889 12.12004833
  -4.21566253  5.88247220 20.19913280
  12.62982570  5.89167883 12.12155251
  -4.20521230  0.01032519  4.04208785
  -4.21010046  0.00959977 12.11860317
  -4.19556045 11.75918340  4.04234077
 -12.62999037  0.01585447 12.12868841
   4.20992649  0.00909892  4.04258489
   4.20982645  0.01219278 12.11287934
   4.21188326  0.03684186 20.19764502
 -12.63022175 11.75364328 12.14478770
   4.20981126 11.77487179  4.04227784
   4.22026799 11.65292543 20.28538178
  -4.21469492  0.01071807 20.19742368
  12.62973087  0.00964661 12.12062976
  -4.22291403 11.76516848 20.20107410
  12.63018103 11.77018375 12.12007023
   8.42346074  0.01492892 16.15561678
  -8.41715026  0.00236957  8.08334218
   8.42769210 11.76989048 16.15347890
  -8.41509053 11.76759041  8.09748200
  -0.00537452  0.00744124 24.24338059
   0.00040871  0.01069136  0.00666398
   0.00027581  0.01237221  8.07963114
  -0.00307990  0.01453214 16.15879580
  -0.00764266 11.77565841 24.24539680
   0.00301717 11.77140632  0.00577280
  -8.42027315  0.01074052 16.16306489
   8.41898894  0.01250970  8.08174711
  -8.42243944 11.76956816 16.16897806
   8.41806624 11.77117805  8.07852421
  12.68214316  2.95150918 19.63792274
  -4.15203926  2.95519434 11.56034048
  12.63254097 14.71579159 19.66189476
  -4.16746422 14.71593485 11.55568270
   4.28200611  2.94959008 27.71070321
 -12.57196016  2.95371246 19.64172565
   4.26749140  2.95179385 11.56146702
   4.27350061  2.94344015 19.65264805
   4.27255787 14.71195048 27.84323344
 -12.56678246 14.71836460 19.63438053
   4.24688811 14.71186946 11.62093453
  -4.15088186  2.95103757 19.62668592
  -4.15217410  2.95389093 27.71958153
  -4.16278883 14.71724804 27.72337475
  -0.06005707 20.59714376  7.52398205
  -0.03608574 20.59641796 15.62226048
  -0.06350640  8.83235313  7.50272231
  -8.48046271 20.59979945 15.60304336
  -8.48253333 20.60049219 23.68247543
   8.35959523 20.59607155 15.60975136
   8.30716859 20.58850297 23.64054717
  -8.47854259  8.83473321 15.61299496
  -8.47914449  8.83598201 23.67934622
   8.34381532  8.83752511 15.61339360
   8.30385517  8.84516493 23.63059140
  -0.04553100 20.59062008 23.65854204
  -0.06183696 20.59799046 31.75825164
  -0.06129300  8.83309069 31.76128699
   8.47787954  2.95291847 16.74728655
  -8.36965218  2.95427222  8.63403139
   8.47640536 14.71774820 16.74266789
  -8.31426076 14.71650868  8.67268127
   0.06060978  2.95539168 24.80164561
   0.05953341  2.95182526  0.57830324
   0.06076353  2.95342594  8.65292039
   0.07681231  2.95463585 16.75531047
   0.02134601 14.71763551 24.84075029
   0.05949611 14.71619928  0.57087531
  -8.35498131  2.95314826 16.73640028
   8.48241422  2.95505635  8.65974463
  -8.38669619 14.71830586 16.72893581
   8.46975580 14.71833710  8.64920734
  -4.26159486 20.59976828  4.61711122
  -4.26540431 20.59609390 12.69208237
  -4.25991412  8.83139564  4.61586101
 -12.68856388 20.60212755 12.68683001
   4.14975852 20.59919525  4.61325025
   4.13511984 20.59873059 12.68899957
   4.15333910 20.49623181 20.82490522
 -12.69183270  8.82321734 12.69146074
   4.15125750  8.83731073  4.61034623
   4.12945987  8.91480685 20.84533760
  -4.26905186 20.60005966 20.77320776
  12.56829546 20.59773765 12.69457245
  -4.25510204  8.83288148 20.76016152
  12.56866371  8.83790880 12.69713234
  10.93414111 23.10828784 17.75078238
  -5.90789539 23.10396754  9.67241326
  10.93229049 11.34618688 17.75276829
  -5.92168541 11.32923545  9.68609356
   2.51079188 23.11577824 25.83300896
 -14.32438418 23.10976188 17.75161895
   2.51653743 23.10877360  9.67606084
   2.53059313 23.10123242 17.77362397
   2.51065699 11.35416472 25.83593386
 -14.32271248 11.34563835 17.74943209
   2.51891043 11.34025961  9.67602309
  -5.90081471 23.10725576 17.75163864
  -5.90232864 23.10838070 25.83203083
[...]
     -1.69070     23.10697     26.68212         0.000229      0.000647     -0.000151
     -1.68713     11.34217     26.67800        -0.000626      0.000386     -0.000930
      0.50968      8.82273     12.00488        -0.001861     -0.000274     -0.000487
      0.50709      8.82945     20.00411        -0.002794     -0.001228      0.002670
      3.60208     14.71229     15.70548        -0.000611     -0.000055      0.000342
     -4.78506     14.71165     16.01686         0.003503     -0.000035     -0.002926
     -3.64612      8.82705     16.34696        -0.004380      0.000285     -0.003195
      4.74184      8.83786     16.31511        -0.001831     -0.001038     -0.001893
     -0.69140     14.71588     20.42465         0.002093      0.000344     -0.003201
     -0.56817     14.71107     12.24100         0.001357     -0.000413     -0.000602
      0.00159      5.89105      8.07883        -0.000321     -0.000428     -0.000037
     -0.00214      5.87974     16.16136        -0.000144     -0.001137      0.000213
      4.20971      5.88862     12.11506        -0.000661      0.000157      0.000208
     -4.20988      5.89322     12.12031         0.000263     -0.000002      0.000008
      4.21059     11.74637     12.10671        -0.000042     -0.000028      0.000448
     -4.20905     11.77200     12.12500        -0.000910     -0.000548      0.000223
      0.00220     11.76347      8.07591         0.000416      0.000263     -0.000068
     -0.00116     11.80581     16.16737        -0.000047     -0.004567      0.000614
     -4.24754     14.71832     19.65781        -0.000142      0.000579     -0.000436
     -0.04885      8.84635     23.64147         0.002239      0.000290      0.002205
     -0.00906      8.85303     15.68405        -0.000578     -0.001203     -0.001092
      0.05684     14.71248      8.62807        -0.001623      0.000431     -0.001180
      0.12978     14.73208     16.82039        -0.005193     -0.001614     -0.005029
      4.12863      8.82917     12.70818        -0.000504      0.001216     -0.002133
     -4.25171      8.83937     12.71778         0.002502      0.001241     -0.003586
     -5.89729     11.34147     17.75357        -0.001102      0.000922      0.000543
      2.57576     11.44625     17.78429         0.001191      0.000389     -0.000110
      1.67176     12.18984     13.69912        -0.000013     -0.001100      0.001536
      1.73941     12.33227     21.79910         0.000661      0.000350     -0.000235
     -1.69154      6.30056     18.60849        -0.000540     -0.000498     -0.000045
     -1.69549      6.30976     10.53136        -0.000208     -0.000061     -0.000409
      5.90509     17.24598     14.57175        -0.000143      0.000724      0.000464
     -2.50832     17.21395     14.57696         0.000204      0.003542     -0.000969
     -5.89917      6.30975     17.74919        -0.000423     -0.001335      0.000425
      2.53238      6.30957     17.77686        -0.000105     -0.000307      0.000077
      1.66467     17.23863     13.69278         0.000235      0.000558      0.000767
      1.73460     17.12607     21.78310         0.000130     -0.000066      0.001019
      5.90627     12.17899     14.57081        -0.000459     -0.000975      0.000636
     -2.49675     12.22488     14.57514        -0.001191     -0.005379      0.001425
     -1.68151     11.39585     18.62052        -0.001106     -0.002168      0.000325
     -1.69669     11.34410     10.52888        -0.000739      0.001239      0.000341
 -----------------------------------------------------------------------------------
    total drift:                               -0.005805     -0.247282     -0.871905


--------------------------------------------------------------------------------------------------------



  FREE ENERGIE OF THE ION-ELECTRON SYSTEM (eV)
  ---------------------------------------------------
  free  energy   TOTEN  =    -11418.46924360 eV

  energy  without entropy=   -11418.46924360  energy(sigma->0) =   -11418.46924360

 d Force = 0.3054527E-03[ 0.222E-03, 0.389E-03]  d Energy = 0.3045722E-03 0.880E-06
 d Force = 0.1553094E+00[ 0.153E+00, 0.158E+00]  d Ewald  = 0.1553104E+00-0.989E-06


--------------------------------------------------------------------------------------------------------


    POTLOK:  cpu time    3.8934: real time    3.8936


--------------------------------------------------------------------------------------------------------


 stress matrix after NEB project (eV)
    -15.10277     -0.03199     -0.24307
     -0.03199    -18.40260     -0.05260
     -0.24319     -0.05259    -19.22671
  FORCES: max atom, RMS     0.009116    0.002138
  FORCE total and by dimension    0.038178    0.006660
  Stress total and by dimension   30.602966   19.226707


--------------------------------------------------------------------------------------------------------


  
 reached required accuracy - stopping structural energy minimisation
     LOOP+:  cpu time  377.6936: real time  377.8866
    4ORBIT:  cpu time    0.0000: real time    0.0000



 total charge     

# of ion       s       p       d       tot
------------------------------------------
    1        1.786   4.719   0.019   6.523
    2        1.786   4.719   0.019   6.523
    3        1.786   4.719   0.019   6.523
    4        1.786   4.719   0.019   6.523
    5        1.786   4.719   0.019   6.523
    6        1.786   4.719   0.019   6.523
    7        1.786   4.719   0.019   6.523
    8        1.786   4.719   0.018   6.523
    9        1.786   4.719   0.019   6.523
   10        1.786   4.719   0.019   6.524
   11        1.786   4.719   0.019   6.523
   12        1.786   4.719   0.019   6.523
   13        1.786   4.719   0.019   6.523
   14        1.786   4.719   0.019   6.523
   15        1.786   4.719   0.019   6.523
   16        1.786   4.719   0.019   6.523
   17        1.786   4.719   0.019   6.523
   18        1.786   4.719   0.019   6.523
   19        1.786   4.719   0.019   6.523
   20        1.786   4.719   0.019   6.523
   21        1.786   4.719   0.019   6.523
   22        1.786   4.719   0.019   6.523
   23        1.786   4.719   0.018   6.522
   24        1.787   4.719   0.020   6.526
   25        1.786   4.719   0.019   6.523
   26        1.786   4.719   0.019   6.523
   27        1.786   4.719   0.019   6.523
   28        1.786   4.719   0.019   6.523
   29        1.786   4.719   0.019   6.524
   30        1.786   4.719   0.019   6.523
   31        1.786   4.719   0.019   6.524
   32        1.786   4.719   0.019   6.524
   33        1.786   4.719   0.019   6.524
   34        1.786   4.719   0.019   6.524
   35        1.786   4.719   0.019   6.524
   36        1.786   4.719   0.019   6.523
   37        1.786   4.719   0.019   6.524
   38        1.786   4.719   0.019   6.524
   39        1.786   4.719   0.019   6.523
   40        1.786   4.719   0.019   6.523
   41        1.786   4.719   0.019   6.523
   42        1.786   4.719   0.019   6.523
   43        1.786   4.719   0.019   6.523
   44        1.786   4.719   0.019   6.524
   45        1.786   4.719   0.018   6.523
   46        1.786   4.719   0.019   6.523
   47        1.786   4.719   0.019   6.524
   48        1.786   4.719   0.019   6.524
   49        1.786   4.719   0.019   6.523
   50        1.786   4.719   0.019   6.523
   51        1.786   4.719   0.019   6.523
   52        1.786   4.719   0.019   6.523
   53        1.786   4.718   0.019   6.523
   54        1.786   4.719   0.019   6.524
   55        1.786   4.719   0.019   6.523
   56        1.786   4.719   0.019   6.524
   57        1.554   0.417   9.833  11.804
   58        1.554   0.415   9.833  11.802
   59        1.554   0.415   9.833  11.803
   60        1.554   0.414   9.833  11.802
   61        1.554   0.415   9.833  11.802
   62        1.554   0.416   9.833  11.804
   63        1.554   0.416   9.833  11.804
   64        1.554   0.415   9.833  11.802
   65        1.554   0.415   9.833  11.802
   66        1.554   0.416   9.833  11.804
   67        1.554   0.416   9.833  11.804
   68        1.554   0.416   9.833  11.804
   69        1.554   0.416   9.833  11.803
   70        1.554   0.416   9.833  11.803
   71        1.554   0.417   9.834  11.806
   72        1.554   0.415   9.833  11.802
   73        1.554   0.416   9.833  11.804
   74        1.554   0.418   9.834  11.806
   75        1.554   0.415   9.833  11.803
   76        1.554   0.417   9.833  11.805
   77        1.533   0.455   9.832  11.820
   78        1.554   0.417   9.833  11.805
   79        1.554   0.416   9.833  11.803
   80        1.551   0.418   9.833  11.801
   81        1.554   0.417   9.833  11.804
   82        1.554   0.415   9.833  11.802
   83        1.554   0.416   9.833  11.804
   84        1.554   0.415   9.833  11.803
   85        1.554   0.416   9.833  11.804
   86        1.554   0.415   9.833  11.803
   87        1.555   0.417   9.834  11.805
   88        1.555   0.417   9.833  11.805
   89        1.554   0.416   9.833  11.803
   90        1.555   0.416   9.833  11.804
   91        1.551   0.418   9.833  11.801
   92        1.554   0.418   9.834  11.806
   93        1.554   0.415   9.833  11.803
   94        1.534   0.454   9.831  11.820
   95        1.554   0.416   9.833  11.804
   96        1.554   0.415   9.833  11.803
   97        1.554   0.417   9.833  11.805
   98        1.554   0.415   9.833  11.802
   99        1.554   0.416   9.833  11.803
  100        1.554   0.415   9.833  11.802
  101        1.554   0.416   9.833  11.804
  102        1.554   0.415   9.833  11.803
  103        1.554   0.415   9.833  11.803
  104        1.554   0.416   9.833  11.803
  105        1.554   0.416   9.833  11.803
  106        1.554   0.415   9.833  11.803
  107        1.554   0.415   9.833  11.802
  108        1.555   0.416   9.833  11.804
  109        1.554   0.416   9.833  11.803
  110        1.554   0.416   9.833  11.803
  111        1.554   0.416   9.833  11.804
  112        1.554   0.416   9.833  11.804
  113        1.614   3.285   0.006   4.906
  114        1.614   3.285   0.006   4.905
  115        1.614   3.285   0.006   4.905
  116        1.614   3.286   0.006   4.906
  117        1.614   3.286   0.006   4.907
  118        1.614   3.285   0.006   4.906
  119        1.614   3.285   0.006   4.906
  120        1.615   3.281   0.007   4.902
  121        1.614   3.289   0.006   4.910
  122        1.614   3.285   0.006   4.905
  123        1.614   3.286   0.006   4.906
  124        1.614   3.285   0.006   4.906
  125        1.614   3.285   0.006   4.905
  126        1.614   3.285   0.006   4.906
  127        1.614   3.285   0.006   4.906
  128        1.614   3.285   0.006   4.905
  129        1.614   3.285   0.006   4.906
  130        1.614   3.286   0.006   4.906
  131        1.614   3.285   0.006   4.906
  132        1.614   3.285   0.006   4.906
  133        1.614   3.285   0.006   4.905
  134        1.614   3.286   0.006   4.906
  135        1.614   3.285   0.006   4.906
  136        1.614   3.285   0.006   4.906
  137        1.614   3.285   0.006   4.905
  138        1.614   3.285   0.006   4.905
  139        1.614   3.286   0.006   4.906
  140        1.614   3.286   0.006   4.906
  141        1.614   3.285   0.006   4.905
  142        1.614   3.284   0.006   4.904
  143        1.614   3.286   0.006   4.906
  144        1.614   3.286   0.006   4.906
  145        1.614   3.285   0.006   4.905
  146        1.614   3.285   0.006   4.906
  147        1.614   3.285   0.006   4.905
  148        1.614   3.285   0.006   4.905
  149        1.614   3.286   0.006   4.906
  150        1.614   3.285   0.006   4.905
  151        1.614   3.285   0.006   4.906
  152        1.614   3.285   0.006   4.906
  153        1.614   3.285   0.006   4.906
  154        1.614   3.285   0.006   4.906
  155        1.614   3.286   0.006   4.906
  156        1.614   3.285   0.006   4.905
  157        1.614   3.286   0.006   4.906
  158        1.614   3.286   0.006   4.906
  159        1.614   3.285   0.006   4.906
  160        1.614   3.286   0.006   4.907
  161        1.616   3.277   0.007   4.900
  162        1.614   3.286   0.006   4.906
  163        1.614   3.285   0.006   4.905
  164        1.616   3.277   0.007   4.900
  165        1.614   3.285   0.006   4.906
  166        1.614   3.285   0.006   4.905
  167        1.614   3.285   0.006   4.905
  168        1.614   3.285   0.006   4.905
  169        1.614   3.284   0.006   4.904
  170        1.614   3.283   0.006   4.903
  171        1.614   3.284   0.006   4.904
  172        1.614   3.282   0.006   4.902
  173        1.614   3.284   0.006   4.904
  174        1.614   3.284   0.006   4.904
  175        1.614   3.284   0.006   4.904
  176        1.614   3.283   0.006   4.903
  177        1.614   3.285   0.006   4.905
  178        1.614   3.284   0.006   4.903
  179        1.614   3.283   0.006   4.903
  180        1.614   3.284   0.006   4.903
  181        1.614   3.284   0.006   4.904
  182        1.614   3.284   0.006   4.903
  183        1.614   3.284   0.006   4.904
  184        1.614   3.284   0.006   4.904
  185        1.614   3.286   0.006   4.906
  186        1.614   3.284   0.006   4.904
  187        1.614   3.284   0.006   4.904
  188        1.614   3.284   0.006   4.904
  189        1.614   3.284   0.006   4.904
  190        1.614   3.283   0.006   4.903
  191        1.614   3.284   0.006   4.904
  192        1.614   3.283   0.006   4.903
  193        1.614   3.284   0.006   4.904
  194        1.614   3.283   0.006   4.903
  195        1.614   3.284   0.006   4.904
  196        1.614   3.283   0.006   4.903
  197        1.614   3.284   0.006   4.904
  198        1.614   3.284   0.006   4.904
  199        1.614   3.284   0.006   4.903
  200        1.614   3.284   0.006   4.904
  201        1.614   3.284   0.006   4.903
  202        1.614   3.283   0.006   4.903
  203        1.614   3.282   0.006   4.902
  204        1.614   3.284   0.006   4.904
  205        1.614   3.284   0.006   4.904
  206        1.614   3.283   0.006   4.903
  207        1.614   3.283   0.006   4.903
  208        1.614   3.284   0.006   4.904
  209        1.614   3.283   0.006   4.903
  210        1.614   3.283   0.006   4.903
  211        1.614   3.284   0.006   4.903
  212        1.614   3.283   0.006   4.903
  213        1.614   3.284   0.006   4.904
  214        1.614   3.283   0.006   4.903
  215        1.614   3.284   0.006   4.903
  216        1.614   3.284   0.006   4.903
  217        1.614   3.283   0.006   4.903
  218        1.614   3.283   0.006   4.904
  219        1.614   3.283   0.006   4.903
  220        1.614   3.281   0.006   4.901
  221        1.614   3.284   0.006   4.904
  222        1.614   3.284   0.006   4.903
  223        1.614   3.284   0.006   4.904
  224        1.614   3.284   0.006   4.904
  225        1.614   3.284   0.006   4.904
  226        1.614   3.282   0.006   4.902
  227        1.614   3.284   0.006   4.904
  228        1.614   3.283   0.006   4.903
  229        1.614   3.285   0.006   4.905
  230        1.614   3.284   0.006   4.903
  231        1.614   3.284   0.006   4.904
  232        1.614   3.281   0.006   4.901
  233        1.614   3.284   0.006   4.904
  234        1.614   3.284   0.006   4.904
  235        1.614   3.283   0.006   4.903
  236        1.614   3.284   0.006   4.904
  237        1.614   3.284   0.006   4.904
  238        1.614   3.284   0.006   4.904
  239        1.614   3.284   0.006   4.904
  240        1.614   3.284   0.006   4.904
  241        1.614   3.286   0.006   4.906
  242        1.614   3.284   0.006   4.904
  243        1.614   3.284   0.006   4.904
  244        1.614   3.284   0.006   4.904
  245        1.614   3.284   0.006   4.904
  246        1.614   3.283   0.006   4.903
  247        1.614   3.284   0.006   4.904
  248        1.614   3.283   0.006   4.903
  249        1.614   3.284   0.006   4.903
  250        1.614   3.283   0.006   4.903
  251        1.614   3.283   0.006   4.904
  252        1.614   3.283   0.006   4.903
  253        1.614   3.284   0.006   4.903
  254        1.614   3.283   0.006   4.903
  255        1.614   3.284   0.006   4.904
  256        1.614   3.283   0.006   4.903
  257        1.614   3.284   0.006   4.903
  258        1.614   3.284   0.006   4.904
  259        1.614   3.283   0.006   4.903
  260        1.614   3.284   0.006   4.904
  261        1.614   3.283   0.006   4.903
  262        1.614   3.281   0.006   4.901
  263        1.614   3.284   0.006   4.904
  264        1.614   3.284   0.006   4.904
  265        1.614   3.284   0.006   4.904
  266        1.614   3.284   0.006   4.904
  267        1.614   3.283   0.006   4.903
  268        1.614   3.284   0.006   4.904
  269        1.614   3.284   0.006   4.904
  270        1.614   3.284   0.006   4.904
  271        1.614   3.284   0.006   4.904
  272        1.614   3.283   0.006   4.903
  273        1.614   3.283   0.006   4.903
  274        1.614   3.284   0.006   4.904
  275        1.614   3.283   0.006   4.903
  276        1.614   3.283   0.006   4.903
  277        1.614   3.282   0.006   4.901
  278        1.614   3.284   0.006   4.904
  279        1.614   3.283   0.006   4.903
  280        1.614   3.283   0.006   4.903
  281        1.785   4.719   0.018   6.522
  282        1.786   4.718   0.018   6.522
  283        1.786   4.719   0.020   6.525
  284        1.786   4.719   0.019   6.523
  285        1.786   4.719   0.019   6.523
  286        1.786   4.718   0.019   6.523
  287        1.787   4.719   0.020   6.526
  288        1.786   4.719   0.019   6.524
  289        1.554   0.415   9.833  11.803
  290        1.554   0.416   9.833  11.803
  291        1.555   0.416   9.833  11.804
  292        1.554   0.415   9.833  11.803
  293        1.554   0.417   9.833  11.805
  294        1.554   0.415   9.833  11.802
  295        1.554   0.416   9.833  11.804
  296        1.554   0.415   9.833  11.802
  297        1.614   3.286   0.006   4.907
  298        1.614   3.284   0.006   4.904
  299        1.614   3.285   0.006   4.905
  300        1.614   3.286   0.006   4.906
  301        1.614   3.285   0.006   4.906
  302        1.614   3.286   0.006   4.907
  303        1.614   3.285   0.006   4.905
  304        1.614   3.284   0.006   4.904
  305        1.614   3.281   0.006   4.900
  306        1.614   3.285   0.006   4.905
  307        1.614   3.280   0.006   4.900
  308        1.614   3.285   0.006   4.905
  309        1.614   3.284   0.006   4.904
  310        1.614   3.285   0.006   4.905
  311        1.614   3.282   0.006   4.902
  312        1.614   3.283   0.006   4.903
  313        1.614   3.283   0.006   4.903
  314        1.614   3.285   0.006   4.905
  315        1.614   3.280   0.006   4.900
  316        1.614   3.285   0.006   4.905
  317        1.614   3.282   0.006   4.902
  318        1.614   3.284   0.006   4.904
  319        1.614   3.284   0.006   4.904
--------------------------------------------------
tot        522.015 955.928 631.6802109.623


 total amount of memory used by VASP MPI-rank0    85359. kBytes
=======================================================================

   base      :      30000. kBytes
   nonlr-proj:       6223. kBytes
   fftplans  :      18627. kBytes
   grid      :      22209. kBytes
   one-center:         77. kBytes
   wavefun   :       8223. kBytes

  
  
 General timing and accounting informations for this job:
 ========================================================
  
                  Total CPU time used (sec):     2076.680
                            User time (sec):     2066.964
                          System time (sec):        9.716
                         Elapsed time (sec):     2079.009
  
                   Maximum memory used (kb):      166280.
                   Average memory used (kb):           0.
  
                          Minor page faults:        40602
                          Major page faults:            1
                 Voluntary context switches:         3010
