  39  39   1   0
  0.4089970E+02  0.1166870E-08  0.1172985E-08  0.1166870E-08  0.5000000E-15
   1.0000000000000000E-004
  CAR 
 CsPbBr3 cubic bulk                      
      8.08919349    -22.23115999  301      0.43330424      1.00000000
    -22.231  0.0000E+00  0.0000E+00
    -22.130  0.0000E+00  0.0000E+00
    -22.029  0.0000E+00  0.0000E+00
    -21.928  0.0000E+00  0.0000E+00
    -21.827  0.0000E+00  0.0000E+00
    -21.726  0.0000E+00  0.0000E+00
    -21.625  0.0000E+00  0.0000E+00
    -21.524  0.0000E+00  0.0000E+00
    -21.423  0.0000E+00  0.0000E+00
    -21.322  0.0000E+00  0.0000E+00
    -21.220  0.0000E+00  0.0000E+00
    -21.119  0.0000E+00  0.0000E+00
    -21.018  0.0000E+00  0.0000E+00
    -20.917  0.0000E+00  0.0000E+00
    -20.816  0.2541E+02  0.2568E+01
    -20.715  0.3872E+02  0.9914E+01
    -20.614  0.1979E+02  0.1400E+02
    -20.513  0.1979E+02  0.1600E+02
    -20.412  0.0000E+00  0.1600E+02
    -20.311  0.0000E+00  0.1600E+02
    -20.210  0.0000E+00  0.1600E+02
    -20.109  0.0000E+00  0.1600E+02
    -20.008  0.0000E+00  0.1600E+02
    -19.907  0.0000E+00  0.1600E+02
    -19.806  0.0000E+00  0.1600E+02
    -19.704  0.0000E+00  0.1600E+02
    -19.603  0.0000E+00  0.1600E+02
    -19.502  0.0000E+00  0.1600E+02
    -19.401  0.0000E+00  0.1600E+02
    -19.300  0.0000E+00  0.1600E+02
    -19.199  0.0000E+00  0.1600E+02
    -19.098  0.0000E+00  0.1600E+02
    -18.997  0.0000E+00  0.1600E+02
    -18.896  0.0000E+00  0.1600E+02
    -18.795  0.0000E+00  0.1600E+02
    -18.694  0.0000E+00  0.1600E+02
    -18.593  0.0000E+00  0.1600E+02
    -18.492  0.0000E+00  0.1600E+02
    -18.391  0.0000E+00  0.1600E+02
    -18.290  0.0000E+00  0.1600E+02
    -18.188  0.0000E+00  0.1600E+02
    -18.087  0.0000E+00  0.1600E+02
    -17.986  0.0000E+00  0.1600E+02
    -17.885  0.0000E+00  0.1600E+02
    -17.784  0.0000E+00  0.1600E+02
    -17.683  0.0000E+00  0.1600E+02
    -17.582  0.0000E+00  0.1600E+02
    -17.481  0.0000E+00  0.1600E+02
    -17.380  0.0000E+00  0.1600E+02
    -17.279  0.0000E+00  0.1600E+02
    -17.178  0.0000E+00  0.1600E+02
    -17.077  0.0000E+00  0.1600E+02
    -16.976  0.0000E+00  0.1600E+02
    -16.875  0.1749E-12  0.1600E+02
    -16.773  0.2603E+02  0.1863E+02
    -16.672  0.9053E+02  0.3115E+02
    -16.571  0.7915E+02  0.4000E+02
    -16.470  0.1094E+03  0.5106E+02
    -16.369  0.1263E+03  0.6876E+02
    -16.268  0.1569E+03  0.9186E+02
    -16.167  0.0000E+00  0.9600E+02
    -16.066  0.0000E+00  0.9600E+02
    -15.965  0.0000E+00  0.9600E+02
    -15.864  0.0000E+00  0.9600E+02
    -15.763  0.0000E+00  0.9600E+02
    -15.662  0.0000E+00  0.9600E+02
    -15.561  0.0000E+00  0.9600E+02
    -15.460  0.0000E+00  0.9600E+02
    -15.359  0.0000E+00  0.9600E+02
    -15.257  0.0000E+00  0.9600E+02
    -15.156  0.0000E+00  0.9600E+02
    -15.055  0.0000E+00  0.9600E+02
    -14.954  0.0000E+00  0.9600E+02
    -14.853  0.0000E+00  0.9600E+02
    -14.752  0.0000E+00  0.9600E+02
    -14.651  0.1237E+00  0.9601E+02
    -14.550  0.0000E+00  0.9800E+02
    -14.449  0.5389E-11  0.9800E+02
    -14.348  0.2967E+02  0.1010E+03
    -14.247  0.3985E+02  0.1058E+03
    -14.146  0.3828E+02  0.1101E+03
    -14.045  0.6161E+02  0.1177E+03
    -13.944  0.7857E+02  0.1269E+03
    -13.843  0.5044E+02  0.1343E+03
    -13.741  0.2226E+02  0.1380E+03
    -13.640  0.0000E+00  0.1380E+03
    -13.539  0.0000E+00  0.1380E+03
    -13.438  0.1964E+02  0.1400E+03
    -13.337  0.4870E-02  0.1400E+03
    -13.236  0.1978E+02  0.1420E+03
    -13.135  0.0000E+00  0.1420E+03
    -13.034  0.0000E+00  0.1420E+03
    -12.933  0.0000E+00  0.1420E+03
    -12.832  0.0000E+00  0.1420E+03
    -12.731  0.0000E+00  0.1420E+03
    -12.630  0.0000E+00  0.1420E+03
    -12.529  0.0000E+00  0.1420E+03
    -12.428  0.0000E+00  0.1420E+03
    -12.327  0.0000E+00  0.1420E+03
    -12.225  0.0000E+00  0.1420E+03
    -12.124  0.0000E+00  0.1420E+03
    -12.023  0.0000E+00  0.1420E+03
    -11.922  0.0000E+00  0.1420E+03
    -11.821  0.0000E+00  0.1420E+03
    -11.720  0.0000E+00  0.1420E+03
    -11.619  0.0000E+00  0.1420E+03
    -11.518  0.0000E+00  0.1420E+03
    -11.417  0.0000E+00  0.1420E+03
    -11.316  0.0000E+00  0.1420E+03
    -11.215  0.0000E+00  0.1420E+03
    -11.114  0.0000E+00  0.1420E+03
    -11.013  0.0000E+00  0.1420E+03
    -10.912  0.0000E+00  0.1420E+03
    -10.810  0.0000E+00  0.1420E+03
    -10.709  0.0000E+00  0.1420E+03
    -10.608  0.0000E+00  0.1420E+03
    -10.507  0.0000E+00  0.1420E+03
    -10.406  0.0000E+00  0.1420E+03
    -10.305  0.0000E+00  0.1420E+03
    -10.204  0.0000E+00  0.1420E+03
    -10.103  0.0000E+00  0.1420E+03
    -10.002  0.0000E+00  0.1420E+03
     -9.901  0.0000E+00  0.1420E+03
     -9.800  0.0000E+00  0.1420E+03
     -9.699  0.0000E+00  0.1420E+03
     -9.598  0.0000E+00  0.1420E+03
     -9.497  0.0000E+00  0.1420E+03
     -9.396  0.0000E+00  0.1420E+03
     -9.294  0.0000E+00  0.1420E+03
     -9.193  0.0000E+00  0.1420E+03
     -9.092  0.0000E+00  0.1420E+03
     -8.991  0.0000E+00  0.1420E+03
     -8.890  0.0000E+00  0.1420E+03
     -8.789  0.0000E+00  0.1420E+03
     -8.688  0.0000E+00  0.1420E+03
     -8.587  0.0000E+00  0.1420E+03
     -8.486  0.0000E+00  0.1420E+03
     -8.385  0.0000E+00  0.1420E+03
     -8.284  0.1048E-07  0.1420E+03
     -8.183  0.2474E+01  0.1423E+03
     -8.082  0.4306E+01  0.1427E+03
     -7.981  0.5014E+01  0.1435E+03
     -7.880  0.9318E+01  0.1447E+03
     -7.778  0.1669E+02  0.1464E+03
     -7.677  0.4594E+01  0.1472E+03
     -7.576  0.1691E+02  0.1495E+03
     -7.475  0.2353E+02  0.1521E+03
     -7.374  0.7403E+01  0.1530E+03
     -7.273  0.2985E+02  0.1560E+03
     -7.172  0.1784E+03  0.1763E+03
     -7.071  0.1649E+03  0.1977E+03
     -6.970  0.4382E+02  0.2027E+03
     -6.869  0.1240E+02  0.2053E+03
     -6.768  0.2474E+01  0.2058E+03
     -6.667  0.1705E-08  0.2058E+03
     -6.566  0.2474E+01  0.2060E+03
     -6.465  0.0000E+00  0.2060E+03
     -6.364  0.0000E+00  0.2060E+03
     -6.262  0.0000E+00  0.2060E+03
     -6.161  0.0000E+00  0.2060E+03
     -6.060  0.0000E+00  0.2060E+03
     -5.959  0.0000E+00  0.2060E+03
     -5.858  0.0000E+00  0.2060E+03
     -5.757  0.0000E+00  0.2060E+03
     -5.656  0.0000E+00  0.2060E+03
     -5.555  0.0000E+00  0.2060E+03
     -5.454  0.0000E+00  0.2060E+03
     -5.353  0.0000E+00  0.2060E+03
     -5.252  0.0000E+00  0.2060E+03
     -5.151  0.0000E+00  0.2060E+03
     -5.050  0.0000E+00  0.2060E+03
     -4.949  0.0000E+00  0.2060E+03
     -4.847  0.0000E+00  0.2060E+03
     -4.746  0.0000E+00  0.2060E+03
     -4.645  0.0000E+00  0.2060E+03
     -4.544  0.0000E+00  0.2060E+03
     -4.443  0.0000E+00  0.2060E+03
     -4.342  0.0000E+00  0.2060E+03
     -4.241  0.0000E+00  0.2060E+03
     -4.140  0.0000E+00  0.2060E+03
     -4.039  0.0000E+00  0.2060E+03
     -3.938  0.0000E+00  0.2060E+03
     -3.837  0.0000E+00  0.2060E+03
     -3.736  0.0000E+00  0.2060E+03
     -3.635  0.0000E+00  0.2060E+03
     -3.534  0.0000E+00  0.2060E+03
     -3.433  0.5860E+01  0.2066E+03
     -3.331  0.1396E+02  0.2084E+03
     -3.230  0.2270E+02  0.2118E+03
     -3.129  0.1333E+02  0.2138E+03
     -3.028  0.1248E+02  0.2160E+03
     -2.927  0.1511E+02  0.2178E+03
     -2.826  0.9350E+01  0.2189E+03
     -2.725  0.2061E+02  0.2211E+03
     -2.624  0.2995E+02  0.2250E+03
     -2.523  0.3416E+02  0.2292E+03
     -2.422  0.2819E+02  0.2326E+03
     -2.321  0.3179E+02  0.2365E+03
     -2.220  0.2399E+02  0.2397E+03
     -2.119  0.2364E+02  0.2426E+03
     -2.018  0.3407E+02  0.2467E+03
     -1.917  0.3464E+02  0.2508E+03
     -1.815  0.2602E+02  0.2539E+03
     -1.714  0.5278E+02  0.2598E+03
     -1.613  0.5295E+02  0.2666E+03
     -1.512  0.7420E+02  0.2757E+03
     -1.411  0.8153E+02  0.2865E+03
     -1.310  0.8536E+02  0.2979E+03
     -1.209  0.7795E+02  0.3079E+03
     -1.108  0.7810E+02  0.3176E+03
     -1.007  0.2630E+02  0.3217E+03
     -0.906  0.4084E+02  0.3266E+03
     -0.805  0.3601E+02  0.3311E+03
     -0.704  0.1452E+02  0.3342E+03
     -0.603  0.2433E+02  0.3367E+03
     -0.502  0.1366E+02  0.3386E+03
     -0.401  0.1515E+02  0.3410E+03
     -0.299  0.7418E+01  0.3420E+03
     -0.198  0.2507E+01  0.3423E+03
     -0.097  0.3286E+01  0.3428E+03
      0.004  0.4944E+01  0.3435E+03
      0.105  0.2474E+01  0.3437E+03
      0.206  0.0000E+00  0.3438E+03
      0.307  0.8692E-03  0.3438E+03
      0.408  0.2473E+01  0.3440E+03
      0.509  0.0000E+00  0.3440E+03
      0.610  0.0000E+00  0.3440E+03
      0.711  0.0000E+00  0.3440E+03
      0.812  0.0000E+00  0.3440E+03
      0.913  0.0000E+00  0.3440E+03
      1.014  0.0000E+00  0.3440E+03
      1.116  0.0000E+00  0.3440E+03
      1.217  0.0000E+00  0.3440E+03
      1.318  0.0000E+00  0.3440E+03
      1.419  0.0000E+00  0.3440E+03
      1.520  0.0000E+00  0.3440E+03
      1.621  0.0000E+00  0.3440E+03
      1.722  0.0000E+00  0.3440E+03
      1.823  0.0000E+00  0.3440E+03
      1.924  0.0000E+00  0.3440E+03
      2.025  0.0000E+00  0.3440E+03
      2.126  0.0000E+00  0.3440E+03
      2.227  0.0000E+00  0.3440E+03
      2.328  0.0000E+00  0.3440E+03
      2.429  0.0000E+00  0.3440E+03
      2.530  0.2846E+01  0.3443E+03
      2.632  0.2462E+01  0.3447E+03
      2.733  0.5269E+01  0.3453E+03
      2.834  0.1236E+02  0.3467E+03
      2.935  0.1482E+02  0.3482E+03
      3.036  0.1237E+02  0.3500E+03
      3.137  0.2727E+02  0.3528E+03
      3.238  0.1136E+02  0.3546E+03
      3.339  0.9156E+01  0.3557E+03
      3.440  0.9892E+01  0.3568E+03
      3.541  0.5001E+01  0.3573E+03
      3.642  0.9204E+01  0.3584E+03
      3.743  0.0000E+00  0.3585E+03
      3.844  0.3738E-05  0.3585E+03
      3.945  0.7629E+01  0.3593E+03
      4.046  0.1237E+02  0.3607E+03
      4.148  0.1021E+02  0.3618E+03
      4.249  0.2278E+02  0.3643E+03
      4.350  0.1708E+02  0.3662E+03
      4.451  0.1557E+02  0.3681E+03
      4.552  0.2554E+02  0.3711E+03
      4.653  0.2491E+02  0.3740E+03
      4.754  0.1980E+02  0.3770E+03
      4.855  0.2095E+02  0.3796E+03
      4.956  0.1729E+02  0.3825E+03
      5.057  0.5009E+01  0.3830E+03
      5.158  0.0000E+00  0.3832E+03
      5.259  0.0000E+00  0.3832E+03
      5.360  0.3804E-07  0.3833E+03
      5.461  0.8703E+01  0.3841E+03
      5.562  0.1373E+02  0.3861E+03
      5.664  0.4947E+01  0.3868E+03
      5.765  0.1969E+02  0.3887E+03
      5.866  0.1282E+02  0.3900E+03
      5.967  0.1047E+02  0.3916E+03
      6.068  0.2885E+02  0.3952E+03
      6.169  0.2831E+02  0.3986E+03
      6.270  0.2624E+02  0.4022E+03
      6.371  0.2273E+02  0.4048E+03
      6.472  0.4198E+02  0.4092E+03
      6.573  0.3374E+02  0.4129E+03
      6.674  0.1737E+02  0.4155E+03
      6.775  0.2474E+01  0.4160E+03
      6.876  0.0000E+00  0.4160E+03
      6.977  0.0000E+00  0.4160E+03
      7.079  0.0000E+00  0.4160E+03
      7.180  0.0000E+00  0.4160E+03
      7.281  0.0000E+00  0.4160E+03
      7.382  0.0000E+00  0.4160E+03
      7.483  0.0000E+00  0.4160E+03
      7.584  0.0000E+00  0.4160E+03
      7.685  0.0000E+00  0.4160E+03
      7.786  0.0000E+00  0.4160E+03
      7.887  0.0000E+00  0.4160E+03
      7.988  0.0000E+00  0.4160E+03
      8.089  0.0000E+00  0.4160E+03
      8.08919349    -22.23115999  301      0.43330424      1.00000000
    -22.231  0.0000E+00  0.0000E+00  0.0000E+00
    -22.130  0.0000E+00  0.0000E+00  0.0000E+00
    -22.029  0.0000E+00  0.0000E+00  0.0000E+00
    -21.928  0.0000E+00  0.0000E+00  0.0000E+00
    -21.827  0.0000E+00  0.0000E+00  0.0000E+00
    -21.726  0.0000E+00  0.0000E+00  0.0000E+00
    -21.625  0.0000E+00  0.0000E+00  0.0000E+00
    -21.524  0.0000E+00  0.0000E+00  0.0000E+00
    -21.423  0.0000E+00  0.0000E+00  0.0000E+00
    -21.322  0.0000E+00  0.0000E+00  0.0000E+00
    -21.220  0.0000E+00  0.0000E+00  0.0000E+00
    -21.119  0.0000E+00  0.0000E+00  0.0000E+00
    -21.018  0.0000E+00  0.0000E+00  0.0000E+00
    -20.917  0.0000E+00  0.0000E+00  0.0000E+00
    -20.816  0.3796E+01  0.1027E-05  0.3686E-06
    -20.715  0.9081E-02  0.2188E-06  0.1993E-07
    -20.614  0.3703E-05  0.3579E-08  0.4302E-09
    -20.513  0.7587E-07  0.1660E-08  0.6825E-10
    -20.412  0.0000E+00  0.0000E+00  0.0000E+00
    -20.311  0.0000E+00  0.0000E+00  0.0000E+00
    -20.210  0.0000E+00  0.0000E+00  0.0000E+00
    -20.109  0.0000E+00  0.0000E+00  0.0000E+00
    -20.008  0.0000E+00  0.0000E+00  0.0000E+00
    -19.907  0.0000E+00  0.0000E+00  0.0000E+00
    -19.806  0.0000E+00  0.0000E+00  0.0000E+00
    -19.704  0.0000E+00  0.0000E+00  0.0000E+00
    -19.603  0.0000E+00  0.0000E+00  0.0000E+00
    -19.502  0.0000E+00  0.0000E+00  0.0000E+00
    -19.401  0.0000E+00  0.0000E+00  0.0000E+00
    -19.300  0.0000E+00  0.0000E+00  0.0000E+00
    -19.199  0.0000E+00  0.0000E+00  0.0000E+00
    -19.098  0.0000E+00  0.0000E+00  0.0000E+00
    -18.997  0.0000E+00  0.0000E+00  0.0000E+00
    -18.896  0.0000E+00  0.0000E+00  0.0000E+00
    -18.795  0.0000E+00  0.0000E+00  0.0000E+00
    -18.694  0.0000E+00  0.0000E+00  0.0000E+00
    -18.593  0.0000E+00  0.0000E+00  0.0000E+00
    -18.492  0.0000E+00  0.0000E+00  0.0000E+00
    -18.391  0.0000E+00  0.0000E+00  0.0000E+00
    -18.290  0.0000E+00  0.0000E+00  0.0000E+00
    -18.188  0.0000E+00  0.0000E+00  0.0000E+00
    -18.087  0.0000E+00  0.0000E+00  0.0000E+00
    -17.986  0.0000E+00  0.0000E+00  0.0000E+00
    -17.885  0.0000E+00  0.0000E+00  0.0000E+00
    -17.784  0.0000E+00  0.0000E+00  0.0000E+00
    -17.683  0.0000E+00  0.0000E+00  0.0000E+00
    -17.582  0.0000E+00  0.0000E+00  0.0000E+00
    -17.481  0.0000E+00  0.0000E+00  0.0000E+00
    -17.380  0.0000E+00  0.0000E+00  0.0000E+00
    -17.279  0.0000E+00  0.0000E+00  0.0000E+00
    -17.178  0.0000E+00  0.0000E+00  0.0000E+00
    -17.077  0.0000E+00  0.0000E+00  0.0000E+00
    -16.976  0.0000E+00  0.0000E+00  0.0000E+00
    -16.875  0.1622E-19  0.5377E-20  0.1191E-20
    -16.773  0.4076E-05  0.1255E-05  0.1998E-06
    -16.672  0.1986E-04  0.6746E-05  0.8135E-06
    -16.571  0.6106E-04  0.3628E-04  0.5788E-05
    -16.470  0.1245E-04  0.7471E-05  0.3277E-05
    -16.369  0.2227E-04  0.5648E-04  0.8906E-05
    -16.268  0.4316E-04  0.2539E-04  0.3206E-05
    -16.167  0.0000E+00  0.0000E+00  0.0000E+00
    -16.066  0.0000E+00  0.0000E+00  0.0000E+00
    -15.965  0.0000E+00  0.0000E+00  0.0000E+00
    -15.864  0.0000E+00  0.0000E+00  0.0000E+00
    -15.763  0.0000E+00  0.0000E+00  0.0000E+00
    -15.662  0.0000E+00  0.0000E+00  0.0000E+00
    -15.561  0.0000E+00  0.0000E+00  0.0000E+00
    -15.460  0.0000E+00  0.0000E+00  0.0000E+00
    -15.359  0.0000E+00  0.0000E+00  0.0000E+00
    -15.257  0.0000E+00  0.0000E+00  0.0000E+00
    -15.156  0.0000E+00  0.0000E+00  0.0000E+00
    -15.055  0.0000E+00  0.0000E+00  0.0000E+00
    -14.954  0.0000E+00  0.0000E+00  0.0000E+00
    -14.853  0.0000E+00  0.0000E+00  0.0000E+00
    -14.752  0.0000E+00  0.0000E+00  0.0000E+00
    -14.651  0.3236E-05  0.1056E-05  0.1676E-07
    -14.550  0.0000E+00  0.0000E+00  0.0000E+00
    -14.449  0.1141E-14  0.3741E-15  0.1938E-16
    -14.348  0.4124E-02  0.2546E-02  0.1349E-03
    -14.247  0.1964E-02  0.3840E-02  0.1467E-03
    -14.146  0.2571E-03  0.4126E-02  0.2006E-03
    -14.045  0.1816E-02  0.3971E-02  0.3484E-03
    -13.944  0.8681E-03  0.2583E-02  0.3825E-03
    -13.843  0.6609E-03  0.1350E-02  0.2245E-03
    -13.741  0.1568E-03  0.3052E-03  0.6340E-04
    -13.640  0.0000E+00  0.0000E+00  0.0000E+00
    -13.539  0.0000E+00  0.0000E+00  0.0000E+00
    -13.438  0.1470E-04  0.2131E-04  0.1064E-05
    -13.337  0.2920E-10  0.5149E-09  0.8812E-10
    -13.236  0.1179E-06  0.2033E-05  0.3599E-06
    -13.135  0.0000E+00  0.0000E+00  0.0000E+00
    -13.034  0.0000E+00  0.0000E+00  0.0000E+00
    -12.933  0.0000E+00  0.0000E+00  0.0000E+00
    -12.832  0.0000E+00  0.0000E+00  0.0000E+00
    -12.731  0.0000E+00  0.0000E+00  0.0000E+00
    -12.630  0.0000E+00  0.0000E+00  0.0000E+00
    -12.529  0.0000E+00  0.0000E+00  0.0000E+00
    -12.428  0.0000E+00  0.0000E+00  0.0000E+00
    -12.327  0.0000E+00  0.0000E+00  0.0000E+00
    -12.225  0.0000E+00  0.0000E+00  0.0000E+00
    -12.124  0.0000E+00  0.0000E+00  0.0000E+00
    -12.023  0.0000E+00  0.0000E+00  0.0000E+00
    -11.922  0.0000E+00  0.0000E+00  0.0000E+00
    -11.821  0.0000E+00  0.0000E+00  0.0000E+00
    -11.720  0.0000E+00  0.0000E+00  0.0000E+00
    -11.619  0.0000E+00  0.0000E+00  0.0000E+00
    -11.518  0.0000E+00  0.0000E+00  0.0000E+00
    -11.417  0.0000E+00  0.0000E+00  0.0000E+00
    -11.316  0.0000E+00  0.0000E+00  0.0000E+00
    -11.215  0.0000E+00  0.0000E+00  0.0000E+00
    -11.114  0.0000E+00  0.0000E+00  0.0000E+00
    -11.013  0.0000E+00  0.0000E+00  0.0000E+00
    -10.912  0.0000E+00  0.0000E+00  0.0000E+00
    -10.810  0.0000E+00  0.0000E+00  0.0000E+00
    -10.709  0.0000E+00  0.0000E+00  0.0000E+00
    -10.608  0.0000E+00  0.0000E+00  0.0000E+00
    -10.507  0.0000E+00  0.0000E+00  0.0000E+00
    -10.406  0.0000E+00  0.0000E+00  0.0000E+00
    -10.305  0.0000E+00  0.0000E+00  0.0000E+00
    -10.204  0.0000E+00  0.0000E+00  0.0000E+00
    -10.103  0.0000E+00  0.0000E+00  0.0000E+00
    -10.002  0.0000E+00  0.0000E+00  0.0000E+00
     -9.901  0.0000E+00  0.0000E+00  0.0000E+00
     -9.800  0.0000E+00  0.0000E+00  0.0000E+00
     -9.699  0.0000E+00  0.0000E+00  0.0000E+00
     -9.598  0.0000E+00  0.0000E+00  0.0000E+00
     -9.497  0.0000E+00  0.0000E+00  0.0000E+00
     -9.396  0.0000E+00  0.0000E+00  0.0000E+00
     -9.294  0.0000E+00  0.0000E+00  0.0000E+00
     -9.193  0.0000E+00  0.0000E+00  0.0000E+00
     -9.092  0.0000E+00  0.0000E+00  0.0000E+00
     -8.991  0.0000E+00  0.0000E+00  0.0000E+00
     -8.890  0.0000E+00  0.0000E+00  0.0000E+00
     -8.789  0.0000E+00  0.0000E+00  0.0000E+00
     -8.688  0.0000E+00  0.0000E+00  0.0000E+00
     -8.587  0.0000E+00  0.0000E+00  0.0000E+00
     -8.486  0.0000E+00  0.0000E+00  0.0000E+00
     -8.385  0.0000E+00  0.0000E+00  0.0000E+00
     -8.284  0.1180E-14  0.6603E-12  0.2854E-13
     -8.183  0.2786E-06  0.1559E-03  0.6737E-05
     -8.082  0.6144E-06  0.1245E-02  0.1252E-04
     -7.981  0.1194E-05  0.3987E-02  0.1121E-04
     -7.880  0.1010E-05  0.7235E-02  0.2189E-04
     -7.778  0.1410E-05  0.1599E-01  0.4343E-04
     -7.677  0.1552E-05  0.6282E-02  0.1231E-04
     -7.576  0.4160E-05  0.5353E-01  0.3712E-04
     -7.475  0.5768E-04  0.5564E-01  0.6215E-04
     -7.374  0.2849E-06  0.3971E-01  0.1391E-04
     -7.273  0.2492E-04  0.8595E+00  0.2930E-04
     -7.172  0.5512E-04  0.3901E+02  0.6181E-04
     -7.071  0.4276E-04  0.2255E+01  0.5634E-04
     -6.970  0.1043E-04  0.7795E-01  0.2051E-04
     -6.869  0.2619E-05  0.5674E-02  0.8095E-05
     -6.768  0.1821E-08  0.7432E-02  0.3089E-05
     -6.667  0.3546E-14  0.2727E-11  0.8008E-15
     -6.566  0.5146E-05  0.3958E-02  0.1162E-05
     -6.465  0.0000E+00  0.0000E+00  0.0000E+00
     -6.364  0.0000E+00  0.0000E+00  0.0000E+00
     -6.262  0.0000E+00  0.0000E+00  0.0000E+00
     -6.161  0.0000E+00  0.0000E+00  0.0000E+00
     -6.060  0.0000E+00  0.0000E+00  0.0000E+00
     -5.959  0.0000E+00  0.0000E+00  0.0000E+00
     -5.858  0.0000E+00  0.0000E+00  0.0000E+00
     -5.757  0.0000E+00  0.0000E+00  0.0000E+00
     -5.656  0.0000E+00  0.0000E+00  0.0000E+00
     -5.555  0.0000E+00  0.0000E+00  0.0000E+00
     -5.454  0.0000E+00  0.0000E+00  0.0000E+00
     -5.353  0.0000E+00  0.0000E+00  0.0000E+00
     -5.252  0.0000E+00  0.0000E+00  0.0000E+00
     -5.151  0.0000E+00  0.0000E+00  0.0000E+00
     -5.050  0.0000E+00  0.0000E+00  0.0000E+00
     -4.949  0.0000E+00  0.0000E+00  0.0000E+00
     -4.847  0.0000E+00  0.0000E+00  0.0000E+00
     -4.746  0.0000E+00  0.0000E+00  0.0000E+00
     -4.645  0.0000E+00  0.0000E+00  0.0000E+00
     -4.544  0.0000E+00  0.0000E+00  0.0000E+00
     -4.443  0.0000E+00  0.0000E+00  0.0000E+00
     -4.342  0.0000E+00  0.0000E+00  0.0000E+00
     -4.241  0.0000E+00  0.0000E+00  0.0000E+00
     -4.140  0.0000E+00  0.0000E+00  0.0000E+00
     -4.039  0.0000E+00  0.0000E+00  0.0000E+00
     -3.938  0.0000E+00  0.0000E+00  0.0000E+00
     -3.837  0.0000E+00  0.0000E+00  0.0000E+00
     -3.736  0.0000E+00  0.0000E+00  0.0000E+00
     -3.635  0.0000E+00  0.0000E+00  0.0000E+00
     -3.534  0.0000E+00  0.0000E+00  0.0000E+00
     -3.433  0.1675E-05  0.3638E-02  0.1720E-03
     -3.331  0.1756E-04  0.1046E-01  0.7360E-03
     -3.230  0.3286E-03  0.1768E-01  0.1392E-02
     -3.129  0.6437E-04  0.2579E-02  0.5707E-03
     -3.028  0.1473E-03  0.5187E-02  0.2903E-03
     -2.927  0.7503E-04  0.5345E-02  0.3542E-03
     -2.826  0.5142E-04  0.4545E-02  0.3512E-03
     -2.725  0.6428E-03  0.2357E-01  0.1198E-02
     -2.624  0.2475E-03  0.2134E-01  0.1844E-02
     -2.523  0.1907E-02  0.2014E-01  0.1539E-02
     -2.422  0.1771E-02  0.1856E-01  0.1886E-02
     -2.321  0.8219E-02  0.1396E-01  0.3858E-02
     -2.220  0.4738E-02  0.6815E-02  0.2266E-02
     -2.119  0.7177E-02  0.1477E-01  0.1594E-02
     -2.018  0.1575E-01  0.3839E-01  0.2968E-02
     -1.917  0.6490E-02  0.8302E-01  0.4467E-02
     -1.815  0.1835E-02  0.5965E-01  0.3954E-02
     -1.714  0.3104E-02  0.1083E+00  0.1162E-01
     -1.613  0.2359E-02  0.1069E+00  0.1104E-01
     -1.512  0.2260E-02  0.7677E-01  0.1630E-01
     -1.411  0.3844E-02  0.6107E-01  0.1544E-01
     -1.310  0.3638E-02  0.5626E-01  0.1396E-01
     -1.209  0.1991E-02  0.5904E-01  0.9969E-02
     -1.108  0.1508E-02  0.4439E-01  0.1014E-01
     -1.007  0.5078E-03  0.1454E-01  0.4227E-02
     -0.906  0.3844E-03  0.1035E-01  0.2929E-02
     -0.805  0.5006E-03  0.7896E-02  0.2139E-02
     -0.704  0.2467E-03  0.3098E-02  0.4140E-03
     -0.603  0.4226E-03  0.2376E-02  0.5156E-03
     -0.502  0.9727E-04  0.1752E-02  0.3024E-03
     -0.401  0.4891E-04  0.1309E-02  0.7129E-03
     -0.299  0.1800E-04  0.8362E-03  0.2379E-03
     -0.198  0.2586E-05  0.3221E-03  0.2536E-03
     -0.097  0.1025E-05  0.3532E-03  0.2127E-03
      0.004  0.1444E-04  0.5172E-03  0.2571E-03
      0.105  0.1727E-06  0.6291E-04  0.1026E-03
      0.206  0.0000E+00  0.0000E+00  0.0000E+00
      0.307  0.1975E-08  0.7943E-08  0.7713E-07
      0.408  0.5619E-05  0.2260E-04  0.2194E-03
      0.509  0.0000E+00  0.0000E+00  0.0000E+00
      0.610  0.0000E+00  0.0000E+00  0.0000E+00
      0.711  0.0000E+00  0.0000E+00  0.0000E+00
      0.812  0.0000E+00  0.0000E+00  0.0000E+00
      0.913  0.0000E+00  0.0000E+00  0.0000E+00
      1.014  0.0000E+00  0.0000E+00  0.0000E+00
      1.116  0.0000E+00  0.0000E+00  0.0000E+00
      1.217  0.0000E+00  0.0000E+00  0.0000E+00
      1.318  0.0000E+00  0.0000E+00  0.0000E+00
      1.419  0.0000E+00  0.0000E+00  0.0000E+00
      1.520  0.0000E+00  0.0000E+00  0.0000E+00
      1.621  0.0000E+00  0.0000E+00  0.0000E+00
      1.722  0.0000E+00  0.0000E+00  0.0000E+00
      1.823  0.0000E+00  0.0000E+00  0.0000E+00
      1.924  0.0000E+00  0.0000E+00  0.0000E+00
      2.025  0.0000E+00  0.0000E+00  0.0000E+00
      2.126  0.0000E+00  0.0000E+00  0.0000E+00
      2.227  0.0000E+00  0.0000E+00  0.0000E+00
      2.328  0.0000E+00  0.0000E+00  0.0000E+00
      2.429  0.0000E+00  0.0000E+00  0.0000E+00
      2.530  0.7652E-04  0.2682E-03  0.2378E-03
      2.632  0.4197E-04  0.2587E-03  0.4427E-03
      2.733  0.1579E-03  0.3825E-03  0.1394E-02
      2.834  0.4912E-03  0.1301E-02  0.2299E-02
      2.935  0.1791E-03  0.1245E-02  0.4369E-02
      3.036  0.6185E-03  0.1530E-02  0.2160E-02
      3.137  0.8535E-03  0.4873E-02  0.6144E-02
      3.238  0.3914E-03  0.2022E-02  0.1830E-02
      3.339  0.2235E-03  0.6477E-03  0.9214E-03
      3.440  0.7465E-04  0.9007E-03  0.1167E-02
      3.541  0.1972E-03  0.3404E-03  0.8720E-03
      3.642  0.1384E-03  0.2649E-03  0.2508E-02
      3.743  0.0000E+00  0.0000E+00  0.0000E+00
      3.844  0.5045E-11  0.3972E-09  0.7931E-09
      3.945  0.4123E-04  0.1031E-02  0.1786E-02
      4.046  0.2687E-04  0.1480E-02  0.3087E-02
      4.148  0.2319E-03  0.1347E-02  0.5664E-02
      4.249  0.5795E-03  0.2583E-02  0.6428E-02
      4.350  0.4276E-03  0.1538E-02  0.6576E-02
      4.451  0.7345E-03  0.2434E-02  0.7120E-02
      4.552  0.1724E-02  0.6192E-02  0.1106E-01
      4.653  0.4125E-02  0.4391E-02  0.1184E-01
      4.754  0.1308E-02  0.3054E-02  0.7648E-02
      4.855  0.9039E-02  0.4328E-02  0.7440E-02
      4.956  0.5625E-02  0.3314E-02  0.5576E-02
      5.057  0.7801E-03  0.3824E-03  0.1269E-02
      5.158  0.0000E+00  0.0000E+00  0.0000E+00
      5.259  0.0000E+00  0.0000E+00  0.0000E+00
      5.360  0.1753E-09  0.2803E-10  0.2755E-10
      5.461  0.1384E-01  0.2361E-02  0.4015E-02
      5.562  0.3461E-01  0.5341E-02  0.1177E-01
      5.664  0.3998E-02  0.8313E-02  0.4222E-02
      5.765  0.9535E-02  0.5699E-02  0.5007E-01
      5.866  0.1951E-01  0.6200E-02  0.3575E-01
      5.967  0.1263E-01  0.3466E-02  0.3599E-01
      6.068  0.5294E-01  0.1933E-01  0.1203E+00
      6.169  0.2054E-01  0.6398E-02  0.1776E+00
      6.270  0.2499E-01  0.6693E-02  0.2026E+00
      6.371  0.3562E-01  0.1533E-01  0.2575E+00
      6.472  0.6416E-01  0.1932E-01  0.4176E+00
      6.573  0.3396E-01  0.1750E-01  0.5152E+00
      6.674  0.9107E-02  0.1581E-01  0.2441E+00
      6.775  0.2649E-03  0.2335E-02  0.3297E-01
      6.876  0.0000E+00  0.0000E+00  0.0000E+00
      6.977  0.0000E+00  0.0000E+00  0.0000E+00
      7.079  0.0000E+00  0.0000E+00  0.0000E+00
      7.180  0.0000E+00  0.0000E+00  0.0000E+00
      7.281  0.0000E+00  0.0000E+00  0.0000E+00
      7.382  0.0000E+00  0.0000E+00  0.0000E+00
      7.483  0.0000E+00  0.0000E+00  0.0000E+00
      7.584  0.0000E+00  0.0000E+00  0.0000E+00
      7.685  0.0000E+00  0.0000E+00  0.0000E+00
      7.786  0.0000E+00  0.0000E+00  0.0000E+00
      7.887  0.0000E+00  0.0000E+00  0.0000E+00
      7.988  0.0000E+00  0.0000E+00  0.0000E+00
      8.089  0.0000E+00  0.0000E+00  0.0000E+00
      8.08919349    -22.23115999  301      0.43330424      1.00000000
    -22.231  0.0000E+00  0.0000E+00  0.0000E+00
    -22.130  0.0000E+00  0.0000E+00  0.0000E+00
    -22.029  0.0000E+00  0.0000E+00  0.0000E+00
    -21.928  0.0000E+00  0.0000E+00  0.0000E+00
    -21.827  0.0000E+00  0.0000E+00  0.0000E+00
    -21.726  0.0000E+00  0.0000E+00  0.0000E+00
    -21.625  0.0000E+00  0.0000E+00  0.0000E+00
    -21.524  0.0000E+00  0.0000E+00  0.0000E+00
    -21.423  0.0000E+00  0.0000E+00  0.0000E+00
    -21.322  0.0000E+00  0.0000E+00  0.0000E+00
    -21.220  0.0000E+00  0.0000E+00  0.0000E+00
    -21.119  0.0000E+00  0.0000E+00  0.0000E+00
    -21.018  0.0000E+00  0.0000E+00  0.0000E+00
    -20.917  0.0000E+00  0.0000E+00  0.0000E+00
    -20.816  0.1191E+01  0.7367E-06  0.5581E-06
    -20.715  0.1350E-01  0.2911E-06  0.3542E-07
    -20.614  0.4953E-06  0.2004E-08  0.2582E-09
    -20.513  0.1125E-03  0.6534E-07  0.9607E-08
    -20.412  0.0000E+00  0.0000E+00  0.0000E+00
    -20.311  0.0000E+00  0.0000E+00  0.0000E+00
    -20.210  0.0000E+00  0.0000E+00  0.0000E+00
    -20.109  0.0000E+00  0.0000E+00  0.0000E+00
    -20.008  0.0000E+00  0.0000E+00  0.0000E+00
    -19.907  0.0000E+00  0.0000E+00  0.0000E+00
    -19.806  0.0000E+00  0.0000E+00  0.0000E+00
    -19.704  0.0000E+00  0.0000E+00  0.0000E+00
    -19.603  0.0000E+00  0.0000E+00  0.0000E+00
    -19.502  0.0000E+00  0.0000E+00  0.0000E+00
    -19.401  0.0000E+00  0.0000E+00  0.0000E+00
    -19.300  0.0000E+00  0.0000E+00  0.0000E+00
    -19.199  0.0000E+00  0.0000E+00  0.0000E+00
    -19.098  0.0000E+00  0.0000E+00  0.0000E+00
    -18.997  0.0000E+00  0.0000E+00  0.0000E+00
    -18.896  0.0000E+00  0.0000E+00  0.0000E+00
    -18.795  0.0000E+00  0.0000E+00  0.0000E+00
    -18.694  0.0000E+00  0.0000E+00  0.0000E+00
    -18.593  0.0000E+00  0.0000E+00  0.0000E+00
    -18.492  0.0000E+00  0.0000E+00  0.0000E+00
    -18.391  0.0000E+00  0.0000E+00  0.0000E+00
    -18.290  0.0000E+00  0.0000E+00  0.0000E+00
    -18.188  0.0000E+00  0.0000E+00  0.0000E+00
    -18.087  0.0000E+00  0.0000E+00  0.0000E+00
    -17.986  0.0000E+00  0.0000E+00  0.0000E+00
    -17.885  0.0000E+00  0.0000E+00  0.0000E+00
    -17.784  0.0000E+00  0.0000E+00  0.0000E+00
    -17.683  0.0000E+00  0.0000E+00  0.0000E+00
    -17.582  0.0000E+00  0.0000E+00  0.0000E+00
    -17.481  0.0000E+00  0.0000E+00  0.0000E+00
    -17.380  0.0000E+00  0.0000E+00  0.0000E+00
    -17.279  0.0000E+00  0.0000E+00  0.0000E+00
    -17.178  0.0000E+00  0.0000E+00  0.0000E+00
    -17.077  0.0000E+00  0.0000E+00  0.0000E+00
    -16.976  0.0000E+00  0.0000E+00  0.0000E+00
    -16.875  0.1099E-18  0.4207E-19  0.1707E-19
    -16.773  0.2581E-04  0.1504E-04  0.3711E-05
    -16.672  0.2548E-04  0.1223E-04  0.2016E-05
    -16.571  0.4573E-04  0.2600E-04  0.3961E-05
    -16.470  0.7086E-04  0.5369E-04  0.9288E-05
    -16.369  0.4565E-04  0.3178E-04  0.4312E-05
    -16.268  0.1002E-04  0.5700E-05  0.6891E-06
    -16.167  0.0000E+00  0.0000E+00  0.0000E+00
    -16.066  0.0000E+00  0.0000E+00  0.0000E+00
    -15.965  0.0000E+00  0.0000E+00  0.0000E+00
    -15.864  0.0000E+00  0.0000E+00  0.0000E+00
    -15.763  0.0000E+00  0.0000E+00  0.0000E+00
    -15.662  0.0000E+00  0.0000E+00  0.0000E+00
    -15.561  0.0000E+00  0.0000E+00  0.0000E+00
    -15.460  0.0000E+00  0.0000E+00  0.0000E+00
    -15.359  0.0000E+00  0.0000E+00  0.0000E+00
    -15.257  0.0000E+00  0.0000E+00  0.0000E+00
    -15.156  0.0000E+00  0.0000E+00  0.0000E+00
    -15.055  0.0000E+00  0.0000E+00  0.0000E+00
    -14.954  0.0000E+00  0.0000E+00  0.0000E+00
    -14.853  0.0000E+00  0.0000E+00  0.0000E+00
    -14.752  0.0000E+00  0.0000E+00  0.0000E+00
    -14.651  0.1641E-04  0.9817E-05  0.3621E-06
    -14.550  0.0000E+00  0.0000E+00  0.0000E+00
    -14.449  0.4826E-15  0.4480E-15  0.1211E-16
    -14.348  0.2903E-02  0.2538E-02  0.9965E-04
    -14.247  0.1405E-02  0.4738E-02  0.2779E-03
    -14.146  0.1005E-02  0.3795E-02  0.2926E-03
    -14.045  0.1185E-02  0.2726E-02  0.2271E-03
    -13.944  0.1563E-02  0.4943E-02  0.5076E-03
    -13.843  0.1065E-02  0.2248E-02  0.3086E-03
    -13.741  0.3618E-03  0.7380E-03  0.8019E-04
    -13.640  0.0000E+00  0.0000E+00  0.0000E+00
    -13.539  0.0000E+00  0.0000E+00  0.0000E+00
    -13.438  0.2900E-04  0.1118E-03  0.9742E-05
    -13.337  0.1310E-07  0.2708E-07  0.8993E-09
    -13.236  0.5288E-04  0.1101E-03  0.3692E-05