CsPbBr3 cubic bulk                      
           1
     8.456489    0.000000    8.040301
     0.000000   11.729847    0.000000
    -8.456489    0.000000    8.040301
   Cs   Pb   Br
   8   8  23
Direct configuration=     1
   0.26471800  0.25557900  0.20881600
   0.76951000  0.23812700  0.74875000
   0.70662800  0.77124400  0.23251700
   0.21308500  0.74877100  0.77761900
   0.30144100  0.26780600  0.74110600
   0.79081500  0.24360000  0.21154800
   0.73610100  0.75017000  0.80714000
   0.23166600  0.74363500  0.27783400
   0.00550500  0.00116400  0.99798200
   0.50155300  0.00824700  0.49329500
   0.49414800  0.00389700  0.99434500
   0.00677900  0.03154900  0.50447100
   0.50094400  0.50225200  0.00112500
   0.95666400  0.49906500  0.50222200
   0.00006000  0.50129100  0.00677800
   0.51619900  0.50297600  0.50162200
   0.47653500  0.75285900  0.96812600
   0.99165600  0.25147400  0.97515600
   0.45151700  0.24245900  0.47227800
   0.01855600  0.75188100  0.03361000
   0.51998500  0.25224300  0.03324200
   0.05105800  0.27121400  0.54125000
   0.24823300  0.48209200  0.96074100
   0.74799300  0.38804600  0.47150700
   0.46725200  0.54208000  0.25000900
   0.95119200  0.53188900  0.74702000
   0.54155300  0.02788100  0.74638300
   0.04639800  0.02847600  0.25367400
   0.75428900  0.99136800  0.02450700
   0.24721700  0.95328000  0.53867500
   0.24901400  0.03053200  0.93711600
   0.75000700  0.03194200  0.44509500
   0.44712100  0.96662100  0.24459800
   0.95626900  0.96261500  0.74297000
   0.75275800  0.52352400  0.05180800
   0.27103500  0.55927400  0.53953700
   0.55626000  0.46818200  0.75358500
   0.03993500  0.47174300  0.25718700
   0.70921000  0.69895400  0.50892200
