  40  40   1   0
  0.4040437E+02  0.1173535E-08  0.1173535E-08  0.1173535E-08  0.5000000E-15
   1.0000000000000000E-004
  CAR 
 CsPbBr3 cubic bulk                      
      8.21692036    -22.28972532  301      0.71736997      1.00000000
    -22.290  0.0000E+00  0.0000E+00
    -22.188  0.0000E+00  0.0000E+00
    -22.086  0.0000E+00  0.0000E+00
    -21.985  0.0000E+00  0.0000E+00
    -21.883  0.0000E+00  0.0000E+00
    -21.781  0.0000E+00  0.0000E+00
    -21.680  0.0000E+00  0.0000E+00
    -21.578  0.0000E+00  0.0000E+00
    -21.476  0.0000E+00  0.0000E+00
    -21.375  0.0000E+00  0.0000E+00
    -21.273  0.0000E+00  0.0000E+00
    -21.171  0.0000E+00  0.0000E+00
    -21.069  0.0000E+00  0.0000E+00
    -20.968  0.0000E+00  0.0000E+00
    -20.866  0.1573E+03  0.1600E+02
    -20.764  0.0000E+00  0.1600E+02
    -20.663  0.0000E+00  0.1600E+02
    -20.561  0.0000E+00  0.1600E+02
    -20.459  0.0000E+00  0.1600E+02
    -20.358  0.0000E+00  0.1600E+02
    -20.256  0.0000E+00  0.1600E+02
    -20.154  0.0000E+00  0.1600E+02
    -20.053  0.0000E+00  0.1600E+02
    -19.951  0.0000E+00  0.1600E+02
    -19.849  0.0000E+00  0.1600E+02
    -19.748  0.0000E+00  0.1600E+02
    -19.646  0.0000E+00  0.1600E+02
    -19.544  0.0000E+00  0.1600E+02
    -19.442  0.0000E+00  0.1600E+02
    -19.341  0.0000E+00  0.1600E+02
    -19.239  0.0000E+00  0.1600E+02
    -19.137  0.0000E+00  0.1600E+02
    -19.036  0.0000E+00  0.1600E+02
    -18.934  0.0000E+00  0.1600E+02
    -18.832  0.0000E+00  0.1600E+02
    -18.731  0.0000E+00  0.1600E+02
    -18.629  0.0000E+00  0.1600E+02
    -18.527  0.0000E+00  0.1600E+02
    -18.426  0.0000E+00  0.1600E+02
    -18.324  0.0000E+00  0.1600E+02
    -18.222  0.0000E+00  0.1600E+02
    -18.120  0.0000E+00  0.1600E+02
    -18.019  0.0000E+00  0.1600E+02
    -17.917  0.0000E+00  0.1600E+02
    -17.815  0.0000E+00  0.1600E+02
    -17.714  0.0000E+00  0.1600E+02
    -17.612  0.0000E+00  0.1600E+02
    -17.510  0.0000E+00  0.1600E+02
    -17.409  0.0000E+00  0.1600E+02
    -17.307  0.0000E+00  0.1600E+02
    -17.205  0.0000E+00  0.1600E+02
    -17.104  0.0000E+00  0.1600E+02
    -17.002  0.0000E+00  0.1600E+02
    -16.900  0.0000E+00  0.1600E+02
    -16.799  0.0000E+00  0.1600E+02
    -16.697  0.0000E+00  0.1600E+02
    -16.595  0.0000E+00  0.1600E+02
    -16.493  0.4295E-11  0.1600E+02
    -16.392  0.1002E+03  0.2619E+02
    -16.290  0.1426E+03  0.4800E+02
    -16.188  0.4720E+03  0.9600E+02
    -16.087  0.0000E+00  0.9600E+02
    -15.985  0.0000E+00  0.9600E+02
    -15.883  0.0000E+00  0.9600E+02
    -15.782  0.0000E+00  0.9600E+02
    -15.680  0.0000E+00  0.9600E+02
    -15.578  0.0000E+00  0.9600E+02
    -15.477  0.0000E+00  0.9600E+02
    -15.375  0.0000E+00  0.9600E+02
    -15.273  0.0000E+00  0.9600E+02
    -15.172  0.0000E+00  0.9600E+02
    -15.070  0.0000E+00  0.9600E+02
    -14.968  0.0000E+00  0.9600E+02
    -14.866  0.0000E+00  0.9600E+02
    -14.765  0.0000E+00  0.9600E+02
    -14.663  0.0000E+00  0.9600E+02
    -14.561  0.0000E+00  0.9600E+02
    -14.460  0.0000E+00  0.9600E+02
    -14.358  0.1092E+01  0.9611E+02
    -14.256  0.1609E+02  0.9789E+02
    -14.155  0.2672E+02  0.1035E+03
    -14.053  0.8210E+02  0.1126E+03
    -13.951  0.7572E+02  0.1217E+03
    -13.850  0.6507E+02  0.1289E+03
    -13.748  0.7779E+02  0.1412E+03
    -13.646  0.2704E+02  0.1440E+03
    -13.544  0.0000E+00  0.1440E+03
    -13.443  0.0000E+00  0.1440E+03
    -13.341  0.0000E+00  0.1440E+03
    -13.239  0.0000E+00  0.1440E+03
    -13.138  0.0000E+00  0.1440E+03
    -13.036  0.0000E+00  0.1440E+03
    -12.934  0.0000E+00  0.1440E+03
    -12.833  0.0000E+00  0.1440E+03
    -12.731  0.0000E+00  0.1440E+03
    -12.629  0.0000E+00  0.1440E+03
    -12.528  0.0000E+00  0.1440E+03
    -12.426  0.0000E+00  0.1440E+03
    -12.324  0.0000E+00  0.1440E+03
    -12.223  0.0000E+00  0.1440E+03
    -12.121  0.0000E+00  0.1440E+03
    -12.019  0.0000E+00  0.1440E+03
    -11.917  0.0000E+00  0.1440E+03
    -11.816  0.0000E+00  0.1440E+03
    -11.714  0.0000E+00  0.1440E+03
    -11.612  0.0000E+00  0.1440E+03
    -11.511  0.0000E+00  0.1440E+03
    -11.409  0.0000E+00  0.1440E+03
    -11.307  0.0000E+00  0.1440E+03
    -11.206  0.0000E+00  0.1440E+03
    -11.104  0.0000E+00  0.1440E+03
    -11.002  0.0000E+00  0.1440E+03
    -10.901  0.0000E+00  0.1440E+03
    -10.799  0.0000E+00  0.1440E+03
    -10.697  0.0000E+00  0.1440E+03
    -10.596  0.0000E+00  0.1440E+03
    -10.494  0.0000E+00  0.1440E+03
    -10.392  0.0000E+00  0.1440E+03
    -10.290  0.0000E+00  0.1440E+03
    -10.189  0.0000E+00  0.1440E+03
    -10.087  0.0000E+00  0.1440E+03
     -9.985  0.0000E+00  0.1440E+03
     -9.884  0.0000E+00  0.1440E+03
     -9.782  0.0000E+00  0.1440E+03
     -9.680  0.0000E+00  0.1440E+03
     -9.579  0.0000E+00  0.1440E+03
     -9.477  0.0000E+00  0.1440E+03
     -9.375  0.0000E+00  0.1440E+03
     -9.274  0.0000E+00  0.1440E+03
     -9.172  0.0000E+00  0.1440E+03
     -9.070  0.0000E+00  0.1440E+03
     -8.968  0.0000E+00  0.1440E+03
     -8.867  0.0000E+00  0.1440E+03
     -8.765  0.0000E+00  0.1440E+03
     -8.663  0.0000E+00  0.1440E+03
     -8.562  0.0000E+00  0.1440E+03
     -8.460  0.0000E+00  0.1440E+03
     -8.358  0.0000E+00  0.1440E+03
     -8.257  0.1774E-14  0.1440E+03
     -8.155  0.2458E+01  0.1442E+03
     -8.053  0.0000E+00  0.1442E+03
     -7.952  0.9834E+01  0.1452E+03
     -7.850  0.4917E+01  0.1458E+03
     -7.748  0.1021E+02  0.1468E+03
     -7.647  0.1967E+02  0.1492E+03
     -7.545  0.9963E+00  0.1494E+03
     -7.443  0.3445E+02  0.1530E+03
     -7.341  0.1251E+01  0.1536E+03
     -7.240  0.4434E+03  0.2011E+03
     -7.138  0.2212E+02  0.2047E+03
     -7.036  0.1065E+02  0.2058E+03
     -6.935  0.9895E-06  0.2063E+03
     -6.833  0.4917E+01  0.2068E+03
     -6.731  0.9834E+01  0.2077E+03
     -6.630  0.0000E+00  0.2078E+03
     -6.528  0.0000E+00  0.2078E+03
     -6.426  0.2397E+01  0.2080E+03
     -6.325  0.0000E+00  0.2080E+03
     -6.223  0.0000E+00  0.2080E+03
     -6.121  0.0000E+00  0.2080E+03
     -6.020  0.0000E+00  0.2080E+03
     -5.918  0.0000E+00  0.2080E+03
     -5.816  0.0000E+00  0.2080E+03
     -5.714  0.0000E+00  0.2080E+03
     -5.613  0.0000E+00  0.2080E+03
     -5.511  0.0000E+00  0.2080E+03
     -5.409  0.0000E+00  0.2080E+03
     -5.308  0.0000E+00  0.2080E+03
     -5.206  0.0000E+00  0.2080E+03
     -5.104  0.0000E+00  0.2080E+03
     -5.003  0.0000E+00  0.2080E+03
     -4.901  0.0000E+00  0.2080E+03
     -4.799  0.0000E+00  0.2080E+03
     -4.698  0.0000E+00  0.2080E+03
     -4.596  0.0000E+00  0.2080E+03
     -4.494  0.0000E+00  0.2080E+03
     -4.392  0.0000E+00  0.2080E+03
     -4.291  0.0000E+00  0.2080E+03
     -4.189  0.0000E+00  0.2080E+03
     -4.087  0.0000E+00  0.2080E+03
     -3.986  0.0000E+00  0.2080E+03
     -3.884  0.0000E+00  0.2080E+03
     -3.782  0.0000E+00  0.2080E+03
     -3.681  0.0000E+00  0.2080E+03
     -3.579  0.0000E+00  0.2080E+03
     -3.477  0.1508E+00  0.2080E+03
     -3.376  0.2449E+02  0.2107E+03
     -3.274  0.1211E+02  0.2120E+03
     -3.172  0.2452E+02  0.2145E+03
     -3.071  0.3300E+02  0.2189E+03
     -2.969  0.3494E+01  0.2199E+03
     -2.867  0.0000E+00  0.2200E+03
     -2.765  0.0000E+00  0.2200E+03
     -2.664  0.1293E-02  0.2200E+03
     -2.562  0.4931E+02  0.2250E+03
     -2.460  0.5022E+02  0.2321E+03
     -2.359  0.9983E+01  0.2345E+03
     -2.257  0.5191E+02  0.2403E+03
     -2.155  0.2999E+02  0.2440E+03
     -2.054  0.1246E+02  0.2458E+03
     -1.952  0.5628E+02  0.2525E+03
     -1.850  0.9556E+01  0.2537E+03
     -1.749  0.2707E+02  0.2575E+03
     -1.647  0.2536E+02  0.2608E+03
     -1.545  0.6903E+02  0.2718E+03
     -1.444  0.4389E+02  0.2782E+03
     -1.342  0.1375E+03  0.2937E+03
     -1.240  0.8164E+02  0.3038E+03
     -1.138  0.7762E+02  0.3149E+03
     -1.037  0.1478E+03  0.3313E+03
     -0.935  0.1727E+02  0.3345E+03
     -0.833  0.4218E+02  0.3395E+03
     -0.732  0.2458E+02  0.3432E+03
     -0.630  0.6753E-11  0.3433E+03
     -0.528  0.1967E+02  0.3452E+03
     -0.427  0.1942E+02  0.3472E+03
     -0.325  0.7130E-01  0.3475E+03
     -0.223  0.2381E-06  0.3485E+03
     -0.122  0.9857E+01  0.3495E+03
     -0.020  0.4541E-07  0.3498E+03
      0.082  0.9834E+01  0.3507E+03
      0.184  0.6568E+01  0.3514E+03
      0.285  0.0000E+00  0.3518E+03
      0.387  0.0000E+00  0.3518E+03
      0.489  0.0000E+00  0.3518E+03
      0.590  0.1920E-03  0.3518E+03
      0.692  0.2458E+01  0.3520E+03
      0.794  0.0000E+00  0.3520E+03
      0.895  0.0000E+00  0.3520E+03
      0.997  0.0000E+00  0.3520E+03
      1.099  0.0000E+00  0.3520E+03
      1.200  0.0000E+00  0.3520E+03
      1.302  0.0000E+00  0.3520E+03
      1.404  0.0000E+00  0.3520E+03
      1.505  0.0000E+00  0.3520E+03
      1.607  0.0000E+00  0.3520E+03
      1.709  0.0000E+00  0.3520E+03
      1.811  0.0000E+00  0.3520E+03
      1.912  0.0000E+00  0.3520E+03
      2.014  0.0000E+00  0.3520E+03
      2.116  0.0000E+00  0.3520E+03
      2.217  0.0000E+00  0.3520E+03
      2.319  0.0000E+00  0.3520E+03
      2.421  0.0000E+00  0.3520E+03
      2.522  0.0000E+00  0.3520E+03
      2.624  0.0000E+00  0.3520E+03
      2.726  0.0000E+00  0.3520E+03
      2.827  0.2545E+01  0.3523E+03
      2.929  0.0000E+00  0.3528E+03
      3.031  0.1987E+02  0.3548E+03
      3.132  0.2188E+01  0.3560E+03
      3.234  0.3465E+02  0.3598E+03
      3.336  0.1387E-09  0.3603E+03
      3.438  0.2950E+02  0.3632E+03
      3.539  0.4094E-15  0.3632E+03
      3.641  0.3761E+01  0.3636E+03
      3.743  0.0000E+00  0.3640E+03
      3.844  0.0000E+00  0.3640E+03
      3.946  0.0000E+00  0.3640E+03
      4.048  0.0000E+00  0.3640E+03
      4.149  0.0000E+00  0.3640E+03
      4.251  0.5409E-01  0.3640E+03
      4.353  0.9834E+01  0.3660E+03
      4.454  0.2941E+02  0.3690E+03
      4.556  0.1967E+02  0.3710E+03
      4.658  0.3917E+02  0.3750E+03
      4.760  0.1936E+02  0.3775E+03
      4.861  0.1966E+02  0.3817E+03
      4.963  0.3706E+02  0.3855E+03
      5.065  0.2816E+00  0.3858E+03
      5.166  0.0000E+00  0.3882E+03
      5.268  0.0000E+00  0.3882E+03
      5.370  0.3036E-03  0.3883E+03
      5.471  0.9834E+01  0.3893E+03
      5.573  0.5052E+01  0.3898E+03
      5.675  0.0000E+00  0.3905E+03
      5.776  0.1927E+01  0.3907E+03
      5.878  0.4172E+02  0.3962E+03
      5.980  0.2739E+02  0.3990E+03
      6.081  0.9527E+01  0.4002E+03
      6.183  0.5722E+02  0.4061E+03
      6.285  0.1229E+02  0.4075E+03
      6.387  0.2950E+02  0.4105E+03
      6.488  0.3011E+02  0.4136E+03
      6.590  0.4162E+02  0.4202E+03
      6.692  0.3978E+02  0.4243E+03
      6.793  0.4533E+02  0.4296E+03
      6.895  0.7375E+01  0.4320E+03
      6.997  0.0000E+00  0.4320E+03
      7.098  0.0000E+00  0.4320E+03
      7.200  0.0000E+00  0.4320E+03
      7.302  0.0000E+00  0.4320E+03
      7.403  0.0000E+00  0.4320E+03
      7.505  0.0000E+00  0.4320E+03
      7.607  0.0000E+00  0.4320E+03
      7.708  0.0000E+00  0.4320E+03
      7.810  0.0000E+00  0.4320E+03
      7.912  0.0000E+00  0.4320E+03
      8.014  0.0000E+00  0.4320E+03
      8.115  0.0000E+00  0.4320E+03
      8.217  0.0000E+00  0.4320E+03
      8.21692036    -22.28972532  301      0.71736997      1.00000000
    -22.290  0.0000E+00  0.0000E+00  0.0000E+00
    -22.188  0.0000E+00  0.0000E+00  0.0000E+00
    -22.086  0.0000E+00  0.0000E+00  0.0000E+00
    -21.985  0.0000E+00  0.0000E+00  0.0000E+00
    -21.883  0.0000E+00  0.0000E+00  0.0000E+00
    -21.781  0.0000E+00  0.0000E+00  0.0000E+00
    -21.680  0.0000E+00  0.0000E+00  0.0000E+00
    -21.578  0.0000E+00  0.0000E+00  0.0000E+00
    -21.476  0.0000E+00  0.0000E+00  0.0000E+00
    -21.375  0.0000E+00  0.0000E+00  0.0000E+00
    -21.273  0.0000E+00  0.0000E+00  0.0000E+00
    -21.171  0.0000E+00  0.0000E+00  0.0000E+00
    -21.069  0.0000E+00  0.0000E+00  0.0000E+00
    -20.968  0.0000E+00  0.0000E+00  0.0000E+00
    -20.866  0.1746E+02  0.1337E-06  0.1013E-04
    -20.764  0.0000E+00  0.0000E+00  0.0000E+00
    -20.663  0.0000E+00  0.0000E+00  0.0000E+00
    -20.561  0.0000E+00  0.0000E+00  0.0000E+00
    -20.459  0.0000E+00  0.0000E+00  0.0000E+00
    -20.358  0.0000E+00  0.0000E+00  0.0000E+00
    -20.256  0.0000E+00  0.0000E+00  0.0000E+00
    -20.154  0.0000E+00  0.0000E+00  0.0000E+00
    -20.053  0.0000E+00  0.0000E+00  0.0000E+00
    -19.951  0.0000E+00  0.0000E+00  0.0000E+00
    -19.849  0.0000E+00  0.0000E+00  0.0000E+00
    -19.748  0.0000E+00  0.0000E+00  0.0000E+00
    -19.646  0.0000E+00  0.0000E+00  0.0000E+00
    -19.544  0.0000E+00  0.0000E+00  0.0000E+00
    -19.442  0.0000E+00  0.0000E+00  0.0000E+00
    -19.341  0.0000E+00  0.0000E+00  0.0000E+00
    -19.239  0.0000E+00  0.0000E+00  0.0000E+00
    -19.137  0.0000E+00  0.0000E+00  0.0000E+00
    -19.036  0.0000E+00  0.0000E+00  0.0000E+00
    -18.934  0.0000E+00  0.0000E+00  0.0000E+00
    -18.832  0.0000E+00  0.0000E+00  0.0000E+00
    -18.731  0.0000E+00  0.0000E+00  0.0000E+00
    -18.629  0.0000E+00  0.0000E+00  0.0000E+00
    -18.527  0.0000E+00  0.0000E+00  0.0000E+00
    -18.426  0.0000E+00  0.0000E+00  0.0000E+00
    -18.324  0.0000E+00  0.0000E+00  0.0000E+00
    -18.222  0.0000E+00  0.0000E+00  0.0000E+00
    -18.120  0.0000E+00  0.0000E+00  0.0000E+00
    -18.019  0.0000E+00  0.0000E+00  0.0000E+00
    -17.917  0.0000E+00  0.0000E+00  0.0000E+00
    -17.815  0.0000E+00  0.0000E+00  0.0000E+00
    -17.714  0.0000E+00  0.0000E+00  0.0000E+00
    -17.612  0.0000E+00  0.0000E+00  0.0000E+00
    -17.510  0.0000E+00  0.0000E+00  0.0000E+00
    -17.409  0.0000E+00  0.0000E+00  0.0000E+00
    -17.307  0.0000E+00  0.0000E+00  0.0000E+00
    -17.205  0.0000E+00  0.0000E+00  0.0000E+00
    -17.104  0.0000E+00  0.0000E+00  0.0000E+00
    -17.002  0.0000E+00  0.0000E+00  0.0000E+00
    -16.900  0.0000E+00  0.0000E+00  0.0000E+00
    -16.799  0.0000E+00  0.0000E+00  0.0000E+00
    -16.697  0.0000E+00  0.0000E+00  0.0000E+00
    -16.595  0.0000E+00  0.0000E+00  0.0000E+00
    -16.493  0.1042E-18  0.1878E-19  0.4973E-18
    -16.392  0.3636E-04  0.2363E-04  0.6585E-05
    -16.290  0.3107E-04  0.4638E-04  0.5606E-05
    -16.188  0.3020E-04  0.1888E-04  0.1994E-05
    -16.087  0.0000E+00  0.0000E+00  0.0000E+00
    -15.985  0.0000E+00  0.0000E+00  0.0000E+00
    -15.883  0.0000E+00  0.0000E+00  0.0000E+00
    -15.782  0.0000E+00  0.0000E+00  0.0000E+00
    -15.680  0.0000E+00  0.0000E+00  0.0000E+00
    -15.578  0.0000E+00  0.0000E+00  0.0000E+00
    -15.477  0.0000E+00  0.0000E+00  0.0000E+00
    -15.375  0.0000E+00  0.0000E+00  0.0000E+00
    -15.273  0.0000E+00  0.0000E+00  0.0000E+00
    -15.172  0.0000E+00  0.0000E+00  0.0000E+00
    -15.070  0.0000E+00  0.0000E+00  0.0000E+00
    -14.968  0.0000E+00  0.0000E+00  0.0000E+00
    -14.866  0.0000E+00  0.0000E+00  0.0000E+00
    -14.765  0.0000E+00  0.0000E+00  0.0000E+00
    -14.663  0.0000E+00  0.0000E+00  0.0000E+00
    -14.561  0.0000E+00  0.0000E+00  0.0000E+00
    -14.460  0.0000E+00  0.0000E+00  0.0000E+00
    -14.358  0.1668E-03  0.2518E-18  0.5404E-06
    -14.256  0.1526E-02  0.5686E-03  0.1416E-04
    -14.155  0.7449E-03  0.1564E-02  0.5498E-04
    -14.053  0.3374E-03  0.4006E-02  0.1701E-03
    -13.951  0.2163E-02  0.4683E-02  0.3471E-03
    -13.850  0.4065E-03  0.2412E-02  0.2995E-03
    -13.748  0.1601E-02  0.2281E-02  0.3471E-03
    -13.646  0.4390E-03  0.9389E-03  0.9453E-04
    -13.544  0.0000E+00  0.0000E+00  0.0000E+00
    -13.443  0.0000E+00  0.0000E+00  0.0000E+00
    -13.341  0.0000E+00  0.0000E+00  0.0000E+00
    -13.239  0.0000E+00  0.0000E+00  0.0000E+00
    -13.138  0.0000E+00  0.0000E+00  0.0000E+00
    -13.036  0.0000E+00  0.0000E+00  0.0000E+00
    -12.934  0.0000E+00  0.0000E+00  0.0000E+00
    -12.833  0.0000E+00  0.0000E+00  0.0000E+00
    -12.731  0.0000E+00  0.0000E+00  0.0000E+00
    -12.629  0.0000E+00  0.0000E+00  0.0000E+00
    -12.528  0.0000E+00  0.0000E+00  0.0000E+00
    -12.426  0.0000E+00  0.0000E+00  0.0000E+00
    -12.324  0.0000E+00  0.0000E+00  0.0000E+00
    -12.223  0.0000E+00  0.0000E+00  0.0000E+00
    -12.121  0.0000E+00  0.0000E+00  0.0000E+00
    -12.019  0.0000E+00  0.0000E+00  0.0000E+00
    -11.917  0.0000E+00  0.0000E+00  0.0000E+00
    -11.816  0.0000E+00  0.0000E+00  0.0000E+00
    -11.714  0.0000E+00  0.0000E+00  0.0000E+00
    -11.612  0.0000E+00  0.0000E+00  0.0000E+00
    -11.511  0.0000E+00  0.0000E+00  0.0000E+00
    -11.409  0.0000E+00  0.0000E+00  0.0000E+00
    -11.307  0.0000E+00  0.0000E+00  0.0000E+00
    -11.206  0.0000E+00  0.0000E+00  0.0000E+00
    -11.104  0.0000E+00  0.0000E+00  0.0000E+00
    -11.002  0.0000E+00  0.0000E+00  0.0000E+00
    -10.901  0.0000E+00  0.0000E+00  0.0000E+00
    -10.799  0.0000E+00  0.0000E+00  0.0000E+00
    -10.697  0.0000E+00  0.0000E+00  0.0000E+00
    -10.596  0.0000E+00  0.0000E+00  0.0000E+00
    -10.494  0.0000E+00  0.0000E+00  0.0000E+00
    -10.392  0.0000E+00  0.0000E+00  0.0000E+00
    -10.290  0.0000E+00  0.0000E+00  0.0000E+00
    -10.189  0.0000E+00  0.0000E+00  0.0000E+00
    -10.087  0.0000E+00  0.0000E+00  0.0000E+00
     -9.985  0.0000E+00  0.0000E+00  0.0000E+00
     -9.884  0.0000E+00  0.0000E+00  0.0000E+00
     -9.782  0.0000E+00  0.0000E+00  0.0000E+00
     -9.680  0.0000E+00  0.0000E+00  0.0000E+00
     -9.579  0.0000E+00  0.0000E+00  0.0000E+00
     -9.477  0.0000E+00  0.0000E+00  0.0000E+00
     -9.375  0.0000E+00  0.0000E+00  0.0000E+00
     -9.274  0.0000E+00  0.0000E+00  0.0000E+00
     -9.172  0.0000E+00  0.0000E+00  0.0000E+00
     -9.070  0.0000E+00  0.0000E+00  0.0000E+00
     -8.968  0.0000E+00  0.0000E+00  0.0000E+00
     -8.867  0.0000E+00  0.0000E+00  0.0000E+00
     -8.765  0.0000E+00  0.0000E+00  0.0000E+00
     -8.663  0.0000E+00  0.0000E+00  0.0000E+00
     -8.562  0.0000E+00  0.0000E+00  0.0000E+00
     -8.460  0.0000E+00  0.0000E+00  0.0000E+00
     -8.358  0.0000E+00  0.0000E+00  0.0000E+00
     -8.257  0.1625E-37  0.2328E-34  0.2703E-36
     -8.155  0.2252E-22  0.3226E-19  0.3745E-21
     -8.053  0.0000E+00  0.0000E+00  0.0000E+00
     -7.952  0.2492E-18  0.4186E-02  0.1441E-05
     -7.850  0.1324E-21  0.2054E-18  0.1764E-05
     -7.748  0.1317E-20  0.1566E-01  0.4589E-05
     -7.647  0.1285E-17  0.1326E-01  0.2129E-04
     -7.545  0.2658E-10  0.4853E-04  0.1012E-05
     -7.443  0.2299E-04  0.2010E+00  0.4129E-04
     -7.341  0.1905E-08  0.1188E+00  0.5348E-07
     -7.240  0.2608E-04  0.4107E+02  0.7685E-04
     -7.138  0.4796E-04  0.4430E+00  0.3251E-04
     -7.036  0.2102E-04  0.2556E-03  0.2652E-04
     -6.935  0.4368E-11  0.7487E-09  0.1114E-11
     -6.833  0.2170E-04  0.3720E-02  0.5534E-05
     -6.731  0.3663E-04  0.7457E-03  0.2545E-04
     -6.630  0.0000E+00  0.0000E+00  0.0000E+00
     -6.528  0.0000E+00  0.0000E+00  0.0000E+00
     -6.426  0.1519E-04  0.1118E-18  0.3731E-05
     -6.325  0.0000E+00  0.0000E+00  0.0000E+00
     -6.223  0.0000E+00  0.0000E+00  0.0000E+00
     -6.121  0.0000E+00  0.0000E+00  0.0000E+00
     -6.020  0.0000E+00  0.0000E+00  0.0000E+00
     -5.918  0.0000E+00  0.0000E+00  0.0000E+00
     -5.816  0.0000E+00  0.0000E+00  0.0000E+00
     -5.714  0.0000E+00  0.0000E+00  0.0000E+00
     -5.613  0.0000E+00  0.0000E+00  0.0000E+00
     -5.511  0.0000E+00  0.0000E+00  0.0000E+00
     -5.409  0.0000E+00  0.0000E+00  0.0000E+00
     -5.308  0.0000E+00  0.0000E+00  0.0000E+00
     -5.206  0.0000E+00  0.0000E+00  0.0000E+00
     -5.104  0.0000E+00  0.0000E+00  0.0000E+00
     -5.003  0.0000E+00  0.0000E+00  0.0000E+00
     -4.901  0.0000E+00  0.0000E+00  0.0000E+00
     -4.799  0.0000E+00  0.0000E+00  0.0000E+00
     -4.698  0.0000E+00  0.0000E+00  0.0000E+00
     -4.596  0.0000E+00  0.0000E+00  0.0000E+00
     -4.494  0.0000E+00  0.0000E+00  0.0000E+00
     -4.392  0.0000E+00  0.0000E+00  0.0000E+00
     -4.291  0.0000E+00  0.0000E+00  0.0000E+00
     -4.189  0.0000E+00  0.0000E+00  0.0000E+00
     -4.087  0.0000E+00  0.0000E+00  0.0000E+00
     -3.986  0.0000E+00  0.0000E+00  0.0000E+00
     -3.884  0.0000E+00  0.0000E+00  0.0000E+00
     -3.782  0.0000E+00  0.0000E+00  0.0000E+00
     -3.681  0.0000E+00  0.0000E+00  0.0000E+00
     -3.579  0.0000E+00  0.0000E+00  0.0000E+00
     -3.477  0.2987E-16  0.1707E-03  0.4361E-06
     -3.376  0.1947E-07  0.9697E-02  0.7862E-03
     -3.274  0.3810E-19  0.2847E-03  0.2884E-03
     -3.172  0.1923E-17  0.1605E-01  0.6531E-03
     -3.071  0.9735E-17  0.7533E-02  0.1380E-02
     -2.969  0.2604E-17  0.6608E-18  0.4170E-05
     -2.867  0.0000E+00  0.0000E+00  0.0000E+00
     -2.765  0.0000E+00  0.0000E+00  0.0000E+00
     -2.664  0.7093E-08  0.1201E-05  0.1373E-07
     -2.562  0.1827E-03  0.4778E-01  0.5579E-03
     -2.460  0.9502E-03  0.1761E-01  0.2815E-02
     -2.359  0.1026E-12  0.1828E-02  0.5111E-03
     -2.257  0.4600E-02  0.1891E-01  0.3156E-02
     -2.155  0.4627E-02  0.3934E-02  0.2706E-02
     -2.054  0.5218E-02  0.2162E-02  0.1487E-02
     -1.952  0.2218E-01  0.3345E-01  0.4069E-02
     -1.850  0.1024E-02  0.2985E-01  0.4452E-03
     -1.749  0.1203E-02  0.5964E-01  0.4099E-02
     -1.647  0.5926E-03  0.5191E-01  0.3282E-02
     -1.545  0.2298E-02  0.7816E-01  0.1237E-01
     -1.444  0.2318E-03  0.5021E-01  0.5660E-02
     -1.342  0.1103E-01  0.6703E-01  0.1957E-01
     -1.240  0.3732E-02  0.5718E-01  0.1046E-01
     -1.138  0.1951E-02  0.4404E-01  0.1038E-01
     -1.037  0.1180E-02  0.9663E-01  0.2023E-01
     -0.935  0.3895E-03  0.8555E-02  0.2607E-02
     -0.833  0.3378E-03  0.1183E-01  0.6174E-02
     -0.732  0.2814E-04  0.5848E-02  0.1822E-02
     -0.630  0.1546E-28  0.2363E-14  0.2929E-16
     -0.528  0.7011E-15  0.4896E-02  0.3838E-03
     -0.427  0.1971E-14  0.2798E-02  0.2957E-03
     -0.325  0.1887E-06  0.3855E-05  0.8943E-06
     -0.223  0.2183E-24  0.8511E-11  0.6438E-12
     -0.122  0.9088E-17  0.3516E-03  0.2839E-04
     -0.020  0.6445E-23  0.2727E-11  0.3194E-11
      0.082  0.7182E-15  0.2953E-03  0.4857E-03
      0.184  0.3237E-15  0.2113E-03  0.1616E-03
      0.285  0.0000E+00  0.0000E+00  0.0000E+00
      0.387  0.0000E+00  0.0000E+00  0.0000E+00
      0.489  0.0000E+00  0.0000E+00  0.0000E+00
      0.590  0.1813E-21  0.3912E-21  0.4224E-20
      0.692  0.2321E-17  0.5009E-17  0.5407E-16
      0.794  0.0000E+00  0.0000E+00  0.0000E+00
      0.895  0.0000E+00  0.0000E+00  0.0000E+00
      0.997  0.0000E+00  0.0000E+00  0.0000E+00
      1.099  0.0000E+00  0.0000E+00  0.0000E+00
      1.200  0.0000E+00  0.0000E+00  0.0000E+00
      1.302  0.0000E+00  0.0000E+00  0.0000E+00
      1.404  0.0000E+00  0.0000E+00  0.0000E+00
      1.505  0.0000E+00  0.0000E+00  0.0000E+00
      1.607  0.0000E+00  0.0000E+00  0.0000E+00
      1.709  0.0000E+00  0.0000E+00  0.0000E+00
      1.811  0.0000E+00  0.0000E+00  0.0000E+00
      1.912  0.0000E+00  0.0000E+00  0.0000E+00
      2.014  0.0000E+00  0.0000E+00  0.0000E+00
      2.116  0.0000E+00  0.0000E+00  0.0000E+00
      2.217  0.0000E+00  0.0000E+00  0.0000E+00
      2.319  0.0000E+00  0.0000E+00  0.0000E+00
      2.421  0.0000E+00  0.0000E+00  0.0000E+00
      2.522  0.0000E+00  0.0000E+00  0.0000E+00
      2.624  0.0000E+00  0.0000E+00  0.0000E+00
      2.726  0.0000E+00  0.0000E+00  0.0000E+00
      2.827  0.1033E-15  0.6389E-07  0.8579E-03
      2.929  0.0000E+00  0.0000E+00  0.0000E+00
      3.031  0.5995E-03  0.4935E-03  0.5451E-02
      3.132  0.1897E-03  0.2186E-03  0.3919E-03
      3.234  0.6014E-03  0.3053E-02  0.5818E-02
      3.336  0.4554E-15  0.3231E-13  0.2077E-14
      3.438  0.4909E-03  0.4064E-02  0.2438E-02
      3.539  0.8064E-20  0.4646E-34  0.1532E-19
      3.641  0.5351E-04  0.2557E-03  0.1156E-03
      3.743  0.0000E+00  0.0000E+00  0.0000E+00
      3.844  0.0000E+00  0.0000E+00  0.0000E+00
      3.946  0.0000E+00  0.0000E+00  0.0000E+00
      4.048  0.0000E+00  0.0000E+00  0.0000E+00
      4.149  0.0000E+00  0.0000E+00  0.0000E+00
      4.251  0.7482E-17  0.3078E-08  0.4502E-04
      4.353  0.6952E-03  0.1110E-03  0.2880E-02
      4.454  0.7051E-14  0.4163E-02  0.1433E-01
      4.556  0.1117E-02  0.1689E-02  0.5397E-02
      4.658  0.2892E-02  0.6124E-02  0.1511E-01
      4.760  0.1579E-01  0.3220E-02  0.5000E-02
      4.861  0.3747E-02  0.3858E-02  0.2295E-02
      4.963  0.9379E-02  0.1173E-01  0.1619E-01
      5.065  0.1248E-03  0.1086E-03  0.1939E-03
      5.166  0.0000E+00  0.0000E+00  0.0000E+00
      5.268  0.0000E+00  0.0000E+00  0.0000E+00
      5.370  0.1248E-05  0.3045E-06  0.3119E-06
      5.471  0.4042E-01  0.9862E-02  0.1010E-01
      5.573  0.9988E-02  0.1072E-02  0.3596E-02
      5.675  0.0000E+00  0.0000E+00  0.0000E+00
      5.776  0.1432E-03  0.3474E-04  0.2237E-02
      5.878  0.1234E+00  0.3367E-01  0.1014E+00
      5.980  0.9731E-05  0.7274E-02  0.1162E+00
      6.081  0.1350E-05  0.1518E-04  0.3837E-03
      6.183  0.9585E-01  0.1762E-01  0.3810E+00
      6.285  0.1697E-01  0.2672E-02  0.1184E+00
      6.387  0.2867E-01  0.2458E-01  0.2317E+00
      6.488  0.2956E-01  0.1434E-01  0.2012E+00
      6.590  0.5412E-01  0.6168E-01  0.3301E+00
      6.692  0.3591E-01  0.5953E-01  0.4848E+00
      6.793  0.2524E-01  0.3405E-01  0.6593E+00
      6.895  0.8946E-04  0.5984E-02  0.1315E+00
      6.997  0.0000E+00  0.0000E+00  0.0000E+00
      7.098  0.0000E+00  0.0000E+00  0.0000E+00
      7.200  0.0000E+00  0.0000E+00  0.0000E+00
      7.302  0.0000E+00  0.0000E+00  0.0000E+00
      7.403  0.0000E+00  0.0000E+00  0.0000E+00
      7.505  0.0000E+00  0.0000E+00  0.0000E+00
      7.607  0.0000E+00  0.0000E+00  0.0000E+00
      7.708  0.0000E+00  0.0000E+00  0.0000E+00
      7.810  0.0000E+00  0.0000E+00  0.0000E+00
      7.912  0.0000E+00  0.0000E+00  0.0000E+00
      8.014  0.0000E+00  0.0000E+00  0.0000E+00
      8.115  0.0000E+00  0.0000E+00  0.0000E+00
      8.217  0.0000E+00  0.0000E+00  0.0000E+00
      8.21692036    -22.28972532  301      0.71736997      1.00000000
    -22.290  0.0000E+00  0.0000E+00  0.0000E+00
    -22.188  0.0000E+00  0.0000E+00  0.0000E+00
    -22.086  0.0000E+00  0.0000E+00  0.0000E+00
    -21.985  0.0000E+00  0.0000E+00  0.0000E+00
    -21.883  0.0000E+00  0.0000E+00  0.0000E+00
    -21.781  0.0000E+00  0.0000E+00  0.0000E+00
    -21.680  0.0000E+00  0.0000E+00  0.0000E+00
    -21.578  0.0000E+00  0.0000E+00  0.0000E+00
    -21.476  0.0000E+00  0.0000E+00  0.0000E+00
    -21.375  0.0000E+00  0.0000E+00  0.0000E+00
    -21.273  0.0000E+00  0.0000E+00  0.0000E+00
    -21.171  0.0000E+00  0.0000E+00  0.0000E+00
    -21.069  0.0000E+00  0.0000E+00  0.0000E+00
    -20.968  0.0000E+00  0.0000E+00  0.0000E+00
    -20.866  0.1746E+02  0.1337E-06  0.1013E-04
    -20.764  0.0000E+00  0.0000E+00  0.0000E+00
    -20.663  0.0000E+00  0.0000E+00  0.0000E+00
    -20.561  0.0000E+00  0.0000E+00  0.0000E+00
    -20.459  0.0000E+00  0.0000E+00  0.0000E+00
    -20.358  0.0000E+00  0.0000E+00  0.0000E+00
    -20.256  0.0000E+00  0.0000E+00  0.0000E+00
    -20.154  0.0000E+00  0.0000E+00  0.0000E+00
    -20.053  0.0000E+00  0.0000E+00  0.0000E+00
    -19.951  0.0000E+00  0.0000E+00  0.0000E+00
    -19.849  0.0000E+00  0.0000E+00  0.0000E+00
    -19.748  0.0000E+00  0.0000E+00  0.0000E+00
    -19.646  0.0000E+00  0.0000E+00  0.0000E+00
    -19.544  0.0000E+00  0.0000E+00  0.0000E+00
    -19.442  0.0000E+00  0.0000E+00  0.0000E+00
    -19.341  0.0000E+00  0.0000E+00  0.0000E+00
    -19.239  0.0000E+00  0.0000E+00  0.0000E+00
    -19.137  0.0000E+00  0.0000E+00  0.0000E+00
    -19.036  0.0000E+00  0.0000E+00  0.0000E+00
    -18.934  0.0000E+00  0.0000E+00  0.0000E+00
    -18.832  0.0000E+00  0.0000E+00  0.0000E+00
    -18.731  0.0000E+00  0.0000E+00  0.0000E+00
    -18.629  0.0000E+00  0.0000E+00  0.0000E+00
    -18.527  0.0000E+00  0.0000E+00  0.0000E+00
    -18.426  0.0000E+00  0.0000E+00  0.0000E+00
    -18.324  0.0000E+00  0.0000E+00  0.0000E+00
    -18.222  0.0000E+00  0.0000E+00  0.0000E+00
    -18.120  0.0000E+00  0.0000E+00  0.0000E+00
    -18.019  0.0000E+00  0.0000E+00  0.0000E+00
    -17.917  0.0000E+00  0.0000E+00  0.0000E+00
    -17.815  0.0000E+00  0.0000E+00  0.0000E+00
    -17.714  0.0000E+00  0.0000E+00  0.0000E+00
    -17.612  0.0000E+00  0.0000E+00  0.0000E+00
    -17.510  0.0000E+00  0.0000E+00  0.0000E+00
    -17.409  0.0000E+00  0.0000E+00  0.0000E+00
    -17.307  0.0000E+00  0.0000E+00  0.0000E+00
    -17.205  0.0000E+00  0.0000E+00  0.0000E+00
    -17.104  0.0000E+00  0.0000E+00  0.0000E+00
    -17.002  0.0000E+00  0.0000E+00  0.0000E+00
    -16.900  0.0000E+00  0.0000E+00  0.0000E+00
    -16.799  0.0000E+00  0.0000E+00  0.0000E+00
    -16.697  0.0000E+00  0.0000E+00  0.0000E+00
    -16.595  0.0000E+00  0.0000E+00  0.0000E+00
    -16.493  0.1042E-18  0.1878E-19  0.4973E-18
    -16.392  0.3636E-04  0.2363E-04  0.6585E-05
    -16.290  0.3107E-04  0.4638E-04  0.5606E-05
    -16.188  0.3020E-04  0.1888E-04  0.1994E-05
    -16.087  0.0000E+00  0.0000E+00  0.0000E+00
    -15.985  0.0000E+00  0.0000E+00  0.0000E+00
    -15.883  0.0000E+00  0.0000E+00  0.0000E+00
    -15.782  0.0000E+00  0.0000E+00  0.0000E+00
    -15.680  0.0000E+00  0.0000E+00  0.0000E+00
    -15.578  0.0000E+00  0.0000E+00  0.0000E+00
    -15.477  0.0000E+00  0.0000E+00  0.0000E+00
    -15.375  0.0000E+00  0.0000E+00  0.0000E+00
    -15.273  0.0000E+00  0.0000E+00  0.0000E+00
    -15.172  0.0000E+00  0.0000E+00  0.0000E+00
    -15.070  0.0000E+00  0.0000E+00  0.0000E+00
    -14.968  0.0000E+00  0.0000E+00  0.0000E+00
    -14.866  0.0000E+00  0.0000E+00  0.0000E+00
    -14.765  0.0000E+00  0.0000E+00  0.0000E+00
    -14.663  0.0000E+00  0.0000E+00  0.0000E+00
    -14.561  0.0000E+00  0.0000E+00  0.0000E+00
    -14.460  0.0000E+00  0.0000E+00  0.0000E+00
    -14.358  0.1668E-03  0.2913E-18  0.5404E-06
    -14.256  0.1526E-02  0.5686E-03  0.1416E-04
    -14.155  0.7449E-03  0.1564E-02  0.5498E-04
    -14.053  0.3374E-03  0.4006E-02  0.1701E-03
    -13.951  0.2163E-02  0.4683E-02  0.3471E-03
    -13.850  0.4065E-03  0.2412E-02  0.2995E-03
    -13.748  0.1601E-02  0.2281E-02  0.3471E-03
    -13.646  0.4390E-03  0.9389E-03  0.9453E-04
    -13.544  0.0000E+00  0.0000E+00  0.0000E+00
    -13.443  0.0000E+00  0.0000E+00  0.0000E+00
    -13.341  0.0000E+00  0.0000E+00  0.0000E+00
    -13.239  0.0000E+00  0.0000E+00  0.0000E+00