 vasp.5.4.4.18Apr17-6-g9f103f2a35 (build Jun 22 2020 09:27:21) complex           
 executed on tx2_gcc-7.3_libsci-1 date 2021.09.22  08:37:41
 running on   64 total cores
 distrk:  each k-point on   64 cores,    1 groups
 distr:  one band on NCORES_PER_BAND=   8 cores,    8 groups


--------------------------------------------------------------------------------------------------------


 INCAR:
 POTCAR:    PAW_PBE Cs_sv 08Apr2002               
 POTCAR:    PAW_PBE Pb_d 06Sep2000                
 POTCAR:    PAW_PBE Br 06Sep2000                  
 POTCAR:    PAW_PBE Cs_sv 08Apr2002               
   SHA256 =  c1463496f0f6037ed62c6012a8013a89ee9ad6ffb38599dcd6c079e7ed31779b Cs
   COPYR  = (c) Copyright 08Apr2002 Georg Kresse                                
   COPYR  = This file is part of the software VASP. Any use, copying, and all ot
   COPYR  = If you do not have a valid VASP license, you may not use, copy or di
   VRHFIN =Cs: 5s5p6s                                                           
   LEXCH  = PE                                                                  
   EATOM  =   555.6835 eV,   40.8416 Ry                                         
                                                                                
   TITEL  = PAW_PBE Cs_sv 08Apr2002                                             
   LULTRA =        F    use ultrasoft PP ?                                      
   IUNSCR =        1    unscreen: 0-lin 1-nonlin 2-no                           
   RPACOR =    2.200    partial core radius                                     
   POMASS =  132.900; ZVAL   =    9.000    mass and valenz                      
   RCORE  =    2.500    outmost cutoff radius                                   
   RWIGS  =    2.500; RWIGS  =    1.323    wigner-seitz radius (au A)           
   ENMAX  =  220.318; ENMIN  =  165.238 eV                                      
   RCLOC  =    2.207    cutoff for local pot                                    
   LCOR   =        T    correct aug charges                                     
   LPAW   =        T    paw PP                                                  
   EAUG   =  407.933                                                            
   DEXC   =    0.000                                                            
   RMAX   =    2.554    core radius for proj-oper                               
   RAUG   =    1.300    factor for augmentation sphere                          
   RDEP   =    2.590    radius for radial grids                                 
   RDEPT  =    2.117    core radius for aug-charge                              
                                                                                
   Atomic configuration                                                         
   13 entries                                                                   
     n  l   j            E        occ.                                          
     1  0  0.50    -35790.1377   2.0000                                         
     2  0  0.50     -5613.6201   2.0000                                         
     2  1  1.50     -5035.0101   6.0000                                         
     3  0  0.50     -1167.0767   2.0000                                         
     3  1  1.50      -980.9754   6.0000                                         
     3  2  2.50      -708.0703  10.0000                                         
     4  0  0.50      -220.2386   2.0000                                         
     4  1  1.50      -160.7596   6.0000                                         
     4  2  2.50       -74.2354  10.0000                                         
     5  0  0.50       -26.7287   2.0000                                         
     6  0  0.50        -2.0862   1.0000                                         
     5  1  1.50       -13.5159   6.0000                                         
     5  2  2.50        -0.4136   0.0000                                         
   Description                                                                  
     l       E           TYP  RCUT    TYP  RCUT                                 
     0    -26.7287425     23  1.900                                             
     0     -2.0862306     23  1.900                                             
     1    -13.5158719     23  2.500                                             
     1     -2.7211652     23  2.500                                             
     2     -0.4136171     23  2.500                                             
  local pseudopotential read in
  partial core-charges read in
  partial kinetic energy density read in
  atomic valenz-charges read in
  non local Contribution for L=           0  read in
    real space projection operators read in
  non local Contribution for L=           0  read in
    real space projection operators read in
  non local Contribution for L=           1  read in
    real space projection operators read in
  non local Contribution for L=           1  read in
    real space projection operators read in
  non local Contribution for L=           2  read in
    real space projection operators read in
    PAW grid and wavefunctions read in

   number of l-projection  operators is LMAX  =           5
   number of lm-projection operators is LMMAX =          13

 POTCAR:    PAW_PBE Pb_d 06Sep2000                
   SHA256 =  fb885b08f0fba73a15f6a6b0e39bd200c13ec96ef97cf3ecd8e63bade5137abd Pb
   COPYR  = (c) Copyright 06Sep2000 Georg Kresse                                
   COPYR  = This file is part of the software VASP. Any use, copying, and all ot
   COPYR  = If you do not have a valid VASP license, you may not use, copy or di
   VRHFIN =Pb:                                                                  
   LEXCH  = PE                                                                  
   EATOM  =  1661.6185 eV,  122.1255 Ry                                         
                                                                                
   TITEL  = PAW_PBE Pb_d 06Sep2000                                              
   LULTRA =        F    use ultrasoft PP ?                                      
   IUNSCR =        1    unscreen: 0-lin 1-nonlin 2-no                           
   RPACOR =    2.200    partial core radius                                     
   POMASS =  207.200; ZVAL   =   14.000    mass and valenz                      
   RCORE  =    2.500    outmost cutoff radius                                   
   RWIGS  =    3.260; RWIGS  =    1.725    wigner-seitz radius (au A)           
   ENMAX  =  237.835; ENMIN  =  178.376 eV                                      
   ICORE  =        3    local potential                                         
   LCOR   =        T    correct aug charges                                     
   LPAW   =        T    paw PP                                                  
   EAUG   =  391.914                                                            
   DEXC   =    0.000                                                            
   RMAX   =    2.565    core radius for proj-oper                               
   RAUG   =    1.300    factor for augmentation sphere                          
   RDEP   =    2.643    radius for radial grids                                 
   RDEPT  =    2.092    core radius for aug-charge                              
                                                                                
   Atomic configuration                                                         
   16 entries                                                                   
     n  l   j            E        occ.                                          
     1  0  0.50    -88091.8466   2.0000                                         
     2  0  0.50    -15753.4197   2.0000                                         
     2  1  1.50    -13508.1797   6.0000                                         
     3  0  0.50     -3781.7194   2.0000                                         
     3  1  1.50     -3138.2529   6.0000                                         
     3  2  2.50     -2483.2977  10.0000                                         
     4  0  0.50      -856.2895   2.0000                                         
     4  1  1.50      -645.4942   6.0000                                         
     4  2  2.50      -401.8768  10.0000                                         
     4  3  3.50      -132.9059  14.0000                                         
     5  0  0.50      -144.0950   2.0000                                         
     5  1  1.50       -85.7879   6.0000                                         
     5  2  2.50       -21.1769  10.0000                                         
     6  0  0.50       -12.0372   2.0000                                         
     6  1  1.50        -3.4971   2.0000                                         
     5  3  2.50        -2.7212   0.0000                                         
   Description                                                                  
     l       E           TYP  RCUT    TYP  RCUT                                 
     2    -21.1768523     23  2.500                                             
     2      1.3605826     23  2.500                                             
     0    -12.0371562     23  2.500                                             
     0     13.6058260     23  2.500                                             
     1     -3.4971339     23  2.500                                             
     1     13.6058260     23  2.500                                             
     3     -1.3605826      7  2.500                                             
  local pseudopotential read in
  partial core-charges read in
  partial kinetic energy density read in
  atomic valenz-charges read in
  non local Contribution for L=           2  read in
    real space projection operators read in
  non local Contribution for L=           2  read in
    real space projection operators read in
  non local Contribution for L=           0  read in
    real space projection operators read in
  non local Contribution for L=           0  read in
    real space projection operators read in
  non local Contribution for L=           1  read in
    real space projection operators read in
  non local Contribution for L=           1  read in
    real space projection operators read in
    PAW grid and wavefunctions read in

   number of l-projection  operators is LMAX  =           6
   number of lm-projection operators is LMMAX =          18

 POTCAR:    PAW_PBE Br 06Sep2000                  
   SHA256 =  96a73d2954943bbee26f4990d676cc6c3bf44b8dd2c75cd4b3b825d8403f0103 Br
   COPYR  = (c) Copyright 06Sep2000 Georg Kresse                                
   COPYR  = This file is part of the software VASP. Any use, copying, and all ot
   COPYR  = If you do not have a valid VASP license, you may not use, copy or di
   VRHFIN =Br: s2p5                                                             
   LEXCH  = PE                                                                  
   EATOM  =   368.4488 eV,   27.0802 Ry                                         
                                                                                
   TITEL  = PAW_PBE Br 06Sep2000                                                
   LULTRA =        F    use ultrasoft PP ?                                      
   IUNSCR =        1    unscreen: 0-lin 1-nonlin 2-no                           
   RPACOR =    1.900    partial core radius                                     
   POMASS =   79.904; ZVAL   =    7.000    mass and valenz                      
   RCORE  =    2.100    outmost cutoff radius                                   
   RWIGS  =    2.200; RWIGS  =    1.164    wigner-seitz radius (au A)           
   ENMAX  =  216.285; ENMIN  =  162.214 eV                                      
   ICORE  =        3    local potential                                         
   LCOR   =        T    correct aug charges                                     
   LPAW   =        T    paw PP                                                  
   EAUG   =  503.852                                                            
   DEXC   =    0.000                                                            
   RMAX   =    2.139    core radius for proj-oper                               
   RAUG   =    1.300    factor for augmentation sphere                          
   RDEP   =    2.186    radius for radial grids                                 
   RDEPT  =    1.890    core radius for aug-charge                              
                                                                                
   Atomic configuration                                                         
   10 entries                                                                   
     n  l   j            E        occ.                                          
     1  0  0.50    -13316.2796   2.0000                                         
     2  0  0.50     -1732.8239   2.0000                                         
     2  1  1.50     -1528.2193   6.0000                                         
     3  0  0.50      -238.0460   2.0000                                         
     3  1  1.50      -173.4609   6.0000                                         
     3  2  2.50       -66.7132  10.0000                                         
     4  0  0.50       -20.1334   2.0000                                         
     4  1  0.50        -7.8591   5.0000                                         
     4  2  2.50        -8.1635   0.0000                                         
     4  3  2.50        -8.1635   0.0000                                         
   Description                                                                  
     l       E           TYP  RCUT    TYP  RCUT                                 
     0    -20.1333652     23  2.100                                             
     0    -21.4939478     23  2.100                                             
     1     -7.8591052     23  2.100                                             
     1     -3.1608434     23  2.100                                             
     2     -8.1634956     23  2.100                                             
     3     -1.3605826      7  2.100                                             
  local pseudopotential read in
  partial core-charges read in
  partial kinetic energy density read in
  atomic valenz-charges read in
  non local Contribution for L=           0  read in
    real space projection operators read in
  non local Contribution for L=           0  read in
    real space projection operators read in
  non local Contribution for L=           1  read in
    real space projection operators read in
  non local Contribution for L=           1  read in
    real space projection operators read in
  non local Contribution for L=           2  read in
    real space projection operators read in
    PAW grid and wavefunctions read in

   number of l-projection  operators is LMAX  =           5
   number of lm-projection operators is LMMAX =          13

 Optimization of the real space projectors (new method)

 maximal supplied QI-value         = 15.12
 optimisation between [QCUT,QGAM] = [  8.77, 17.69] = [ 21.53, 87.61] Ry 
 Optimized for a Real-space Cutoff    1.85 Angstroem

   l    n(q)    QCUT    max X(q) W(low)/X(q) W(high)/X(q)  e(spline) 
   0     10     8.768    25.322    0.81E-04    0.51E-04    0.48E-06
   0     10     8.768    99.187    0.78E-04    0.50E-04    0.47E-06
   1      9     8.768    11.761    0.21E-03    0.20E-03    0.37E-06
   1      9     8.768     8.275    0.24E-03    0.22E-03    0.41E-06
   2      9     8.768     3.829    0.23E-04    0.15E-03    0.18E-06
 Optimization of the real space projectors (new method)

 maximal supplied QI-value         = 15.12
 optimisation between [QCUT,QGAM] = [  8.77, 17.69] = [ 21.53, 87.61] Ry 
 Optimized for a Real-space Cutoff    1.59 Angstroem

   l    n(q)    QCUT    max X(q) W(low)/X(q) W(high)/X(q)  e(spline) 
   2      7     8.768     3.846    0.48E-04    0.11E-03    0.11E-06
   2      7     8.768     8.593    0.20E-03    0.22E-04    0.24E-06
   0      8     8.768    20.082    0.68E-04    0.88E-04    0.41E-07
   0      8     8.768     8.597    0.89E-04    0.13E-03    0.59E-07
   1      8     8.768    33.223    0.15E-03    0.53E-04    0.87E-07
   1      8     8.768    15.899    0.14E-03    0.44E-04    0.78E-07
 Optimization of the real space projectors (new method)

 maximal supplied QI-value         = 17.95
 optimisation between [QCUT,QGAM] = [  8.80, 17.59] = [ 21.67, 86.68] Ry 
 Optimized for a Real-space Cutoff    1.59 Angstroem

   l    n(q)    QCUT    max X(q) W(low)/X(q) W(high)/X(q)  e(spline) 
   0      8     8.797   175.082    0.82E-04    0.14E-03    0.89E-07
   0      8     8.797   174.004    0.79E-04    0.14E-03    0.86E-07
   1      8     8.797    54.315    0.16E-03    0.14E-04    0.30E-06
   1      8     8.797    42.441    0.16E-03    0.14E-04    0.30E-06
   2      7     8.797     3.596    0.92E-04    0.15E-03    0.85E-07
  PAW_PBE Cs_sv 08Apr2002               :
 energy of atom  1       EATOM= -555.6835
 kinetic energy error for atom=    0.0069 (will be added to EATOM!!)
  PAW_PBE Pb_d 06Sep2000                :
 energy of atom  2       EATOM=-1661.6185
 kinetic energy error for atom=    0.0498 (will be added to EATOM!!)
  PAW_PBE Br 06Sep2000                  :
 energy of atom  3       EATOM= -368.4488
 kinetic energy error for atom=    0.0072 (will be added to EATOM!!)


 POSCAR: Cs8 Pb8 Br24                            
  positions in direct lattice
  No initial velocities read in

 METAGGA = SCAN     LMAXTAU =  6    LMIXTAU =  F

 exchange correlation table for  LEXCH =        8
   RHO(1)=    0.500       N(1)  =     2000
   RHO(2)=  100.500       N(2)  =     4000

 VTST: version 3.2, (02/03/18)

 CHAIN: initializing optimizer
 
 OPT: Using VASP Conjugate-Gradient optimizer
 CHAIN: Read ICHAIN            0

 POSCAR: Cs8 Pb8 Br24                            
  positions in direct lattice
  No initial velocities read in



--------------------------------------------------------------------------------------------------------


 ion  position               nearest neighbor table
   1  0.250  0.250  0.250-
   2  0.250  0.250  0.750-
   3  0.250  0.750  0.250-
   4  0.250  0.750  0.750-
   5  0.750  0.250  0.250-
   6  0.750  0.250  0.750-
   7  0.750  0.750  0.250-
   8  0.750  0.750  0.750-
   9  0.000  0.000  0.000-  25 2.93  26 2.93  17 3.01  19 3.01  33 3.01  37 3.01
  10  0.000  0.000  0.500-  25 2.93  26 2.93  18 3.01  20 3.01  34 3.01  38 3.01
  11  0.000  0.500  0.000-  27 2.93  28 2.93  17 3.01  19 3.01  35 3.01  39 3.01
  12  0.000  0.500  0.500-  27 2.93  28 2.93  18 3.01  20 3.01  36 3.01  40 3.01
  13  0.500  0.000  0.000-  29 2.93  30 2.93  21 3.01  23 3.01  33 3.01  37 3.01
  14  0.500  0.000  0.500-  29 2.93  30 2.93  22 3.01  24 3.01  34 3.01  38 3.01
  15  0.500  0.500  0.000-  31 2.93  32 2.93  21 3.01  23 3.01  35 3.01  39 3.01
  16  0.500  0.500  0.500-  31 2.93  32 2.93  22 3.01  24 3.01  36 3.01  40 3.01
  17  0.944  0.250  0.000-   9 3.01  11 3.01
  18  0.056  0.250  0.500-  10 3.01  12 3.01
  19  0.056  0.750  0.000-   9 3.01  11 3.01
  20  0.944  0.750  0.500-  10 3.01  12 3.01
  21  0.556  0.250  0.000-  13 3.01  15 3.01
  22  0.444  0.250  0.500-  14 3.01  16 3.01
  23  0.444  0.750  0.000-  13 3.01  15 3.01
  24  0.556  0.750  0.500-  14 3.01  16 3.01
  25  0.000  0.000  0.250-   9 2.93  10 2.93
  26  0.000  0.000  0.750-   9 2.93  10 2.93
  27  0.000  0.500  0.250-  11 2.93  12 2.93
  28  0.000  0.500  0.750-  11 2.93  12 2.93
  29  0.500  0.000  0.250-  13 2.93  14 2.93
  30  0.500  0.000  0.750-  13 2.93  14 2.93
  31  0.500  0.500  0.250-  15 2.93  16 2.93
  32  0.500  0.500  0.750-  15 2.93  16 2.93
  33  0.250  0.056  0.000-   9 3.01  13 3.01
  34  0.250  0.944  0.500-  10 3.01  14 3.01
  35  0.250  0.444  0.000-  11 3.01  15 3.01
  36  0.250  0.556  0.500-  12 3.01  16 3.01
  37  0.750  0.944  0.000-   9 3.01  13 3.01
  38  0.750  0.056  0.500-  10 3.01  14 3.01
  39  0.750  0.556  0.000-  11 3.01  15 3.01
  40  0.750  0.444  0.500-  12 3.01  16 3.01

  LATTYP: Found a simple cubic cell.
 ALAT       =    11.7353520000
  
  Lattice vectors:
  
 A1 = (  11.7353520000,   0.0000000000,   0.0000000000)
 A2 = (   0.0000000000,  11.7353520000,   0.0000000000)
 A3 = (   0.0000000000,   0.0000000000,  11.7353520000)


Analysis of symmetry for initial positions (statically):
=====================================================================
 Subroutine PRICEL returns following result:
 
  LATTYP: Found a face centered cubic cell.
 ALAT       =    11.7353520000
  
  Lattice vectors:
  
 A1 = (   5.8676760000,   5.8676760000,   0.0000000000)
 A2 = (   5.8676760000,  -0.0000000000,  -5.8676760000)
 A3 = (   0.0000000000,   5.8676760000,  -5.8676760000)
 
   4 primitive cells build up your supercell.
 

 Routine SETGRP: Setting up the symmetry group for a 
 simple cubic supercell.


 Subroutine GETGRP returns: Found 16 space group operations
 (whereof  8 operations were pure point group operations)
 out of a pool of 48 trial point group operations.


The static configuration has the point symmetry C_4h.
 The point group associated with its full space group is D_4h.


Analysis of symmetry for dynamics (positions and initial velocities):
=====================================================================
 Subroutine PRICEL returns following result:
 
  LATTYP: Found a face centered cubic cell.
 ALAT       =    11.7353520000
  
  Lattice vectors:
  
 A1 = (   5.8676760000,   5.8676760000,   0.0000000000)
 A2 = (   5.8676760000,  -0.0000000000,  -5.8676760000)
 A3 = (   0.0000000000,   5.8676760000,  -5.8676760000)
 
   4 primitive cells build up your supercell.
 

 Routine SETGRP: Setting up the symmetry group for a 
 simple cubic supercell.


 Subroutine GETGRP returns: Found 16 space group operations
 (whereof  8 operations were pure point group operations)
 out of a pool of 48 trial point group operations.


The dynamic configuration has the point symmetry C_4h.
 The point group associated with its full space group is D_4h.


 Subroutine INISYM returns: Found 16 space group operations
 (whereof  8 operations are pure point group operations),
 and found     4 'primitive' translations



 KPOINTS: 1x1x1                                   

Automatic generation of k-mesh.
Space group operators:
 irot       det(A)        alpha          n_x          n_y          n_z        tau_x        tau_y        tau_z
    1     1.000000     0.000000     1.000000     0.000000     0.000000     0.000000     0.000000    -0.000000
    2    -1.000000     0.000000     1.000000     0.000000     0.000000     0.000000     0.000000    -0.000000
    3     1.000000    90.000000     0.000000     0.000000    -1.000000     0.000000     0.000000    -0.000000
    4    -1.000000    90.000000     0.000000     0.000000    -1.000000     0.000000     0.000000    -0.000000
    5     1.000000   180.000000     0.000000     0.000000     1.000000     0.000000     0.000000    -0.000000
    6    -1.000000   180.000000     0.000000     0.000000     1.000000     0.000000     0.000000    -0.000000
    7     1.000000    90.000000     0.000000     0.000000     1.000000     0.000000     0.000000    -0.000000
    8    -1.000000    90.000000     0.000000     0.000000     1.000000     0.000000     0.000000    -0.000000
    9     1.000000   180.000000     1.000000     0.000000     0.000000     0.500000     0.500000    -0.500000
   10    -1.000000   180.000000     1.000000     0.000000     0.000000     0.500000     0.500000    -0.500000
   11     1.000000   180.000000     0.707107     0.707107     0.000000     0.500000     0.500000    -0.500000
   12    -1.000000   180.000000     0.707107     0.707107     0.000000     0.500000     0.500000    -0.500000
   13     1.000000   180.000000     0.000000     1.000000     0.000000     0.500000     0.500000    -0.500000
   14    -1.000000   180.000000     0.000000     1.000000     0.000000     0.500000     0.500000    -0.500000
   15     1.000000   180.000000     0.707107    -0.707107     0.000000     0.500000     0.500000    -0.500000
   16    -1.000000   180.000000     0.707107    -0.707107     0.000000     0.500000     0.500000    -0.500000
 
 Subroutine IBZKPT returns following result:
 ===========================================
 
 Found      6 irreducible k-points:
 
 Following reciprocal coordinates:
            Coordinates               Weight
  0.000000  0.000000  0.000000      1.000000
  0.500000  0.000000  0.000000      2.000000
  0.500000  0.500000  0.000000      1.000000
  0.000000  0.000000  0.500000      1.000000
  0.500000  0.000000  0.500000      2.000000
  0.500000  0.500000  0.500000      1.000000
 
 Following cartesian coordinates:
            Coordinates               Weight
  0.000000  0.000000  0.000000      1.000000
  0.042606  0.000000  0.000000      2.000000
  0.042606  0.042606  0.000000      1.000000
  0.000000  0.000000  0.042606      1.000000
  0.042606  0.000000  0.042606      2.000000
  0.042606  0.042606  0.042606      1.000000
 


--------------------------------------------------------------------------------------------------------




 Dimension of arrays:
   k-points           NKPTS =      6   k-points in BZ     NKDIM =      6   number of bands    NBANDS=    216
   number of dos      NEDOS =    301   number of ions     NIONS =     40
   non local maximal  LDIM  =      6   non local SUM 2l+1 LMDIM =     18
   total plane-waves  NPLWV = 343000
   max r-space proj   IRMAX =   5660   max aug-charges    IRDMAX=  90331
   dimension x,y,z NGX =    70 NGY =   70 NGZ =   70
   dimension x,y,z NGXF=   140 NGYF=  140 NGZF=  140
   support grid    NGXF=   280 NGYF=  280 NGZF=  280
   ions per type =               8   8  24
   NGX,Y,Z   is equivalent  to a cutoff of   9.92,  9.92,  9.92 a.u.
   NGXF,Y,Z  is equivalent  to a cutoff of  19.83, 19.83, 19.83 a.u.

 SYSTEM =  CsPbBr3 cubic bulk                      
 POSCAR =  Cs8 Pb8 Br24                            

 Startparameter for this run:
   NWRITE =      2    write-flag & timer
   PREC   = accura    normal or accurate (medium, high low for compatibility)
   ISTART =      0    job   : 0-new  1-cont  2-samecut
   ICHARG =      2    charge: 1-file 2-atom 10-const
   ISPIN  =      1    spin polarized calculation?
   LNONCOLLINEAR =      F non collinear calculations
   LSORBIT =      F    spin-orbit coupling
   INIWAV =      1    electr: 0-lowe 1-rand  2-diag
   LASPH  =      T    aspherical Exc in radial PAW
   METAGGA=      F    non-selfconsistent MetaGGA calc.

 Electronic Relaxation 1
   ENCUT  =  300.0 eV  22.05 Ry    4.70 a.u.  16.57 16.57 16.57*2*pi/ulx,y,z
   ENINI  =  300.0     initial cutoff
   ENAUG  =  503.9 eV  augmentation charge cutoff
   NELM   =    200;   NELMIN=  2; NELMDL= -5     # of ELM steps 
   EDIFF  = 0.1E-05   stopping-criterion for ELM
   LREAL  =      T    real-space projection
   NLSPLINE    = F    spline interpolate recip. space projectors
   LCOMPAT=      F    compatible to vasp.4.4
   GGA_COMPAT  = T    GGA compatible to vasp.4.4-vasp.4.6
   LMAXPAW     = -100 max onsite density
   LMAXMIX     =    2 max onsite mixed and CHGCAR
   VOSKOWN=      0    Vosko Wilk Nusair interpolation
   ROPT   =   -0.00025  -0.00025  -0.00025
 Ionic relaxation
   EDIFFG = -.1E-01   stopping-criterion for IOM
   NSW    =      0    number of steps for IOM
   NBLOCK =      1;   KBLOCK =      1    inner block; outer block 
   IBRION =     -1    ionic relax: 0-MD 1-quasi-New 2-CG
   NFREE  =      1    steps in history (QN), initial steepest desc. (CG)
   ISIF   =      3    stress and relaxation
   IWAVPR =     10    prediction:  0-non 1-charg 2-wave 3-comb
   ISYM   =      2    0-nonsym 1-usesym 2-fastsym
   LCORR  =      T    Harris-Foulkes like correction to forces

   POTIM  = 0.5000    time-step for ionic-motion
   TEIN   =    0.0    initial temperature
   TEBEG  =    0.0;   TEEND  =   0.0 temperature during run
   SMASS  =  -3.00    Nose mass-parameter (am)
   estimated Nose-frequenzy (Omega)   =  0.10E-29 period in steps =****** mass=  -0.315E-26a.u.
   SCALEE = 1.0000    scale energy and forces
   NPACO  =    256;   APACO  = 16.0  distance and # of slots for P.C.
   PSTRESS=    0.0 pullay stress

  Mass of Ions in am
   POMASS = 132.90207.20 79.90
  Ionic Valenz
   ZVAL   =   9.00 14.00  7.00
  Atomic Wigner-Seitz radii
   RWIGS  =  -1.00 -1.00 -1.00
  virtual crystal weights 
   VCA    =   1.00  1.00  1.00
   NELECT =     352.0000    total number of electrons
   NUPDOWN=      -1.0000    fix difference up-down

 DOS related values:
   EMIN   =  10.00;   EMAX   =-10.00  energy-range for DOS
   EFERMI =   0.00
   ISMEAR =     0;   SIGMA  =   0.01  broadening in eV -4-tet -1-fermi 0-gaus

 Electronic relaxation 2 (details)
   IALGO  =     38    algorithm
   LDIAG  =      T    sub-space diagonalisation (order eigenvalues)
   LSUBROT=      F    optimize rotation matrix (better conditioning)
   TURBO    =      0    0=normal 1=particle mesh
   IRESTART =      0    0=no restart 2=restart with 2 vectors
   NREBOOT  =      0    no. of reboots
   NMIN     =      0    reboot dimension
   EREF     =   0.00    reference energy to select bands
   IMIX   =      4    mixing-type and parameters
     AMIX     =   0.40;   BMIX     =  1.00
     AMIX_MAG =   1.60;   BMIX_MAG =  1.00
     AMIN     =   0.10
     WC   =   100.;   INIMIX=   1;  MIXPRE=   1;  MAXMIX= -45

 Intra band minimization:
   WEIMIN = 0.0000     energy-eigenvalue tresh-hold
   EBREAK =  0.12E-08  absolut break condition
   DEPER  =   0.30     relativ break condition  

   TIME   =   0.40     timestep for ELM

  volume/ion in A,a.u.               =      40.40       272.66
  Fermi-wavevector in a.u.,A,eV,Ry     =   0.984977  1.861337 13.200107  0.970180
  Thomas-Fermi vector in A             =   2.116250

 Write flags
   LWAVE        =      F    write WAVECAR
   LDOWNSAMPLE  =      F    k-point downsampling of WAVECAR
   LCHARG       =      T    write CHGCAR
   LVTOT        =      F    write LOCPOT, total local potential
   LVHAR        =      T    write LOCPOT, Hartree potential only
   LELF         =      F    write electronic localiz. function (ELF)
   LORBIT       =     10    0 simple, 1 ext, 2 COOP (PROOUT), +10 PAW based schemes


 Dipole corrections
   LMONO  =      F    monopole corrections only (constant potential shift)
   LDIPOL =      F    correct potential (dipole corrections)
   IDIPOL =      0    1-x, 2-y, 3-z, 4-all directions 
   EPSILON=  1.0000000 bulk dielectric constant

 Exchange correlation treatment:
   GGA     =    --    GGA type
   LEXCH   =     8    internal setting for exchange type
   VOSKOWN=      0    Vosko Wilk Nusair interpolation
   LHFCALC =     F    Hartree Fock is set to
   LHFONE  =     F    Hartree Fock one center treatment
   AEXX    =    0.0000 exact exchange contribution

 Linear response parameters
   LEPSILON=     F    determine dielectric tensor
   LRPA    =     F    only Hartree local field effects (RPA)
   LNABLA  =     F    use nabla operator in PAW spheres
   LVEL    =     F    velocity operator in full k-point grid
   LINTERFAST=   F  fast interpolation
   KINTER  =     0    interpolate to denser k-point grid
   CSHIFT  =0.1000    complex shift for real part using Kramers Kronig
   OMEGAMAX=  -1.0    maximum frequency
   DEG_THRESHOLD= 0.2000000E-02 threshold for treating states as degnerate
   RTIME   =   -0.100 relaxation time in fs
  (WPLASMAI=    0.000 imaginary part of plasma frequency in eV, 0.658/RTIME)
   DFIELD  = 0.0000000 0.0000000 0.0000000 field for delta impulse in time

 Orbital magnetization related:
   ORBITALMAG=     F  switch on orbital magnetization
   LCHIMAG   =     F  perturbation theory with respect to B field
   DQ        =  0.001000  dq finite difference perturbation B field
   LLRAUG    =     F  two centre corrections for induced B field



--------------------------------------------------------------------------------------------------------


 Static calculation
 charge density and potential will be updated during run
 non-spin polarized calculation
 Variant of blocked Davidson
 Davidson routine will perform the subspace rotation
 perform sub-space diagonalisation
    after iterative eigenvector-optimisation
 modified Broyden-mixing scheme, WC =      100.0
 initial mixing is a Kerker type mixing with AMIX =  0.4000 and BMIX =      1.0000
 Hartree-type preconditioning will be used
 using additional bands           40
 real space projection scheme for non local part
 use partial core corrections
 calculate Harris-corrections to forces   (improved forces if not selfconsistent)
 use gradient corrections 
 use of overlap-Matrix (Vanderbilt PP)
 Gauss-broadening in eV      SIGMA  =   0.01


--------------------------------------------------------------------------------------------------------


  energy-cutoff  :      300.00
  volume of cell :     1616.17
      direct lattice vectors                 reciprocal lattice vectors
    11.735352000  0.000000000  0.000000000     0.085212612  0.000000000  0.000000000
     0.000000000 11.735352000  0.000000000     0.000000000  0.085212612  0.000000000
     0.000000000  0.000000000 11.735352000     0.000000000  0.000000000  0.085212612

  length of vectors
    11.735352000 11.735352000 11.735352000     0.085212612  0.085212612  0.085212612



 k-points in units of 2pi/SCALE and weight: 1x1x1                                   
   0.00000000  0.00000000  0.00000000       0.125
   0.04260631  0.00000000  0.00000000       0.250
   0.04260631  0.04260631  0.00000000       0.125
   0.00000000  0.00000000  0.04260631       0.125
   0.04260631  0.00000000  0.04260631       0.250
   0.04260631  0.04260631  0.04260631       0.125

 k-points in reciprocal lattice and weights: 1x1x1                                   
   0.00000000  0.00000000  0.00000000       0.125
   0.50000000  0.00000000  0.00000000       0.250
   0.50000000  0.50000000  0.00000000       0.125
   0.00000000  0.00000000  0.50000000       0.125
   0.50000000  0.00000000  0.50000000       0.250
   0.50000000  0.50000000  0.50000000       0.125

 position of ions in fractional coordinates (direct lattice) 
   0.25000000  0.25000000  0.25000000
   0.25000000  0.25000000  0.75000000
   0.25000000  0.75000000  0.25000000
   0.25000000  0.75000000  0.75000000
   0.75000000  0.25000000  0.25000000
   0.75000000  0.25000000  0.75000000
   0.75000000  0.75000000  0.25000000
   0.75000000  0.75000000  0.75000000
   0.00000000  0.00000000  0.00000000
   0.00000000  0.00000000  0.50000000
   0.00000000  0.50000000  0.00000000
   0.00000000  0.50000000  0.50000000
   0.50000000  0.00000000  0.00000000
   0.50000000  0.00000000  0.50000000
   0.50000000  0.50000000  0.00000000
   0.50000000  0.50000000  0.50000000
   0.94375000  0.25000000  0.00000000
   0.05625000  0.25000000  0.50000000
   0.05625000  0.75000000  0.00000000
   0.94375000  0.75000000  0.50000000
   0.55625000  0.25000000  0.00000000
   0.44375000  0.25000000  0.50000000
   0.44375000  0.75000000  0.00000000
   0.55625000  0.75000000  0.50000000
   0.00000000  0.00000000  0.25000000
   0.00000000  0.00000000  0.75000000
   0.00000000  0.50000000  0.25000000
   0.00000000  0.50000000  0.75000000
   0.50000000  0.00000000  0.25000000
   0.50000000  0.00000000  0.75000000
   0.50000000  0.50000000  0.25000000
   0.50000000  0.50000000  0.75000000
   0.25000000  0.05625000  0.00000000
   0.25000000  0.94375000  0.50000000
   0.25000000  0.44375000  0.00000000
   0.25000000  0.55625000  0.50000000
   0.75000000  0.94375000  0.00000000
   0.75000000  0.05625000  0.50000000
   0.75000000  0.55625000  0.00000000
   0.75000000  0.44375000  0.50000000

 position of ions in cartesian coordinates  (Angst):
   2.93383800  2.93383800  2.93383800
   2.93383800  2.93383800  8.80151400
   2.93383800  8.80151400  2.93383800
   2.93383800  8.80151400  8.80151400
   8.80151400  2.93383800  2.93383800
   8.80151400  2.93383800  8.80151400
   8.80151400  8.80151400  2.93383800
   8.80151400  8.80151400  8.80151400
   0.00000000  0.00000000  0.00000000
   0.00000000  0.00000000  5.86767600
   0.00000000  5.86767600  0.00000000
   0.00000000  5.86767600  5.86767600
   5.86767600  0.00000000  0.00000000
   5.86767600  0.00000000  5.86767600
   5.86767600  5.86767600  0.00000000
   5.86767600  5.86767600  5.86767600
  11.07523845  2.93383800  0.00000000
   0.66011355  2.93383800  5.86767600
   0.66011355  8.80151400  0.00000000
  11.07523845  8.80151400  5.86767600
   6.52778955  2.93383800  0.00000000
   5.20756245  2.93383800  5.86767600
   5.20756245  8.80151400  0.00000000
   6.52778955  8.80151400  5.86767600
   0.00000000  0.00000000  2.93383800
   0.00000000  0.00000000  8.80151400
   0.00000000  5.86767600  2.93383800
   0.00000000  5.86767600  8.80151400
   5.86767600  0.00000000  2.93383800
   5.86767600  0.00000000  8.80151400
   5.86767600  5.86767600  2.93383800
   5.86767600  5.86767600  8.80151400
   2.93383800  0.66011355  0.00000000
   2.93383800 11.07523845  5.86767600
   2.93383800  5.20756245  0.00000000
   2.93383800  6.52778955  5.86767600
   8.80151400 11.07523845  0.00000000
   8.80151400  0.66011355  5.86767600
   8.80151400  6.52778955  0.00000000
   8.80151400  5.20756245  5.86767600



--------------------------------------------------------------------------------------------------------


 k-point  1 :   0.0000 0.0000 0.0000  plane waves:   19093
 k-point  2 :   0.5000 0.0000 0.0000  plane waves:   19066
 k-point  3 :   0.5000 0.5000 0.0000  plane waves:   19072
 k-point  4 :   0.0000 0.0000 0.5000  plane waves:   19066
 k-point  5 :   0.5000 0.0000 0.5000  plane waves:   19072
 k-point  6 :   0.5000 0.5000 0.5000  plane waves:   19064

 maximum and minimum number of plane-waves per node :      2417     2354

 maximum number of plane-waves:     19093
 maximum index in each direction: 
   IXMAX=   16   IYMAX=   16   IZMAX=   16
   IXMIN=  -17   IYMIN=  -17   IZMIN=  -17


 real space projection operators:
  total allocation   :      16881.00 KBytes
  max/ min on nodes  :       2203.91       1841.72


 parallel 3D FFT for wavefunctions:
    minimum data exchange during FFTs selected (reduces bandwidth)
 parallel 3D FFT for charge:
    minimum data exchange during FFTs selected (reduces bandwidth)


 total amount of memory used by VASP MPI-rank0    58966. kBytes
=======================================================================

   base      :      30000. kBytes
   nonlr-proj:       6594. kBytes
   fftplans  :       8423. kBytes
   grid      :       7465. kBytes
   one-center:         77. kBytes
   wavefun   :       6407. kBytes

     INWAV:  cpu time    0.0000: real time    0.0000
 Broyden mixing: mesh for mixing (old mesh)
   NGX = 33   NGY = 33   NGZ = 33
  (NGX  =140   NGY  =140   NGZ  =140)
  gives a total of  35937 points

 initial charge density was supplied:
 charge density of overlapping atoms calculated
 number of electron     352.0000000 magnetization 
 keeping initial charge density in first step


--------------------------------------------------------------------------------------------------------


 Maximum index for non-local projection operator          712
 Maximum index for augmentation-charges         2962 (set IRDMAX)


--------------------------------------------------------------------------------------------------------


 First call to EWALD:  gamma=   0.151
 Maximum number of real-space cells 3x 3x 3
 Maximum number of reciprocal cells 3x 3x 3

    FEWALD:  cpu time    0.0037: real time    0.0037


--------------------------------------- Iteration      1(   1)  ---------------------------------------


    POTLOK:  cpu time    0.2614: real time    0.2928
    SETDIJ:  cpu time    1.2108: real time    1.2110
     EDDAV:  cpu time   12.8224: real time   12.8279
       DOS:  cpu time    0.0007: real time    0.0007
    --------------------------------------------
      LOOP:  cpu time   14.2954: real time   14.3324

 eigenvalue-minimisations  :  2680
 total energy-change (2. order) : 0.1342635E+04  (-0.1129204E+05)
 number of electron     352.0000000 magnetization 
 augmentation part      352.0000000 magnetization 

 Free energy of the ion-electron system (eV)
  ---------------------------------------------------
  alpha Z        PSCENC =       892.99476195
  Ewald energy   TEWEN  =    -18369.76001679
  -Hartree energ DENC   =     -7379.75640412
  -exchange      EXHF   =         0.00000000
  -V(xc)+E(xc)   XCENC  =       923.89586888
  PAW double counting   =     21633.96174531   -22707.92185401
  entropy T*S    EENTRO =        -0.00156393
  eigenvalues    EBANDS =      -231.33754822
  atomic energy  EATOM  =     26580.56019858
  Solvation  Ediel_sol  =         0.00000000
  ---------------------------------------------------
  free energy    TOTEN  =      1342.63518765 eV

  energy without entropy =     1342.63675158  energy(sigma->0) =     1342.63596961


--------------------------------------------------------------------------------------------------------




--------------------------------------- Iteration      1(   2)  ---------------------------------------


     EDDAV:  cpu time   14.1851: real time   14.2231
       DOS:  cpu time    0.0004: real time    0.0004
    --------------------------------------------
      LOOP:  cpu time   14.1854: real time   14.2234

 eigenvalue-minimisations  :  3144
 total energy-change (2. order) :-0.2475073E+04  (-0.2387636E+04)
 number of electron     352.0000000 magnetization 
 augmentation part      352.0000000 magnetization 

 Free energy of the ion-electron system (eV)
  ---------------------------------------------------
  alpha Z        PSCENC =       892.99476195
  Ewald energy   TEWEN  =    -18369.76001679
  -Hartree energ DENC   =     -7379.75640412
  -exchange      EXHF   =         0.00000000
  -V(xc)+E(xc)   XCENC  =       923.89586888
  PAW double counting   =     21633.96174531   -22707.92185401
  entropy T*S    EENTRO =        -0.00000000
  eigenvalues    EBANDS =     -2706.41231422
  atomic energy  EATOM  =     26580.56019858
  Solvation  Ediel_sol  =         0.00000000
  ---------------------------------------------------
  free energy    TOTEN  =     -1132.43801442 eV

  energy without entropy =    -1132.43801442  energy(sigma->0) =    -1132.43801442


--------------------------------------------------------------------------------------------------------




--------------------------------------- Iteration      1(   3)  ---------------------------------------


     EDDAV:  cpu time   15.1608: real time   15.2171
       DOS:  cpu time    0.0004: real time    0.0004
    --------------------------------------------
      LOOP:  cpu time   15.1612: real time   15.2175

 eigenvalue-minimisations  :  3488
 total energy-change (2. order) :-0.3638674E+03  (-0.3617722E+03)
 number of electron     352.0000000 magnetization 
 augmentation part      352.0000000 magnetization 

 Free energy of the ion-electron system (eV)
  ---------------------------------------------------
  alpha Z        PSCENC =       892.99476195
  Ewald energy   TEWEN  =    -18369.76001679
  -Hartree energ DENC   =     -7379.75640412
  -exchange      EXHF   =         0.00000000
  -V(xc)+E(xc)   XCENC  =       923.89586888
  PAW double counting   =     21633.96174531   -22707.92185401
  entropy T*S    EENTRO =        -0.00000000
  eigenvalues    EBANDS =     -3070.27971597
  atomic energy  EATOM  =     26580.56019858
  Solvation  Ediel_sol  =         0.00000000
  ---------------------------------------------------
  free energy    TOTEN  =     -1496.30541617 eV

  energy without entropy =    -1496.30541617  energy(sigma->0) =    -1496.30541617


--------------------------------------------------------------------------------------------------------




--------------------------------------- Iteration      1(   4)  ---------------------------------------


     EDDAV:  cpu time   14.0344: real time   14.0481
       DOS:  cpu time    0.0004: real time    0.0004
    --------------------------------------------
      LOOP:  cpu time   14.0348: real time   14.0484

 eigenvalue-minimisations  :  3088
 total energy-change (2. order) :-0.1207538E+02  (-0.1203383E+02)
 number of electron     352.0000000 magnetization 
 augmentation part      352.0000000 magnetization 

 Free energy of the ion-electron system (eV)
  ---------------------------------------------------
  alpha Z        PSCENC =       892.99476195
  Ewald energy   TEWEN  =    -18369.76001679
  -Hartree energ DENC   =     -7379.75640412
  -exchange      EXHF   =         0.00000000
  -V(xc)+E(xc)   XCENC  =       923.89586888
  PAW double counting   =     21633.96174531   -22707.92185401
  entropy T*S    EENTRO =        -0.00000000
  eigenvalues    EBANDS =     -3082.35510023
  atomic energy  EATOM  =     26580.56019858
  Solvation  Ediel_sol  =         0.00000000
  ---------------------------------------------------
  free energy    TOTEN  =     -1508.38080043 eV

  energy without entropy =    -1508.38080043  energy(sigma->0) =    -1508.38080043


--------------------------------------------------------------------------------------------------------




--------------------------------------- Iteration      1(   5)  ---------------------------------------


     EDDAV:  cpu time   14.9785: real time   15.0265
       DOS:  cpu time    0.0004: real time    0.0004
    CHARGE:  cpu time    3.0777: real time    3.0778
    MIXING:  cpu time    0.0015: real time    0.0015
    --------------------------------------------
      LOOP:  cpu time   18.0581: real time   18.1062

 eigenvalue-minimisations  :  3440
 total energy-change (2. order) :-0.5579549E+00  (-0.5576450E+00)
 number of electron     351.9999987 magnetization 
 augmentation part       -6.5093362 magnetization 

 Broyden mixing:
  rms(total) = 0.10165E+01    rms(broyden)= 0.10162E+01
  rms(prec ) = 0.13900E+01
  weight for this iteration     100.00

 Free energy of the ion-electron system (eV)
  ---------------------------------------------------
  alpha Z        PSCENC =       892.99476195
  Ewald energy   TEWEN  =    -18369.76001679
  -Hartree energ DENC   =     -7379.75640412
  -exchange      EXHF   =         0.00000000
  -V(xc)+E(xc)   XCENC  =       923.89586888
  PAW double counting   =     21633.96174531   -22707.92185401
  entropy T*S    EENTRO =        -0.00000000
  eigenvalues    EBANDS =     -3082.91305517
  atomic energy  EATOM  =     26580.56019858
  Solvation  Ediel_sol  =         0.00000000
  ---------------------------------------------------
  free energy    TOTEN  =     -1508.93875537 eV

  energy without entropy =    -1508.93875537  energy(sigma->0) =    -1508.93875537


--------------------------------------------------------------------------------------------------------




--------------------------------------- Iteration      1(   6)  ---------------------------------------


    POTLOK:  cpu time    0.2582: real time    0.2990
    SETDIJ:  cpu time    1.2031: real time    1.2032
     EDDAV:  cpu time   14.7650: real time   14.7657
       DOS:  cpu time    0.0004: real time    0.0004
    CHARGE:  cpu time    3.1088: real time    3.1089
    MIXING:  cpu time    0.0016: real time    0.0016
    --------------------------------------------
      LOOP:  cpu time   19.3371: real time   19.3788

 eigenvalue-minimisations  :  3360
 total energy-change (2. order) : 0.7929133E+02  (-0.2337374E+01)
 number of electron     351.9999987 magnetization 
 augmentation part       -5.0734878 magnetization 

 Broyden mixing:
  rms(total) = 0.72375E+00    rms(broyden)= 0.72367E+00
  rms(prec ) = 0.89274E+00
  weight for this iteration     100.00

 eigenvalues of (default mixing * dielectric matrix)
  average eigenvalue GAMMA=   1.1974
  1.1974

 Free energy of the ion-electron system (eV)
  ---------------------------------------------------
  alpha Z        PSCENC =       892.99476195
  Ewald energy   TEWEN  =    -18369.76001679
  -Hartree energ DENC   =     -7363.00888785
  -exchange      EXHF   =         0.00000000
  -V(xc)+E(xc)   XCENC  =       955.22151363
  PAW double counting   =     21961.46975704   -23034.12887113
  entropy T*S    EENTRO =        -0.00000000
  eigenvalues    EBANDS =     -3052.99588132
  atomic energy  EATOM  =     26580.56019858
  Solvation  Ediel_sol  =         0.00000000
  ---------------------------------------------------
  free energy    TOTEN  =     -1429.64742589 eV

  energy without entropy =    -1429.64742589  energy(sigma->0) =    -1429.64742589


--------------------------------------------------------------------------------------------------------




--------------------------------------- Iteration      1(   7)  ---------------------------------------


    POTLOK:  cpu time    0.2854: real time    0.2994
    SETDIJ:  cpu time    1.1972: real time    1.1972
     EDDAV:  cpu time   14.1571: real time   14.1577
       DOS:  cpu time    0.0004: real time    0.0004
    CHARGE:  cpu time    3.1168: real time    3.1169
    MIXING:  cpu time    0.0017: real time    0.0017
    --------------------------------------------
      LOOP:  cpu time   18.7587: real time   18.7734

 eigenvalue-minimisations  :  3152
 total energy-change (2. order) : 0.4899254E+00  (-0.7797588E+00)
 number of electron     351.9999987 magnetization 
 augmentation part       -4.5575301 magnetization 

 Broyden mixing:
  rms(total) = 0.36416E+00    rms(broyden)= 0.36415E+00
  rms(prec ) = 0.39943E+00
  weight for this iteration     100.00

 eigenvalues of (default mixing * dielectric matrix)
  average eigenvalue GAMMA=   1.3244
  1.3244  1.3244

 Free energy of the ion-electron system (eV)
  ---------------------------------------------------
  alpha Z        PSCENC =       892.99476195
  Ewald energy   TEWEN  =    -18369.76001679
  -Hartree energ DENC   =     -7405.26226193
  -exchange      EXHF   =         0.00000000
  -V(xc)+E(xc)   XCENC  =       960.71342608
  PAW double counting   =     22602.98663478   -23674.16241352
  entropy T*S    EENTRO =        -0.00000000
  eigenvalues    EBANDS =     -3017.22782966
  atomic energy  EATOM  =     26580.56019858
  Solvation  Ediel_sol  =         0.00000000
  ---------------------------------------------------
  free energy    TOTEN  =     -1429.15750051 eV

  energy without entropy =    -1429.15750051  energy(sigma->0) =    -1429.15750051


--------------------------------------------------------------------------------------------------------




--------------------------------------- Iteration      1(   8)  ---------------------------------------


    POTLOK:  cpu time    0.2568: real time    0.3063
    SETDIJ:  cpu time    1.2012: real time    1.2012
     EDDAV:  cpu time   14.0901: real time   14.0907
       DOS:  cpu time    0.0007: real time    0.0007
    CHARGE:  cpu time    3.1229: real time    3.1230
    MIXING:  cpu time    0.0016: real time    0.0016
    --------------------------------------------
      LOOP:  cpu time   18.6733: real time   18.7236

 eigenvalue-minimisations  :  3128
 total energy-change (2. order) :-0.1900683E+00  (-0.3922243E-01)
 number of electron     351.9999987 magnetization 
 augmentation part       -4.6332123 magnetization 

 Broyden mixing:
  rms(total) = 0.21015E+00    rms(broyden)= 0.21015E+00
  rms(prec ) = 0.23194E+00
  weight for this iteration     100.00

 eigenvalues of (default mixing * dielectric matrix)
  average eigenvalue GAMMA=   1.7268
  1.0950  1.3375  2.7481

 Free energy of the ion-electron system (eV)
  ---------------------------------------------------
  alpha Z        PSCENC =       892.99476195
  Ewald energy   TEWEN  =    -18369.76001679
  -Hartree energ DENC   =     -7410.43165904
  -exchange      EXHF   =         0.00000000
  -V(xc)+E(xc)   XCENC  =       961.47070721
  PAW double counting   =     22857.46746472   -23928.98805426
  entropy T*S    EENTRO =        -0.00000000
  eigenvalues    EBANDS =     -3012.66097115
  atomic energy  EATOM  =     26580.56019858
  Solvation  Ediel_sol  =         0.00000000
  ---------------------------------------------------
  free energy    TOTEN  =     -1429.34756879 eV

  energy without entropy =    -1429.34756879  energy(sigma->0) =    -1429.34756879


--------------------------------------------------------------------------------------------------------




--------------------------------------- Iteration      1(   9)  ---------------------------------------


    POTLOK:  cpu time    0.2753: real time    0.2997
    SETDIJ:  cpu time    1.1995: real time    1.1995
     EDDAV:  cpu time   13.3578: real time   13.3583
       DOS:  cpu time    0.0004: real time    0.0004
    CHARGE:  cpu time    3.1230: real time    3.1230
    MIXING:  cpu time    0.0016: real time    0.0016
    --------------------------------------------
      LOOP:  cpu time   17.9575: real time   17.9826

 eigenvalue-minimisations  :  2872
 total energy-change (2. order) :-0.8240544E-01  (-0.1591225E-01)
 number of electron     351.9999987 magnetization 
 augmentation part       -4.6758877 magnetization 

 Broyden mixing:
  rms(total) = 0.44952E-01    rms(broyden)= 0.44950E-01
  rms(prec ) = 0.48075E-01
  weight for this iteration     100.00

 eigenvalues of (default mixing * dielectric matrix)
  average eigenvalue GAMMA=   1.4735
  2.5591  1.2513  1.2513  0.8323

 Free energy of the ion-electron system (eV)
  ---------------------------------------------------
  alpha Z        PSCENC =       892.99476195
  Ewald energy   TEWEN  =    -18369.76001679
  -Hartree energ DENC   =     -7416.12708321
  -exchange      EXHF   =         0.00000000
  -V(xc)+E(xc)   XCENC  =       963.49152048
  PAW double counting   =     23211.99727205   -24284.30947248
  entropy T*S    EENTRO =        -0.00000000
  eigenvalues    EBANDS =     -3008.27715481
  atomic energy  EATOM  =     26580.56019858
  Solvation  Ediel_sol  =         0.00000000
  ---------------------------------------------------
  free energy    TOTEN  =     -1429.42997423 eV

  energy without entropy =    -1429.42997423  energy(sigma->0) =    -1429.42997423


--------------------------------------------------------------------------------------------------------




--------------------------------------- Iteration      1(  10)  ---------------------------------------


    POTLOK:  cpu time    0.2751: real time    0.2982
    SETDIJ:  cpu time    1.2026: real time    1.2026
     EDDAV:  cpu time   15.7130: real time   15.7137
       DOS:  cpu time    0.0003: real time    0.0003
    CHARGE:  cpu time    3.1232: real time    3.1233
    MIXING:  cpu time    0.0017: real time    0.0017
    --------------------------------------------
      LOOP:  cpu time   20.3159: real time   20.3398

 eigenvalue-minimisations  :  3696
 total energy-change (2. order) :-0.1523390E-02  (-0.9236783E-03)
 number of electron     351.9999987 magnetization 
 augmentation part       -4.6620457 magnetization 

 Broyden mixing:
  rms(total) = 0.27013E-01    rms(broyden)= 0.27012E-01
  rms(prec ) = 0.29743E-01
  weight for this iteration     100.00

 eigenvalues of (default mixing * dielectric matrix)
  average eigenvalue GAMMA=   1.5428
  2.3091  2.3091  1.1138  1.1138  0.8681

 Free energy of the ion-electron system (eV)
  ---------------------------------------------------
  alpha Z        PSCENC =       892.99476195
  Ewald energy   TEWEN  =    -18369.76001679
  -Hartree energ DENC   =     -7414.44619360
  -exchange      EXHF   =         0.00000000
  -V(xc)+E(xc)   XCENC  =       963.28761993
  PAW double counting   =     23175.54357775   -24247.91051942
  entropy T*S    EENTRO =        -0.00000000
  eigenvalues    EBANDS =     -3009.70092602
  atomic energy  EATOM  =     26580.56019858
  Solvation  Ediel_sol  =         0.00000000
  ---------------------------------------------------
  free energy    TOTEN  =     -1429.43149762 eV

  energy without entropy =    -1429.43149762  energy(sigma->0) =    -1429.43149762


--------------------------------------------------------------------------------------------------------




--------------------------------------- Iteration      1(  11)  ---------------------------------------


    POTLOK:  cpu time    0.2829: real time    0.2858
    SETDIJ:  cpu time    1.2040: real time    1.2040
     EDDAV:  cpu time   13.4451: real time   13.4456
       DOS:  cpu time    0.0004: real time    0.0004
    CHARGE:  cpu time    3.1284: real time    3.1285
    MIXING:  cpu time    0.0019: real time    0.0019
    --------------------------------------------
      LOOP:  cpu time   18.0626: real time   18.0661

 eigenvalue-minimisations  :  2904
 total energy-change (2. order) :-0.2811280E-02  (-0.2590477E-03)
 number of electron     351.9999987 magnetization 
 augmentation part       -4.6606088 magnetization 

 Broyden mixing:
  rms(total) = 0.92334E-02    rms(broyden)= 0.92332E-02
  rms(prec ) = 0.11382E-01
  weight for this iteration     100.00

 eigenvalues of (default mixing * dielectric matrix)
  average eigenvalue GAMMA=   1.5885
  2.6097  2.6097  1.2411  1.2411  0.9147  0.9147

 Free energy of the ion-electron system (eV)
  ---------------------------------------------------
  alpha Z        PSCENC =       892.99476195
  Ewald energy   TEWEN  =    -18369.76001679
  -Hartree energ DENC   =     -7412.21141802
  -exchange      EXHF   =         0.00000000
  -V(xc)+E(xc)   XCENC  =       963.20776650
  PAW double counting   =     23146.65053758   -24219.23836939
  entropy T*S    EENTRO =        -0.00000000
  eigenvalues    EBANDS =     -3011.63776931
  atomic energy  EATOM  =     26580.56019858
  Solvation  Ediel_sol  =         0.00000000
  ---------------------------------------------------
  free energy    TOTEN  =     -1429.43430890 eV

  energy without entropy =    -1429.43430890  energy(sigma->0) =    -1429.43430890


--------------------------------------------------------------------------------------------------------




--------------------------------------- Iteration      1(  12)  ---------------------------------------


    POTLOK:  cpu time    0.2675: real time    0.2966
    SETDIJ:  cpu time    1.1957: real time    1.1957
     EDDAV:  cpu time   13.3611: real time   13.3615
       DOS:  cpu time    0.0005: real time    0.0005
    CHARGE:  cpu time    3.1277: real time    3.1278
    MIXING:  cpu time    0.0020: real time    0.0020
    --------------------------------------------
      LOOP:  cpu time   17.9544: real time   17.9841

 eigenvalue-minimisations  :  2880
 total energy-change (2. order) :-0.7424160E-03  (-0.9334890E-04)
 number of electron     351.9999987 magnetization 
 augmentation part       -4.6639111 magnetization 

 Broyden mixing:
  rms(total) = 0.36131E-02    rms(broyden)= 0.36128E-02
  rms(prec ) = 0.40696E-02
  weight for this iteration     100.00

 eigenvalues of (default mixing * dielectric matrix)
  average eigenvalue GAMMA=   1.6342
  3.0281  2.4451  1.7846  1.2395  1.0027  0.9696  0.9696

 Free energy of the ion-electron system (eV)
  ---------------------------------------------------
  alpha Z        PSCENC =       892.99476195
  Ewald energy   TEWEN  =    -18369.76001679
  -Hartree energ DENC   =     -7412.22951725
  -exchange      EXHF   =         0.00000000
  -V(xc)+E(xc)   XCENC  =       963.33428646
  PAW double counting   =     23153.24497829   -24225.96243355
  entropy T*S    EENTRO =        -0.00000000
  eigenvalues    EBANDS =     -3011.61730901
  atomic energy  EATOM  =     26580.56019858
  Solvation  Ediel_sol  =         0.00000000
  ---------------------------------------------------
  free energy    TOTEN  =     -1429.43505132 eV

  energy without entropy =    -1429.43505132  energy(sigma->0) =    -1429.43505132


--------------------------------------------------------------------------------------------------------




--------------------------------------- Iteration      1(  13)  ---------------------------------------


    POTLOK:  cpu time    0.2706: real time    0.3096
    SETDIJ:  cpu time    1.2058: real time    1.2058
     EDDAV:  cpu time   14.5450: real time   14.5458
       DOS:  cpu time    0.0004: real time    0.0004
    CHARGE:  cpu time    3.1286: real time    3.1287
    MIXING:  cpu time    0.0022: real time    0.0022
    --------------------------------------------
      LOOP:  cpu time   19.1526: real time   19.1925

 eigenvalue-minimisations  :  3288
 total energy-change (2. order) :-0.1444971E-04  (-0.8635001E-05)
 number of electron     351.9999987 magnetization 
 augmentation part       -4.6638867 magnetization 

 Broyden mixing:
  rms(total) = 0.13791E-02    rms(broyden)= 0.13791E-02
  rms(prec ) = 0.14779E-02
  weight for this iteration     100.00

 eigenvalues of (default mixing * dielectric matrix)
  average eigenvalue GAMMA=   1.5088
  3.0197  2.4186  1.8472  1.2226  0.9790  0.9790  1.0165  0.5874

 Free energy of the ion-electron system (eV)
  ---------------------------------------------------
  alpha Z        PSCENC =       892.99476195
  Ewald energy   TEWEN  =    -18369.76001679
  -Hartree energ DENC   =     -7412.56170774
  -exchange      EXHF   =         0.00000000
  -V(xc)+E(xc)   XCENC  =       963.36055091
  PAW double counting   =     23150.39892322   -24223.13703956
  entropy T*S    EENTRO =        -0.00000000
  eigenvalues    EBANDS =     -3011.29073633
  atomic energy  EATOM  =     26580.56019858
  Solvation  Ediel_sol  =         0.00000000
  ---------------------------------------------------
  free energy    TOTEN  =     -1429.43506577 eV

  energy without entropy =    -1429.43506577  energy(sigma->0) =    -1429.43506577


--------------------------------------------------------------------------------------------------------




--------------------------------------- Iteration      1(  14)  ---------------------------------------


    POTLOK:  cpu time    0.2901: real time    0.2991
    SETDIJ:  cpu time    1.1997: real time    1.1997
     EDDAV:  cpu time   12.9058: real time   12.9062
       DOS:  cpu time    0.0004: real time    0.0004
    CHARGE:  cpu time    3.1281: real time    3.1281
    MIXING:  cpu time    0.0021: real time    0.0021
    --------------------------------------------
      LOOP:  cpu time   17.5261: real time   17.5357

 eigenvalue-minimisations  :  2712
 total energy-change (2. order) : 0.5475313E-06  (-0.1016544E-05)
 number of electron     351.9999987 magnetization 
 augmentation part       -4.6635987 magnetization 

 Broyden mixing:
  rms(total) = 0.91073E-03    rms(broyden)= 0.91071E-03
  rms(prec ) = 0.98441E-03
  weight for this iteration     100.00

 eigenvalues of (default mixing * dielectric matrix)
  average eigenvalue GAMMA=   1.3801
  3.0155  2.4334  1.8298  1.2269  1.0117  0.9732  0.9732  0.4787  0.4787

 Free energy of the ion-electron system (eV)
  ---------------------------------------------------
  alpha Z        PSCENC =       892.99476195
  Ewald energy   TEWEN  =    -18369.76001679
  -Hartree energ DENC   =     -7412.58775995
  -exchange      EXHF   =         0.00000000
  -V(xc)+E(xc)   XCENC  =       963.36018839
  PAW double counting   =     23150.17555829   -24222.92466851
  entropy T*S    EENTRO =        -0.00000000
  eigenvalues    EBANDS =     -3011.25332717
  atomic energy  EATOM  =     26580.56019858
  Solvation  Ediel_sol  =         0.00000000
  ---------------------------------------------------
  free energy    TOTEN  =     -1429.43506522 eV

  energy without entropy =    -1429.43506522  energy(sigma->0) =    -1429.43506522


--------------------------------------------------------------------------------------------------------




--------------------------------------- Iteration      1(  15)  ---------------------------------------


    POTLOK:  cpu time    0.2783: real time    0.3007
    SETDIJ:  cpu time    1.1977: real time    1.1978
     EDDAV:  cpu time   10.9264: real time   10.9269
       DOS:  cpu time    0.0004: real time    0.0004
    CHARGE:  cpu time    3.1299: real time    3.1302
    MIXING:  cpu time    0.0019: real time    0.0019
    --------------------------------------------
      LOOP:  cpu time   15.5346: real time   15.5579

 eigenvalue-minimisations  :  2008
 total energy-change (2. order) : 0.5197222E-05  (-0.3042697E-05)
 number of electron     351.9999987 magnetization 
 augmentation part       -4.6636403 magnetization 

 Broyden mixing:
  rms(total) = 0.71350E-03    rms(broyden)= 0.71349E-03
  rms(prec ) = 0.77026E-03
  weight for this iteration     100.00

 eigenvalues of (default mixing * dielectric matrix)
  average eigenvalue GAMMA=   1.4197
  2.9822  2.5032  1.8926  1.6093  1.2532  1.0084  0.9644  0.9644  0.5094  0.5094

 Free energy of the ion-electron system (eV)
  ---------------------------------------------------
  alpha Z        PSCENC =       892.99476195
  Ewald energy   TEWEN  =    -18369.76001679
  -Hartree energ DENC   =     -7412.58414906
  -exchange      EXHF   =         0.00000000
  -V(xc)+E(xc)   XCENC  =       963.35945844
  PAW double counting   =     23150.08603201   -24222.80133311
  entropy T*S    EENTRO =        -0.00000000
  eigenvalues    EBANDS =     -3011.29001203
  atomic energy  EATOM  =     26580.56019858
  Solvation  Ediel_sol  =         0.00000000
  ---------------------------------------------------
  free energy    TOTEN  =     -1429.43506002 eV

  energy without entropy =    -1429.43506002  energy(sigma->0) =    -1429.43506002


--------------------------------------------------------------------------------------------------------




--------------------------------------- Iteration      1(  16)  ---------------------------------------


    POTLOK:  cpu time    0.2913: real time    0.3105
    SETDIJ:  cpu time    1.1963: real time    1.1963
     EDDAV:  cpu time   10.6319: real time   10.6324
       DOS:  cpu time    0.0004: real time    0.0004
    CHARGE:  cpu time    3.1386: real time    3.1387
    MIXING:  cpu time    0.0019: real time    0.0019
    --------------------------------------------
      LOOP:  cpu time   15.2604: real time   15.2801

 eigenvalue-minimisations  :  1904
 total energy-change (2. order) :-0.1017620E-04  (-0.2168334E-06)
 number of electron     351.9999987 magnetization 
 augmentation part       -4.6633451 magnetization 

 Broyden mixing:
  rms(total) = 0.38632E-03    rms(broyden)= 0.38631E-03
  rms(prec ) = 0.41000E-03
  weight for this iteration     100.00

 eigenvalues of (default mixing * dielectric matrix)
  average eigenvalue GAMMA=   1.4428
  2.9279  2.7724  2.0428  2.0428  1.1553  1.1553  0.9497  0.9497  0.9267  0.4739
  0.4739

 Free energy of the ion-electron system (eV)
  ---------------------------------------------------
  alpha Z        PSCENC =       892.99476195
  Ewald energy   TEWEN  =    -18369.76001679
  -Hartree energ DENC   =     -7412.59992739
  -exchange      EXHF   =         0.00000000
  -V(xc)+E(xc)   XCENC  =       963.36065147
  PAW double counting   =     23149.73522156   -24222.44718064
  entropy T*S    EENTRO =        -0.00000000
  eigenvalues    EBANDS =     -3011.27877893
  atomic energy  EATOM  =     26580.56019858
  Solvation  Ediel_sol  =         0.00000000
  ---------------------------------------------------
  free energy    TOTEN  =     -1429.43507020 eV

  energy without entropy =    -1429.43507020  energy(sigma->0) =    -1429.43507020


--------------------------------------------------------------------------------------------------------




--------------------------------------- Iteration      1(  17)  ---------------------------------------


    POTLOK:  cpu time    0.2659: real time    0.3397
    SETDIJ:  cpu time    1.1951: real time    1.1952
     EDDAV:  cpu time    9.9798: real time    9.9802
       DOS:  cpu time    0.0004: real time    0.0004
    CHARGE:  cpu time    3.1376: real time    3.1383
    MIXING:  cpu time    0.0020: real time    0.0020
    --------------------------------------------
      LOOP:  cpu time   14.5808: real time   14.6558

 eigenvalue-minimisations  :  1672
 total energy-change (2. order) : 0.1143274E-05  (-0.5100043E-07)
 number of electron     351.9999987 magnetization 
 augmentation part       -4.6634195 magnetization 

 Broyden mixing:
  rms(total) = 0.33820E-03    rms(broyden)= 0.33820E-03
  rms(prec ) = 0.35564E-03
  weight for this iteration     100.00

 eigenvalues of (default mixing * dielectric matrix)
  average eigenvalue GAMMA=   1.4609
  3.0648  2.6146  2.6146  1.7704  1.3032  1.1655  1.1655  0.9609  0.8723  0.8723
  0.5635  0.5635

 Free energy of the ion-electron system (eV)
  ---------------------------------------------------
  alpha Z        PSCENC =       892.99476195
  Ewald energy   TEWEN  =    -18369.76001679
  -Hartree energ DENC   =     -7412.60278941
  -exchange      EXHF   =         0.00000000
  -V(xc)+E(xc)   XCENC  =       963.36066916
  PAW double counting   =     23149.77364071   -24222.48502427
  entropy T*S    EENTRO =        -0.00000000
  eigenvalues    EBANDS =     -3011.27650899
  atomic energy  EATOM  =     26580.56019858
  Solvation  Ediel_sol  =         0.00000000
  ---------------------------------------------------
  free energy    TOTEN  =     -1429.43506905 eV

  energy without entropy =    -1429.43506905  energy(sigma->0) =    -1429.43506905


--------------------------------------------------------------------------------------------------------




--------------------------------------- Iteration      1(  18)  ---------------------------------------


    POTLOK:  cpu time    0.2841: real time    0.3058
    SETDIJ:  cpu time    1.2002: real time    1.2002
     EDDAV:  cpu time    9.8161: real time    9.8166
       DOS:  cpu time    0.0004: real time    0.0004
    CHARGE:  cpu time    3.1390: real time    3.1392
    MIXING:  cpu time    0.0021: real time    0.0021
    --------------------------------------------
      LOOP:  cpu time   14.4418: real time   14.4643

 eigenvalue-minimisations  :  1608
 total energy-change (2. order) : 0.4957329E-05  (-0.2249052E-07)
 number of electron     351.9999987 magnetization 
 augmentation part       -4.6634210 magnetization 

 Broyden mixing:
  rms(total) = 0.30252E-03    rms(broyden)= 0.30252E-03
  rms(prec ) = 0.31677E-03
  weight for this iteration     100.00

 eigenvalues of (default mixing * dielectric matrix)
  average eigenvalue GAMMA=   1.5307
  3.2584  3.0473  2.2027  2.0126  2.0126  1.1883  1.1883  1.1324  0.9533  0.9533
  0.9270  0.5116  0.5116

 Free energy of the ion-electron system (eV)
  ---------------------------------------------------
  alpha Z        PSCENC =       892.99476195
  Ewald energy   TEWEN  =    -18369.76001679
  -Hartree energ DENC   =     -7412.61128410
  -exchange      EXHF   =         0.00000000
  -V(xc)+E(xc)   XCENC  =       963.36141472
  PAW double counting   =     23149.88041116   -24222.59128341
  entropy T*S    EENTRO =        -0.00000000
  eigenvalues    EBANDS =     -3011.26926620
  atomic energy  EATOM  =     26580.56019858
  Solvation  Ediel_sol  =         0.00000000
  ---------------------------------------------------
  free energy    TOTEN  =     -1429.43506410 eV

  energy without entropy =    -1429.43506410  energy(sigma->0) =    -1429.43506410


--------------------------------------------------------------------------------------------------------




--------------------------------------- Iteration      1(  19)  ---------------------------------------


    POTLOK:  cpu time    0.2734: real time    0.2963
    SETDIJ:  cpu time    1.2002: real time    1.2003
     EDDAV:  cpu time    9.7988: real time    9.7991
       DOS:  cpu time    0.0008: real time    0.0008
    CHARGE:  cpu time    3.1373: real time    3.1374
    MIXING:  cpu time    0.0021: real time    0.0021
    --------------------------------------------
      LOOP:  cpu time   14.4125: real time   14.4359

 eigenvalue-minimisations  :  1608
 total energy-change (2. order) :-0.2449241E-05  (-0.9643745E-08)
 number of electron     351.9999987 magnetization 
 augmentation part       -4.6634232 magnetization 

 Broyden mixing:
  rms(total) = 0.24592E-03    rms(broyden)= 0.24592E-03
  rms(prec ) = 0.25765E-03
  weight for this iteration     100.00

 eigenvalues of (default mixing * dielectric matrix)
  average eigenvalue GAMMA=   1.5779
  3.1087  3.1087  2.5653  2.5653  1.7794  1.7794  1.2083  1.2083  0.9446  0.9446
  0.9136  0.9136  0.5255  0.5255

 Free energy of the ion-electron system (eV)
  ---------------------------------------------------
  alpha Z        PSCENC =       892.99476195
  Ewald energy   TEWEN  =    -18369.76001679
  -Hartree energ DENC   =     -7412.61439313
  -exchange      EXHF   =         0.00000000
  -V(xc)+E(xc)   XCENC  =       963.36167118
  PAW double counting   =     23149.85839004   -24222.56968936
  entropy T*S    EENTRO =        -0.00000000
  eigenvalues    EBANDS =     -3011.26598902
  atomic energy  EATOM  =     26580.56019858
  Solvation  Ediel_sol  =         0.00000000
  ---------------------------------------------------
  free energy    TOTEN  =     -1429.43506655 eV

  energy without entropy =    -1429.43506655  energy(sigma->0) =    -1429.43506655


--------------------------------------------------------------------------------------------------------




--------------------------------------- Iteration      1(  20)  ---------------------------------------


    POTLOK:  cpu time    0.2998: real time    0.3027
    SETDIJ:  cpu time    1.1954: real time    1.1955
     EDDAV:  cpu time    9.7414: real time    9.7418
       DOS:  cpu time    0.0004: real time    0.0004
    CHARGE:  cpu time    3.1356: real time    3.1357
    MIXING:  cpu time    0.0022: real time    0.0022
    --------------------------------------------
      LOOP:  cpu time   14.3748: real time   14.3783

 eigenvalue-minimisations  :  1584
 total energy-change (2. order) :-0.2086266E-05  (-0.4026689E-08)
 number of electron     351.9999987 magnetization 
 augmentation part       -4.6634190 magnetization 

 Broyden mixing:
  rms(total) = 0.19645E-03    rms(broyden)= 0.19645E-03
  rms(prec ) = 0.20599E-03
  weight for this iteration     100.00

 eigenvalues of (default mixing * dielectric matrix)
  average eigenvalue GAMMA=   1.5781
  3.2089  3.2089  2.6624  2.6624  1.8837  1.8837  1.2573  1.2573  0.9808  0.9808
  0.9410  0.8512  0.8512  0.5208  0.5208

 Free energy of the ion-electron system (eV)
  ---------------------------------------------------
  alpha Z        PSCENC =       892.99476195
  Ewald energy   TEWEN  =    -18369.76001679
  -Hartree energ DENC   =     -7412.61441952
  -exchange      EXHF   =         0.00000000
  -V(xc)+E(xc)   XCENC  =       963.36191060
  PAW double counting   =     23149.90655543   -24222.61835549
  entropy T*S    EENTRO =        -0.00000000
  eigenvalues    EBANDS =     -3011.26570339
  atomic energy  EATOM  =     26580.56019858
  Solvation  Ediel_sol  =         0.00000000
  ---------------------------------------------------
  free energy    TOTEN  =     -1429.43506863 eV

  energy without entropy =    -1429.43506863  energy(sigma->0) =    -1429.43506863


--------------------------------------------------------------------------------------------------------




--------------------------------------- Iteration      1(  21)  ---------------------------------------


    POTLOK:  cpu time    0.2811: real time    0.2990
    SETDIJ:  cpu time    1.2004: real time    1.2004
     EDDAV:  cpu time    9.7069: real time    9.7074
       DOS:  cpu time    0.0004: real time    0.0004
    CHARGE:  cpu time    3.1455: real time    3.1456
    MIXING:  cpu time    0.0024: real time    0.0024
    --------------------------------------------
      LOOP:  cpu time   14.3367: real time   14.3552

 eigenvalue-minimisations  :  1568
 total energy-change (2. order) :-0.1153880E-05  (-0.2136529E-08)
 number of electron     351.9999987 magnetization 
 augmentation part       -4.6634292 magnetization 

 Broyden mixing:
  rms(total) = 0.15541E-03    rms(broyden)= 0.15541E-03
  rms(prec ) = 0.16311E-03
  weight for this iteration     100.00

 eigenvalues of (default mixing * dielectric matrix)
  average eigenvalue GAMMA=   1.6562
  3.4180  2.6888  2.6888  2.8476  2.3837  2.3837  1.8126  1.1914  1.1914  1.0280
  1.0280  0.9433  0.9433  0.9064  0.5225  0.5225

 Free energy of the ion-electron system (eV)
  ---------------------------------------------------
  alpha Z        PSCENC =       892.99476195
  Ewald energy   TEWEN  =    -18369.76001679
  -Hartree energ DENC   =     -7412.61644917
  -exchange      EXHF   =         0.00000000
  -V(xc)+E(xc)   XCENC  =       963.36219493
  PAW double counting   =     23149.93961808   -24222.65175367
  entropy T*S    EENTRO =        -0.00000000
  eigenvalues    EBANDS =     -3011.26362370
  atomic energy  EATOM  =     26580.56019858
  Solvation  Ediel_sol  =         0.00000000
  ---------------------------------------------------
  free energy    TOTEN  =     -1429.43506979 eV

  energy without entropy =    -1429.43506979  energy(sigma->0) =    -1429.43506979


--------------------------------------------------------------------------------------------------------




--------------------------------------- Iteration      1(  22)  ---------------------------------------


    POTLOK:  cpu time    0.2629: real time    0.2977
    SETDIJ:  cpu time    1.1983: real time    1.1984
     EDDAV:  cpu time    9.6758: real time    9.6761
       DOS:  cpu time    0.0004: real time    0.0004
    CHARGE:  cpu time    3.1440: real time    3.1441
    MIXING:  cpu time    0.0025: real time    0.0026
    --------------------------------------------
      LOOP:  cpu time   14.2840: real time   14.3193

 eigenvalue-minimisations  :  1560
 total energy-change (2. order) :-0.1998888E-05  (-0.3783721E-08)
 number of electron     351.9999987 magnetization 
 augmentation part       -4.6634148 magnetization 

 Broyden mixing:
  rms(total) = 0.83762E-04    rms(broyden)= 0.83762E-04
  rms(prec ) = 0.87743E-04
  weight for this iteration     100.00

 eigenvalues of (default mixing * dielectric matrix)
  average eigenvalue GAMMA=   1.6637
  3.2832  3.2832  2.9446  2.9446  2.1986  2.1986  2.0415  1.3169  1.1732  1.1732
  0.9766  0.9766  0.9132  0.9132  0.9008  0.5223  0.5223

 Free energy of the ion-electron system (eV)
  ---------------------------------------------------
  alpha Z        PSCENC =       892.99476195
  Ewald energy   TEWEN  =    -18369.76001679
  -Hartree energ DENC   =     -7412.61903650
  -exchange      EXHF   =         0.00000000
  -V(xc)+E(xc)   XCENC  =       963.36274357
  PAW double counting   =     23149.99499853   -24222.70787910
  entropy T*S    EENTRO =        -0.00000000
  eigenvalues    EBANDS =     -3011.26084202
  atomic energy  EATOM  =     26580.56019858
  Solvation  Ediel_sol  =         0.00000000
  ---------------------------------------------------
  free energy    TOTEN  =     -1429.43507178 eV

  energy without entropy =    -1429.43507178  energy(sigma->0) =    -1429.43507178


--------------------------------------------------------------------------------------------------------




--------------------------------------- Iteration      1(  23)  ---------------------------------------


    POTLOK:  cpu time    0.2772: real time    0.2973
    SETDIJ:  cpu time    1.1995: real time    1.1995
     EDDAV:  cpu time    9.6513: real time    9.6516
       DOS:  cpu time    0.0004: real time    0.0004
    --------------------------------------------
      LOOP:  cpu time   11.1283: real time   11.1488

 eigenvalue-minimisations  :  1552
 total energy-change (2. order) :-0.5667962E-06  (-0.1796251E-08)
[...]
 total charge-density along one line

 pseudopotential strength for first ion, spin component:           1
 18.017  -4.717   0.000   0.000   0.000  -0.000  -0.000  -0.000
 -4.717   1.243  -0.000  -0.000  -0.000   0.000   0.000   0.000
  0.000  -0.000   2.285  -0.000  -0.000  -2.737   0.000   0.000
  0.000  -0.000  -0.000   2.282  -0.000   0.000  -2.733   0.000
  0.000  -0.000  -0.000  -0.000   2.285   0.000   0.000  -2.737
 -0.000   0.000  -2.737   0.000   0.000   3.247  -0.000  -0.000
 -0.000   0.000   0.000  -2.733   0.000  -0.000   3.242  -0.000
 -0.000   0.000   0.000   0.000  -2.737  -0.000  -0.000   3.247
 -0.000   0.000   0.000   0.000   0.000  -0.000  -0.000  -0.000
 -0.000   0.000   0.002   0.000   0.000  -0.002  -0.000  -0.000
 -0.002   0.000  -0.000   0.000  -0.000   0.000  -0.000   0.000
 -0.000   0.000   0.000   0.000  -0.002  -0.000  -0.000   0.002
  0.000  -0.000  -0.000  -0.002   0.000   0.000   0.002  -0.000
 total augmentation occupancy for first ion, spin component:           1
  1.909  -0.144   0.000   0.000   0.000   0.000  -0.000   0.000  -0.000  -0.000  -0.003  -0.000   0.000
 -0.144   0.104   0.000   0.000   0.000   0.000   0.000   0.000   0.000   0.000   0.009   0.000  -0.000
  0.000   0.000   2.018   0.000   0.000   0.004   0.000   0.000   0.000   0.004  -0.000  -0.000  -0.000
  0.000   0.000   0.000   2.009   0.000   0.000  -0.002   0.000  -0.000   0.000   0.000   0.000  -0.004
  0.000   0.000   0.000   0.000   2.018   0.000   0.000   0.004  -0.000  -0.000   0.000  -0.004   0.000
  0.000   0.000   0.004   0.000   0.000   0.005   0.000   0.000   0.000  -0.003   0.000   0.000  -0.000
 -0.000   0.000   0.000  -0.002   0.000   0.000   0.010   0.000  -0.000   0.000  -0.000  -0.000   0.003
  0.000   0.000   0.000   0.000   0.004   0.000   0.000   0.005   0.000   0.000   0.000   0.003   0.000
 -0.000   0.000   0.000  -0.000  -0.000   0.000  -0.000   0.000   0.003   0.000  -0.000  -0.000  -0.000
 -0.000   0.000   0.004   0.000  -0.000  -0.003   0.000   0.000   0.000   0.005  -0.000   0.000  -0.000
 -0.003   0.009  -0.000   0.000   0.000   0.000  -0.000   0.000  -0.000  -0.000   0.004  -0.000  -0.000
 -0.000   0.000  -0.000   0.000  -0.004   0.000  -0.000   0.003  -0.000   0.000  -0.000   0.005   0.000
  0.000  -0.000  -0.000  -0.004   0.000  -0.000   0.003   0.000  -0.000  -0.000  -0.000   0.000   0.002


------------------------ aborting loop because EDIFF is reached ----------------------------------------





 total charge     

# of ion       s       p       d       tot
------------------------------------------
    1        1.784   4.718   0.015   6.518
    2        1.784   4.718   0.015   6.518
    3        1.784   4.718   0.015   6.518
    4        1.784   4.718   0.015   6.518
    5        1.784   4.718   0.015   6.518
    6        1.784   4.718   0.015   6.518
    7        1.784   4.718   0.015   6.518
    8        1.784   4.718   0.015   6.518
    9        1.555   0.425   9.836  11.816
   10        1.555   0.425   9.836  11.816
   11        1.555   0.425   9.836  11.816
   12        1.555   0.425   9.836  11.816
   13        1.555   0.425   9.836  11.816
   14        1.555   0.425   9.836  11.816
   15        1.555   0.425   9.836  11.816
   16        1.555   0.425   9.836  11.816
   17        1.613   3.302   0.006   4.921
   18        1.613   3.302   0.006   4.921
   19        1.613   3.302   0.006   4.921
   20        1.613   3.302   0.006   4.921
   21        1.613   3.302   0.006   4.921
   22        1.613   3.302   0.006   4.921
   23        1.613   3.302   0.006   4.921
   24        1.613   3.302   0.006   4.921
   25        1.615   3.287   0.007   4.910
   26        1.615   3.287   0.007   4.910
   27        1.615   3.287   0.007   4.910
   28        1.615   3.287   0.007   4.910
   29        1.615   3.287   0.007   4.910
   30        1.615   3.287   0.007   4.910
   31        1.615   3.287   0.007   4.910
   32        1.615   3.287   0.007   4.910
   33        1.615   3.269   0.006   4.890
   34        1.615   3.269   0.006   4.890
   35        1.615   3.269   0.006   4.890
   36        1.615   3.269   0.006   4.890
   37        1.615   3.269   0.006   4.890
   38        1.615   3.269   0.006   4.890
   39        1.615   3.269   0.006   4.890
   40        1.615   3.269   0.006   4.890
--------------------------------------------------
tot         65.458 120.011  78.965 264.434

    CHARGE:  cpu time    0.4257: real time    0.4257
    FORLOC:  cpu time    0.0112: real time    0.0112
    FORNL :  cpu time    1.5825: real time    1.5828
    STRESS:  cpu time   40.1019: real time   40.1032
    FORCOR:  cpu time    0.2403: real time    0.2403
    FORHAR:  cpu time    0.0275: real time    0.0275
    MIXING:  cpu time    0.0023: real time    0.0023
    OFIELD:  cpu time    0.0001: real time    0.0000

  FORCE on cell =-STRESS in cart. coord.  units (eV):
  Direction    XX          YY          ZZ          XY          YZ          ZX
  --------------------------------------------------------------------------------------
  Alpha Z   892.99476   892.99476   892.99476
  Ewald   -6274.46115 -6274.46115 -5820.92441     0.00000     0.00000     0.00000
  Hartree  2418.11224  2418.11224  2576.39740    -0.00000    -0.00000    -0.00000
  E(xc)   -1478.50804 -1478.31542 -1477.32243     0.00000    -0.00000    -0.00000
  Local   -2675.44023 -2675.44023 -3285.94689    -0.00000    -0.00000     0.00000
  n-local  1799.69185  1799.21340  1807.01022    -0.00000    -0.00000    -0.00000
  augment   812.37617   812.37617   811.92480     0.00000    -0.00008    -0.00008
  Kinetic  4495.89786  4505.43449  4505.02964     0.00000    -0.00000    -0.00000
  Fock        0.00000     0.00000     0.00000     0.00000     0.00000     0.00000
  -------------------------------------------------------------------------------------
  Total      -4.71114    -4.71114     9.16310     0.00000     0.00000    -0.00000
  in kB      -4.67034    -4.67034     9.08374     0.00000     0.00000    -0.00000
  external pressure =       -0.09 kB  Pullay stress =        0.00 kB


 VOLUME and BASIS-vectors are now :
 -----------------------------------------------------------------------------
  energy-cutoff  :      300.00
  volume of cell :     1616.17
      direct lattice vectors                 reciprocal lattice vectors
    11.735352000  0.000000000  0.000000000     0.085212612  0.000000000  0.000000000
     0.000000000 11.735352000  0.000000000     0.000000000  0.085212612  0.000000000
     0.000000000  0.000000000 11.735352000     0.000000000  0.000000000  0.085212612

  length of vectors
    11.735352000 11.735352000 11.735352000     0.085212612  0.085212612  0.085212612


 FORCES acting on ions
    electron-ion (+dipol)            ewald-force                    non-local-force                 convergence-correction
 -----------------------------------------------------------------------------------------------
   0.584E-10 0.454E-10 0.113E-09   -.332E-13 -.213E-13 0.355E-14   -.103E-24 0.414E-24 0.676E-20   0.130E-12 0.337E-13 0.197E-12
   0.798E-10 -.157E-09 0.170E-09   -.420E-13 -.169E-13 -.320E-13   -.827E-24 0.000E+00 -.109E-19   0.623E-13 0.702E-13 -.149E-12
   0.395E-12 0.107E-09 -.632E-10   -.243E-13 -.151E-13 -.471E-13   -.517E-25 0.000E+00 -.464E-20   0.598E-13 0.185E-13 0.171E-12
   0.116E-09 0.148E-09 0.185E-09   -.714E-13 -.213E-13 0.115E-13   0.000E+00 0.414E-24 -.281E-21   0.121E-12 -.139E-13 -.122E-12
   0.222E-09 0.829E-10 -.399E-10   -.613E-13 -.711E-14 -.355E-13   -.517E-25 0.000E+00 -.686E-20   -.129E-12 0.530E-13 0.151E-12
   0.233E-09 0.919E-10 0.139E-09   -.993E-14 -.711E-14 0.142E-13   0.000E+00 0.414E-24 0.892E-22   -.664E-13 0.699E-13 -.118E-12
   0.203E-09 0.264E-09 0.227E-10   -.632E-13 -.213E-13 0.711E-14   -.103E-24 0.414E-24 0.731E-20   -.603E-13 -.327E-14 0.209E-12
   0.275E-09 0.164E-09 -.586E-10   -.587E-13 -.249E-13 -.497E-13   -.827E-24 0.000E+00 -.126E-21   -.117E-12 -.199E-13 -.173E-12
   -.293E-14 -.107E-13 -.305E-13   0.355E-13 -.497E-13 0.346E-13   0.000E+00 0.000E+00 -.135E-23   0.716E-13 0.438E-13 -.447E-12
   -.300E-13 -.128E-14 0.118E-11   0.817E-13 0.568E-13 0.363E-13   0.000E+00 0.165E-23 -.825E-24   0.207E-13 -.112E-13 0.551E-13
   -.223E-13 0.113E-11 0.605E-13   0.977E-13 0.639E-13 0.328E-13   0.000E+00 0.248E-23 -.921E-24   0.988E-14 -.120E-12 -.514E-12
   -.114E-13 0.114E-11 0.109E-11   0.853E-13 -.711E-14 0.345E-13   0.165E-23 0.000E+00 0.449E-24   0.403E-13 -.838E-13 0.984E-13
   0.116E-11 -.492E-14 0.629E-11   0.870E-13 0.702E-13 0.310E-13   0.000E+00 0.165E-23 0.855E-24   0.133E-13 0.477E-13 -.430E-12
   0.117E-11 -.913E-14 -.768E-11   0.213E-13 -.178E-13 0.612E-13   0.165E-23 0.000E+00 -.654E-24   0.282E-13 0.261E-13 0.489E-13
   0.392E-11 -.361E-11 0.190E-11   0.675E-13 -.338E-13 0.293E-13   0.165E-23 0.000E+00 -.369E-24   0.210E-13 -.126E-12 -.504E-12
   0.120E-11 -.186E-11 -.133E-11   0.114E-12 0.568E-13 0.594E-13   -.165E-23 -.827E-24 0.799E-24   0.124E-13 -.104E-12 0.120E-12
   0.290E+02 0.216E-11 -.262E-07   -.293E+02 -.178E-14 -.915E-15   0.286E+00 0.000E+00 0.269E-22   0.695E-06 -.189E-13 -.115E-12
   -.290E+02 0.236E-13 0.262E-07   0.293E+02 -.107E-13 0.436E-14   -.286E+00 0.414E-24 0.266E-22   -.695E-06 0.413E-13 0.413E-13
   -.290E+02 0.376E-12 0.262E-07   0.293E+02 0.533E-14 -.362E-14   -.286E+00 0.000E+00 -.198E-23   -.695E-06 -.108E-13 -.133E-12
   0.290E+02 -.302E-11 -.262E-07   -.293E+02 -.142E-13 0.350E-14   0.286E+00 0.000E+00 -.169E-24   0.695E-06 -.703E-13 0.540E-13
   -.290E+02 -.845E-12 0.262E-07   0.293E+02 -.204E-13 0.259E-14   -.286E+00 0.000E+00 -.949E-24   -.695E-06 0.269E-13 -.123E-12
   0.290E+02 0.623E-12 -.262E-07   -.293E+02 -.320E-13 -.406E-16   0.286E+00 0.000E+00 -.160E-24   0.695E-06 -.277E-13 0.455E-13
   0.290E+02 0.201E-11 -.262E-07   -.293E+02 -.151E-13 -.446E-14   0.286E+00 0.207E-24 -.258E-22   0.695E-06 -.685E-13 -.121E-12
   -.290E+02 -.196E-11 0.262E-07   0.293E+02 -.107E-13 0.346E-14   -.286E+00 0.414E-24 -.321E-25   -.695E-06 -.150E-13 0.389E-13
   0.245E-13 0.118E-14 0.274E-13   -.320E-13 -.311E-14 -.284E-13   0.517E-25 0.000E+00 -.584E-25   0.364E-13 0.527E-13 0.197E-12
   -.433E-13 0.636E-14 0.769E-13   -.409E-13 0.000E+00 -.293E-13   0.103E-24 0.103E-24 -.160E-23   0.507E-13 -.785E-15 -.605E-13
   -.969E-14 0.123E-12 0.378E-14   -.320E-13 -.977E-14 -.320E-13   0.155E-24 0.103E-24 0.254E-24   0.355E-13 -.598E-13 0.158E-12
   0.366E-13 0.861E-13 0.252E-13   -.284E-13 -.124E-13 -.284E-13   0.000E+00 0.000E+00 -.652E-25   0.330E-13 -.749E-14 -.158E-13
   0.681E-13 0.118E-14 -.706E-11   -.249E-13 -.164E-13 -.284E-13   0.000E+00 0.103E-24 0.225E-24   0.247E-13 0.108E-13 0.149E-12
   0.163E-12 0.707E-14 0.200E-11   -.391E-13 -.169E-13 -.258E-13   0.000E+00 0.414E-24 -.165E-24   0.704E-14 0.598E-13 -.115E-13
   0.168E-12 -.209E-11 -.398E-11   -.142E-13 -.107E-13 -.249E-13   0.000E+00 0.000E+00 -.584E-26   0.192E-13 -.120E-13 0.197E-12
   0.472E-13 -.411E-12 -.307E-12   -.213E-13 -.977E-14 -.284E-13   0.000E+00 0.103E-24 0.999E-25   0.243E-13 -.611E-13 -.578E-13
   0.126E-13 -.290E+02 0.262E-07   -.602E-13 0.293E+02 -.901E-15   0.000E+00 -.286E+00 0.134E-22   0.594E-13 -.695E-06 -.115E-12
   -.283E-13 0.290E+02 -.262E-07   -.174E-13 -.293E+02 0.156E-13   -.207E-24 0.286E+00 0.686E-24   0.141E-13 0.695E-06 0.280E-13
   -.303E-13 0.290E+02 -.262E-07   -.396E-13 -.293E+02 0.994E-14   0.000E+00 0.286E+00 0.223E-23   0.143E-13 0.695E-06 -.148E-12
   0.310E-13 -.290E+02 0.262E-07   -.575E-13 0.293E+02 0.628E-15   0.000E+00 -.286E+00 -.377E-24   0.468E-13 -.695E-06 0.597E-13
   0.510E-13 0.290E+02 -.262E-07   -.180E-13 -.293E+02 0.372E-14   0.000E+00 0.286E+00 0.101E-23   -.164E-12 0.695E-06 -.110E-12
   0.904E-13 -.290E+02 0.262E-07   -.306E-13 0.293E+02 0.422E-14   0.000E+00 -.286E+00 -.378E-24   -.117E-12 -.695E-06 0.341E-13
   0.958E-13 -.290E+02 0.262E-07   -.350E-13 0.293E+02 -.411E-14   0.000E+00 -.286E+00 -.333E-24   -.113E-12 -.695E-06 -.130E-12
   0.345E-13 0.290E+02 -.262E-07   -.206E-13 -.293E+02 0.115E-13   -.207E-24 0.286E+00 0.793E-24   -.151E-12 0.695E-06 0.530E-13
 -----------------------------------------------------------------------------------------------
   0.120E-08 0.739E-09 0.433E-09   -.703E-14 0.107E-13 0.110E-13   0.222E-15 0.555E-16 -.859E-20   0.164E-12 -.304E-12 -.149E-11


 POSITION                                       TOTAL-FORCE (eV/Angst)
 -----------------------------------------------------------------------------------
      2.93384      2.93384      2.93384        -0.000000      0.000000      0.000000
      2.93384      2.93384      8.80151        -0.000000      0.000000      0.000000
      2.93384      8.80151      2.93384        -0.000000      0.000000      0.000000
      2.93384      8.80151      8.80151        -0.000000      0.000000      0.000000
      8.80151      2.93384      2.93384        -0.000000      0.000000      0.000000
      8.80151      2.93384      8.80151        -0.000000      0.000000      0.000000
      8.80151      8.80151      2.93384        -0.000000      0.000000      0.000000
      8.80151      8.80151      8.80151        -0.000000      0.000000      0.000000
      0.00000      0.00000      0.00000        -0.000000      0.000000      0.000000
      0.00000      0.00000      5.86768        -0.000000      0.000000      0.000000
      0.00000      5.86768      0.00000        -0.000000      0.000000      0.000000
      0.00000      5.86768      5.86768        -0.000000      0.000000      0.000000
      5.86768      0.00000      0.00000        -0.000000      0.000000      0.000000
      5.86768      0.00000      5.86768        -0.000000      0.000000      0.000000
      5.86768      5.86768      0.00000        -0.000000      0.000000      0.000000
      5.86768      5.86768      5.86768        -0.000000      0.000000      0.000000
     11.07524      2.93384      0.00000         0.001108      0.000000     -0.000000
      0.66011      2.93384      5.86768        -0.001108      0.000000      0.000000
      0.66011      8.80151      0.00000        -0.001108      0.000000     -0.000000
     11.07524      8.80151      5.86768         0.001108      0.000000     -0.000000
      6.52779      2.93384      0.00000        -0.001108      0.000000      0.000000
      5.20756      2.93384      5.86768         0.001108      0.000000     -0.000000
      5.20756      8.80151      0.00000         0.001108      0.000000     -0.000000
      6.52779      8.80151      5.86768        -0.001108      0.000000      0.000000
      0.00000      0.00000      2.93384        -0.000000      0.000000      0.000000
      0.00000      0.00000      8.80151        -0.000000      0.000000      0.000000
      0.00000      5.86768      2.93384        -0.000000      0.000000      0.000000
      0.00000      5.86768      8.80151        -0.000000      0.000000      0.000000
      5.86768      0.00000      2.93384        -0.000000      0.000000      0.000000
      5.86768      0.00000      8.80151        -0.000000      0.000000      0.000000
      5.86768      5.86768      2.93384        -0.000000      0.000000      0.000000
      5.86768      5.86768      8.80151        -0.000000      0.000000      0.000000
      2.93384      0.66011      0.00000        -0.000000     -0.001108      0.000000
      2.93384     11.07524      5.86768        -0.000000      0.001108     -0.000000
      2.93384      5.20756      0.00000        -0.000000      0.001108     -0.000000
      2.93384      6.52779      5.86768        -0.000000     -0.001108      0.000000
      8.80151     11.07524      0.00000        -0.000000      0.001108     -0.000000
      8.80151      0.66011      5.86768        -0.000000     -0.001108      0.000000
      8.80151      6.52779      0.00000        -0.000000     -0.001108     -0.000000
      8.80151      5.20756      5.86768        -0.000000      0.001108     -0.000000
 -----------------------------------------------------------------------------------
    total drift:                                0.000000      0.000000      0.000000


--------------------------------------------------------------------------------------------------------



  FREE ENERGIE OF THE ION-ELECTRON SYSTEM (eV)
  ---------------------------------------------------
  free  energy   TOTEN  =     -1429.43507235 eV

  energy  without entropy=    -1429.43507235  energy(sigma->0) =    -1429.43507235



--------------------------------------------------------------------------------------------------------


    POTLOK:  cpu time    1.4299: real time    1.4299


--------------------------------------------------------------------------------------------------------


 stress matrix after NEB project (eV)
     -4.71114      0.00000     -0.00000
      0.00000     -4.71114      0.00000
     -0.00000      0.00000      9.16310
  FORCES: max atom, RMS     0.001108    0.000701
  FORCE total and by dimension    0.004432    0.001108
  Stress total and by dimension   11.329257    9.163097
     LOOP+:  cpu time  421.7003: real time  422.8919
    4ORBIT:  cpu time    0.0000: real time    0.0000



 total charge     

# of ion       s       p       d       tot
------------------------------------------
    1        1.784   4.718   0.015   6.518
    2        1.784   4.718   0.015   6.518
    3        1.784   4.718   0.015   6.518
    4        1.784   4.718   0.015   6.518
    5        1.784   4.718   0.015   6.518
    6        1.784   4.718   0.015   6.518
    7        1.784   4.718   0.015   6.518
    8        1.784   4.718   0.015   6.518
    9        1.555   0.425   9.836  11.816
   10        1.555   0.425   9.836  11.816
   11        1.555   0.425   9.836  11.816
   12        1.555   0.425   9.836  11.816
   13        1.555   0.425   9.836  11.816
   14        1.555   0.425   9.836  11.816
   15        1.555   0.425   9.836  11.816
   16        1.555   0.425   9.836  11.816
   17        1.613   3.302   0.006   4.921
   18        1.613   3.302   0.006   4.921
   19        1.613   3.302   0.006   4.921
   20        1.613   3.302   0.006   4.921
   21        1.613   3.302   0.006   4.921
   22        1.613   3.302   0.006   4.921
   23        1.613   3.302   0.006   4.921
   24        1.613   3.302   0.006   4.921
   25        1.615   3.287   0.007   4.910
   26        1.615   3.287   0.007   4.910
   27        1.615   3.287   0.007   4.910
   28        1.615   3.287   0.007   4.910
   29        1.615   3.287   0.007   4.910
   30        1.615   3.287   0.007   4.910
   31        1.615   3.287   0.007   4.910
   32        1.615   3.287   0.007   4.910
   33        1.615   3.269   0.006   4.890
   34        1.615   3.269   0.006   4.890
   35        1.615   3.269   0.006   4.890
   36        1.615   3.269   0.006   4.890
   37        1.615   3.269   0.006   4.890
   38        1.615   3.269   0.006   4.890
   39        1.615   3.269   0.006   4.890
   40        1.615   3.269   0.006   4.890
--------------------------------------------------
tot         65.458 120.011  78.965 264.434


 total amount of memory used by VASP MPI-rank0    58966. kBytes
=======================================================================

   base      :      30000. kBytes
   nonlr-proj:       6594. kBytes
   fftplans  :       8423. kBytes
   grid      :       7465. kBytes
   one-center:         77. kBytes
   wavefun   :       6407. kBytes

  
  
 General timing and accounting informations for this job:
 ========================================================
  
                  Total CPU time used (sec):      440.437
                            User time (sec):      436.141
                          System time (sec):        4.296
                         Elapsed time (sec):      441.905
  
                   Maximum memory used (kb):      128532.
                   Average memory used (kb):           0.
  
                          Minor page faults:       322029
                          Major page faults:            0
                 Voluntary context switches:         1948
