 running on   64 total cores
 distrk:  each k-point on   64 cores,    1 groups
 distr:  one band on    8 cores,    8 groups
 using from now: INCAR     
 vasp.5.4.4.18Apr17-6-g9f103f2a35 (build Jun 22 2020 09:27:21) complex           
 POSCAR found type information on POSCAR  Cs Pb Br
 POSCAR found :  3 types and      40 ions
 scaLAPACK will be used
 LDA part: xc-table for Pade appr. of Perdew
 POSCAR found type information on POSCAR  Cs Pb Br
 POSCAR found :  3 types and      40 ions
 POSCAR, INCAR and KPOINTS ok, starting setup
 FFT: planning ...
 WAVECAR not read
 entering main loop
       N       E                     dE             d eps       ncg     rms          rms(c)
DAV:   1     0.134263518765E+04    0.13426E+04   -0.11292E+05  2680   0.958E+02
DAV:   2    -0.113243801442E+04   -0.24751E+04   -0.23876E+04  3144   0.295E+02
DAV:   3    -0.149630541617E+04   -0.36387E+03   -0.36177E+03  3488   0.134E+02
DAV:   4    -0.150838080043E+04   -0.12075E+02   -0.12034E+02  3088   0.321E+01
DAV:   5    -0.150893875537E+04   -0.55795E+00   -0.55764E+00  3440   0.539E+00    0.102E+01
DAV:   6    -0.142964742589E+04    0.79291E+02   -0.23374E+01  3360   0.285E+01    0.724E+00
DAV:   7    -0.142915750051E+04    0.48993E+00   -0.77976E+00  3152   0.499E+00    0.364E+00
DAV:   8    -0.142934756879E+04   -0.19007E+00   -0.39222E-01  3128   0.179E+00    0.210E+00
DAV:   9    -0.142942997423E+04   -0.82405E-01   -0.15912E-01  2872   0.120E+00    0.450E-01
DAV:  10    -0.142943149762E+04   -0.15234E-02   -0.92368E-03  3696   0.330E-01    0.270E-01
DAV:  11    -0.142943430890E+04   -0.28113E-02   -0.25905E-03  2904   0.152E-01    0.923E-02
DAV:  12    -0.142943505132E+04   -0.74242E-03   -0.93349E-04  2880   0.903E-02    0.361E-02
DAV:  13    -0.142943506577E+04   -0.14450E-04   -0.86350E-05  3288   0.273E-02    0.138E-02
DAV:  14    -0.142943506522E+04    0.54753E-06   -0.10165E-05  2712   0.593E-03    0.911E-03
DAV:  15    -0.142943506002E+04    0.51972E-05   -0.30427E-05  2008   0.649E-03    0.714E-03
DAV:  16    -0.142943507020E+04   -0.10176E-04   -0.21683E-06  1904   0.440E-03    0.386E-03
DAV:  17    -0.142943506905E+04    0.11433E-05   -0.51000E-07  1672   0.259E-03    0.338E-03
DAV:  18    -0.142943506410E+04    0.49573E-05   -0.22491E-07  1608   0.144E-03    0.303E-03
DAV:  19    -0.142943506655E+04   -0.24492E-05   -0.96437E-08  1608   0.103E-03    0.246E-03
DAV:  20    -0.142943506863E+04   -0.20863E-05   -0.40267E-08  1584   0.703E-04    0.196E-03
DAV:  21    -0.142943506979E+04   -0.11539E-05   -0.21365E-08  1568   0.445E-04    0.155E-03
DAV:  22    -0.142943507178E+04   -0.19989E-05   -0.37837E-08  1560   0.446E-04    0.838E-04
DAV:  23    -0.142943507235E+04   -0.56680E-06   -0.17963E-08  1552   0.352E-04
   1 F= -.14294351E+04 E0= -.14294351E+04  d E =-.123664E-46
Application 1868204 resources: utime ~27973s, stime ~287s, Rss ~129656, inblocks ~1328, outblocks ~271808
