  40  40   1   0
  0.4040437E+02  0.1173535E-08  0.1173535E-08  0.1173535E-08  0.5000000E-15
   1.0000000000000000E-004
  CAR 
 CsPbBr3 cubic bulk                      
      8.16861666    -22.40865089  301      0.95747773      1.00000000
    -22.409  0.0000E+00  0.0000E+00
    -22.307  0.0000E+00  0.0000E+00
    -22.205  0.0000E+00  0.0000E+00
    -22.103  0.0000E+00  0.0000E+00
    -22.001  0.0000E+00  0.0000E+00
    -21.899  0.0000E+00  0.0000E+00
    -21.797  0.0000E+00  0.0000E+00
    -21.695  0.0000E+00  0.0000E+00
    -21.593  0.0000E+00  0.0000E+00
    -21.491  0.0000E+00  0.0000E+00
    -21.389  0.0000E+00  0.0000E+00
    -21.287  0.0000E+00  0.0000E+00
    -21.186  0.0000E+00  0.0000E+00
    -21.084  0.0000E+00  0.0000E+00
    -20.982  0.1570E+03  0.1600E+02
    -20.880  0.0000E+00  0.1600E+02
    -20.778  0.0000E+00  0.1600E+02
    -20.676  0.0000E+00  0.1600E+02
    -20.574  0.0000E+00  0.1600E+02
    -20.472  0.0000E+00  0.1600E+02
    -20.370  0.0000E+00  0.1600E+02
    -20.268  0.0000E+00  0.1600E+02
    -20.166  0.0000E+00  0.1600E+02
    -20.064  0.0000E+00  0.1600E+02
    -19.962  0.0000E+00  0.1600E+02
    -19.861  0.0000E+00  0.1600E+02
    -19.759  0.0000E+00  0.1600E+02
    -19.657  0.0000E+00  0.1600E+02
    -19.555  0.0000E+00  0.1600E+02
    -19.453  0.0000E+00  0.1600E+02
    -19.351  0.0000E+00  0.1600E+02
    -19.249  0.0000E+00  0.1600E+02
    -19.147  0.0000E+00  0.1600E+02
    -19.045  0.0000E+00  0.1600E+02
    -18.943  0.0000E+00  0.1600E+02
    -18.841  0.0000E+00  0.1600E+02
    -18.739  0.0000E+00  0.1600E+02
    -18.637  0.0000E+00  0.1600E+02
    -18.536  0.0000E+00  0.1600E+02
    -18.434  0.0000E+00  0.1600E+02
    -18.332  0.0000E+00  0.1600E+02
    -18.230  0.0000E+00  0.1600E+02
    -18.128  0.0000E+00  0.1600E+02
    -18.026  0.0000E+00  0.1600E+02
    -17.924  0.0000E+00  0.1600E+02
    -17.822  0.0000E+00  0.1600E+02
    -17.720  0.0000E+00  0.1600E+02
    -17.618  0.0000E+00  0.1600E+02
    -17.516  0.0000E+00  0.1600E+02
    -17.414  0.0000E+00  0.1600E+02
    -17.312  0.0000E+00  0.1600E+02
    -17.211  0.0000E+00  0.1600E+02
    -17.109  0.0000E+00  0.1600E+02
    -17.007  0.0000E+00  0.1600E+02
    -16.905  0.0000E+00  0.1600E+02
    -16.803  0.0000E+00  0.1600E+02
    -16.701  0.0000E+00  0.1600E+02
    -16.599  0.0000E+00  0.1600E+02
    -16.497  0.0000E+00  0.1600E+02
    -16.395  0.2682E-13  0.1600E+02
    -16.293  0.1022E+03  0.2642E+02
    -16.191  0.1471E+03  0.4800E+02
    -16.089  0.4709E+03  0.9600E+02
    -15.987  0.0000E+00  0.9600E+02
    -15.886  0.0000E+00  0.9600E+02
    -15.784  0.0000E+00  0.9600E+02
    -15.682  0.0000E+00  0.9600E+02
    -15.580  0.0000E+00  0.9600E+02
    -15.478  0.0000E+00  0.9600E+02
    -15.376  0.0000E+00  0.9600E+02
    -15.274  0.0000E+00  0.9600E+02
    -15.172  0.0000E+00  0.9600E+02
    -15.070  0.0000E+00  0.9600E+02
    -14.968  0.0000E+00  0.9600E+02
    -14.866  0.0000E+00  0.9600E+02
    -14.764  0.0000E+00  0.9600E+02
    -14.662  0.0000E+00  0.9600E+02
    -14.560  0.0000E+00  0.9600E+02
    -14.459  0.0000E+00  0.9600E+02
    -14.357  0.2452E+01  0.9625E+02
    -14.255  0.2823E+02  0.9913E+02
    -14.153  0.2527E+02  0.1033E+03
    -14.051  0.5883E+02  0.1095E+03
    -13.949  0.1242E+03  0.1222E+03
    -13.847  0.5795E+01  0.1238E+03
    -13.745  0.7460E+02  0.1374E+03
    -13.643  0.2550E+02  0.1438E+03
    -13.541  0.0000E+00  0.1440E+03
    -13.439  0.0000E+00  0.1440E+03
    -13.337  0.0000E+00  0.1440E+03
    -13.235  0.0000E+00  0.1440E+03
    -13.134  0.0000E+00  0.1440E+03
    -13.032  0.0000E+00  0.1440E+03
    -12.930  0.0000E+00  0.1440E+03
    -12.828  0.0000E+00  0.1440E+03
    -12.726  0.0000E+00  0.1440E+03
    -12.624  0.0000E+00  0.1440E+03
    -12.522  0.0000E+00  0.1440E+03
    -12.420  0.0000E+00  0.1440E+03
    -12.318  0.0000E+00  0.1440E+03
    -12.216  0.0000E+00  0.1440E+03
    -12.114  0.0000E+00  0.1440E+03
    -12.012  0.0000E+00  0.1440E+03
    -11.910  0.0000E+00  0.1440E+03
    -11.809  0.0000E+00  0.1440E+03
    -11.707  0.0000E+00  0.1440E+03
    -11.605  0.0000E+00  0.1440E+03
    -11.503  0.0000E+00  0.1440E+03
    -11.401  0.0000E+00  0.1440E+03
    -11.299  0.0000E+00  0.1440E+03
    -11.197  0.0000E+00  0.1440E+03
    -11.095  0.0000E+00  0.1440E+03
    -10.993  0.0000E+00  0.1440E+03
    -10.891  0.0000E+00  0.1440E+03
    -10.789  0.0000E+00  0.1440E+03
    -10.687  0.0000E+00  0.1440E+03
    -10.585  0.0000E+00  0.1440E+03
    -10.484  0.0000E+00  0.1440E+03
    -10.382  0.0000E+00  0.1440E+03
    -10.280  0.0000E+00  0.1440E+03
    -10.178  0.0000E+00  0.1440E+03
    -10.076  0.0000E+00  0.1440E+03
     -9.974  0.0000E+00  0.1440E+03
     -9.872  0.0000E+00  0.1440E+03
     -9.770  0.0000E+00  0.1440E+03
     -9.668  0.0000E+00  0.1440E+03
     -9.566  0.0000E+00  0.1440E+03
     -9.464  0.0000E+00  0.1440E+03
     -9.362  0.0000E+00  0.1440E+03
     -9.260  0.0000E+00  0.1440E+03
     -9.159  0.0000E+00  0.1440E+03
     -9.057  0.0000E+00  0.1440E+03
     -8.955  0.0000E+00  0.1440E+03
     -8.853  0.0000E+00  0.1440E+03
     -8.751  0.0000E+00  0.1440E+03
     -8.649  0.0000E+00  0.1440E+03
     -8.547  0.0000E+00  0.1440E+03
     -8.445  0.0000E+00  0.1440E+03
     -8.343  0.0000E+00  0.1440E+03
     -8.241  0.1338E+01  0.1441E+03
     -8.139  0.0000E+00  0.1442E+03
     -8.037  0.6402E-11  0.1443E+03
     -7.935  0.1471E+02  0.1457E+03
     -7.833  0.0000E+00  0.1458E+03
     -7.732  0.5044E+01  0.1463E+03
     -7.630  0.2453E+02  0.1493E+03
     -7.528  0.2453E+01  0.1495E+03
     -7.426  0.3040E+02  0.1526E+03
     -7.324  0.4549E+03  0.2024E+03
     -7.222  0.0000E+00  0.2025E+03
     -7.120  0.2121E+00  0.2025E+03
     -7.018  0.1226E+02  0.2058E+03
     -6.916  0.4905E+01  0.2062E+03
     -6.814  0.0000E+00  0.2062E+03
     -6.712  0.4946E+01  0.2068E+03
     -6.610  0.0000E+00  0.2078E+03
     -6.508  0.0000E+00  0.2078E+03
     -6.407  0.0000E+00  0.2078E+03
     -6.305  0.5414E-04  0.2078E+03
     -6.203  0.2453E+01  0.2080E+03
     -6.101  0.0000E+00  0.2080E+03
     -5.999  0.0000E+00  0.2080E+03
     -5.897  0.0000E+00  0.2080E+03
     -5.795  0.0000E+00  0.2080E+03
     -5.693  0.0000E+00  0.2080E+03
     -5.591  0.0000E+00  0.2080E+03
     -5.489  0.0000E+00  0.2080E+03
     -5.387  0.0000E+00  0.2080E+03
     -5.285  0.0000E+00  0.2080E+03
     -5.183  0.0000E+00  0.2080E+03
     -5.082  0.0000E+00  0.2080E+03
     -4.980  0.0000E+00  0.2080E+03
     -4.878  0.0000E+00  0.2080E+03
     -4.776  0.0000E+00  0.2080E+03
     -4.674  0.0000E+00  0.2080E+03
     -4.572  0.0000E+00  0.2080E+03
     -4.470  0.0000E+00  0.2080E+03
     -4.368  0.0000E+00  0.2080E+03
     -4.266  0.0000E+00  0.2080E+03
     -4.164  0.0000E+00  0.2080E+03
     -4.062  0.0000E+00  0.2080E+03
     -3.960  0.0000E+00  0.2080E+03
     -3.858  0.0000E+00  0.2080E+03
     -3.757  0.0000E+00  0.2080E+03
     -3.655  0.0000E+00  0.2080E+03
     -3.553  0.0000E+00  0.2080E+03
     -3.451  0.5862E+00  0.2081E+03
     -3.349  0.2592E+02  0.2109E+03
     -3.247  0.5804E+02  0.2172E+03
     -3.145  0.2207E+02  0.2195E+03
     -3.043  0.4906E+01  0.2200E+03
     -2.941  0.0000E+00  0.2200E+03
     -2.839  0.0000E+00  0.2200E+03
     -2.737  0.0000E+00  0.2200E+03
     -2.635  0.2698E+02  0.2228E+03
     -2.533  0.3925E+02  0.2270E+03
     -2.432  0.5724E+02  0.2328E+03
     -2.330  0.3850E-03  0.2345E+03
     -2.228  0.6594E+02  0.2412E+03
     -2.126  0.2582E+02  0.2446E+03
     -2.024  0.2531E+02  0.2473E+03
     -1.922  0.1545E+02  0.2528E+03
     -1.820  0.2683E+02  0.2557E+03
     -1.718  0.1962E+02  0.2597E+03
     -1.616  0.2752E+02  0.2626E+03
     -1.514  0.7770E+02  0.2742E+03
     -1.412  0.2441E+02  0.2772E+03
     -1.310  0.1315E+03  0.2917E+03
     -1.208  0.1361E+03  0.3061E+03
     -1.106  0.7474E+02  0.3161E+03
     -1.005  0.1395E+03  0.3310E+03
     -0.903  0.2943E+02  0.3357E+03
     -0.801  0.5142E+02  0.3410E+03
     -0.699  0.4905E+01  0.3428E+03
     -0.597  0.9058E-03  0.3428E+03
     -0.495  0.4905E+01  0.3432E+03
     -0.393  0.1171E+02  0.3444E+03
     -0.291  0.2978E+00  0.3455E+03
     -0.189  0.1962E+02  0.3485E+03
     -0.087  0.9811E+01  0.3495E+03
      0.015  0.0000E+00  0.3495E+03
      0.117  0.4114E-03  0.3495E+03
      0.219  0.7357E+01  0.3502E+03
      0.320  0.4906E+01  0.3507E+03
      0.422  0.9811E+01  0.3518E+03
      0.524  0.0000E+00  0.3518E+03
      0.626  0.0000E+00  0.3518E+03
      0.728  0.0000E+00  0.3518E+03
      0.830  0.7874E-07  0.3518E+03
      0.932  0.2453E+01  0.3520E+03
      1.034  0.0000E+00  0.3520E+03
      1.136  0.0000E+00  0.3520E+03
      1.238  0.0000E+00  0.3520E+03
      1.340  0.0000E+00  0.3520E+03
      1.442  0.0000E+00  0.3520E+03
      1.544  0.0000E+00  0.3520E+03
      1.645  0.0000E+00  0.3520E+03
      1.747  0.0000E+00  0.3520E+03
      1.849  0.0000E+00  0.3520E+03
      1.951  0.0000E+00  0.3520E+03
      2.053  0.0000E+00  0.3520E+03
      2.155  0.0000E+00  0.3520E+03
      2.257  0.0000E+00  0.3520E+03
      2.359  0.0000E+00  0.3520E+03
      2.461  0.0000E+00  0.3520E+03
      2.563  0.0000E+00  0.3520E+03
      2.665  0.0000E+00  0.3520E+03
      2.767  0.8864E-13  0.3520E+03
      2.869  0.7358E+01  0.3527E+03
      2.970  0.0000E+00  0.3528E+03
      3.072  0.1697E+02  0.3545E+03
      3.174  0.0000E+00  0.3558E+03
      3.276  0.2293E+01  0.3560E+03
      3.378  0.2942E+02  0.3602E+03
      3.480  0.1390E-07  0.3603E+03
      3.582  0.2943E+02  0.3632E+03
      3.684  0.0000E+00  0.3632E+03
      3.786  0.7242E+01  0.3640E+03
      3.888  0.0000E+00  0.3640E+03
      3.990  0.0000E+00  0.3640E+03
      4.092  0.0000E+00  0.3640E+03
      4.194  0.0000E+00  0.3640E+03
      4.295  0.0000E+00  0.3640E+03
      4.397  0.0000E+00  0.3640E+03
      4.499  0.8350E+01  0.3649E+03
      4.601  0.3890E+01  0.3654E+03
      4.703  0.1963E+02  0.3688E+03
      4.805  0.2783E+02  0.3716E+03
      4.907  0.3922E+02  0.3757E+03
      5.009  0.2469E+02  0.3783E+03
      5.111  0.5184E+02  0.3850E+03
      5.213  0.1953E+02  0.3882E+03
      5.315  0.0000E+00  0.3882E+03
      5.417  0.1780E-10  0.3883E+03
      5.519  0.9811E+01  0.3893E+03
      5.621  0.7358E+01  0.3900E+03
      5.722  0.4103E-11  0.3900E+03
      5.824  0.3179E+02  0.3932E+03
      5.926  0.4984E+01  0.3938E+03
      6.028  0.4906E+01  0.3955E+03
      6.130  0.2943E+02  0.3985E+03
      6.232  0.5113E+02  0.4037E+03
      6.334  0.2151E+02  0.4059E+03
      6.436  0.4108E+02  0.4102E+03
      6.538  0.8623E+02  0.4195E+03
      6.640  0.4392E+02  0.4270E+03
      6.742  0.3728E+02  0.4308E+03
      6.844  0.4905E+01  0.4320E+03
      6.946  0.0000E+00  0.4320E+03
      7.047  0.0000E+00  0.4320E+03
      7.149  0.0000E+00  0.4320E+03
      7.251  0.0000E+00  0.4320E+03
      7.353  0.0000E+00  0.4320E+03
      7.455  0.0000E+00  0.4320E+03
      7.557  0.0000E+00  0.4320E+03
      7.659  0.0000E+00  0.4320E+03
      7.761  0.0000E+00  0.4320E+03
      7.863  0.0000E+00  0.4320E+03
      7.965  0.0000E+00  0.4320E+03
      8.067  0.0000E+00  0.4320E+03
      8.169  0.0000E+00  0.4320E+03
      8.16861666    -22.40865089  301      0.95747773      1.00000000
    -22.409  0.0000E+00  0.0000E+00  0.0000E+00
    -22.307  0.0000E+00  0.0000E+00  0.0000E+00
    -22.205  0.0000E+00  0.0000E+00  0.0000E+00
    -22.103  0.0000E+00  0.0000E+00  0.0000E+00
    -22.001  0.0000E+00  0.0000E+00  0.0000E+00
    -21.899  0.0000E+00  0.0000E+00  0.0000E+00
    -21.797  0.0000E+00  0.0000E+00  0.0000E+00
    -21.695  0.0000E+00  0.0000E+00  0.0000E+00
    -21.593  0.0000E+00  0.0000E+00  0.0000E+00
    -21.491  0.0000E+00  0.0000E+00  0.0000E+00
    -21.389  0.0000E+00  0.0000E+00  0.0000E+00
    -21.287  0.0000E+00  0.0000E+00  0.0000E+00
    -21.186  0.0000E+00  0.0000E+00  0.0000E+00
    -21.084  0.0000E+00  0.0000E+00  0.0000E+00
    -20.982  0.1742E+02  0.8550E-07  0.1740E-05
    -20.880  0.0000E+00  0.0000E+00  0.0000E+00
    -20.778  0.0000E+00  0.0000E+00  0.0000E+00
    -20.676  0.0000E+00  0.0000E+00  0.0000E+00
    -20.574  0.0000E+00  0.0000E+00  0.0000E+00
    -20.472  0.0000E+00  0.0000E+00  0.0000E+00
    -20.370  0.0000E+00  0.0000E+00  0.0000E+00
    -20.268  0.0000E+00  0.0000E+00  0.0000E+00
    -20.166  0.0000E+00  0.0000E+00  0.0000E+00
    -20.064  0.0000E+00  0.0000E+00  0.0000E+00
    -19.962  0.0000E+00  0.0000E+00  0.0000E+00
    -19.861  0.0000E+00  0.0000E+00  0.0000E+00
    -19.759  0.0000E+00  0.0000E+00  0.0000E+00
    -19.657  0.0000E+00  0.0000E+00  0.0000E+00
    -19.555  0.0000E+00  0.0000E+00  0.0000E+00
    -19.453  0.0000E+00  0.0000E+00  0.0000E+00
    -19.351  0.0000E+00  0.0000E+00  0.0000E+00
    -19.249  0.0000E+00  0.0000E+00  0.0000E+00
    -19.147  0.0000E+00  0.0000E+00  0.0000E+00
    -19.045  0.0000E+00  0.0000E+00  0.0000E+00
    -18.943  0.0000E+00  0.0000E+00  0.0000E+00
    -18.841  0.0000E+00  0.0000E+00  0.0000E+00
    -18.739  0.0000E+00  0.0000E+00  0.0000E+00
    -18.637  0.0000E+00  0.0000E+00  0.0000E+00
    -18.536  0.0000E+00  0.0000E+00  0.0000E+00
    -18.434  0.0000E+00  0.0000E+00  0.0000E+00
    -18.332  0.0000E+00  0.0000E+00  0.0000E+00
    -18.230  0.0000E+00  0.0000E+00  0.0000E+00
    -18.128  0.0000E+00  0.0000E+00  0.0000E+00
    -18.026  0.0000E+00  0.0000E+00  0.0000E+00
    -17.924  0.0000E+00  0.0000E+00  0.0000E+00
    -17.822  0.0000E+00  0.0000E+00  0.0000E+00
    -17.720  0.0000E+00  0.0000E+00  0.0000E+00
    -17.618  0.0000E+00  0.0000E+00  0.0000E+00
    -17.516  0.0000E+00  0.0000E+00  0.0000E+00
    -17.414  0.0000E+00  0.0000E+00  0.0000E+00
    -17.312  0.0000E+00  0.0000E+00  0.0000E+00
    -17.211  0.0000E+00  0.0000E+00  0.0000E+00
    -17.109  0.0000E+00  0.0000E+00  0.0000E+00
    -17.007  0.0000E+00  0.0000E+00  0.0000E+00
    -16.905  0.0000E+00  0.0000E+00  0.0000E+00
    -16.803  0.0000E+00  0.0000E+00  0.0000E+00
    -16.701  0.0000E+00  0.0000E+00  0.0000E+00
    -16.599  0.0000E+00  0.0000E+00  0.0000E+00
    -16.497  0.0000E+00  0.0000E+00  0.0000E+00
    -16.395  0.1273E-21  0.2302E-21  0.2378E-20
    -16.293  0.2445E-04  0.1906E-04  0.6101E-05
    -16.191  0.1162E-04  0.3586E-04  0.3912E-05
    -16.089  0.2805E-04  0.2044E-04  0.2089E-05
    -15.987  0.0000E+00  0.0000E+00  0.0000E+00
    -15.886  0.0000E+00  0.0000E+00  0.0000E+00
    -15.784  0.0000E+00  0.0000E+00  0.0000E+00
    -15.682  0.0000E+00  0.0000E+00  0.0000E+00
    -15.580  0.0000E+00  0.0000E+00  0.0000E+00
    -15.478  0.0000E+00  0.0000E+00  0.0000E+00
    -15.376  0.0000E+00  0.0000E+00  0.0000E+00
    -15.274  0.0000E+00  0.0000E+00  0.0000E+00
    -15.172  0.0000E+00  0.0000E+00  0.0000E+00
    -15.070  0.0000E+00  0.0000E+00  0.0000E+00
    -14.968  0.0000E+00  0.0000E+00  0.0000E+00
    -14.866  0.0000E+00  0.0000E+00  0.0000E+00
    -14.764  0.0000E+00  0.0000E+00  0.0000E+00
    -14.662  0.0000E+00  0.0000E+00  0.0000E+00
    -14.560  0.0000E+00  0.0000E+00  0.0000E+00
    -14.459  0.0000E+00  0.0000E+00  0.0000E+00
    -14.357  0.2672E-03  0.2323E-12  0.1619E-06
    -14.255  0.1645E-02  0.8809E-03  0.1330E-04
    -14.153  0.5485E-03  0.1213E-02  0.3141E-04
    -14.051  0.7489E-05  0.3165E-02  0.1191E-03
    -13.949  0.1392E-02  0.3296E-02  0.2626E-03
    -13.847  0.1630E-05  0.7300E-04  0.2786E-04
    -13.745  0.3655E-03  0.1492E-02  0.1781E-03
    -13.643  0.1147E-03  0.2664E-03  0.4210E-04
    -13.541  0.0000E+00  0.0000E+00  0.0000E+00
    -13.439  0.0000E+00  0.0000E+00  0.0000E+00
    -13.337  0.0000E+00  0.0000E+00  0.0000E+00
    -13.235  0.0000E+00  0.0000E+00  0.0000E+00
    -13.134  0.0000E+00  0.0000E+00  0.0000E+00
    -13.032  0.0000E+00  0.0000E+00  0.0000E+00
    -12.930  0.0000E+00  0.0000E+00  0.0000E+00
    -12.828  0.0000E+00  0.0000E+00  0.0000E+00
    -12.726  0.0000E+00  0.0000E+00  0.0000E+00
    -12.624  0.0000E+00  0.0000E+00  0.0000E+00
    -12.522  0.0000E+00  0.0000E+00  0.0000E+00
    -12.420  0.0000E+00  0.0000E+00  0.0000E+00
    -12.318  0.0000E+00  0.0000E+00  0.0000E+00
    -12.216  0.0000E+00  0.0000E+00  0.0000E+00
    -12.114  0.0000E+00  0.0000E+00  0.0000E+00
    -12.012  0.0000E+00  0.0000E+00  0.0000E+00
    -11.910  0.0000E+00  0.0000E+00  0.0000E+00
    -11.809  0.0000E+00  0.0000E+00  0.0000E+00
    -11.707  0.0000E+00  0.0000E+00  0.0000E+00
    -11.605  0.0000E+00  0.0000E+00  0.0000E+00
    -11.503  0.0000E+00  0.0000E+00  0.0000E+00
    -11.401  0.0000E+00  0.0000E+00  0.0000E+00
    -11.299  0.0000E+00  0.0000E+00  0.0000E+00
    -11.197  0.0000E+00  0.0000E+00  0.0000E+00
    -11.095  0.0000E+00  0.0000E+00  0.0000E+00
    -10.993  0.0000E+00  0.0000E+00  0.0000E+00
    -10.891  0.0000E+00  0.0000E+00  0.0000E+00
    -10.789  0.0000E+00  0.0000E+00  0.0000E+00
    -10.687  0.0000E+00  0.0000E+00  0.0000E+00
    -10.585  0.0000E+00  0.0000E+00  0.0000E+00
    -10.484  0.0000E+00  0.0000E+00  0.0000E+00
    -10.382  0.0000E+00  0.0000E+00  0.0000E+00
    -10.280  0.0000E+00  0.0000E+00  0.0000E+00
    -10.178  0.0000E+00  0.0000E+00  0.0000E+00
    -10.076  0.0000E+00  0.0000E+00  0.0000E+00
     -9.974  0.0000E+00  0.0000E+00  0.0000E+00
     -9.872  0.0000E+00  0.0000E+00  0.0000E+00
     -9.770  0.0000E+00  0.0000E+00  0.0000E+00
     -9.668  0.0000E+00  0.0000E+00  0.0000E+00
     -9.566  0.0000E+00  0.0000E+00  0.0000E+00
     -9.464  0.0000E+00  0.0000E+00  0.0000E+00
     -9.362  0.0000E+00  0.0000E+00  0.0000E+00
     -9.260  0.0000E+00  0.0000E+00  0.0000E+00
     -9.159  0.0000E+00  0.0000E+00  0.0000E+00
     -9.057  0.0000E+00  0.0000E+00  0.0000E+00
     -8.955  0.0000E+00  0.0000E+00  0.0000E+00
     -8.853  0.0000E+00  0.0000E+00  0.0000E+00
     -8.751  0.0000E+00  0.0000E+00  0.0000E+00
     -8.649  0.0000E+00  0.0000E+00  0.0000E+00
     -8.547  0.0000E+00  0.0000E+00  0.0000E+00
     -8.445  0.0000E+00  0.0000E+00  0.0000E+00
     -8.343  0.0000E+00  0.0000E+00  0.0000E+00
     -8.241  0.1014E-19  0.2101E-18  0.2707E-19
     -8.139  0.0000E+00  0.0000E+00  0.0000E+00
     -8.037  0.3221E-31  0.1495E-14  0.1303E-17
     -7.935  0.8171E-19  0.2291E-02  0.3442E-05
     -7.833  0.0000E+00  0.0000E+00  0.0000E+00
     -7.732  0.3422E-20  0.5643E-02  0.2469E-05
     -7.630  0.3493E-19  0.2000E-01  0.1705E-04
     -7.528  0.4671E-19  0.4024E-17  0.2035E-05
     -7.426  0.1430E-04  0.7033E+00  0.2165E-04
     -7.324  0.1897E-04  0.4217E+02  0.4973E-04
     -7.222  0.0000E+00  0.0000E+00  0.0000E+00
     -7.120  0.3018E-06  0.1799E-03  0.2152E-06
     -7.018  0.1329E-04  0.2318E-02  0.1341E-04
     -6.916  0.3046E-19  0.1689E-04  0.7042E-05
     -6.814  0.0000E+00  0.0000E+00  0.0000E+00
     -6.712  0.1131E-04  0.5654E-05  0.1679E-05
     -6.610  0.0000E+00  0.0000E+00  0.0000E+00
     -6.508  0.0000E+00  0.0000E+00  0.0000E+00
     -6.407  0.0000E+00  0.0000E+00  0.0000E+00
     -6.305  0.1619E-09  0.2613E-22  0.1279E-10
     -6.203  0.7334E-05  0.1184E-17  0.5794E-06
     -6.101  0.0000E+00  0.0000E+00  0.0000E+00
     -5.999  0.0000E+00  0.0000E+00  0.0000E+00
     -5.897  0.0000E+00  0.0000E+00  0.0000E+00
     -5.795  0.0000E+00  0.0000E+00  0.0000E+00
     -5.693  0.0000E+00  0.0000E+00  0.0000E+00
     -5.591  0.0000E+00  0.0000E+00  0.0000E+00
     -5.489  0.0000E+00  0.0000E+00  0.0000E+00
     -5.387  0.0000E+00  0.0000E+00  0.0000E+00
     -5.285  0.0000E+00  0.0000E+00  0.0000E+00
     -5.183  0.0000E+00  0.0000E+00  0.0000E+00
     -5.082  0.0000E+00  0.0000E+00  0.0000E+00
     -4.980  0.0000E+00  0.0000E+00  0.0000E+00
     -4.878  0.0000E+00  0.0000E+00  0.0000E+00
     -4.776  0.0000E+00  0.0000E+00  0.0000E+00
     -4.674  0.0000E+00  0.0000E+00  0.0000E+00
     -4.572  0.0000E+00  0.0000E+00  0.0000E+00
     -4.470  0.0000E+00  0.0000E+00  0.0000E+00
     -4.368  0.0000E+00  0.0000E+00  0.0000E+00
     -4.266  0.0000E+00  0.0000E+00  0.0000E+00
     -4.164  0.0000E+00  0.0000E+00  0.0000E+00
     -4.062  0.0000E+00  0.0000E+00  0.0000E+00
     -3.960  0.0000E+00  0.0000E+00  0.0000E+00
     -3.858  0.0000E+00  0.0000E+00  0.0000E+00
     -3.757  0.0000E+00  0.0000E+00  0.0000E+00
     -3.655  0.0000E+00  0.0000E+00  0.0000E+00
     -3.553  0.0000E+00  0.0000E+00  0.0000E+00
     -3.451  0.3512E-18  0.5523E-03  0.8335E-06
     -3.349  0.9483E-08  0.1118E-01  0.6469E-03
     -3.247  0.1390E-15  0.1495E-01  0.1853E-02
     -3.145  0.3186E-17  0.2867E-03  0.6646E-03
     -3.043  0.1019E-17  0.4768E-18  0.2490E-05
     -2.941  0.0000E+00  0.0000E+00  0.0000E+00
     -2.839  0.0000E+00  0.0000E+00  0.0000E+00
     -2.737  0.0000E+00  0.0000E+00  0.0000E+00
     -2.635  0.3706E-04  0.2081E-01  0.1382E-03
     -2.533  0.1183E-03  0.1824E-01  0.7022E-03
     -2.432  0.1239E-02  0.1669E-01  0.2063E-02
     -2.330  0.1979E-11  0.3104E-11  0.1589E-08
     -2.228  0.4946E-02  0.1886E-01  0.2856E-02
     -2.126  0.7156E-02  0.1237E-02  0.2847E-02
     -2.024  0.8084E-02  0.2243E-01  0.1675E-02
     -1.922  0.3796E-02  0.1964E-01  0.7749E-03
     -1.820  0.3061E-02  0.5009E-01  0.1567E-02
     -1.718  0.8637E-04  0.4153E-01  0.2048E-02
     -1.616  0.5363E-03  0.3540E-01  0.4148E-02
     -1.514  0.1304E-02  0.9040E-01  0.9320E-02
     -1.412  0.1176E-03  0.1381E-01  0.4519E-02
     -1.310  0.1260E-02  0.3478E-01  0.1721E-01
     -1.208  0.2768E-02  0.6621E-01  0.1413E-01
     -1.106  0.6598E-02  0.3175E-01  0.5004E-02
     -1.005  0.9781E-03  0.4836E-01  0.1444E-01
     -0.903  0.1402E-03  0.3200E-02  0.3261E-02
     -0.801  0.5129E-03  0.8496E-02  0.3544E-02
     -0.699  0.2171E-04  0.2140E-02  0.4475E-03
     -0.597  0.4111E-21  0.7843E-07  0.8726E-08
     -0.495  0.2226E-17  0.4247E-03  0.4725E-04
     -0.393  0.4331E-14  0.1381E-02  0.1108E-03
     -0.291  0.4776E-06  0.1443E-04  0.2916E-05
     -0.189  0.3640E-16  0.1614E-02  0.1829E-03
     -0.087  0.1572E-17  0.3266E-03  0.3892E-04
      0.015  0.0000E+00  0.0000E+00  0.0000E+00
      0.117  0.2100E-20  0.4790E-20  0.2687E-07
      0.219  0.1051E-15  0.1038E-03  0.4760E-03
      0.320  0.2525E-16  0.2921E-08  0.1119E-03
      0.422  0.4098E-16  0.1138E-03  0.2208E-03
      0.524  0.0000E+00  0.0000E+00  0.0000E+00
      0.626  0.0000E+00  0.0000E+00  0.0000E+00
      0.728  0.0000E+00  0.0000E+00  0.0000E+00
      0.830  0.1042E-24  0.1115E-24  0.8320E-23
      0.932  0.3245E-17  0.3474E-17  0.2592E-15
      1.034  0.0000E+00  0.0000E+00  0.0000E+00
      1.136  0.0000E+00  0.0000E+00  0.0000E+00
      1.238  0.0000E+00  0.0000E+00  0.0000E+00
      1.340  0.0000E+00  0.0000E+00  0.0000E+00
      1.442  0.0000E+00  0.0000E+00  0.0000E+00
      1.544  0.0000E+00  0.0000E+00  0.0000E+00
      1.645  0.0000E+00  0.0000E+00  0.0000E+00
      1.747  0.0000E+00  0.0000E+00  0.0000E+00
      1.849  0.0000E+00  0.0000E+00  0.0000E+00
      1.951  0.0000E+00  0.0000E+00  0.0000E+00
      2.053  0.0000E+00  0.0000E+00  0.0000E+00
      2.155  0.0000E+00  0.0000E+00  0.0000E+00
      2.257  0.0000E+00  0.0000E+00  0.0000E+00
      2.359  0.0000E+00  0.0000E+00  0.0000E+00
      2.461  0.0000E+00  0.0000E+00  0.0000E+00
      2.563  0.0000E+00  0.0000E+00  0.0000E+00
      2.665  0.0000E+00  0.0000E+00  0.0000E+00
      2.767  0.2692E-31  0.8078E-29  0.3066E-16
      2.869  0.6403E-16  0.1036E-05  0.2653E-02
      2.970  0.0000E+00  0.0000E+00  0.0000E+00
      3.072  0.2840E-03  0.2872E-03  0.3647E-02
      3.174  0.0000E+00  0.0000E+00  0.0000E+00
      3.276  0.1238E-03  0.7791E-04  0.2102E-03
      3.378  0.3144E-03  0.1504E-02  0.2652E-02
      3.480  0.1043E-12  0.1308E-11  0.1987E-12
      3.582  0.3347E-03  0.1862E-02  0.1022E-02
      3.684  0.0000E+00  0.0000E+00  0.0000E+00
      3.786  0.6409E-04  0.4711E-03  0.3286E-04
      3.888  0.0000E+00  0.0000E+00  0.0000E+00
      3.990  0.0000E+00  0.0000E+00  0.0000E+00
      4.092  0.0000E+00  0.0000E+00  0.0000E+00
      4.194  0.0000E+00  0.0000E+00  0.0000E+00
      4.295  0.0000E+00  0.0000E+00  0.0000E+00
      4.397  0.0000E+00  0.0000E+00  0.0000E+00
      4.499  0.6601E-15  0.7262E-06  0.9032E-02
      4.601  0.2131E-02  0.4319E-05  0.1545E-02
      4.703  0.9121E-14  0.8789E-03  0.9550E-02
      4.805  0.8760E-03  0.3682E-02  0.1626E-01
      4.907  0.3679E-02  0.9654E-02  0.2660E-01
      5.009  0.1376E-02  0.4165E-02  0.3640E-02
      5.111  0.2305E-01  0.1538E-01  0.5460E-02
      5.213  0.8335E-02  0.7168E-02  0.7118E-02
      5.315  0.0000E+00  0.0000E+00  0.0000E+00
      5.417  0.3293E-13  0.7529E-14  0.4065E-14
      5.519  0.1814E-01  0.4149E-02  0.2240E-02
      5.621  0.5145E-02  0.8638E-03  0.3705E-01
      5.722  0.1647E-15  0.5075E-26  0.6096E-13
      5.824  0.1181E+00  0.3130E-01  0.9690E-01
      5.926  0.4084E-02  0.7710E-03  0.6979E-01
      6.028  0.4889E-12  0.1904E-12  0.1327E-02
      6.130  0.1034E+00  0.1351E-01  0.1854E+00
      6.232  0.2331E-01  0.4854E-02  0.4427E+00
      6.334  0.1981E-01  0.1292E-02  0.1958E-01
      6.436  0.7736E-01  0.2374E-01  0.3407E+00
      6.538  0.1519E-01  0.3181E-01  0.8692E+00
      6.640  0.1035E+00  0.1921E-01  0.4464E+00
      6.742  0.1778E-01  0.7900E-01  0.4678E+00
      6.844  0.4589E-03  0.8336E-04  0.9947E-01
      6.946  0.0000E+00  0.0000E+00  0.0000E+00
      7.047  0.0000E+00  0.0000E+00  0.0000E+00
      7.149  0.0000E+00  0.0000E+00  0.0000E+00
      7.251  0.0000E+00  0.0000E+00  0.0000E+00
      7.353  0.0000E+00  0.0000E+00  0.0000E+00
      7.455  0.0000E+00  0.0000E+00  0.0000E+00
      7.557  0.0000E+00  0.0000E+00  0.0000E+00
      7.659  0.0000E+00  0.0000E+00  0.0000E+00
      7.761  0.0000E+00  0.0000E+00  0.0000E+00
      7.863  0.0000E+00  0.0000E+00  0.0000E+00
      7.965  0.0000E+00  0.0000E+00  0.0000E+00
      8.067  0.0000E+00  0.0000E+00  0.0000E+00
      8.169  0.0000E+00  0.0000E+00  0.0000E+00
      8.16861666    -22.40865089  301      0.95747773      1.00000000
    -22.409  0.0000E+00  0.0000E+00  0.0000E+00
    -22.307  0.0000E+00  0.0000E+00  0.0000E+00
    -22.205  0.0000E+00  0.0000E+00  0.0000E+00
    -22.103  0.0000E+00  0.0000E+00  0.0000E+00
    -22.001  0.0000E+00  0.0000E+00  0.0000E+00
    -21.899  0.0000E+00  0.0000E+00  0.0000E+00
    -21.797  0.0000E+00  0.0000E+00  0.0000E+00
    -21.695  0.0000E+00  0.0000E+00  0.0000E+00
    -21.593  0.0000E+00  0.0000E+00  0.0000E+00
    -21.491  0.0000E+00  0.0000E+00  0.0000E+00
    -21.389  0.0000E+00  0.0000E+00  0.0000E+00
    -21.287  0.0000E+00  0.0000E+00  0.0000E+00
    -21.186  0.0000E+00  0.0000E+00  0.0000E+00
    -21.084  0.0000E+00  0.0000E+00  0.0000E+00
    -20.982  0.1742E+02  0.8550E-07  0.1740E-05
    -20.880  0.0000E+00  0.0000E+00  0.0000E+00
    -20.778  0.0000E+00  0.0000E+00  0.0000E+00
    -20.676  0.0000E+00  0.0000E+00  0.0000E+00
    -20.574  0.0000E+00  0.0000E+00  0.0000E+00
    -20.472  0.0000E+00  0.0000E+00  0.0000E+00
    -20.370  0.0000E+00  0.0000E+00  0.0000E+00
    -20.268  0.0000E+00  0.0000E+00  0.0000E+00
    -20.166  0.0000E+00  0.0000E+00  0.0000E+00
    -20.064  0.0000E+00  0.0000E+00  0.0000E+00
    -19.962  0.0000E+00  0.0000E+00  0.0000E+00
    -19.861  0.0000E+00  0.0000E+00  0.0000E+00
    -19.759  0.0000E+00  0.0000E+00  0.0000E+00
    -19.657  0.0000E+00  0.0000E+00  0.0000E+00
    -19.555  0.0000E+00  0.0000E+00  0.0000E+00
    -19.453  0.0000E+00  0.0000E+00  0.0000E+00
    -19.351  0.0000E+00  0.0000E+00  0.0000E+00
    -19.249  0.0000E+00  0.0000E+00  0.0000E+00
    -19.147  0.0000E+00  0.0000E+00  0.0000E+00
    -19.045  0.0000E+00  0.0000E+00  0.0000E+00
    -18.943  0.0000E+00  0.0000E+00  0.0000E+00
    -18.841  0.0000E+00  0.0000E+00  0.0000E+00
    -18.739  0.0000E+00  0.0000E+00  0.0000E+00
    -18.637  0.0000E+00  0.0000E+00  0.0000E+00
    -18.536  0.0000E+00  0.0000E+00  0.0000E+00
    -18.434  0.0000E+00  0.0000E+00  0.0000E+00
    -18.332  0.0000E+00  0.0000E+00  0.0000E+00
    -18.230  0.0000E+00  0.0000E+00  0.0000E+00
    -18.128  0.0000E+00  0.0000E+00  0.0000E+00
    -18.026  0.0000E+00  0.0000E+00  0.0000E+00
    -17.924  0.0000E+00  0.0000E+00  0.0000E+00
    -17.822  0.0000E+00  0.0000E+00  0.0000E+00
    -17.720  0.0000E+00  0.0000E+00  0.0000E+00
    -17.618  0.0000E+00  0.0000E+00  0.0000E+00
    -17.516  0.0000E+00  0.0000E+00  0.0000E+00
    -17.414  0.0000E+00  0.0000E+00  0.0000E+00
    -17.312  0.0000E+00  0.0000E+00  0.0000E+00
    -17.211  0.0000E+00  0.0000E+00  0.0000E+00
    -17.109  0.0000E+00  0.0000E+00  0.0000E+00
    -17.007  0.0000E+00  0.0000E+00  0.0000E+00
    -16.905  0.0000E+00  0.0000E+00  0.0000E+00
    -16.803  0.0000E+00  0.0000E+00  0.0000E+00
    -16.701  0.0000E+00  0.0000E+00  0.0000E+00
    -16.599  0.0000E+00  0.0000E+00  0.0000E+00
    -16.497  0.0000E+00  0.0000E+00  0.0000E+00
    -16.395  0.1273E-21  0.2302E-21  0.2378E-20
    -16.293  0.2445E-04  0.1906E-04  0.6101E-05
    -16.191  0.1162E-04  0.3586E-04  0.3912E-05
    -16.089  0.2805E-04  0.2044E-04  0.2089E-05
    -15.987  0.0000E+00  0.0000E+00  0.0000E+00
    -15.886  0.0000E+00  0.0000E+00  0.0000E+00
    -15.784  0.0000E+00  0.0000E+00  0.0000E+00
    -15.682  0.0000E+00  0.0000E+00  0.0000E+00
    -15.580  0.0000E+00  0.0000E+00  0.0000E+00
    -15.478  0.0000E+00  0.0000E+00  0.0000E+00
    -15.376  0.0000E+00  0.0000E+00  0.0000E+00
    -15.274  0.0000E+00  0.0000E+00  0.0000E+00
    -15.172  0.0000E+00  0.0000E+00  0.0000E+00
    -15.070  0.0000E+00  0.0000E+00  0.0000E+00
    -14.968  0.0000E+00  0.0000E+00  0.0000E+00
    -14.866  0.0000E+00  0.0000E+00  0.0000E+00
    -14.764  0.0000E+00  0.0000E+00  0.0000E+00
    -14.662  0.0000E+00  0.0000E+00  0.0000E+00
    -14.560  0.0000E+00  0.0000E+00  0.0000E+00
    -14.459  0.0000E+00  0.0000E+00  0.0000E+00
    -14.357  0.2672E-03  0.2323E-12  0.1619E-06
    -14.255  0.1645E-02  0.8809E-03  0.1330E-04
    -14.153  0.5485E-03  0.1213E-02  0.3141E-04
    -14.051  0.7489E-05  0.3165E-02  0.1191E-03
    -13.949  0.1392E-02  0.3296E-02  0.2626E-03
    -13.847  0.1630E-05  0.7300E-04  0.2786E-04
    -13.745  0.3655E-03  0.1492E-02  0.1781E-03
    -13.643  0.1147E-03  0.2664E-03  0.4210E-04
    -13.541  0.0000E+00  0.0000E+00  0.0000E+00
    -13.439  0.0000E+00  0.0000E+00  0.0000E+00
    -13.337  0.0000E+00  0.0000E+00  0.0000E+00