<?xml version="1.0" encoding="ISO-8859-1"?>
<modeling>
 <generator>
  <i name="program" type="string">vasp </i>
  <i name="version" type="string">5.4.4.18Apr17-6-g9f103f2a35  </i>
  <i name="subversion" type="string">(build Jun 22 2020 09:27:21) complex            parallel </i>
  <i name="platform" type="string">tx2_gcc-7.3_libsci-18.07_cray-fftw-3.3.8 </i>
  <i name="date" type="string">2021 09 22 </i>
  <i name="time" type="string">08:31:35 </i>
 </generator>
 <incar>
  <i type="string" name="SYSTEM"> CsPbBr3 cubic bulk</i>
  <i type="string" name="PREC">accurate</i>
  <i type="string" name="ALGO"> Normal   ! Electronic minimisation algo</i>
  <i type="logical" name="ADDGRID"> T  </i>
  <i type="int" name="NELM">   200</i>
  <i type="int" name="IBRION">     2</i>
  <i name="EDIFF">      0.00000100</i>
  <i name="EDIFFG">     -0.01000000</i>
  <i type="int" name="NSW">     0</i>
  <i type="int" name="ISIF">     3</i>
  <i type="int" name="ISYM">     2</i>
  <i name="ENCUT">    300.00000000</i>
  <i name="POTIM">      0.50000000</i>
  <i type="string" name="LREAL"> AUTO</i>
  <i type="int" name="ISMEAR">     0</i>
  <i name="SIGMA">      0.01000000</i>
  <i name="PSTRESS">      0.00000000</i>
  <i type="logical" name="LWAVE"> F  </i>
  <i type="logical" name="LCHARG"> T  </i>
  <i type="logical" name="LVHAR"> T  </i>
  <i type="int" name="LORBIT">    10</i>
  <i type="logical" name="LASPH"> T  </i>
  <v type="int" name="KPOINT_BSE">    -1     0     0     0</v>
  <i type="int" name="NELM">   200</i>
  <i type="string" name="METAGGA"> SCAN       ! PBE exchange-correlation</i>
  <i type="logical" name="LASPH"> T  </i>
 </incar>
 <structure name="primitive_cell" >
  <crystal>
   <varray name="basis" >
    <v>       5.86767600       5.86767600       0.00000000 </v>
    <v>       5.86767600      -0.00000000      -5.86767600 </v>
    <v>       0.00000000       5.86767600      -5.86767600 </v>
   </varray>
   <i name="volume">    404.04372918 </i>
   <varray name="rec_basis" >
    <v>       0.08521261       0.08521261       0.08521261 </v>
    <v>       0.08521261      -0.08521261      -0.08521261 </v>
    <v>      -0.08521261       0.08521261      -0.08521261 </v>
   </varray>
  </crystal>
  <varray name="positions" >
   <v>      -0.25000000      -0.25000000      -0.25000000 </v>
   <v>      -0.21625000       0.28375000      -0.28375000 </v>
   <v>       0.21625000      -0.28375000       0.28375000 </v>
   <v>       0.28375000       0.21625000      -0.21625000 </v>
   <v>      -0.28375000      -0.21625000       0.21625000 </v>
   <v>       0.25000000      -0.25000000      -0.25000000 </v>
   <v>      -0.25000000       0.25000000       0.25000000 </v>
   <v>       0.00000000       0.00000000       0.00000000 </v>
   <v>      -0.50000000      -0.50000000      -0.50000000 </v>
   <v>       0.25000000       0.25000000       0.25000000 </v>
  </varray>
 </structure>
 <varray name="primitive_index" >
  <v type="int" >        1 </v>
  <v type="int" >       18 </v>
  <v type="int" >       22 </v>
  <v type="int" >       33 </v>
  <v type="int" >       35 </v>
  <v type="int" >       25 </v>
  <v type="int" >       27 </v>
  <v type="int" >        9 </v>
  <v type="int" >       10 </v>
  <v type="int" >        2 </v>
 </varray>
 <kpoints>
  <generation param="Gamma">
   <v type="int" name="divisions">       2        2        2 </v>
   <v name="usershift">      0.00000000       0.00000000       0.00000000 </v>
   <v name="genvec1">      0.50000000       0.00000000       0.00000000 </v>
   <v name="genvec2">      0.00000000       0.50000000       0.00000000 </v>
   <v name="genvec3">      0.00000000       0.00000000       0.50000000 </v>
   <v name="shift">      0.00000000       0.00000000       0.00000000 </v>
  </generation>
  <varray name="kpointlist" >
   <v>       0.00000000       0.00000000       0.00000000 </v>
   <v>       0.50000000       0.00000000       0.00000000 </v>
   <v>       0.50000000       0.50000000       0.00000000 </v>
   <v>       0.00000000       0.00000000       0.50000000 </v>
   <v>       0.50000000       0.00000000       0.50000000 </v>
   <v>       0.50000000       0.50000000       0.50000000 </v>
  </varray>
  <varray name="weights" >
   <v>       0.12500000 </v>
   <v>       0.25000000 </v>
   <v>       0.12500000 </v>
   <v>       0.12500000 </v>
   <v>       0.25000000 </v>
   <v>       0.12500000 </v>
  </varray>
 </kpoints>
 <parameters>
  <separator name="general" >
   <i type="string" name="SYSTEM">CsPbBr3 cubic bulk</i>
   <i type="logical" name="LCOMPAT"> F  </i>
  </separator>
  <separator name="electronic" >
   <i type="string" name="PREC">accura</i>
   <i name="ENMAX">    300.00000000</i>
   <i name="ENAUG">    503.85200000</i>
   <i name="EDIFF">      0.00000100</i>
   <i type="int" name="IALGO">    38</i>
   <i type="int" name="IWAVPR">    10</i>
   <i type="int" name="NBANDS">   216</i>
   <i name="NELECT">    352.00000000</i>
   <i type="int" name="TURBO">     0</i>
   <i type="int" name="IRESTART">     0</i>
   <i type="int" name="NREBOOT">     0</i>
   <i type="int" name="NMIN">     0</i>
   <i name="EREF">      0.00000000</i>
   <separator name="electronic smearing" >
    <i type="int" name="ISMEAR">     0</i>
    <i name="SIGMA">      0.01000000</i>
    <i name="KSPACING">      0.50000000</i>
    <i type="logical" name="KGAMMA"> T  </i>
   </separator>
   <separator name="electronic projectors" >
    <i type="logical" name="LREAL"> T  </i>
    <v name="ROPT">     -0.00025000     -0.00025000     -0.00025000</v>
    <i type="int" name="LMAXPAW">  -100</i>
    <i type="int" name="LMAXMIX">     2</i>
    <i type="logical" name="NLSPLINE"> F  </i>
   </separator>
   <separator name="electronic startup" >
    <i type="int" name="ISTART">     0</i>
    <i type="int" name="ICHARG">     2</i>
    <i type="int" name="INIWAV">     1</i>
   </separator>
   <separator name="electronic spin" >
    <i type="int" name="ISPIN">     1</i>
    <i type="logical" name="LNONCOLLINEAR"> F  </i>
    <v name="MAGMOM">      1.00000000      1.00000000      1.00000000      1.00000000      1.00000000      1.00000000      1.00000000      1.00000000      1.00000000      1.00000000      1.00000000      1.00000000      1.00000000      1.00000000      1.00000000      1.00000000      1.00000000      1.00000000      1.00000000      1.00000000
      1.00000000      1.00000000      1.00000000      1.00000000      1.00000000      1.00000000      1.00000000      1.00000000      1.00000000      1.00000000      1.00000000      1.00000000      1.00000000      1.00000000      1.00000000      1.00000000      1.00000000      1.00000000      1.00000000      1.00000000
</v>
    <i name="NUPDOWN">     -1.00000000</i>
    <i type="logical" name="LSORBIT"> F  </i>
    <v name="SAXIS">      0.00000000      0.00000000      1.00000000</v>
    <i type="logical" name="LSPIRAL"> F  </i>
    <v name="QSPIRAL">      0.00000000      0.00000000      0.00000000</v>
    <i type="logical" name="LZEROZ"> F  </i>
   </separator>
   <separator name="electronic exchange-correlation" >
    <i type="logical" name="LASPH"> T  </i>
    <i type="logical" name="LMETAGGA"> F  </i>
   </separator>
   <separator name="electronic convergence" >
    <i type="int" name="NELM">   200</i>
    <i type="int" name="NELMDL">    -5</i>
    <i type="int" name="NELMIN">     2</i>
    <i name="ENINI">    300.00000000</i>
    <separator name="electronic convergence detail" >
     <i type="logical" name="LDIAG"> T  </i>
     <i type="logical" name="LSUBROT"> F  </i>
     <i name="WEIMIN">      0.00000000</i>
     <i name="EBREAK">      0.00000000</i>
     <i name="DEPER">      0.30000000</i>
     <i type="int" name="NRMM">     4</i>
     <i name="TIME">      0.40000000</i>
    </separator>
   </separator>
   <separator name="electronic mixer" >
    <i name="AMIX">      0.40000000</i>
    <i name="BMIX">      1.00000000</i>
    <i name="AMIN">      0.10000000</i>
    <i name="AMIX_MAG">      1.60000000</i>
    <i name="BMIX_MAG">      1.00000000</i>
    <separator name="electronic mixer details" >
     <i type="int" name="IMIX">     4</i>
     <i type="logical" name="MIXFIRST"> F  </i>
     <i type="int" name="MAXMIX">   -45</i>
     <i name="WC">    100.00000000</i>
     <i type="int" name="INIMIX">     1</i>
     <i type="int" name="MIXPRE">     1</i>
     <i type="int" name="MREMOVE">     5</i>
    </separator>
   </separator>
   <separator name="electronic dipolcorrection" >
    <i type="logical" name="LDIPOL"> F  </i>
    <i type="logical" name="LMONO"> F  </i>
    <i type="int" name="IDIPOL">     0</i>
    <i name="EPSILON">      1.00000000</i>
    <v name="DIPOL">   -100.00000000   -100.00000000   -100.00000000</v>
    <i name="EFIELD">      0.00000000</i>
   </separator>
  </separator>
  <separator name="grids" >
   <i type="int" name="NGX">    70</i>
   <i type="int" name="NGY">    70</i>
   <i type="int" name="NGZ">    70</i>
   <i type="int" name="NGXF">   140</i>
   <i type="int" name="NGYF">   140</i>
   <i type="int" name="NGZF">   140</i>
   <i type="logical" name="ADDGRID"> T  </i>
  </separator>
  <separator name="ionic" >
   <i type="int" name="NSW">     0</i>
   <i type="int" name="IBRION">    -1</i>
   <i type="int" name="MDALGO">     0</i>
   <i type="int" name="ISIF">     3</i>
   <i name="PSTRESS">      0.00000000</i>
   <i name="EDIFFG">     -0.01000000</i>
   <i type="int" name="NFREE">     1</i>
   <i name="POTIM">      0.50000000</i>
   <i name="SMASS">     -3.00000000</i>
   <i name="SCALEE">      1.00000000</i>
  </separator>
  <separator name="ionic md" >
   <i name="TEBEG">      0.00010000</i>
   <i name="TEEND">      0.00010000</i>
   <i type="int" name="NBLOCK">     1</i>
   <i type="int" name="KBLOCK">     1</i>
   <i type="int" name="NPACO">   256</i>
   <i name="APACO">     16.00000000</i>
  </separator>
  <separator name="symmetry" >
   <i type="int" name="ISYM">     2</i>
   <i name="SYMPREC">      0.00001000</i>
  </separator>
  <separator name="dos" >
   <i type="int" name="LORBIT">    10</i>
   <v name="RWIGS">     -1.00000000     -1.00000000     -1.00000000</v>
   <i type="int" name="NEDOS">   301</i>
   <i name="EMIN">     10.00000000</i>
   <i name="EMAX">    -10.00000000</i>
   <i name="EFERMI">      0.00000000</i>
  </separator>
  <separator name="writing" >
   <i type="int" name="NWRITE">     2</i>
   <i type="logical" name="LWAVE"> F  </i>
   <i type="logical" name="LDOWNSAMPLE"> F  </i>
   <i type="logical" name="LCHARG"> T  </i>
   <i type="logical" name="LPARD"> F  </i>
   <i type="logical" name="LVTOT"> F  </i>
   <i type="logical" name="LVHAR"> T  </i>
   <i type="logical" name="LELF"> F  </i>
   <i type="logical" name="LOPTICS"> F  </i>
   <v name="STM">      0.00000000      0.00000000      0.00000000      0.00000000      0.00000000      0.00000000      0.00000000</v>
  </separator>
  <separator name="performance" >
   <i type="int" name="NPAR">     8</i>
   <i type="int" name="NSIM">     4</i>
   <i type="int" name="NBLK">    -1</i>
   <i type="logical" name="LPLANE"> T  </i>
   <i type="logical" name="LSCALAPACK"> T  </i>
   <i type="logical" name="LSCAAWARE"> F  </i>
   <i type="logical" name="LSCALU"> F  </i>
   <i type="logical" name="LASYNC"> F  </i>
   <i type="logical" name="LORBITALREAL"> F  </i>
  </separator>
  <separator name="miscellaneous" >
   <i type="int" name="IDIOT">     3</i>
   <i type="int" name="ISPECIAL">     0</i>
   <i type="logical" name="LMUSIC"> F  </i>
   <v name="POMASS">    132.90000000    207.20000000     79.90400000</v>
   <v name="DARWINR">      0.00000000      0.00000000      0.00000000</v>
   <v name="DARWINV">      1.00000000      1.00000000      1.00000000</v>
   <i type="logical" name="LCORR"> T  </i>
  </separator>
  <i type="logical" name="GGA_COMPAT"> T  </i>
  <i type="logical" name="LBERRY"> F  </i>
  <i type="int" name="ICORELEVEL">     0</i>
  <i type="logical" name="LDAU"> F  </i>
  <i type="int" name="I_CONSTRAINED_M">     0</i>
  <separator name="electronic exchange-correlation" >
   <i type="string" name="GGA">--</i>
   <i type="int" name="VOSKOWN">     0</i>
   <i type="logical" name="LHFCALC"> F  </i>
   <i type="string" name="PRECFOCK"></i>
   <i type="logical" name="LSYMGRAD"> F  </i>
   <i type="logical" name="LHFONE"> F  </i>
   <i type="logical" name="LRHFCALC"> F  </i>
   <i type="logical" name="LTHOMAS"> F  </i>
   <i type="logical" name="LMODELHF"> F  </i>
   <i name="ENCUT4O">     -1.00000000</i>
   <i type="int" name="EXXOEP">     0</i>
   <i type="int" name="FOURORBIT">     0</i>
   <i name="AEXX">      0.00000000</i>
   <i name="HFALPHA">      0.00000000</i>
   <i name="MCALPHA">      0.00000000</i>
   <i name="ALDAX">      1.00000000</i>
   <i name="AGGAX">      1.00000000</i>
   <i name="ALDAC">      1.00000000</i>
   <i name="AGGAC">      1.00000000</i>
   <i type="int" name="NKREDX">     1</i>
   <i type="int" name="NKREDY">     1</i>
   <i type="int" name="NKREDZ">     1</i>
   <i type="logical" name="SHIFTRED"> F  </i>
   <i type="logical" name="ODDONLY"> F  </i>
   <i type="logical" name="EVENONLY"> F  </i>
   <i type="int" name="LMAXFOCK">     0</i>
   <i type="int" name="NMAXFOCKAE">     0</i>
   <i type="logical" name="LFOCKAEDFT"> F  </i>
   <i name="HFSCREEN">      0.00000000</i>
   <i name="HFSCREENC">      0.00000000</i>
   <i type="int" name="NBANDSGWLOW">     0</i>
  </separator>
  <separator name="vdW DFT" >
   <i type="logical" name="LUSE_VDW"> F  </i>
   <i name="Zab_VDW">     -0.84910000</i>
   <i name="PARAM1">      0.12340000</i>
   <i name="PARAM2">      1.00000000</i>
   <i name="PARAM3">      0.00000000</i>
  </separator>
  <separator name="model GW" >
   <i type="int" name="MODEL_GW">     0</i>
   <i name="MODEL_EPS0">     24.24262375</i>
   <i name="MODEL_ALPHA">      1.00000000</i>
  </separator>
  <separator name="linear response parameters" >
   <i type="logical" name="LEPSILON"> F  </i>
   <i type="logical" name="LRPA"> F  </i>
   <i type="logical" name="LNABLA"> F  </i>
   <i type="logical" name="LVEL"> F  </i>
   <i type="int" name="KINTER">     0</i>
   <i name="CSHIFT">      0.10000000</i>
   <i name="OMEGAMAX">     -1.00000000</i>
   <i name="DEG_THRESHOLD">      0.00200000</i>
   <i name="RTIME">     -0.10000000</i>
   <i name="WPLASMAI">      0.00000000</i>
   <v name="DFIELD">      0.00000000      0.00000000      0.00000000</v>
   <v name="WPLASMA">      0.00000000      0.00000000      0.00000000      0.00000000      0.00000000      0.00000000      0.00000000      0.00000000      0.00000000</v>
  </separator>
  <separator name="orbital magnetization" >
   <i type="logical" name="NUCIND"> F  </i>
   <v name="MAGPOS">      0.00000000      0.00000000      0.00000000</v>
   <i type="logical" name="LNICSALL"> T  </i>
   <i type="logical" name="ORBITALMAG"> F  </i>
   <i type="logical" name="LMAGBLOCH"> F  </i>
   <i type="logical" name="LCHIMAG"> F  </i>
   <i type="logical" name="LGAUGE"> T  </i>
   <i type="int" name="MAGATOM">     0</i>
   <v name="MAGDIPOL">      0.00000000      0.00000000      0.00000000</v>
   <v name="AVECCONST">      0.00000000      0.00000000      0.00000000</v>
  </separator>
  <separator name="response functions" >
   <i type="logical" name="LADDER"> F  </i>
   <i type="logical" name="LRPAFORCE"> F  </i>
   <i type="logical" name="LFXC"> F  </i>
   <i type="logical" name="LHARTREE"> T  </i>
   <i type="int" name="IBSE">     0</i>
   <v type="int" name="KPOINT">    -1     0     0     0</v>
   <i type="logical" name="LTCTE"> F  </i>
   <i type="logical" name="LTETE"> F  </i>
   <i type="logical" name="LTRIPLET"> F  </i>
   <i type="logical" name="LFXCEPS"> F  </i>
   <i type="logical" name="LFXHEG"> F  </i>
   <i type="int" name="NATURALO">     2</i>
   <i type="logical" name="L2ORDER"> F  </i>
   <i type="logical" name="LMP2LT"> F  </i>
   <i type="logical" name="LUSEW"> F  </i>
   <i name="ENCUTGW">     -2.00000000</i>
   <i name="ENCUTGWSOFT">     -2.00000000</i>
   <i name="ENCUTLF">     -1.00000000</i>
   <i type="int" name="LMAXMP2">    -1</i>
   <i name="SCISSOR">      0.00000000</i>
   <i type="int" name="NOMEGA">     0</i>
   <i type="int" name="NOMEGAR">     0</i>
   <i type="int" name="NBANDSGW">    -1</i>
   <i type="int" name="NBANDSO">    -1</i>
   <i type="int" name="NBANDSV">    -1</i>
   <i type="int" name="NELM">   200</i>
   <i type="int" name="NELMHF">     1</i>
   <i type="int" name="DIM">     3</i>
   <i type="int" name="ANTIRES">     0</i>
   <i name="OMEGAMAX">    -30.00000000</i>
   <i name="OMEGAMIN">    -30.00000000</i>
   <i name="OMEGATL">   -200.00000000</i>
   <i type="int" name="OMEGAGRID">   140</i>
   <i name="CSHIFT">     -0.10000000</i>
   <i type="logical" name="SELFENERGY"> F  </i>
   <i type="logical" name="LSPECTRAL"> F  </i>
   <i type="logical" name="LSPECTRALGW"> F  </i>
   <i type="logical" name="LSINGLES"> F  </i>
   <i type="logical" name="LFERMIGW"> F  </i>
   <i type="logical" name="ODDONLYGW"> F  </i>
   <i type="logical" name="EVENONLYGW"> F  </i>
   <i type="int" name="NKREDLFX">     1</i>
   <i type="int" name="NKREDLFY">     1</i>
   <i type="int" name="NKREDLFZ">     1</i>
   <i type="int" name="MAXMEM">  2800</i>
   <i type="int" name="TELESCOPE">     0</i>
   <i type="int" name="TAUPAR">     1</i>
   <i type="int" name="OMEGAPAR">    -1</i>
   <i name="LAMBDA">      1.00000000</i>
  </separator>
  <separator name="External order field" >
   <i name="OFIELD_KAPPA">      0.00000000</i>
   <v name="OFIELD_K">      0.00000000      0.00000000      0.00000000</v>
   <i name="OFIELD_Q6_NEAR">      0.00000000</i>
   <i name="OFIELD_Q6_FAR">      0.00000000</i>
   <i name="OFIELD_A">      0.00000000</i>
  </separator>
 </parameters>
 <atominfo>
  <atoms>      40 </atoms>
  <types>       3 </types>
  <array name="atoms" >
   <dimension dim="1">ion</dimension>
   <field type="string">element</field>
   <field type="int">atomtype</field>
   <set>
    <rc><c>Cs</c><c>   1</c></rc>
    <rc><c>Cs</c><c>   1</c></rc>
    <rc><c>Cs</c><c>   1</c></rc>
    <rc><c>Cs</c><c>   1</c></rc>
    <rc><c>Cs</c><c>   1</c></rc>
    <rc><c>Cs</c><c>   1</c></rc>
    <rc><c>Cs</c><c>   1</c></rc>
    <rc><c>Cs</c><c>   1</c></rc>
    <rc><c>Pb</c><c>   2</c></rc>
    <rc><c>Pb</c><c>   2</c></rc>
    <rc><c>Pb</c><c>   2</c></rc>
    <rc><c>Pb</c><c>   2</c></rc>
    <rc><c>Pb</c><c>   2</c></rc>
    <rc><c>Pb</c><c>   2</c></rc>
    <rc><c>Pb</c><c>   2</c></rc>
    <rc><c>Pb</c><c>   2</c></rc>
    <rc><c>Br</c><c>   3</c></rc>
    <rc><c>Br</c><c>   3</c></rc>
    <rc><c>Br</c><c>   3</c></rc>
    <rc><c>Br</c><c>   3</c></rc>
    <rc><c>Br</c><c>   3</c></rc>
    <rc><c>Br</c><c>   3</c></rc>
    <rc><c>Br</c><c>   3</c></rc>
    <rc><c>Br</c><c>   3</c></rc>
    <rc><c>Br</c><c>   3</c></rc>
    <rc><c>Br</c><c>   3</c></rc>
    <rc><c>Br</c><c>   3</c></rc>
    <rc><c>Br</c><c>   3</c></rc>
    <rc><c>Br</c><c>   3</c></rc>
    <rc><c>Br</c><c>   3</c></rc>
    <rc><c>Br</c><c>   3</c></rc>
    <rc><c>Br</c><c>   3</c></rc>
    <rc><c>Br</c><c>   3</c></rc>
    <rc><c>Br</c><c>   3</c></rc>
    <rc><c>Br</c><c>   3</c></rc>
    <rc><c>Br</c><c>   3</c></rc>
    <rc><c>Br</c><c>   3</c></rc>
    <rc><c>Br</c><c>   3</c></rc>
    <rc><c>Br</c><c>   3</c></rc>
    <rc><c>Br</c><c>   3</c></rc>
   </set>
  </array>
  <array name="atomtypes" >
   <dimension dim="1">type</dimension>
   <field type="int">atomspertype</field>
   <field type="string">element</field>
   <field>mass</field>
   <field>valence</field>
   <field type="string">pseudopotential</field>
   <set>
    <rc><c>   8</c><c>Cs</c><c>    132.90000000</c><c>      9.00000000</c><c>  PAW_PBE Cs_sv 08Apr2002               </c></rc>
    <rc><c>   8</c><c>Pb</c><c>    207.20000000</c><c>     14.00000000</c><c>  PAW_PBE Pb_d 06Sep2000                </c></rc>
    <rc><c>  24</c><c>Br</c><c>     79.90400000</c><c>      7.00000000</c><c>  PAW_PBE Br 06Sep2000                  </c></rc>
   </set>
  </array>
 </atominfo>
 <structure name="initialpos" >
  <crystal>
   <varray name="basis" >
    <v>      11.73535200       0.00000000       0.00000000 </v>
    <v>       0.00000000      11.73535200       0.00000000 </v>
    <v>       0.00000000       0.00000000      11.73535200 </v>
   </varray>
   <i name="volume">   1616.17491673 </i>
   <varray name="rec_basis" >
    <v>       0.08521261       0.00000000       0.00000000 </v>
    <v>       0.00000000       0.08521261       0.00000000 </v>
    <v>       0.00000000       0.00000000       0.08521261 </v>
   </varray>
  </crystal>
  <varray name="positions" >
   <v>       0.25000000       0.25000000       0.25000000 </v>
   <v>       0.25000000       0.25000000       0.75000000 </v>
   <v>       0.25000000       0.75000000       0.25000000 </v>
   <v>       0.25000000       0.75000000       0.75000000 </v>
   <v>       0.75000000       0.25000000       0.25000000 </v>
   <v>       0.75000000       0.25000000       0.75000000 </v>
   <v>       0.75000000       0.75000000       0.25000000 </v>
   <v>       0.75000000       0.75000000       0.75000000 </v>
   <v>       0.00000000       0.00000000       0.00000000 </v>
   <v>       0.00000000       0.00000000       0.50000000 </v>
   <v>       0.00000000       0.50000000       0.00000000 </v>
   <v>       0.00000000       0.50000000       0.50000000 </v>
   <v>       0.50000000       0.00000000       0.00000000 </v>
   <v>       0.50000000       0.00000000       0.50000000 </v>
   <v>       0.50000000       0.50000000       0.00000000 </v>
   <v>       0.50000000       0.50000000       0.50000000 </v>
   <v>       0.96625000       0.25000000       0.00000000 </v>
   <v>       0.03375000       0.25000000       0.50000000 </v>
   <v>       0.03375000       0.75000000       0.00000000 </v>
   <v>       0.96625000       0.75000000       0.50000000 </v>
   <v>       0.53375000       0.25000000       0.00000000 </v>
   <v>       0.46625000       0.25000000       0.50000000 </v>
   <v>       0.46625000       0.75000000       0.00000000 </v>
   <v>       0.53375000       0.75000000       0.50000000 </v>
   <v>       0.00000000       0.00000000       0.25000000 </v>
   <v>       0.00000000       0.00000000       0.75000000 </v>
   <v>       0.00000000       0.50000000       0.25000000 </v>
   <v>       0.00000000       0.50000000       0.75000000 </v>
   <v>       0.50000000       0.00000000       0.25000000 </v>
   <v>       0.50000000       0.00000000       0.75000000 </v>
   <v>       0.50000000       0.50000000       0.25000000 </v>
   <v>       0.50000000       0.50000000       0.75000000 </v>
   <v>       0.25000000       0.03375000       0.00000000 </v>
   <v>       0.25000000       0.96625000       0.50000000 </v>
   <v>       0.25000000       0.46625000       0.00000000 </v>
   <v>       0.25000000       0.53375000       0.50000000 </v>
   <v>       0.75000000       0.96625000       0.00000000 </v>
   <v>       0.75000000       0.03375000       0.50000000 </v>
   <v>       0.75000000       0.53375000       0.00000000 </v>
   <v>       0.75000000       0.46625000       0.50000000 </v>
  </varray>
 </structure>
 <calculation>
  <scstep>
   <time name="dav">   12.85   12.86</time>
   <time name="total">   14.32   14.33</time>
   <energy>
    <i name="alphaZ">    892.99476195 </i>
    <i name="ewald"> -18260.28430089 </i>
    <i name="hartreedc">  -7488.98642763 </i>
    <i name="XCdc">    924.58811784 </i>
    <i name="pawpsdc">  21633.96174531 </i>
    <i name="pawaedc"> -22707.92185401 </i>
    <i name="eentropy">     -0.00253511 </i>
    <i name="bandstr">   -232.37977811 </i>
    <i name="atom">  26580.56019858 </i>
    <i name="e_fr_energy">   1342.52992793 </i>
    <i name="e_wo_entrp">   1342.53246304 </i>
    <i name="e_0_energy">   1342.53119549 </i>
   </energy>
  </scstep>
  <scstep>
   <time name="dav">   14.18   14.19</time>
   <time name="total">   14.18   14.19</time>
   <energy>
    <i name="e_fr_energy">  -1130.46698869 </i>
    <i name="e_wo_entrp">  -1130.46698869 </i>
    <i name="e_0_energy">  -1130.46698869 </i>
   </energy>
  </scstep>
  <scstep>
   <time name="dav">   15.19   15.22</time>
   <time name="total">   15.19   15.22</time>
   <energy>
    <i name="e_fr_energy">  -1495.13586134 </i>
    <i name="e_wo_entrp">  -1495.13586134 </i>
    <i name="e_0_energy">  -1495.13586134 </i>
   </energy>
  </scstep>
  <scstep>
   <time name="dav">   14.08   14.12</time>
   <time name="total">   14.08   14.12</time>
   <energy>
    <i name="e_fr_energy">  -1507.58393643 </i>
    <i name="e_wo_entrp">  -1507.58393643 </i>
    <i name="e_0_energy">  -1507.58393643 </i>
   </energy>
  </scstep>
  <scstep>
   <time name="dav">   15.03   15.07</time>
   <time name="total">   18.12   18.16</time>
   <energy>
    <i name="e_fr_energy">  -1508.14845878 </i>
    <i name="e_wo_entrp">  -1508.14845878 </i>
    <i name="e_0_energy">  -1508.14845878 </i>
   </energy>
  </scstep>
  <scstep>
   <time name="dav">   14.57   14.57</time>
   <time name="total">   19.16   19.19</time>
   <energy>
    <i name="e_fr_energy">  -1429.45276809 </i>
    <i name="e_wo_entrp">  -1429.45276809 </i>
    <i name="e_0_energy">  -1429.45276809 </i>
   </energy>
  </scstep>
  <scstep>
   <time name="dav">   14.34   14.34</time>
   <time name="total">   18.91   18.96</time>
   <energy>
    <i name="e_fr_energy">  -1428.96639357 </i>
    <i name="e_wo_entrp">  -1428.96639357 </i>
    <i name="e_0_energy">  -1428.96639357 </i>
   </energy>
  </scstep>
  <scstep>
   <time name="dav">   14.12   14.13</time>
   <time name="total">   18.70   18.75</time>
   <energy>
    <i name="e_fr_energy">  -1429.14627978 </i>
    <i name="e_wo_entrp">  -1429.14627978 </i>
    <i name="e_0_energy">  -1429.14627978 </i>
   </energy>
  </scstep>
  <scstep>
   <time name="dav">   13.42   13.42</time>
   <time name="total">   18.00   18.03</time>
   <energy>
    <i name="e_fr_energy">  -1429.22773951 </i>
    <i name="e_wo_entrp">  -1429.22773951 </i>
    <i name="e_0_energy">  -1429.22773951 </i>
   </energy>
  </scstep>
  <scstep>
   <time name="dav">   15.39   15.39</time>
   <time name="total">   19.98   20.01</time>
   <energy>
    <i name="e_fr_energy">  -1429.22884194 </i>
    <i name="e_wo_entrp">  -1429.22884194 </i>
    <i name="e_0_energy">  -1429.22884194 </i>
   </energy>
  </scstep>
  <scstep>
   <time name="dav">   13.64   13.64</time>
   <time name="total">   18.23   18.28</time>
   <energy>
    <i name="e_fr_energy">  -1429.23156822 </i>
    <i name="e_wo_entrp">  -1429.23156822 </i>
    <i name="e_0_energy">  -1429.23156822 </i>
   </energy>
  </scstep>
  <scstep>
   <time name="dav">   13.38   13.38</time>
   <time name="total">   17.99   18.03</time>
   <energy>
    <i name="e_fr_energy">  -1429.23244478 </i>
    <i name="e_wo_entrp">  -1429.23244478 </i>
    <i name="e_0_energy">  -1429.23244478 </i>
   </energy>
  </scstep>
  <scstep>
   <time name="dav">   14.62   14.62</time>
   <time name="total">   19.20   19.26</time>
   <energy>
    <i name="e_fr_energy">  -1429.23245764 </i>
    <i name="e_wo_entrp">  -1429.23245764 </i>
    <i name="e_0_energy">  -1429.23245764 </i>
   </energy>
  </scstep>
  <scstep>
   <time name="dav">   13.16   13.17</time>
   <time name="total">   17.75   17.79</time>
   <energy>
    <i name="e_fr_energy">  -1429.23247938 </i>
    <i name="e_wo_entrp">  -1429.23247938 </i>
    <i name="e_0_energy">  -1429.23247938 </i>
   </energy>
  </scstep>
  <scstep>
   <time name="dav">   10.20   10.20</time>
   <time name="total">   14.83   14.84</time>
   <energy>
    <i name="e_fr_energy">  -1429.23247563 </i>
    <i name="e_wo_entrp">  -1429.23247563 </i>
    <i name="e_0_energy">  -1429.23247563 </i>
   </energy>
  </scstep>
  <scstep>
   <time name="dav">   10.06   10.06</time>
   <time name="total">   14.69   14.70</time>
   <energy>
    <i name="e_fr_energy">  -1429.23246927 </i>
    <i name="e_wo_entrp">  -1429.23246927 </i>
    <i name="e_0_energy">  -1429.23246927 </i>
   </energy>
  </scstep>
  <scstep>
   <time name="dav">    9.97    9.97</time>
   <time name="total">   14.60   14.61</time>
   <energy>
    <i name="e_fr_energy">  -1429.23246559 </i>
    <i name="e_wo_entrp">  -1429.23246559 </i>
    <i name="e_0_energy">  -1429.23246559 </i>
   </energy>
  </scstep>
  <scstep>
   <time name="dav">    9.93    9.93</time>
   <time name="total">   14.53   14.57</time>
   <energy>
    <i name="e_fr_energy">  -1429.23246378 </i>
    <i name="e_wo_entrp">  -1429.23246378 </i>
    <i name="e_0_energy">  -1429.23246378 </i>
   </energy>
  </scstep>
  <scstep>
   <time name="dav">    9.92    9.92</time>
   <time name="total">   11.36   11.41</time>
   <energy>
    <i name="alphaZ">    892.99476195 </i>
    <i name="ewald"> -18260.28430089 </i>
    <i name="hartreedc">  -7527.45253296 </i>
    <i name="XCdc">    963.93054775 </i>
    <i name="pawpsdc">  23266.66149580 </i>
    <i name="pawaedc"> -24340.64402820 </i>
    <i name="eentropy">     -0.00000000 </i>
    <i name="bandstr">  -3004.99860649 </i>
    <i name="atom">  26580.56019858 </i>
    <i name="e_fr_energy">  -1429.23246446 </i>
    <i name="e_wo_entrp">  -1429.23246446 </i>
    <i name="e_0_energy">  -1429.23246446 </i>
   </energy>
  </scstep>
  <structure>
   <crystal>
    <varray name="basis" >
     <v>      11.73535200       0.00000000       0.00000000 </v>
     <v>       0.00000000      11.73535200       0.00000000 </v>
     <v>       0.00000000       0.00000000      11.73535200 </v>
    </varray>
    <i name="volume">   1616.17491673 </i>
    <varray name="rec_basis" >
     <v>       0.08521261       0.00000000       0.00000000 </v>
     <v>       0.00000000       0.08521261       0.00000000 </v>
     <v>       0.00000000       0.00000000       0.08521261 </v>
    </varray>
   </crystal>
   <varray name="positions" >
    <v>       0.25000000       0.25000000       0.25000000 </v>
    <v>       0.25000000       0.25000000       0.75000000 </v>
    <v>       0.25000000       0.75000000       0.25000000 </v>
    <v>       0.25000000       0.75000000       0.75000000 </v>
    <v>       0.75000000       0.25000000       0.25000000 </v>
    <v>       0.75000000       0.25000000       0.75000000 </v>
    <v>       0.75000000       0.75000000       0.25000000 </v>
    <v>       0.75000000       0.75000000       0.75000000 </v>
    <v>       0.00000000       0.00000000       0.00000000 </v>
    <v>       0.00000000       0.00000000       0.50000000 </v>
    <v>       0.00000000       0.50000000       0.00000000 </v>
    <v>       0.00000000       0.50000000       0.50000000 </v>
    <v>       0.50000000       0.00000000       0.00000000 </v>
    <v>       0.50000000       0.00000000       0.50000000 </v>
    <v>       0.50000000       0.50000000       0.00000000 </v>
    <v>       0.50000000       0.50000000       0.50000000 </v>
    <v>       0.96625000       0.25000000       0.00000000 </v>
    <v>       0.03375000       0.25000000       0.50000000 </v>
    <v>       0.03375000       0.75000000       0.00000000 </v>
    <v>       0.96625000       0.75000000       0.50000000 </v>
    <v>       0.53375000       0.25000000       0.00000000 </v>
    <v>       0.46625000       0.25000000       0.50000000 </v>
    <v>       0.46625000       0.75000000       0.00000000 </v>
    <v>       0.53375000       0.75000000       0.50000000 </v>
    <v>       0.00000000       0.00000000       0.25000000 </v>
    <v>       0.00000000       0.00000000       0.75000000 </v>
    <v>       0.00000000       0.50000000       0.25000000 </v>
    <v>       0.00000000       0.50000000       0.75000000 </v>
    <v>       0.50000000       0.00000000       0.25000000 </v>
    <v>       0.50000000       0.00000000       0.75000000 </v>
    <v>       0.50000000       0.50000000       0.25000000 </v>
    <v>       0.50000000       0.50000000       0.75000000 </v>
    <v>       0.25000000       0.03375000       0.00000000 </v>
    <v>       0.25000000       0.96625000       0.50000000 </v>
    <v>       0.25000000       0.46625000       0.00000000 </v>
    <v>       0.25000000       0.53375000       0.50000000 </v>
    <v>       0.75000000       0.96625000       0.00000000 </v>
    <v>       0.75000000       0.03375000       0.50000000 </v>
    <v>       0.75000000       0.53375000       0.00000000 </v>
    <v>       0.75000000       0.46625000       0.50000000 </v>
   </varray>
  </structure>
  <varray name="forces" >
   <v>       0.00000000      -0.00000000       0.00000000 </v>
   <v>       0.00000000      -0.00000000       0.00000000 </v>
   <v>       0.00000000      -0.00000000       0.00000000 </v>
   <v>       0.00000000      -0.00000000       0.00000000 </v>
   <v>       0.00000000      -0.00000000       0.00000000 </v>
   <v>       0.00000000      -0.00000000       0.00000000 </v>
   <v>       0.00000000      -0.00000000       0.00000000 </v>
   <v>       0.00000000      -0.00000000       0.00000000 </v>
   <v>       0.00000000      -0.00000000       0.00000000 </v>
   <v>       0.00000000      -0.00000000       0.00000000 </v>
   <v>       0.00000000      -0.00000000       0.00000000 </v>
   <v>       0.00000000      -0.00000000       0.00000000 </v>
   <v>       0.00000000      -0.00000000       0.00000000 </v>
   <v>       0.00000000      -0.00000000       0.00000000 </v>
   <v>       0.00000000      -0.00000000       0.00000000 </v>
   <v>       0.00000000      -0.00000000       0.00000000 </v>
   <v>      -0.09002103      -0.00000000      -0.00000000 </v>
   <v>       0.09002103      -0.00000000       0.00000000 </v>
   <v>       0.09002103      -0.00000000       0.00000000 </v>
   <v>      -0.09002103      -0.00000000      -0.00000000 </v>
   <v>       0.09002103      -0.00000000       0.00000000 </v>
   <v>      -0.09002103      -0.00000000      -0.00000000 </v>
   <v>      -0.09002103      -0.00000000      -0.00000000 </v>
   <v>       0.09002103      -0.00000000       0.00000000 </v>
   <v>       0.00000000      -0.00000000       0.00000000 </v>
   <v>       0.00000000      -0.00000000       0.00000000 </v>
   <v>       0.00000000      -0.00000000       0.00000000 </v>
   <v>       0.00000000      -0.00000000       0.00000000 </v>
   <v>       0.00000000      -0.00000000       0.00000000 </v>
   <v>       0.00000000      -0.00000000       0.00000000 </v>
   <v>       0.00000000      -0.00000000       0.00000000 </v>
   <v>       0.00000000      -0.00000000       0.00000000 </v>
   <v>       0.00000000       0.09002103       0.00000000 </v>
   <v>       0.00000000      -0.09002103      -0.00000000 </v>
   <v>       0.00000000      -0.09002103      -0.00000000 </v>
   <v>       0.00000000       0.09002103       0.00000000 </v>
   <v>       0.00000000      -0.09002103      -0.00000000 </v>
   <v>       0.00000000       0.09002103      -0.00000000 </v>
   <v>       0.00000000       0.09002103       0.00000000 </v>
   <v>       0.00000000      -0.09002103      -0.00000000 </v>
  </varray>
  <varray name="stress" >
   <v>       0.81878233       0.00000000       0.00000000 </v>
   <v>       0.00000000       0.81878233      -0.00000000 </v>
   <v>       0.00000000       0.00000000       5.89977859 </v>
  </varray>
  <energy>
   <i name="e_fr_energy">  -1429.23246446 </i>
   <i name="e_wo_entrp">  -1429.23246446 </i>
   <i name="e_0_energy">     -0.00000000 </i>
  </energy>
  <time name="totalsc">  363.69  364.66</time>
  <eigenvalues>
   <array>
    <dimension dim="1">band</dimension>
    <dimension dim="2">kpoint</dimension>
    <dimension dim="3">spin</dimension>
    <field>eigene</field>
    <field>occ</field>
    <set>
     <set comment="spin 1">
      <set comment="kpoint 1">
       <r>  -21.0188    1.0000 </r>
       <r>  -21.0177    1.0000 </r>
       <r>  -21.0177    1.0000 </r>
       <r>  -21.0174    1.0000 </r>
       <r>  -21.0168    1.0000 </r>
       <r>  -21.0165    1.0000 </r>
       <r>  -21.0165    1.0000 </r>
       <r>  -21.0152    1.0000 </r>
       <r>  -16.3409    1.0000 </r>
       <r>  -16.3375    1.0000 </r>
       <r>  -16.3375    1.0000 </r>
       <r>  -16.3242    1.0000 </r>
       <r>  -16.3241    1.0000 </r>
       <r>  -16.3101    1.0000 </r>
       <r>  -16.2932    1.0000 </r>
       <r>  -16.2932    1.0000 </r>
       <r>  -16.2614    1.0000 </r>
       <r>  -16.2594    1.0000 </r>
       <r>  -16.2594    1.0000 </r>
       <r>  -16.2191    1.0000 </r>
       <r>  -16.2177    1.0000 </r>
       <r>  -16.2177    1.0000 </r>
       <r>  -16.2126    1.0000 </r>
       <r>  -16.2122    1.0000 </r>
       <r>  -16.1258    1.0000 </r>
       <r>  -16.1255    1.0000 </r>
       <r>  -16.1249    1.0000 </r>
       <r>  -16.1249    1.0000 </r>
       <r>  -16.1247    1.0000 </r>
       <r>  -16.1247    1.0000 </r>
       <r>  -16.1242    1.0000 </r>
       <r>  -16.1242    1.0000 </r>
       <r>  -16.1238    1.0000 </r>
       <r>  -16.1238    1.0000 </r>
       <r>  -16.1237    1.0000 </r>
       <r>  -16.1236    1.0000 </r>
       <r>  -16.1233    1.0000 </r>
       <r>  -16.1233    1.0000 </r>
       <r>  -16.1232    1.0000 </r>
       <r>  -16.1232    1.0000 </r>
       <r>  -16.1230    1.0000 </r>
       <r>  -16.1230    1.0000 </r>
       <r>  -16.1229    1.0000 </r>
       <r>  -16.1229    1.0000 </r>
       <r>  -16.1220    1.0000 </r>
       <r>  -16.1220    1.0000 </r>
       <r>  -16.1219    1.0000 </r>
       <r>  -16.1219    1.0000 </r>
       <r>  -14.3820    1.0000 </r>
       <r>  -14.1702    1.0000 </r>
       <r>  -14.1702    1.0000 </r>
       <r>  -14.1494    1.0000 </r>
       <r>  -14.0283    1.0000 </r>
       <r>  -14.0283    1.0000 </r>
       <r>  -14.0271    1.0000 </r>
       <r>  -14.0239    1.0000 </r>
       <r>  -13.9900    1.0000 </r>
       <r>  -13.9900    1.0000 </r>
       <r>  -13.9840    1.0000 </r>
       <r>  -13.9840    1.0000 </r>
       <r>  -13.9839    1.0000 </r>
       <r>  -13.9839    1.0000 </r>
       <r>  -13.9798    1.0000 </r>
       <r>  -13.9798    1.0000 </r>
       <r>  -13.9356    1.0000 </r>
       <r>  -13.9055    1.0000 </r>
       <r>  -13.9055    1.0000 </r>
       <r>  -13.6577    1.0000 </r>
       <r>  -13.6567    1.0000 </r>
       <r>  -13.6527    1.0000 </r>
       <r>  -13.6527    1.0000 </r>
       <r>  -13.6525    1.0000 </r>
       <r>   -8.2420    1.0000 </r>
       <r>   -7.6812    1.0000 </r>
       <r>   -7.6812    1.0000 </r>
       <r>   -7.6030    1.0000 </r>
       <r>   -7.4214    1.0000 </r>
       <r>   -7.4214    1.0000 </r>
       <r>   -7.3956    1.0000 </r>
       <r>   -7.3953    1.0000 </r>
       <r>   -7.3953    1.0000 </r>
       <r>   -7.3910    1.0000 </r>
       <r>   -7.3910    1.0000 </r>
       <r>   -7.3801    1.0000 </r>
       <r>   -7.3801    1.0000 </r>
       <r>   -7.3735    1.0000 </r>
       <r>   -7.3732    1.0000 </r>
       <r>   -7.3732    1.0000 </r>
       <r>   -7.3716    1.0000 </r>
       <r>   -7.3716    1.0000 </r>
       <r>   -7.3679    1.0000 </r>
       <r>   -7.3679    1.0000 </r>
       <r>   -7.3630    1.0000 </r>
       <r>   -7.3630    1.0000 </r>
       <r>   -7.3600    1.0000 </r>
       <r>   -7.3600    1.0000 </r>
       <r>   -7.3589    1.0000 </r>
       <r>   -7.3589    1.0000 </r>
       <r>   -7.3525    1.0000 </r>
       <r>   -7.3501    1.0000 </r>
       <r>   -7.0630    1.0000 </r>
       <r>   -6.9902    1.0000 </r>
       <r>   -6.9902    1.0000 </r>
       <r>   -6.2757    1.0000 </r>
       <r>   -3.4457    1.0000 </r>
       <r>   -3.3617    1.0000 </r>
       <r>   -3.3617    1.0000 </r>
       <r>   -3.3611    1.0000 </r>
       <r>   -3.3611    1.0000 </r>
       <r>   -3.2716    1.0000 </r>
       <r>   -3.2716    1.0000 </r>
       <r>   -3.2703    1.0000 </r>
       <r>   -3.2703    1.0000 </r>
       <r>   -3.2224    1.0000 </r>
       <r>   -3.1103    1.0000 </r>
       <r>   -3.1103    1.0000 </r>
       <r>   -2.1469    1.0000 </r>
       <r>   -2.1469    1.0000 </r>
       <r>   -2.1263    1.0000 </r>
       <r>   -1.9464    1.0000 </r>
       <r>   -1.9464    1.0000 </r>
       <r>   -1.9182    1.0000 </r>
       <r>   -1.8981    1.0000 </r>
       <r>   -1.8981    1.0000 </r>
       <r>   -1.8671    1.0000 </r>
       <r>   -1.6501    1.0000 </r>
       <r>   -1.6501    1.0000 </r>
       <r>   -1.5815    1.0000 </r>
       <r>   -1.5815    1.0000 </r>
       <r>   -1.5214    1.0000 </r>
       <r>   -1.5214    1.0000 </r>
       <r>   -1.4987    1.0000 </r>
       <r>   -1.4987    1.0000 </r>
       <r>   -1.4855    1.0000 </r>
       <r>   -1.4855    1.0000 </r>
       <r>   -1.4056    1.0000 </r>
       <r>   -1.4056    1.0000 </r>
       <r>   -1.3956    1.0000 </r>
       <r>   -1.3956    1.0000 </r>
       <r>   -1.3862    1.0000 </r>
       <r>   -1.3862    1.0000 </r>
       <r>   -1.3746    1.0000 </r>
       <r>   -1.3746    1.0000 </r>
       <r>   -1.3644    1.0000 </r>
       <r>   -1.3614    1.0000 </r>
       <r>   -1.3596    1.0000 </r>
       <r>   -1.3459    1.0000 </r>
       <r>   -1.3384    1.0000 </r>
       <r>   -1.3384    1.0000 </r>
       <r>   -1.2884    1.0000 </r>
       <r>   -1.2884    1.0000 </r>
       <r>   -1.2834    1.0000 </r>
       <r>   -1.2834    1.0000 </r>
       <r>   -1.2811    1.0000 </r>
       <r>   -1.2529    1.0000 </r>
       <r>   -1.2529    1.0000 </r>
       <r>   -1.2505    1.0000 </r>
       <r>   -1.2505    1.0000 </r>
       <r>   -1.1910    1.0000 </r>
       <r>   -1.1910    1.0000 </r>
       <r>   -1.1379    1.0000 </r>
       <r>   -1.1251    1.0000 </r>
       <r>   -1.1251    1.0000 </r>
       <r>   -0.8468    1.0000 </r>
       <r>   -0.8203    1.0000 </r>
       <r>   -0.7997    1.0000 </r>
       <r>   -0.7997    1.0000 </r>
       <r>   -0.7978    1.0000 </r>
       <r>   -0.7978    1.0000 </r>
       <r>   -0.5717    1.0000 </r>
       <r>   -0.5717    1.0000 </r>
       <r>   -0.4216    1.0000 </r>
       <r>    0.1420    1.0000 </r>
       <r>    0.1939    1.0000 </r>
       <r>    0.1939    1.0000 </r>
       <r>    0.8683    1.0000 </r>
       <r>    2.8196    0.0000 </r>
       <r>    2.8391    0.0000 </r>
       <r>    2.8391    0.0000 </r>
       <r>    3.2770    0.0000 </r>
       <r>    3.2770    0.0000 </r>
       <r>    3.3028    0.0000 </r>
       <r>    3.3028    0.0000 </r>
       <r>    3.3232    0.0000 </r>
       <r>    3.3232    0.0000 </r>
       <r>    3.7496    0.0000 </r>
       <r>    3.7719    0.0000 </r>
       <r>    3.7719    0.0000 </r>
       <r>    4.6091    0.0000 </r>
       <r>    5.5530    0.0000 </r>
       <r>    5.7717    0.0000 </r>
       <r>    5.9399    0.0000 </r>
       <r>    5.9823    0.0000 </r>
       <r>    5.9823    0.0000 </r>
       <r>    6.1057    0.0000 </r>
       <r>    6.1057    0.0000 </r>
       <r>    6.2249    0.0000 </r>
       <r>    6.2712    0.0000 </r>
       <r>    6.4368    0.0000 </r>
       <r>    6.4419    0.0000 </r>
       <r>    6.4419    0.0000 </r>
       <r>    6.4626    0.0000 </r>
       <r>    6.4626    0.0000 </r>
       <r>    6.4637    0.0000 </r>
       <r>    6.4637    0.0000 </r>
       <r>    6.5430    0.0000 </r>
       <r>    6.5574    0.0000 </r>
       <r>    6.5574    0.0000 </r>
       <r>    6.6197    0.0000 </r>
       <r>    6.6224    0.0000 </r>
       <r>    6.6686    0.0000 </r>
       <r>    6.7353    0.0000 </r>
       <r>    6.7429    0.0000 </r>
       <r>    6.7544    0.0000 </r>
       <r>    6.7662    0.0000 </r>
       <r>    6.7787    0.0000 </r>
      </set>
      <set comment="kpoint 2">
       <r>  -21.0184    1.0000 </r>
       <r>  -21.0184    1.0000 </r>
       <r>  -21.0171    1.0000 </r>
       <r>  -21.0171    1.0000 </r>
       <r>  -21.0168    1.0000 </r>
       <r>  -21.0168    1.0000 </r>
       <r>  -21.0160    1.0000 </r>
       <r>  -21.0160    1.0000 </r>
       <r>  -16.3382    1.0000 </r>
       <r>  -16.3382    1.0000 </r>
       <r>  -16.3201    1.0000 </r>
       <r>  -16.3201    1.0000 </r>
       <r>  -16.3035    1.0000 </r>
       <r>  -16.3035    1.0000 </r>
       <r>  -16.2934    1.0000 </r>
       <r>  -16.2934    1.0000 </r>
       <r>  -16.2548    1.0000 </r>
       <r>  -16.2548    1.0000 </r>
       <r>  -16.2451    1.0000 </r>
       <r>  -16.2451    1.0000 </r>
       <r>  -16.2401    1.0000 </r>
       <r>  -16.2401    1.0000 </r>
       <r>  -16.2175    1.0000 </r>
       <r>  -16.2175    1.0000 </r>
       <r>  -16.1253    1.0000 </r>
       <r>  -16.1253    1.0000 </r>
       <r>  -16.1252    1.0000 </r>
       <r>  -16.1252    1.0000 </r>
       <r>  -16.1243    1.0000 </r>
       <r>  -16.1243    1.0000 </r>
       <r>  -16.1242    1.0000 </r>
       <r>  -16.1242    1.0000 </r>
       <r>  -16.1240    1.0000 </r>
       <r>  -16.1240    1.0000 </r>
       <r>  -16.1236    1.0000 </r>
       <r>  -16.1236    1.0000 </r>
       <r>  -16.1235    1.0000 </r>
       <r>  -16.1235    1.0000 </r>
       <r>  -16.1230    1.0000 </r>
       <r>  -16.1230    1.0000 </r>
       <r>  -16.1228    1.0000 </r>
       <r>  -16.1228    1.0000 </r>
       <r>  -16.1226    1.0000 </r>
       <r>  -16.1226    1.0000 </r>
       <r>  -16.1223    1.0000 </r>
       <r>  -16.1223    1.0000 </r>
       <r>  -16.1221    1.0000 </r>
       <r>  -16.1221    1.0000 </r>
       <r>  -14.3135    1.0000 </r>
       <r>  -14.3135    1.0000 </r>
       <r>  -14.1190    1.0000 </r>
       <r>  -14.1190    1.0000 </r>
       <r>  -14.1014    1.0000 </r>
       <r>  -14.1014    1.0000 </r>
       <r>  -14.0277    1.0000 </r>
       <r>  -14.0277    1.0000 </r>
       <r>  -14.0261    1.0000 </r>
       <r>  -14.0261    1.0000 </r>
       <r>  -13.9850    1.0000 </r>
       <r>  -13.9850    1.0000 </r>
       <r>  -13.9838    1.0000 </r>
       <r>  -13.9838    1.0000 </r>
       <r>  -13.9417    1.0000 </r>
       <r>  -13.9417    1.0000 </r>
       <r>  -13.7839    1.0000 </r>
       <r>  -13.7839    1.0000 </r>
       <r>  -13.7511    1.0000 </r>
       <r>  -13.7511    1.0000 </r>
       <r>  -13.7451    1.0000 </r>
       <r>  -13.7451    1.0000 </r>
       <r>  -13.6549    1.0000 </r>
       <r>  -13.6549    1.0000 </r>
       <r>   -7.9872    1.0000 </r>
       <r>   -7.9872    1.0000 </r>
       <r>   -7.4374    1.0000 </r>
       <r>   -7.4374    1.0000 </r>
       <r>   -7.4084    1.0000 </r>
       <r>   -7.4084    1.0000 </r>
       <r>   -7.3926    1.0000 </r>
       <r>   -7.3926    1.0000 </r>
       <r>   -7.3844    1.0000 </r>
       <r>   -7.3844    1.0000 </r>
       <r>   -7.3842    1.0000 </r>
       <r>   -7.3842    1.0000 </r>
       <r>   -7.3811    1.0000 </r>
       <r>   -7.3811    1.0000 </r>
       <r>   -7.3730    1.0000 </r>
       <r>   -7.3730    1.0000 </r>
       <r>   -7.3717    1.0000 </r>
       <r>   -7.3717    1.0000 </r>
       <r>   -7.3680    1.0000 </r>
       <r>   -7.3680    1.0000 </r>
       <r>   -7.3668    1.0000 </r>
       <r>   -7.3668    1.0000 </r>
       <r>   -7.3661    1.0000 </r>
       <r>   -7.3661    1.0000 </r>
       <r>   -7.3549    1.0000 </r>
       <r>   -7.3549    1.0000 </r>
       <r>   -7.3433    1.0000 </r>
       <r>   -7.3433    1.0000 </r>
       <r>   -7.3337    1.0000 </r>
       <r>   -7.3337    1.0000 </r>
       <r>   -6.6937    1.0000 </r>
       <r>   -6.6937    1.0000 </r>
       <r>   -3.4047    1.0000 </r>
       <r>   -3.4047    1.0000 </r>
       <r>   -3.3150    1.0000 </r>
       <r>   -3.3150    1.0000 </r>
       <r>   -3.2953    1.0000 </r>
       <r>   -3.2953    1.0000 </r>
       <r>   -3.2002    1.0000 </r>
       <r>   -3.2002    1.0000 </r>
       <r>   -2.4703    1.0000 </r>
       <r>   -2.4703    1.0000 </r>
       <r>   -2.4436    1.0000 </r>
       <r>   -2.4436    1.0000 </r>
       <r>   -2.4200    1.0000 </r>
       <r>   -2.4200    1.0000 </r>
       <r>   -2.2865    1.0000 </r>
       <r>   -2.2865    1.0000 </r>
       <r>   -2.0480    1.0000 </r>
       <r>   -2.0480    1.0000 </r>
       <r>   -2.0189    1.0000 </r>
       <r>   -2.0189    1.0000 </r>
       <r>   -1.9953    1.0000 </r>
       <r>   -1.9953    1.0000 </r>
       <r>   -1.8348    1.0000 </r>
       <r>   -1.8348    1.0000 </r>
       <r>   -1.7988    1.0000 </r>
       <r>   -1.7988    1.0000 </r>
       <r>   -1.5719    1.0000 </r>
       <r>   -1.5719    1.0000 </r>
       <r>   -1.5431    1.0000 </r>
       <r>   -1.5431    1.0000 </r>
       <r>   -1.4620    1.0000 </r>
       <r>   -1.4620    1.0000 </r>
       <r>   -1.4212    1.0000 </r>
       <r>   -1.4212    1.0000 </r>
       <r>   -1.3893    1.0000 </r>
       <r>   -1.3893    1.0000 </r>
       <r>   -1.3693    1.0000 </r>
       <r>   -1.3693    1.0000 </r>
       <r>   -1.3409    1.0000 </r>
       <r>   -1.3409    1.0000 </r>
       <r>   -1.3299    1.0000 </r>
       <r>   -1.3299    1.0000 </r>
       <r>   -1.2858    1.0000 </r>
       <r>   -1.2858    1.0000 </r>
       <r>   -1.2698    1.0000 </r>
       <r>   -1.2698    1.0000 </r>
       <r>   -1.2683    1.0000 </r>
       <r>   -1.2683    1.0000 </r>
       <r>   -1.2447    1.0000 </r>
       <r>   -1.2447    1.0000 </r>
       <r>   -1.1986    1.0000 </r>
       <r>   -1.1986    1.0000 </r>
       <r>   -1.1817    1.0000 </r>
       <r>   -1.1817    1.0000 </r>
       <r>   -1.1616    1.0000 </r>
       <r>   -1.1616    1.0000 </r>
       <r>   -1.0483    1.0000 </r>
       <r>   -1.0483    1.0000 </r>
       <r>   -1.0157    1.0000 </r>
       <r>   -1.0157    1.0000 </r>
       <r>   -0.9967    1.0000 </r>
       <r>   -0.9967    1.0000 </r>
       <r>   -0.9533    1.0000 </r>
       <r>   -0.9533    1.0000 </r>
       <r>   -0.7980    1.0000 </r>
       <r>   -0.7980    1.0000 </r>
       <r>   -0.3911    1.0000 </r>
       <r>   -0.3911    1.0000 </r>
       <r>   -0.2778    1.0000 </r>
       <r>   -0.2778    1.0000 </r>
       <r>    0.3491    1.0000 </r>
       <r>    0.3491    1.0000 </r>
       <r>    3.0650    0.0000 </r>
       <r>    3.0650    0.0000 </r>
       <r>    3.0657    0.0000 </r>
       <r>    3.0657    0.0000 </r>
       <r>    3.5224    0.0000 </r>
       <r>    3.5224    0.0000 </r>
       <r>    3.5250    0.0000 </r>
       <r>    3.5250    0.0000 </r>
       <r>    4.4920    0.0000 </r>
       <r>    4.4920    0.0000 </r>
       <r>    4.9309    0.0000 </r>
       <r>    4.9309    0.0000 </r>
       <r>    4.9398    0.0000 </r>
       <r>    4.9398    0.0000 </r>
       <r>    5.1143    0.0000 </r>
       <r>    5.1143    0.0000 </r>
       <r>    5.4658    0.0000 </r>
       <r>    5.4658    0.0000 </r>
       <r>    5.9476    0.0000 </r>
       <r>    5.9476    0.0000 </r>
       <r>    6.1953    0.0000 </r>
       <r>    6.1953    0.0000 </r>
       <r>    6.2070    0.0000 </r>
       <r>    6.2070    0.0000 </r>
       <r>    6.3870    0.0000 </r>
       <r>    6.3870    0.0000 </r>
       <r>    6.4065    0.0000 </r>
       <r>    6.4065    0.0000 </r>
       <r>    6.5104    0.0000 </r>
       <r>    6.5106    0.0000 </r>
       <r>    6.5577    0.0000 </r>
       <r>    6.5582    0.0000 </r>
       <r>    6.5653    0.0000 </r>
       <r>    6.5653    0.0000 </r>
       <r>    6.6249    0.0000 </r>
       <r>    6.6257    0.0000 </r>
       <r>    6.7112    0.0000 </r>
       <r>    6.7158    0.0000 </r>
       <r>    6.7303    0.0000 </r>
       <r>    6.7342    0.0000 </r>
      </set>
      <set comment="kpoint 3">
       <r>  -21.0177    1.0000 </r>
       <r>  -21.0177    1.0000 </r>
       <r>  -21.0177    1.0000 </r>
       <r>  -21.0177    1.0000 </r>
       <r>  -21.0165    1.0000 </r>
       <r>  -21.0165    1.0000 </r>
       <r>  -21.0165    1.0000 </r>
       <r>  -21.0165    1.0000 </r>
       <r>  -16.3253    1.0000 </r>
       <r>  -16.3253    1.0000 </r>
       <r>  -16.3253    1.0000 </r>
       <r>  -16.3253    1.0000 </r>
       <r>  -16.2711    1.0000 </r>
       <r>  -16.2711    1.0000 </r>
       <r>  -16.2711    1.0000 </r>
       <r>  -16.2711    1.0000 </r>
       <r>  -16.2711    1.0000 </r>
       <r>  -16.2711    1.0000 </r>
       <r>  -16.2711    1.0000 </r>
       <r>  -16.2711    1.0000 </r>
       <r>  -16.2401    1.0000 </r>
       <r>  -16.2401    1.0000 </r>
       <r>  -16.2401    1.0000 </r>
       <r>  -16.2401    1.0000 </r>
       <r>  -16.1248    1.0000 </r>
       <r>  -16.1248    1.0000 </r>
       <r>  -16.1248    1.0000 </r>
       <r>  -16.1248    1.0000 </r>
       <r>  -16.1248    1.0000 </r>
       <r>  -16.1248    1.0000 </r>
       <r>  -16.1248    1.0000 </r>
       <r>  -16.1248    1.0000 </r>
       <r>  -16.1236    1.0000 </r>
       <r>  -16.1236    1.0000 </r>
       <r>  -16.1236    1.0000 </r>
       <r>  -16.1236    1.0000 </r>
       <r>  -16.1236    1.0000 </r>
       <r>  -16.1236    1.0000 </r>
       <r>  -16.1236    1.0000 </r>
       <r>  -16.1236    1.0000 </r>
       <r>  -16.1225    1.0000 </r>
       <r>  -16.1225    1.0000 </r>
       <r>  -16.1225    1.0000 </r>
       <r>  -16.1225    1.0000 </r>
       <r>  -16.1224    1.0000 </r>
       <r>  -16.1224    1.0000 </r>
       <r>  -16.1224    1.0000 </r>
       <r>  -16.1224    1.0000 </r>
       <r>  -14.2528    1.0000 </r>
       <r>  -14.2528    1.0000 </r>
       <r>  -14.2528    1.0000 </r>
       <r>  -14.2528    1.0000 </r>
       <r>  -14.0688    1.0000 </r>
       <r>  -14.0688    1.0000 </r>
       <r>  -14.0688    1.0000 </r>
       <r>  -14.0688    1.0000 </r>
       <r>  -14.0269    1.0000 </r>
       <r>  -14.0269    1.0000 </r>
       <r>  -14.0269    1.0000 </r>
       <r>  -14.0269    1.0000 </r>
       <r>  -13.8208    1.0000 </r>
       <r>  -13.8208    1.0000 </r>
       <r>  -13.8208    1.0000 </r>
       <r>  -13.8208    1.0000 </r>
       <r>  -13.8162    1.0000 </r>
       <r>  -13.8162    1.0000 </r>
       <r>  -13.8162    1.0000 </r>
       <r>  -13.8162    1.0000 </r>
       <r>  -13.7294    1.0000 </r>
       <r>  -13.7294    1.0000 </r>
       <r>  -13.7294    1.0000 </r>
       <r>  -13.7294    1.0000 </r>
       <r>   -7.7318    1.0000 </r>
       <r>   -7.7318    1.0000 </r>
       <r>   -7.7318    1.0000 </r>
       <r>   -7.7318    1.0000 </r>
       <r>   -7.3973    1.0000 </r>
       <r>   -7.3973    1.0000 </r>
       <r>   -7.3973    1.0000 </r>
       <r>   -7.3973    1.0000 </r>
       <r>   -7.3815    1.0000 </r>
       <r>   -7.3815    1.0000 </r>
       <r>   -7.3815    1.0000 </r>
       <r>   -7.3815    1.0000 </r>
       <r>   -7.3794    1.0000 </r>
       <r>   -7.3794    1.0000 </r>
       <r>   -7.3794    1.0000 </r>
       <r>   -7.3794    1.0000 </r>
       <r>   -7.3708    1.0000 </r>
       <r>   -7.3708    1.0000 </r>
       <r>   -7.3708    1.0000 </r>
       <r>   -7.3708    1.0000 </r>
       <r>   -7.3680    1.0000 </r>
       <r>   -7.3680    1.0000 </r>
       <r>   -7.3680    1.0000 </r>
       <r>   -7.3680    1.0000 </r>
       <r>   -7.3609    1.0000 </r>
       <r>   -7.3609    1.0000 </r>
       <r>   -7.3609    1.0000 </r>
       <r>   -7.3609    1.0000 </r>
       <r>   -7.0600    1.0000 </r>
       <r>   -7.0600    1.0000 </r>
       <r>   -7.0600    1.0000 </r>
       <r>   -7.0600    1.0000 </r>
       <r>   -3.3521    1.0000 </r>
       <r>   -3.3521    1.0000 </r>
       <r>   -3.3521    1.0000 </r>
       <r>   -3.3521    1.0000 </r>
       <r>   -2.6460    1.0000 </r>
       <r>   -2.6460    1.0000 </r>
       <r>   -2.6460    1.0000 </r>
       <r>   -2.6460    1.0000 </r>
       <r>   -2.5077    1.0000 </r>
       <r>   -2.5077    1.0000 </r>
       <r>   -2.5077    1.0000 </r>
       <r>   -2.5077    1.0000 </r>
       <r>   -2.2783    1.0000 </r>
       <r>   -2.2783    1.0000 </r>
       <r>   -2.2783    1.0000 </r>
       <r>   -2.2783    1.0000 </r>
       <r>   -2.2225    1.0000 </r>
       <r>   -2.2225    1.0000 </r>
       <r>   -2.2225    1.0000 </r>
       <r>   -2.2225    1.0000 </r>
       <r>   -2.0071    1.0000 </r>
       <r>   -2.0071    1.0000 </r>
       <r>   -2.0071    1.0000 </r>
       <r>   -2.0071    1.0000 </r>
       <r>   -1.8002    1.0000 </r>
       <r>   -1.8002    1.0000 </r>
       <r>   -1.8002    1.0000 </r>
       <r>   -1.8002    1.0000 </r>
       <r>   -1.5784    1.0000 </r>
       <r>   -1.5784    1.0000 </r>
       <r>   -1.5784    1.0000 </r>
       <r>   -1.5784    1.0000 </r>
       <r>   -1.5303    1.0000 </r>
       <r>   -1.5303    1.0000 </r>
       <r>   -1.5303    1.0000 </r>
       <r>   -1.5303    1.0000 </r>
       <r>   -1.3758    1.0000 </r>
       <r>   -1.3758    1.0000 </r>
       <r>   -1.3758    1.0000 </r>
       <r>   -1.3758    1.0000 </r>
       <r>   -1.2802    1.0000 </r>
       <r>   -1.2802    1.0000 </r>
       <r>   -1.2802    1.0000 </r>
       <r>   -1.2802    1.0000 </r>
       <r>   -1.2559    1.0000 </r>
       <r>   -1.2559    1.0000 </r>
       <r>   -1.2559    1.0000 </r>
       <r>   -1.2559    1.0000 </r>
       <r>   -1.1205    1.0000 </r>
       <r>   -1.1205    1.0000 </r>
       <r>   -1.1205    1.0000 </r>
       <r>   -1.1205    1.0000 </r>
       <r>   -1.1046    1.0000 </r>
       <r>   -1.1046    1.0000 </r>
       <r>   -1.1046    1.0000 </r>
       <r>   -1.1046    1.0000 </r>
       <r>   -1.0309    1.0000 </r>
       <r>   -1.0309    1.0000 </r>
       <r>   -1.0309    1.0000 </r>
       <r>   -1.0309    1.0000 </r>
       <r>   -0.9548    1.0000 </r>
       <r>   -0.9548    1.0000 </r>
       <r>   -0.9548    1.0000 </r>
       <r>   -0.9548    1.0000 </r>
       <r>   -0.9298    1.0000 </r>
       <r>   -0.9298    1.0000 </r>
       <r>   -0.9298    1.0000 </r>
       <r>   -0.9298    1.0000 </r>
       <r>   -0.1491    1.0000 </r>
       <r>   -0.1491    1.0000 </r>
       <r>   -0.1491    1.0000 </r>
       <r>   -0.1491    1.0000 </r>
       <r>    3.2958    0.0000 </r>
       <r>    3.2958    0.0000 </r>
       <r>    3.2958    0.0000 </r>
       <r>    3.2958    0.0000 </r>
       <r>    4.6038    0.0000 </r>
       <r>    4.6038    0.0000 </r>
       <r>    4.6038    0.0000 </r>
       <r>    4.6038    0.0000 </r>
       <r>    4.7267    0.0000 </r>
       <r>    4.7267    0.0000 </r>
       <r>    4.7267    0.0000 </r>
       <r>    4.7267    0.0000 </r>
       <r>    5.0770    0.0000 </r>
       <r>    5.0770    0.0000 </r>
       <r>    5.0770    0.0000 </r>
       <r>    5.0770    0.0000 </r>
       <r>    5.0987    0.0000 </r>
       <r>    5.0987    0.0000 </r>
       <r>    5.0987    0.0000 </r>
       <r>    5.0987    0.0000 </r>
       <r>    5.7996    0.0000 </r>
       <r>    5.7996    0.0000 </r>
       <r>    5.7996    0.0000 </r>
       <r>    5.7996    0.0000 </r>
       <r>    6.3565    0.0000 </r>
       <r>    6.3565    0.0000 </r>
       <r>    6.3565    0.0000 </r>
       <r>    6.3565    0.0000 </r>
       <r>    6.4221    0.0000 </r>
       <r>    6.4221    0.0000 </r>
       <r>    6.4221    0.0000 </r>
       <r>    6.4221    0.0000 </r>
       <r>    6.4757    0.0000 </r>
       <r>    6.4757    0.0000 </r>
       <r>    6.4757    0.0000 </r>
       <r>    6.4757    0.0000 </r>
       <r>    6.4795    0.0000 </r>
       <r>    6.4795    0.0000 </r>
       <r>    6.4795    0.0000 </r>
       <r>    6.4795    0.0000 </r>
      </set>
      <set comment="kpoint 4">
       <r>  -21.0182    1.0000 </r>
       <r>  -21.0182    1.0000 </r>
       <r>  -21.0169    1.0000 </r>
       <r>  -21.0169    1.0000 </r>
       <r>  -21.0169    1.0000 </r>
       <r>  -21.0169    1.0000 </r>
       <r>  -21.0162    1.0000 </r>
       <r>  -21.0162    1.0000 </r>
       <r>  -16.3243    1.0000 </r>
       <r>  -16.3243    1.0000 </r>
       <r>  -16.3091    1.0000 </r>
       <r>  -16.3091    1.0000 </r>
       <r>  -16.3091    1.0000 </r>
       <r>  -16.3091    1.0000 </r>
       <r>  -16.3018    1.0000 </r>
       <r>  -16.3018    1.0000 </r>
       <r>  -16.2660    1.0000 </r>
       <r>  -16.2660    1.0000 </r>
       <r>  -16.2454    1.0000 </r>
       <r>  -16.2454    1.0000 </r>
       <r>  -16.2454    1.0000 </r>
       <r>  -16.2454    1.0000 </r>
       <r>  -16.2125    1.0000 </r>
       <r>  -16.2125    1.0000 </r>
       <r>  -16.1259    1.0000 </r>
       <r>  -16.1259    1.0000 </r>
       <r>  -16.1246    1.0000 </r>
       <r>  -16.1246    1.0000 </r>
       <r>  -16.1246    1.0000 </r>
       <r>  -16.1246    1.0000 </r>
       <r>  -16.1239    1.0000 </r>
       <r>  -16.1239    1.0000 </r>
       <r>  -16.1236    1.0000 </r>
       <r>  -16.1236    1.0000 </r>
       <r>  -16.1236    1.0000 </r>
       <r>  -16.1236    1.0000 </r>
       <r>  -16.1235    1.0000 </r>
       <r>  -16.1235    1.0000 </r>
       <r>  -16.1235    1.0000 </r>
       <r>  -16.1235    1.0000 </r>
       <r>  -16.1226    1.0000 </r>
       <r>  -16.1226    1.0000 </r>
       <r>  -16.1226    1.0000 </r>
       <r>  -16.1226    1.0000 </r>
       <r>  -16.1223    1.0000 </r>
       <r>  -16.1223    1.0000 </r>
       <r>  -16.1223    1.0000 </r>
       <r>  -16.1223    1.0000 </r>
       <r>  -14.3139    1.0000 </r>
       <r>  -14.3139    1.0000 </r>
       <r>  -14.1264    1.0000 </r>
       <r>  -14.1264    1.0000 </r>
       <r>  -14.1264    1.0000 </r>
       <r>  -14.1264    1.0000 </r>
       <r>  -13.9870    1.0000 </r>
       <r>  -13.9870    1.0000 </r>
       <r>  -13.9870    1.0000 </r>
       <r>  -13.9870    1.0000 </r>
       <r>  -13.9819    1.0000 </r>
       <r>  -13.9819    1.0000 </r>
       <r>  -13.9819    1.0000 </r>
       <r>  -13.9819    1.0000 </r>
       <r>  -13.9784    1.0000 </r>
       <r>  -13.9784    1.0000 </r>
       <r>  -13.7929    1.0000 </r>
       <r>  -13.7929    1.0000 </r>
       <r>  -13.7506    1.0000 </r>
       <r>  -13.7506    1.0000 </r>
       <r>  -13.7506    1.0000 </r>
       <r>  -13.7506    1.0000 </r>
       <r>  -13.6552    1.0000 </r>
       <r>  -13.6552    1.0000 </r>
       <r>   -7.9577    1.0000 </r>
       <r>   -7.9577    1.0000 </r>
       <r>   -7.4080    1.0000 </r>
       <r>   -7.4080    1.0000 </r>
       <r>   -7.4080    1.0000 </r>
       <r>   -7.4080    1.0000 </r>
       <r>   -7.4070    1.0000 </r>
       <r>   -7.4070    1.0000 </r>
       <r>   -7.4070    1.0000 </r>
       <r>   -7.4070    1.0000 </r>
       <r>   -7.3837    1.0000 </r>
       <r>   -7.3837    1.0000 </r>
       <r>   -7.3837    1.0000 </r>
       <r>   -7.3837    1.0000 </r>
       <r>   -7.3750    1.0000 </r>
       <r>   -7.3750    1.0000 </r>
       <r>   -7.3750    1.0000 </r>
       <r>   -7.3750    1.0000 </r>
       <r>   -7.3731    1.0000 </r>
       <r>   -7.3731    1.0000 </r>
       <r>   -7.3658    1.0000 </r>
       <r>   -7.3658    1.0000 </r>
       <r>   -7.3658    1.0000 </r>
       <r>   -7.3658    1.0000 </r>
       <r>   -7.3612    1.0000 </r>
       <r>   -7.3612    1.0000 </r>
       <r>   -7.3353    1.0000 </r>
       <r>   -7.3353    1.0000 </r>
       <r>   -7.3353    1.0000 </r>
       <r>   -7.3353    1.0000 </r>
       <r>   -6.7441    1.0000 </r>
       <r>   -6.7441    1.0000 </r>
       <r>   -3.3178    1.0000 </r>
       <r>   -3.3178    1.0000 </r>
       <r>   -3.3178    1.0000 </r>
       <r>   -3.3178    1.0000 </r>
       <r>   -3.1951    1.0000 </r>
       <r>   -3.1951    1.0000 </r>
       <r>   -3.1951    1.0000 </r>
       <r>   -3.1951    1.0000 </r>
       <r>   -2.4555    1.0000 </r>
       <r>   -2.4555    1.0000 </r>
       <r>   -2.4283    1.0000 </r>
       <r>   -2.4283    1.0000 </r>
       <r>   -2.4283    1.0000 </r>
       <r>   -2.4283    1.0000 </r>
       <r>   -2.3029    1.0000 </r>
       <r>   -2.3029    1.0000 </r>
       <r>   -2.0395    1.0000 </r>
       <r>   -2.0395    1.0000 </r>
       <r>   -2.0395    1.0000 </r>
       <r>   -2.0395    1.0000 </r>
       <r>   -2.0268    1.0000 </r>
       <r>   -2.0268    1.0000 </r>
       <r>   -1.8412    1.0000 </r>
       <r>   -1.8412    1.0000 </r>
       <r>   -1.8412    1.0000 </r>
       <r>   -1.8412    1.0000 </r>
       <r>   -1.5715    1.0000 </r>
       <r>   -1.5715    1.0000 </r>
       <r>   -1.5715    1.0000 </r>
       <r>   -1.5715    1.0000 </r>
       <r>   -1.3667    1.0000 </r>
       <r>   -1.3667    1.0000 </r>
       <r>   -1.3667    1.0000 </r>
       <r>   -1.3667    1.0000 </r>
       <r>   -1.3639    1.0000 </r>
       <r>   -1.3639    1.0000 </r>
       <r>   -1.3639    1.0000 </r>
       <r>   -1.3639    1.0000 </r>
       <r>   -1.3634    1.0000 </r>
       <r>   -1.3634    1.0000 </r>
       <r>   -1.3634    1.0000 </r>
       <r>   -1.3634    1.0000 </r>
       <r>   -1.3629    1.0000 </r>
       <r>   -1.3629    1.0000 </r>
       <r>   -1.3168    1.0000 </r>
       <r>   -1.3168    1.0000 </r>
       <r>   -1.2670    1.0000 </r>
       <r>   -1.2670    1.0000 </r>
       <r>   -1.2670    1.0000 </r>
       <r>   -1.2670    1.0000 </r>
       <r>   -1.1839    1.0000 </r>
       <r>   -1.1839    1.0000 </r>
       <r>   -1.1839    1.0000 </r>
       <r>   -1.1839    1.0000 </r>
       <r>   -1.1411    1.0000 </r>
       <r>   -1.1411    1.0000 </r>
       <r>   -1.0190    1.0000 </r>
       <r>   -1.0190    1.0000 </r>
       <r>   -1.0190    1.0000 </r>
       <r>   -1.0190    1.0000 </r>
       <r>   -1.0027    1.0000 </r>
       <r>   -1.0027    1.0000 </r>
       <r>   -1.0027    1.0000 </r>
       <r>   -1.0027    1.0000 </r>
       <r>   -0.7727    1.0000 </r>
       <r>   -0.7727    1.0000 </r>
       <r>   -0.3939    1.0000 </r>
       <r>   -0.3939    1.0000 </r>
       <r>   -0.3939    1.0000 </r>
       <r>   -0.3939    1.0000 </r>
       <r>    0.2930    1.0000 </r>
       <r>    0.2930    1.0000 </r>
       <r>    3.0841    0.0000 </r>
       <r>    3.0841    0.0000 </r>
       <r>    3.0841    0.0000 </r>
       <r>    3.0841    0.0000 </r>
       <r>    3.5242    0.0000 </r>
       <r>    3.5242    0.0000 </r>
       <r>    3.5242    0.0000 </r>
       <r>    3.5242    0.0000 </r>
       <r>    4.6212    0.0000 </r>
       <r>    4.6212    0.0000 </r>
       <r>    5.0591    0.0000 </r>
       <r>    5.0591    0.0000 </r>
       <r>    5.0591    0.0000 </r>
       <r>    5.0591    0.0000 </r>
       <r>    5.1246    0.0000 </r>
       <r>    5.1246    0.0000 </r>
       <r>    5.5661    0.0000 </r>
       <r>    5.5661    0.0000 </r>
       <r>    5.8883    0.0000 </r>
       <r>    5.8883    0.0000 </r>
       <r>    6.0992    0.0000 </r>
       <r>    6.0992    0.0000 </r>
       <r>    6.1712    0.0000 </r>
       <r>    6.1712    0.0000 </r>
       <r>    6.1712    0.0000 </r>
       <r>    6.1712    0.0000 </r>
       <r>    6.5260    0.0000 </r>
       <r>    6.5260    0.0000 </r>
       <r>    6.5264    0.0000 </r>
       <r>    6.5272    0.0000 </r>
       <r>    6.5471    0.0000 </r>
       <r>    6.5471    0.0000 </r>
       <r>    6.5471    0.0000 </r>
       <r>    6.5474    0.0000 </r>
       <r>    6.6752    0.0000 </r>
       <r>    6.6752    0.0000 </r>
       <r>    6.6777    0.0000 </r>
       <r>    6.6812    0.0000 </r>
       <r>    6.7088    0.0000 </r>
       <r>    6.7451    0.0000 </r>
      </set>
      <set comment="kpoint 5">
       <r>  -21.0176    1.0000 </r>
       <r>  -21.0176    1.0000 </r>
       <r>  -21.0176    1.0000 </r>
       <r>  -21.0176    1.0000 </r>
       <r>  -21.0166    1.0000 </r>
       <r>  -21.0166    1.0000 </r>
       <r>  -21.0166    1.0000 </r>
       <r>  -21.0166    1.0000 </r>
       <r>  -16.3113    1.0000 </r>
       <r>  -16.3113    1.0000 </r>
       <r>  -16.3113    1.0000 </r>
       <r>  -16.3113    1.0000 </r>
       <r>  -16.2811    1.0000 </r>
       <r>  -16.2811    1.0000 </r>
       <r>  -16.2811    1.0000 </r>
       <r>  -16.2811    1.0000 </r>
       <r>  -16.2796    1.0000 </r>
       <r>  -16.2796    1.0000 </r>
       <r>  -16.2796    1.0000 </r>
       <r>  -16.2796    1.0000 </r>
       <r>  -16.2362    1.0000 </r>
       <r>  -16.2362    1.0000 </r>
       <r>  -16.2362    1.0000 </r>
       <r>  -16.2362    1.0000 </r>
       <r>  -16.1253    1.0000 </r>
       <r>  -16.1253    1.0000 </r>
       <r>  -16.1253    1.0000 </r>
       <r>  -16.1253    1.0000 </r>
       <r>  -16.1242    1.0000 </r>
       <r>  -16.1242    1.0000 </r>
       <r>  -16.1242    1.0000 </r>
       <r>  -16.1242    1.0000 </r>
       <r>  -16.1236    1.0000 </r>
       <r>  -16.1236    1.0000 </r>
       <r>  -16.1236    1.0000 </r>
       <r>  -16.1236    1.0000 </r>
       <r>  -16.1231    1.0000 </r>
       <r>  -16.1231    1.0000 </r>
       <r>  -16.1231    1.0000 </r>
       <r>  -16.1231    1.0000 </r>
       <r>  -16.1230    1.0000 </r>
       <r>  -16.1230    1.0000 </r>
       <r>  -16.1230    1.0000 </r>
       <r>  -16.1230    1.0000 </r>
       <r>  -16.1225    1.0000 </r>
       <r>  -16.1225    1.0000 </r>
       <r>  -16.1225    1.0000 </r>
       <r>  -16.1225    1.0000 </r>
       <r>  -14.2546    1.0000 </r>
       <r>  -14.2546    1.0000 </r>
       <r>  -14.2546    1.0000 </r>
       <r>  -14.2546    1.0000 </r>
       <r>  -14.0914    1.0000 </r>
       <r>  -14.0914    1.0000 </r>
       <r>  -14.0914    1.0000 </r>
       <r>  -14.0914    1.0000 </r>
       <r>  -13.9845    1.0000 </r>
       <r>  -13.9845    1.0000 </r>
       <r>  -13.9845    1.0000 </r>
       <r>  -13.9845    1.0000 </r>
       <r>  -13.8322    1.0000 </r>
       <r>  -13.8322    1.0000 </r>
       <r>  -13.8322    1.0000 </r>
       <r>  -13.8322    1.0000 </r>
       <r>  -13.8262    1.0000 </r>
       <r>  -13.8262    1.0000 </r>
       <r>  -13.8262    1.0000 </r>
       <r>  -13.8262    1.0000 </r>
       <r>  -13.7253    1.0000 </r>
       <r>  -13.7253    1.0000 </r>
       <r>  -13.7253    1.0000 </r>
       <r>  -13.7253    1.0000 </r>
       <r>   -7.7018    1.0000 </r>
       <r>   -7.7018    1.0000 </r>
       <r>   -7.7018    1.0000 </r>
       <r>   -7.7018    1.0000 </r>
       <r>   -7.3958    1.0000 </r>
       <r>   -7.3958    1.0000 </r>
       <r>   -7.3958    1.0000 </r>
       <r>   -7.3958    1.0000 </r>
       <r>   -7.3950    1.0000 </r>
       <r>   -7.3950    1.0000 </r>
       <r>   -7.3950    1.0000 </r>
       <r>   -7.3950    1.0000 </r>
       <r>   -7.3788    1.0000 </r>
       <r>   -7.3788    1.0000 </r>
       <r>   -7.3788    1.0000 </r>
       <r>   -7.3788    1.0000 </r>
       <r>   -7.3671    1.0000 </r>
       <r>   -7.3671    1.0000 </r>
       <r>   -7.3671    1.0000 </r>
       <r>   -7.3671    1.0000 </r>
       <r>   -7.3657    1.0000 </r>
       <r>   -7.3657    1.0000 </r>
       <r>   -7.3657    1.0000 </r>
       <r>   -7.3657    1.0000 </r>
       <r>   -7.3604    1.0000 </r>
       <r>   -7.3604    1.0000 </r>
       <r>   -7.3604    1.0000 </r>
       <r>   -7.3604    1.0000 </r>
       <r>   -7.1038    1.0000 </r>
       <r>   -7.1038    1.0000 </r>
       <r>   -7.1038    1.0000 </r>
       <r>   -7.1038    1.0000 </r>
       <r>   -3.2591    1.0000 </r>
       <r>   -3.2591    1.0000 </r>
       <r>   -3.2591    1.0000 </r>
       <r>   -3.2591    1.0000 </r>
       <r>   -2.6448    1.0000 </r>
       <r>   -2.6448    1.0000 </r>
       <r>   -2.6448    1.0000 </r>
       <r>   -2.6448    1.0000 </r>
       <r>   -2.5042    1.0000 </r>
       <r>   -2.5042    1.0000 </r>
       <r>   -2.5042    1.0000 </r>
       <r>   -2.5042    1.0000 </r>
       <r>   -2.2865    1.0000 </r>
       <r>   -2.2865    1.0000 </r>
       <r>   -2.2865    1.0000 </r>
       <r>   -2.2865    1.0000 </r>
       <r>   -2.2455    1.0000 </r>
       <r>   -2.2455    1.0000 </r>
       <r>   -2.2455    1.0000 </r>
       <r>   -2.2455    1.0000 </r>
       <r>   -2.0050    1.0000 </r>
       <r>   -2.0050    1.0000 </r>
       <r>   -2.0050    1.0000 </r>
       <r>   -2.0050    1.0000 </r>
       <r>   -1.7692    1.0000 </r>
       <r>   -1.7692    1.0000 </r>
       <r>   -1.7692    1.0000 </r>
       <r>   -1.7692    1.0000 </r>
       <r>   -1.6085    1.0000 </r>
       <r>   -1.6085    1.0000 </r>
       <r>   -1.6085    1.0000 </r>
       <r>   -1.6085    1.0000 </r>
       <r>   -1.5851    1.0000 </r>
       <r>   -1.5851    1.0000 </r>
       <r>   -1.5851    1.0000 </r>
       <r>   -1.5851    1.0000 </r>
       <r>   -1.3482    1.0000 </r>
       <r>   -1.3482    1.0000 </r>
       <r>   -1.3482    1.0000 </r>
       <r>   -1.3482    1.0000 </r>
       <r>   -1.2865    1.0000 </r>
       <r>   -1.2865    1.0000 </r>
       <r>   -1.2865    1.0000 </r>
       <r>   -1.2865    1.0000 </r>
       <r>   -1.2391    1.0000 </r>
       <r>   -1.2391    1.0000 </r>
       <r>   -1.2391    1.0000 </r>
       <r>   -1.2391    1.0000 </r>
       <r>   -1.1672    1.0000 </r>
       <r>   -1.1672    1.0000 </r>
       <r>   -1.1672    1.0000 </r>
       <r>   -1.1672    1.0000 </r>
       <r>   -1.0598    1.0000 </r>
       <r>   -1.0598    1.0000 </r>
       <r>   -1.0598    1.0000 </r>
       <r>   -1.0598    1.0000 </r>
       <r>   -1.0312    1.0000 </r>
       <r>   -1.0312    1.0000 </r>
       <r>   -1.0312    1.0000 </r>
       <r>   -1.0312    1.0000 </r>
       <r>   -1.0129    1.0000 </r>
       <r>   -1.0129    1.0000 </r>
       <r>   -1.0129    1.0000 </r>
       <r>   -1.0129    1.0000 </r>
       <r>   -0.8608    1.0000 </r>
       <r>   -0.8608    1.0000 </r>
       <r>   -0.8608    1.0000 </r>
       <r>   -0.8608    1.0000 </r>
       <r>   -0.2569    1.0000 </r>
       <r>   -0.2569    1.0000 </r>
       <r>   -0.2569    1.0000 </r>
       <r>   -0.2569    1.0000 </r>
       <r>    3.2998    0.0000 </r>
       <r>    3.2998    0.0000 </r>
       <r>    3.2998    0.0000 </r>
       <r>    3.2998    0.0000 </r>
       <r>    4.6761    0.0000 </r>
       <r>    4.6761    0.0000 </r>
       <r>    4.6761    0.0000 </r>
       <r>    4.6761    0.0000 </r>
       <r>    4.8338    0.0000 </r>
       <r>    4.8338    0.0000 </r>
       <r>    4.8338    0.0000 </r>
       <r>    4.8338    0.0000 </r>
       <r>    5.0716    0.0000 </r>
       <r>    5.0716    0.0000 </r>
       <r>    5.0716    0.0000 </r>
       <r>    5.0716    0.0000 </r>
       <r>    5.1945    0.0000 </r>
       <r>    5.1945    0.0000 </r>
       <r>    5.1945    0.0000 </r>
       <r>    5.1945    0.0000 </r>
       <r>    5.8061    0.0000 </r>
       <r>    5.8061    0.0000 </r>
       <r>    5.8061    0.0000 </r>
       <r>    5.8061    0.0000 </r>
       <r>    6.1910    0.0000 </r>
       <r>    6.1910    0.0000 </r>
       <r>    6.1910    0.0000 </r>
       <r>    6.1910    0.0000 </r>
       <r>    6.3206    0.0000 </r>
       <r>    6.3206    0.0000 </r>
       <r>    6.3206    0.0000 </r>
       <r>    6.3206    0.0000 </r>
       <r>    6.4816    0.0000 </r>
       <r>    6.4816    0.0000 </r>
       <r>    6.4816    0.0000 </r>
       <r>    6.4816    0.0000 </r>
       <r>    6.6004    0.0000 </r>
       <r>    6.6004    0.0000 </r>
       <r>    6.6004    0.0000 </r>
       <r>    6.6005    0.0000 </r>
      </set>
      <set comment="kpoint 6">
       <r>  -21.0171    1.0000 </r>
       <r>  -21.0171    1.0000 </r>
       <r>  -21.0171    1.0000 </r>
       <r>  -21.0171    1.0000 </r>
       <r>  -21.0171    1.0000 </r>
       <r>  -21.0171    1.0000 </r>
       <r>  -21.0171    1.0000 </r>
       <r>  -21.0171    1.0000 </r>
       <r>  -16.2835    1.0000 </r>
       <r>  -16.2835    1.0000 </r>
       <r>  -16.2835    1.0000 </r>
       <r>  -16.2835    1.0000 </r>
       <r>  -16.2835    1.0000 </r>
       <r>  -16.2835    1.0000 </r>
       <r>  -16.2835    1.0000 </r>
       <r>  -16.2835    1.0000 </r>
       <r>  -16.2711    1.0000 </r>
       <r>  -16.2711    1.0000 </r>
       <r>  -16.2711    1.0000 </r>
       <r>  -16.2711    1.0000 </r>
       <r>  -16.2711    1.0000 </r>
       <r>  -16.2711    1.0000 </r>
       <r>  -16.2711    1.0000 </r>
       <r>  -16.2711    1.0000 </r>
       <r>  -16.1247    1.0000 </r>
       <r>  -16.1247    1.0000 </r>
       <r>  -16.1247    1.0000 </r>
       <r>  -16.1247    1.0000 </r>
       <r>  -16.1247    1.0000 </r>
       <r>  -16.1247    1.0000 </r>
       <r>  -16.1247    1.0000 </r>
       <r>  -16.1247    1.0000 </r>
       <r>  -16.1231    1.0000 </r>
       <r>  -16.1231    1.0000 </r>
       <r>  -16.1231    1.0000 </r>
       <r>  -16.1231    1.0000 </r>
       <r>  -16.1231    1.0000 </r>
       <r>  -16.1231    1.0000 </r>
       <r>  -16.1231    1.0000 </r>
       <r>  -16.1231    1.0000 </r>
       <r>  -16.1230    1.0000 </r>
       <r>  -16.1230    1.0000 </r>
       <r>  -16.1230    1.0000 </r>
       <r>  -16.1230    1.0000 </r>
       <r>  -16.1230    1.0000 </r>
       <r>  -16.1230    1.0000 </r>
       <r>  -16.1230    1.0000 </r>
       <r>  -16.1230    1.0000 </r>
       <r>  -14.2048    1.0000 </r>
       <r>  -14.2048    1.0000 </r>
       <r>  -14.2048    1.0000 </r>
       <r>  -14.2048    1.0000 </r>
       <r>  -14.2048    1.0000 </r>
       <r>  -14.2048    1.0000 </r>
       <r>  -14.2048    1.0000 </r>
       <r>  -14.2048    1.0000 </r>
       <r>  -13.8332    1.0000 </r>
       <r>  -13.8332    1.0000 </r>
       <r>  -13.8332    1.0000 </r>
       <r>  -13.8332    1.0000 </r>
       <r>  -13.8332    1.0000 </r>
       <r>  -13.8332    1.0000 </r>
       <r>  -13.8332    1.0000 </r>
       <r>  -13.8332    1.0000 </r>
       <r>  -13.8182    1.0000 </r>
       <r>  -13.8182    1.0000 </r>
       <r>  -13.8182    1.0000 </r>
       <r>  -13.8182    1.0000 </r>
       <r>  -13.8182    1.0000 </r>
       <r>  -13.8182    1.0000 </r>
       <r>  -13.8182    1.0000 </r>
       <r>  -13.8182    1.0000 </r>
       <r>   -7.4484    1.0000 </r>
       <r>   -7.4484    1.0000 </r>
       <r>   -7.4484    1.0000 </r>
       <r>   -7.4484    1.0000 </r>
       <r>   -7.4484    1.0000 </r>
       <r>   -7.4484    1.0000 </r>
       <r>   -7.4484    1.0000 </r>
       <r>   -7.4484    1.0000 </r>
       <r>   -7.3874    1.0000 </r>
       <r>   -7.3874    1.0000 </r>
       <r>   -7.3874    1.0000 </r>
       <r>   -7.3874    1.0000 </r>
       <r>   -7.3874    1.0000 </r>
       <r>   -7.3874    1.0000 </r>
       <r>   -7.3874    1.0000 </r>
       <r>   -7.3874    1.0000 </r>
       <r>   -7.3778    1.0000 </r>
       <r>   -7.3778    1.0000 </r>
       <r>   -7.3778    1.0000 </r>
       <r>   -7.3778    1.0000 </r>
       <r>   -7.3778    1.0000 </r>
       <r>   -7.3778    1.0000 </r>
       <r>   -7.3778    1.0000 </r>
       <r>   -7.3778    1.0000 </r>
       <r>   -7.3560    1.0000 </r>
       <r>   -7.3560    1.0000 </r>
       <r>   -7.3560    1.0000 </r>
       <r>   -7.3560    1.0000 </r>
       <r>   -7.3560    1.0000 </r>
       <r>   -7.3560    1.0000 </r>
       <r>   -7.3560    1.0000 </r>
       <r>   -7.3560    1.0000 </r>
       <r>   -2.5973    1.0000 </r>
       <r>   -2.5973    1.0000 </r>
       <r>   -2.5973    1.0000 </r>
       <r>   -2.5973    1.0000 </r>
       <r>   -2.5973    1.0000 </r>
       <r>   -2.5973    1.0000 </r>
       <r>   -2.5973    1.0000 </r>
       <r>   -2.5973    1.0000 </r>
       <r>   -2.5627    1.0000 </r>
       <r>   -2.5627    1.0000 </r>
       <r>   -2.5627    1.0000 </r>
       <r>   -2.5627    1.0000 </r>
       <r>   -2.5627    1.0000 </r>
       <r>   -2.5627    1.0000 </r>
       <r>   -2.5627    1.0000 </r>
       <r>   -2.5627    1.0000 </r>
       <r>   -2.1705    1.0000 </r>
       <r>   -2.1705    1.0000 </r>
       <r>   -2.1705    1.0000 </r>
       <r>   -2.1705    1.0000 </r>
       <r>   -2.1705    1.0000 </r>
       <r>   -2.1705    1.0000 </r>
       <r>   -2.1705    1.0000 </r>
       <r>   -2.1705    1.0000 </r>
       <r>   -1.6403    1.0000 </r>
       <r>   -1.6403    1.0000 </r>
       <r>   -1.6403    1.0000 </r>
       <r>   -1.6403    1.0000 </r>
       <r>   -1.6403    1.0000 </r>
       <r>   -1.6403    1.0000 </r>
       <r>   -1.6403    1.0000 </r>
       <r>   -1.6403    1.0000 </r>
       <r>   -1.6003    1.0000 </r>
       <r>   -1.6003    1.0000 </r>
       <r>   -1.6003    1.0000 </r>
       <r>   -1.6003    1.0000 </r>
       <r>   -1.6003    1.0000 </r>
       <r>   -1.6003    1.0000 </r>
       <r>   -1.6003    1.0000 </r>
       <r>   -1.6003    1.0000 </r>
[...]
        <r>  0.0005  0.0006  0.0009 </r>
        <r>  0.0042  0.0002  0.0083 </r>
        <r>  0.0002  0.0006  0.0019 </r>
        <r>  0.0152  0.0000  0.0053 </r>
        <r>  0.0087  0.0001  0.0066 </r>
        <r>  0.0013  0.0008  0.0011 </r>
        <r>  0.0003  0.0045  0.0001 </r>
        <r>  0.0001  0.0106  0.0000 </r>
        <r>  0.0001  0.0122  0.0000 </r>
        <r>  0.0004  0.0054  0.0001 </r>
        <r>  0.0002  0.0073  0.0000 </r>
        <r>  0.0001  0.0068  0.0001 </r>
        <r>  0.0002  0.0073  0.0001 </r>
        <r>  0.0002  0.0092  0.0000 </r>
        <r>  0.0008  0.0022  0.0014 </r>
        <r>  0.0004  0.0038  0.0009 </r>
        <r>  0.0003  0.0038  0.0007 </r>
        <r>  0.0008  0.0024  0.0013 </r>
        <r>  0.0008  0.0018  0.0015 </r>
        <r>  0.0003  0.0032  0.0008 </r>
        <r>  0.0002  0.0039  0.0008 </r>
        <r>  0.0006  0.0019  0.0011 </r>
        <r>  0.0007  0.0023  0.0013 </r>
        <r>  0.0004  0.0043  0.0013 </r>
        <r>  0.0007  0.0049  0.0012 </r>
        <r>  0.0011  0.0035  0.0018 </r>
        <r>  0.0004  0.0025  0.0011 </r>
        <r>  0.0005  0.0033  0.0013 </r>
        <r>  0.0003  0.0056  0.0008 </r>
        <r>  0.0012  0.0020  0.0020 </r>
        <r>  0.0000  0.0043  0.0001 </r>
        <r>  0.0004  0.0002  0.0009 </r>
        <r>  0.0005  0.0003  0.0010 </r>
        <r>  0.0000  0.0068  0.0001 </r>
        <r>  0.0009  0.0001  0.0020 </r>
        <r>  0.0000  0.0033  0.0002 </r>
        <r>  0.0001  0.0039  0.0000 </r>
        <r>  0.0015  0.0005  0.0024 </r>
       </set>
       <set comment="band 208">
        <r>  0.0003  0.0007  0.0011 </r>
        <r>  0.0087  0.0001  0.0070 </r>
        <r>  0.0086  0.0001  0.0070 </r>
        <r>  0.0003  0.0007  0.0012 </r>
        <r>  0.0074  0.0001  0.0074 </r>
        <r>  0.0007  0.0007  0.0010 </r>
        <r>  0.0001  0.0007  0.0012 </r>
        <r>  0.0080  0.0001  0.0072 </r>
        <r>  0.0001  0.0093  0.0000 </r>
        <r>  0.0002  0.0060  0.0001 </r>
        <r>  0.0002  0.0054  0.0001 </r>
        <r>  0.0001  0.0091  0.0000 </r>
        <r>  0.0003  0.0062  0.0001 </r>
        <r>  0.0002  0.0109  0.0000 </r>
        <r>  0.0001  0.0101  0.0000 </r>
        <r>  0.0003  0.0063  0.0001 </r>
        <r>  0.0006  0.0001  0.0015 </r>
        <r>  0.0000  0.0045  0.0001 </r>
        <r>  0.0000  0.0038  0.0001 </r>
        <r>  0.0009  0.0001  0.0016 </r>
        <r>  0.0000  0.0051  0.0000 </r>
        <r>  0.0011  0.0002  0.0018 </r>
        <r>  0.0009  0.0001  0.0017 </r>
        <r>  0.0000  0.0057  0.0001 </r>
        <r>  0.0012  0.0004  0.0024 </r>
        <r>  0.0000  0.0063  0.0002 </r>
        <r>  0.0000  0.0058  0.0001 </r>
        <r>  0.0011  0.0003  0.0024 </r>
        <r>  0.0000  0.0078  0.0001 </r>
        <r>  0.0016  0.0003  0.0029 </r>
        <r>  0.0014  0.0004  0.0026 </r>
        <r>  0.0001  0.0071  0.0002 </r>
        <r>  0.0009  0.0007  0.0018 </r>
        <r>  0.0001  0.0056  0.0002 </r>
        <r>  0.0001  0.0044  0.0002 </r>
        <r>  0.0010  0.0006  0.0019 </r>
        <r>  0.0001  0.0051  0.0003 </r>
        <r>  0.0011  0.0005  0.0018 </r>
        <r>  0.0008  0.0005  0.0017 </r>
        <r>  0.0001  0.0053  0.0004 </r>
       </set>
       <set comment="band 209">
        <r>  0.0000  0.0010  0.0123 </r>
        <r>  0.0000  0.0010  0.0172 </r>
        <r>  0.0000  0.0004  0.0328 </r>
        <r>  0.0002  0.0003  0.0084 </r>
        <r>  0.0002  0.0002  0.0127 </r>
        <r>  0.0000  0.0003  0.0342 </r>
        <r>  0.0000  0.0009  0.0124 </r>
        <r>  0.0000  0.0008  0.0085 </r>
        <r>  0.0000  0.0009  0.0003 </r>
        <r>  0.0000  0.0022  0.0003 </r>
        <r>  0.0000  0.0007  0.0004 </r>
        <r>  0.0000  0.0027  0.0001 </r>
        <r>  0.0000  0.0005  0.0004 </r>
        <r>  0.0000  0.0027  0.0005 </r>
        <r>  0.0000  0.0008  0.0004 </r>
        <r>  0.0000  0.0022  0.0004 </r>
        <r>  0.0000  0.0007  0.0006 </r>
        <r>  0.0007  0.0003  0.0012 </r>
        <r>  0.0001  0.0006  0.0005 </r>
        <r>  0.0004  0.0002  0.0009 </r>
        <r>  0.0001  0.0011  0.0006 </r>
        <r>  0.0015  0.0008  0.0027 </r>
        <r>  0.0003  0.0009  0.0009 </r>
        <r>  0.0009  0.0006  0.0019 </r>
        <r>  0.0001  0.0007  0.0013 </r>
        <r>  0.0002  0.0009  0.0008 </r>
        <r>  0.0002  0.0012  0.0004 </r>
        <r>  0.0002  0.0006  0.0008 </r>
        <r>  0.0001  0.0010  0.0016 </r>
        <r>  0.0000  0.0006  0.0021 </r>
        <r>  0.0001  0.0006  0.0019 </r>
        <r>  0.0001  0.0010  0.0012 </r>
        <r>  0.0003  0.0007  0.0008 </r>
        <r>  0.0011  0.0009  0.0020 </r>
        <r>  0.0003  0.0003  0.0011 </r>
        <r>  0.0002  0.0005  0.0006 </r>
        <r>  0.0001  0.0002  0.0009 </r>
        <r>  0.0004  0.0007  0.0013 </r>
        <r>  0.0002  0.0003  0.0010 </r>
        <r>  0.0005  0.0007  0.0011 </r>
       </set>
       <set comment="band 210">
        <r>  0.0000  0.0004  0.0170 </r>
        <r>  0.0000  0.0009  0.0134 </r>
        <r>  0.0001  0.0002  0.0061 </r>
        <r>  0.0000  0.0005  0.0316 </r>
        <r>  0.0001  0.0005  0.0269 </r>
        <r>  0.0001  0.0006  0.0155 </r>
        <r>  0.0001  0.0007  0.0126 </r>
        <r>  0.0000  0.0011  0.0150 </r>
        <r>  0.0000  0.0009  0.0002 </r>
        <r>  0.0000  0.0010  0.0002 </r>
        <r>  0.0000  0.0035  0.0001 </r>
        <r>  0.0000  0.0010  0.0006 </r>
        <r>  0.0000  0.0035  0.0003 </r>
        <r>  0.0000  0.0010  0.0005 </r>
        <r>  0.0000  0.0008  0.0007 </r>
        <r>  0.0000  0.0008  0.0002 </r>
        <r>  0.0000  0.0002  0.0003 </r>
        <r>  0.0000  0.0002  0.0009 </r>
        <r>  0.0001  0.0005  0.0004 </r>
        <r>  0.0005  0.0003  0.0011 </r>
        <r>  0.0015  0.0010  0.0027 </r>
        <r>  0.0001  0.0008  0.0007 </r>
        <r>  0.0005  0.0007  0.0015 </r>
        <r>  0.0004  0.0004  0.0011 </r>
        <r>  0.0003  0.0005  0.0006 </r>
        <r>  0.0002  0.0006  0.0010 </r>
        <r>  0.0001  0.0007  0.0007 </r>
        <r>  0.0001  0.0016  0.0009 </r>
        <r>  0.0001  0.0009  0.0009 </r>
        <r>  0.0000  0.0014  0.0008 </r>
        <r>  0.0001  0.0003  0.0022 </r>
        <r>  0.0000  0.0006  0.0030 </r>
        <r>  0.0002  0.0002  0.0008 </r>
        <r>  0.0001  0.0004  0.0007 </r>
        <r>  0.0010  0.0007  0.0021 </r>
        <r>  0.0003  0.0008  0.0011 </r>
        <r>  0.0008  0.0004  0.0013 </r>
        <r>  0.0002  0.0007  0.0004 </r>
        <r>  0.0010  0.0007  0.0019 </r>
        <r>  0.0005  0.0010  0.0011 </r>
       </set>
       <set comment="band 211">
        <r>  0.0000  0.0009  0.0171 </r>
        <r>  0.0000  0.0010  0.0088 </r>
        <r>  0.0000  0.0004  0.0265 </r>
        <r>  0.0001  0.0002  0.0127 </r>
        <r>  0.0002  0.0003  0.0144 </r>
        <r>  0.0001  0.0002  0.0376 </r>
        <r>  0.0000  0.0009  0.0105 </r>
        <r>  0.0000  0.0011  0.0106 </r>
        <r>  0.0000  0.0003  0.0006 </r>
        <r>  0.0000  0.0030  0.0002 </r>
        <r>  0.0000  0.0016  0.0002 </r>
        <r>  0.0000  0.0014  0.0005 </r>
        <r>  0.0000  0.0015  0.0002 </r>
        <r>  0.0000  0.0013  0.0005 </r>
        <r>  0.0000  0.0004  0.0004 </r>
        <r>  0.0000  0.0030  0.0001 </r>
        <r>  0.0006  0.0012  0.0012 </r>
        <r>  0.0012  0.0007  0.0021 </r>
        <r>  0.0002  0.0008  0.0009 </r>
        <r>  0.0007  0.0004  0.0015 </r>
        <r>  0.0000  0.0007  0.0005 </r>
        <r>  0.0006  0.0003  0.0015 </r>
        <r>  0.0001  0.0007  0.0003 </r>
        <r>  0.0008  0.0004  0.0015 </r>
        <r>  0.0000  0.0004  0.0026 </r>
        <r>  0.0000  0.0013  0.0010 </r>
        <r>  0.0002  0.0011  0.0009 </r>
        <r>  0.0001  0.0005  0.0017 </r>
        <r>  0.0002  0.0012  0.0008 </r>
        <r>  0.0001  0.0004  0.0019 </r>
        <r>  0.0001  0.0006  0.0007 </r>
        <r>  0.0003  0.0012  0.0005 </r>
        <r>  0.0003  0.0005  0.0011 </r>
        <r>  0.0007  0.0007  0.0015 </r>
        <r>  0.0000  0.0001  0.0006 </r>
        <r>  0.0003  0.0004  0.0008 </r>
        <r>  0.0007  0.0004  0.0018 </r>
        <r>  0.0003  0.0010  0.0009 </r>
        <r>  0.0001  0.0001  0.0006 </r>
        <r>  0.0004  0.0007  0.0011 </r>
       </set>
       <set comment="band 212">
        <r>  0.0000  0.0009  0.0147 </r>
        <r>  0.0000  0.0008  0.0096 </r>
        <r>  0.0001  0.0007  0.0154 </r>
        <r>  0.0001  0.0005  0.0312 </r>
        <r>  0.0000  0.0005  0.0222 </r>
        <r>  0.0001  0.0002  0.0101 </r>
        <r>  0.0000  0.0007  0.0194 </r>
        <r>  0.0001  0.0006  0.0157 </r>
        <r>  0.0000  0.0038  0.0002 </r>
        <r>  0.0000  0.0003  0.0005 </r>
        <r>  0.0000  0.0014  0.0006 </r>
        <r>  0.0000  0.0008  0.0002 </r>
        <r>  0.0000  0.0013  0.0003 </r>
        <r>  0.0000  0.0011  0.0002 </r>
        <r>  0.0000  0.0037  0.0001 </r>
        <r>  0.0000  0.0003  0.0006 </r>
        <r>  0.0001  0.0003  0.0009 </r>
        <r>  0.0000  0.0001  0.0008 </r>
        <r>  0.0018  0.0010  0.0029 </r>
        <r>  0.0000  0.0008  0.0004 </r>
        <r>  0.0005  0.0006  0.0011 </r>
        <r>  0.0003  0.0004  0.0008 </r>
        <r>  0.0002  0.0004  0.0007 </r>
        <r>  0.0001  0.0003  0.0011 </r>
        <r>  0.0001  0.0010  0.0009 </r>
        <r>  0.0001  0.0011  0.0009 </r>
        <r>  0.0000  0.0008  0.0018 </r>
        <r>  0.0002  0.0003  0.0023 </r>
        <r>  0.0002  0.0006  0.0014 </r>
        <r>  0.0002  0.0006  0.0008 </r>
        <r>  0.0001  0.0012  0.0013 </r>
        <r>  0.0001  0.0009  0.0009 </r>
        <r>  0.0013  0.0006  0.0020 </r>
        <r>  0.0001  0.0010  0.0002 </r>
        <r>  0.0007  0.0005  0.0015 </r>
        <r>  0.0004  0.0009  0.0011 </r>
        <r>  0.0001  0.0002  0.0006 </r>
        <r>  0.0000  0.0003  0.0008 </r>
        <r>  0.0014  0.0009  0.0025 </r>
        <r>  0.0001  0.0008  0.0006 </r>
       </set>
       <set comment="band 213">
        <r>  0.0001  0.0001  0.0174 </r>
        <r>  0.0001  0.0002  0.0227 </r>
        <r>  0.0000  0.0007  0.0128 </r>
        <r>  0.0000  0.0011  0.0114 </r>
        <r>  0.0000  0.0010  0.0098 </r>
        <r>  0.0000  0.0014  0.0074 </r>
        <r>  0.0002  0.0001  0.0244 </r>
        <r>  0.0001  0.0002  0.0326 </r>
        <r>  0.0000  0.0034  0.0001 </r>
        <r>  0.0000  0.0008  0.0005 </r>
        <r>  0.0000  0.0009  0.0005 </r>
        <r>  0.0000  0.0013  0.0002 </r>
        <r>  0.0000  0.0010  0.0005 </r>
        <r>  0.0000  0.0013  0.0002 </r>
        <r>  0.0000  0.0033  0.0003 </r>
        <r>  0.0000  0.0007  0.0006 </r>
        <r>  0.0006  0.0002  0.0012 </r>
        <r>  0.0000  0.0007  0.0004 </r>
        <r>  0.0006  0.0003  0.0015 </r>
        <r>  0.0003  0.0009  0.0008 </r>
        <r>  0.0011  0.0004  0.0020 </r>
        <r>  0.0000  0.0009  0.0004 </r>
        <r>  0.0008  0.0005  0.0019 </r>
        <r>  0.0004  0.0010  0.0011 </r>
        <r>  0.0003  0.0012  0.0007 </r>
        <r>  0.0000  0.0010  0.0006 </r>
        <r>  0.0001  0.0002  0.0019 </r>
        <r>  0.0002  0.0010  0.0011 </r>
        <r>  0.0001  0.0001  0.0016 </r>
        <r>  0.0002  0.0011  0.0016 </r>
        <r>  0.0000  0.0011  0.0004 </r>
        <r>  0.0000  0.0009  0.0023 </r>
        <r>  0.0003  0.0004  0.0008 </r>
        <r>  0.0000  0.0002  0.0008 </r>
        <r>  0.0008  0.0006  0.0016 </r>
        <r>  0.0000  0.0004  0.0008 </r>
        <r>  0.0004  0.0010  0.0009 </r>
        <r>  0.0006  0.0002  0.0012 </r>
        <r>  0.0002  0.0010  0.0007 </r>
        <r>  0.0008  0.0003  0.0018 </r>
       </set>
       <set comment="band 214">
        <r>  0.0001  0.0005  0.0049 </r>
        <r>  0.0000  0.0002  0.0364 </r>
        <r>  0.0000  0.0009  0.0155 </r>
        <r>  0.0000  0.0009  0.0092 </r>
        <r>  0.0000  0.0008  0.0192 </r>
        <r>  0.0001  0.0008  0.0110 </r>
        <r>  0.0000  0.0006  0.0329 </r>
        <r>  0.0001  0.0002  0.0099 </r>
        <r>  0.0000  0.0007  0.0007 </r>
        <r>  0.0000  0.0028  0.0001 </r>
        <r>  0.0000  0.0021  0.0001 </r>
        <r>  0.0000  0.0008  0.0004 </r>
        <r>  0.0000  0.0019  0.0002 </r>
        <r>  0.0000  0.0008  0.0006 </r>
        <r>  0.0000  0.0006  0.0005 </r>
        <r>  0.0000  0.0029  0.0002 </r>
        <r>  0.0007  0.0004  0.0017 </r>
        <r>  0.0001  0.0005  0.0004 </r>
        <r>  0.0002  0.0002  0.0010 </r>
        <r>  0.0002  0.0005  0.0007 </r>
        <r>  0.0000  0.0004  0.0006 </r>
        <r>  0.0008  0.0006  0.0018 </r>
        <r>  0.0005  0.0004  0.0013 </r>
        <r>  0.0006  0.0008  0.0013 </r>
        <r>  0.0000  0.0008  0.0012 </r>
        <r>  0.0002  0.0010  0.0012 </r>
        <r>  0.0002  0.0011  0.0005 </r>
        <r>  0.0002  0.0004  0.0015 </r>
        <r>  0.0001  0.0010  0.0020 </r>
        <r>  0.0000  0.0004  0.0016 </r>
        <r>  0.0001  0.0009  0.0018 </r>
        <r>  0.0001  0.0009  0.0005 </r>
        <r>  0.0004  0.0008  0.0011 </r>
        <r>  0.0006  0.0005  0.0014 </r>
        <r>  0.0001  0.0007  0.0005 </r>
        <r>  0.0007  0.0003  0.0014 </r>
        <r>  0.0006  0.0009  0.0013 </r>
        <r>  0.0008  0.0006  0.0016 </r>
        <r>  0.0002  0.0006  0.0007 </r>
        <r>  0.0005  0.0004  0.0013 </r>
       </set>
       <set comment="band 215">
        <r>  0.0001  0.0006  0.0101 </r>
        <r>  0.0000  0.0006  0.0237 </r>
        <r>  0.0001  0.0006  0.0114 </r>
        <r>  0.0000  0.0010  0.0157 </r>
        <r>  0.0000  0.0005  0.0218 </r>
        <r>  0.0001  0.0008  0.0127 </r>
        <r>  0.0001  0.0004  0.0215 </r>
        <r>  0.0001  0.0004  0.0216 </r>
        <r>  0.0000  0.0013  0.0003 </r>
        <r>  0.0000  0.0003  0.0006 </r>
        <r>  0.0000  0.0018  0.0003 </r>
        <r>  0.0000  0.0031  0.0003 </r>
        <r>  0.0000  0.0017  0.0006 </r>
        <r>  0.0000  0.0024  0.0002 </r>
        <r>  0.0000  0.0015  0.0001 </r>
        <r>  0.0000  0.0006  0.0002 </r>
        <r>  0.0003  0.0009  0.0009 </r>
        <r>  0.0012  0.0009  0.0021 </r>
        <r>  0.0004  0.0002  0.0011 </r>
        <r>  0.0003  0.0006  0.0012 </r>
        <r>  0.0001  0.0003  0.0009 </r>
        <r>  0.0001  0.0002  0.0005 </r>
        <r>  0.0010  0.0005  0.0019 </r>
        <r>  0.0001  0.0008  0.0004 </r>
        <r>  0.0001  0.0007  0.0018 </r>
        <r>  0.0001  0.0002  0.0031 </r>
        <r>  0.0001  0.0006  0.0006 </r>
        <r>  0.0002  0.0017  0.0007 </r>
        <r>  0.0000  0.0010  0.0015 </r>
        <r>  0.0000  0.0013  0.0008 </r>
        <r>  0.0004  0.0005  0.0008 </r>
        <r>  0.0001  0.0005  0.0010 </r>
        <r>  0.0006  0.0007  0.0013 </r>
        <r>  0.0006  0.0006  0.0015 </r>
        <r>  0.0003  0.0005  0.0006 </r>
        <r>  0.0004  0.0003  0.0007 </r>
        <r>  0.0007  0.0011  0.0017 </r>
        <r>  0.0008  0.0009  0.0018 </r>
        <r>  0.0001  0.0004  0.0006 </r>
        <r>  0.0002  0.0002  0.0008 </r>
       </set>
       <set comment="band 216">
        <r>  0.0000  0.0004  0.0412 </r>
        <r>  0.0002  0.0001  0.0088 </r>
        <r>  0.0000  0.0010  0.0168 </r>
        <r>  0.0000  0.0004  0.0185 </r>
        <r>  0.0000  0.0011  0.0091 </r>
        <r>  0.0000  0.0006  0.0139 </r>
        <r>  0.0001  0.0006  0.0033 </r>
        <r>  0.0000  0.0005  0.0262 </r>
        <r>  0.0000  0.0015  0.0005 </r>
        <r>  0.0000  0.0017  0.0004 </r>
        <r>  0.0000  0.0009  0.0005 </r>
        <r>  0.0000  0.0012  0.0007 </r>
        <r>  0.0000  0.0017  0.0002 </r>
        <r>  0.0000  0.0025  0.0001 </r>
        <r>  0.0000  0.0018  0.0003 </r>
        <r>  0.0000  0.0028  0.0004 </r>
        <r>  0.0010  0.0005  0.0023 </r>
        <r>  0.0004  0.0008  0.0012 </r>
        <r>  0.0001  0.0009  0.0009 </r>
        <r>  0.0010  0.0006  0.0023 </r>
        <r>  0.0002  0.0001  0.0007 </r>
        <r>  0.0003  0.0005  0.0009 </r>
        <r>  0.0001  0.0004  0.0005 </r>
        <r>  0.0003  0.0002  0.0006 </r>
        <r>  0.0000  0.0014  0.0011 </r>
        <r>  0.0002  0.0005  0.0016 </r>
        <r>  0.0000  0.0008  0.0031 </r>
        <r>  0.0000  0.0005  0.0014 </r>
        <r>  0.0001  0.0008  0.0002 </r>
        <r>  0.0006  0.0007  0.0009 </r>
        <r>  0.0002  0.0013  0.0011 </r>
        <r>  0.0002  0.0005  0.0009 </r>
        <r>  0.0002  0.0005  0.0009 </r>
        <r>  0.0003  0.0001  0.0011 </r>
        <r>  0.0004  0.0009  0.0011 </r>
        <r>  0.0012  0.0005  0.0024 </r>
        <r>  0.0002  0.0004  0.0005 </r>
        <r>  0.0003  0.0002  0.0008 </r>
        <r>  0.0003  0.0007  0.0009 </r>
        <r>  0.0005  0.0004  0.0015 </r>
       </set>
      </set>
     </set>
    </set>
   </array>
  </projected>
 </calculation>
 <structure name="finalpos" >
  <crystal>
   <varray name="basis" >
    <v>      11.73535200       0.00000000       0.00000000 </v>
    <v>       0.00000000      11.73535200       0.00000000 </v>
    <v>       0.00000000       0.00000000      11.73535200 </v>
   </varray>
   <i name="volume">   1616.17491673 </i>
   <varray name="rec_basis" >
    <v>       0.08521261       0.00000000       0.00000000 </v>
    <v>       0.00000000       0.08521261       0.00000000 </v>
    <v>       0.00000000       0.00000000       0.08521261 </v>
   </varray>
  </crystal>
  <varray name="positions" >
   <v>       0.25000000       0.25000000       0.25000000 </v>
   <v>       0.25000000       0.25000000       0.75000000 </v>
   <v>       0.25000000       0.75000000       0.25000000 </v>
   <v>       0.25000000       0.75000000       0.75000000 </v>
   <v>       0.75000000       0.25000000       0.25000000 </v>
   <v>       0.75000000       0.25000000       0.75000000 </v>
   <v>       0.75000000       0.75000000       0.25000000 </v>
   <v>       0.75000000       0.75000000       0.75000000 </v>
   <v>       0.00000000       0.00000000       0.00000000 </v>
   <v>       0.00000000       0.00000000       0.50000000 </v>
   <v>       0.00000000       0.50000000       0.00000000 </v>
   <v>       0.00000000       0.50000000       0.50000000 </v>
   <v>       0.50000000       0.00000000       0.00000000 </v>
   <v>       0.50000000       0.00000000       0.50000000 </v>
   <v>       0.50000000       0.50000000       0.00000000 </v>
   <v>       0.50000000       0.50000000       0.50000000 </v>
   <v>       0.96625000       0.25000000       0.00000000 </v>
   <v>       0.03375000       0.25000000       0.50000000 </v>
   <v>       0.03375000       0.75000000       0.00000000 </v>
   <v>       0.96625000       0.75000000       0.50000000 </v>
   <v>       0.53375000       0.25000000       0.00000000 </v>
   <v>       0.46625000       0.25000000       0.50000000 </v>
   <v>       0.46625000       0.75000000       0.00000000 </v>
   <v>       0.53375000       0.75000000       0.50000000 </v>
   <v>       0.00000000       0.00000000       0.25000000 </v>
   <v>       0.00000000       0.00000000       0.75000000 </v>
   <v>       0.00000000       0.50000000       0.25000000 </v>
   <v>       0.00000000       0.50000000       0.75000000 </v>
   <v>       0.50000000       0.00000000       0.25000000 </v>
   <v>       0.50000000       0.00000000       0.75000000 </v>
   <v>       0.50000000       0.50000000       0.25000000 </v>
   <v>       0.50000000       0.50000000       0.75000000 </v>
   <v>       0.25000000       0.03375000       0.00000000 </v>
   <v>       0.25000000       0.96625000       0.50000000 </v>
   <v>       0.25000000       0.46625000       0.00000000 </v>
   <v>       0.25000000       0.53375000       0.50000000 </v>
   <v>       0.75000000       0.96625000       0.00000000 </v>
   <v>       0.75000000       0.03375000       0.50000000 </v>
   <v>       0.75000000       0.53375000       0.00000000 </v>
   <v>       0.75000000       0.46625000       0.50000000 </v>
  </varray>
 </structure>
</modeling>
