  39  39   1   0
  0.4089970E+02  0.1166870E-08  0.1172985E-08  0.1166870E-08  0.5000000E-15
   1.0000000000000000E-004
  CAR 
 CsPbBr3 cubic bulk                      
      8.07925260    -22.28022635  301      0.50203264      1.00000000
    -22.280  0.0000E+00  0.0000E+00
    -22.179  0.0000E+00  0.0000E+00
    -22.078  0.0000E+00  0.0000E+00
    -21.977  0.0000E+00  0.0000E+00
    -21.875  0.0000E+00  0.0000E+00
    -21.774  0.0000E+00  0.0000E+00
    -21.673  0.0000E+00  0.0000E+00
    -21.572  0.0000E+00  0.0000E+00
    -21.471  0.0000E+00  0.0000E+00
    -21.369  0.0000E+00  0.0000E+00
    -21.268  0.0000E+00  0.0000E+00
    -21.167  0.0000E+00  0.0000E+00
    -21.066  0.0000E+00  0.0000E+00
    -20.965  0.0000E+00  0.0000E+00
    -20.863  0.2822E+02  0.2856E+01
    -20.762  0.3954E+02  0.8003E+01
    -20.661  0.4176E+02  0.1423E+02
    -20.560  0.0000E+00  0.1600E+02
    -20.459  0.0000E+00  0.1600E+02
    -20.357  0.0000E+00  0.1600E+02
    -20.256  0.0000E+00  0.1600E+02
    -20.155  0.0000E+00  0.1600E+02
    -20.054  0.0000E+00  0.1600E+02
    -19.953  0.0000E+00  0.1600E+02
    -19.851  0.0000E+00  0.1600E+02
    -19.750  0.0000E+00  0.1600E+02
    -19.649  0.0000E+00  0.1600E+02
    -19.548  0.0000E+00  0.1600E+02
    -19.447  0.0000E+00  0.1600E+02
    -19.345  0.0000E+00  0.1600E+02
    -19.244  0.0000E+00  0.1600E+02
    -19.143  0.0000E+00  0.1600E+02
    -19.042  0.0000E+00  0.1600E+02
    -18.941  0.0000E+00  0.1600E+02
    -18.839  0.0000E+00  0.1600E+02
    -18.738  0.0000E+00  0.1600E+02
    -18.637  0.0000E+00  0.1600E+02
    -18.536  0.0000E+00  0.1600E+02
    -18.435  0.0000E+00  0.1600E+02
    -18.333  0.0000E+00  0.1600E+02
    -18.232  0.0000E+00  0.1600E+02
    -18.131  0.0000E+00  0.1600E+02
    -18.030  0.0000E+00  0.1600E+02
    -17.929  0.0000E+00  0.1600E+02
    -17.828  0.0000E+00  0.1600E+02
    -17.726  0.0000E+00  0.1600E+02
    -17.625  0.0000E+00  0.1600E+02
    -17.524  0.0000E+00  0.1600E+02
    -17.423  0.0000E+00  0.1600E+02
    -17.322  0.0000E+00  0.1600E+02
    -17.220  0.0000E+00  0.1600E+02
    -17.119  0.0000E+00  0.1600E+02
    -17.018  0.0000E+00  0.1600E+02
    -16.917  0.0000E+00  0.1600E+02
    -16.816  0.0000E+00  0.1600E+02
    -16.714  0.5468E+01  0.1655E+02
    -16.613  0.5369E+02  0.2543E+02
    -16.512  0.1579E+03  0.4398E+02
    -16.411  0.8984E+02  0.5309E+02
    -16.310  0.1296E+03  0.7012E+02
    -16.208  0.2174E+03  0.9600E+02
    -16.107  0.0000E+00  0.9600E+02
    -16.006  0.0000E+00  0.9600E+02
    -15.905  0.0000E+00  0.9600E+02
    -15.804  0.0000E+00  0.9600E+02
    -15.702  0.0000E+00  0.9600E+02
    -15.601  0.0000E+00  0.9600E+02
    -15.500  0.0000E+00  0.9600E+02
    -15.399  0.0000E+00  0.9600E+02
    -15.298  0.0000E+00  0.9600E+02
    -15.196  0.0000E+00  0.9600E+02
    -15.095  0.0000E+00  0.9600E+02
    -14.994  0.0000E+00  0.9600E+02
    -14.893  0.0000E+00  0.9600E+02
    -14.792  0.0000E+00  0.9600E+02
    -14.690  0.0000E+00  0.9600E+02
    -14.589  0.0000E+00  0.9600E+02
    -14.488  0.1976E+02  0.9800E+02
    -14.387  0.1976E+02  0.1000E+03
    -14.286  0.6206E+01  0.1006E+03
    -14.184  0.3688E+02  0.1055E+03
    -14.083  0.3788E+02  0.1103E+03
    -13.982  0.1050E+03  0.1231E+03
    -13.881  0.6669E+02  0.1305E+03
    -13.780  0.6619E+02  0.1392E+03
    -13.678  0.2470E+02  0.1420E+03
    -13.577  0.0000E+00  0.1420E+03
    -13.476  0.0000E+00  0.1420E+03
    -13.375  0.0000E+00  0.1420E+03
    -13.274  0.0000E+00  0.1420E+03
    -13.172  0.0000E+00  0.1420E+03
    -13.071  0.0000E+00  0.1420E+03
    -12.970  0.0000E+00  0.1420E+03
    -12.869  0.0000E+00  0.1420E+03
    -12.768  0.0000E+00  0.1420E+03
    -12.666  0.0000E+00  0.1420E+03
    -12.565  0.0000E+00  0.1420E+03
    -12.464  0.0000E+00  0.1420E+03
    -12.363  0.0000E+00  0.1420E+03
    -12.262  0.0000E+00  0.1420E+03
    -12.160  0.0000E+00  0.1420E+03
    -12.059  0.0000E+00  0.1420E+03
    -11.958  0.0000E+00  0.1420E+03
    -11.857  0.0000E+00  0.1420E+03
    -11.756  0.0000E+00  0.1420E+03
    -11.654  0.0000E+00  0.1420E+03
    -11.553  0.0000E+00  0.1420E+03
    -11.452  0.0000E+00  0.1420E+03
    -11.351  0.0000E+00  0.1420E+03
    -11.250  0.0000E+00  0.1420E+03
    -11.148  0.0000E+00  0.1420E+03
    -11.047  0.0000E+00  0.1420E+03
    -10.946  0.0000E+00  0.1420E+03
    -10.845  0.0000E+00  0.1420E+03
    -10.744  0.0000E+00  0.1420E+03
    -10.642  0.0000E+00  0.1420E+03
    -10.541  0.0000E+00  0.1420E+03
    -10.440  0.0000E+00  0.1420E+03
    -10.339  0.0000E+00  0.1420E+03
    -10.238  0.0000E+00  0.1420E+03
    -10.136  0.0000E+00  0.1420E+03
    -10.035  0.0000E+00  0.1420E+03
     -9.934  0.0000E+00  0.1420E+03
     -9.833  0.0000E+00  0.1420E+03
     -9.732  0.0000E+00  0.1420E+03
     -9.630  0.0000E+00  0.1420E+03
     -9.529  0.0000E+00  0.1420E+03
     -9.428  0.0000E+00  0.1420E+03
     -9.327  0.0000E+00  0.1420E+03
     -9.226  0.0000E+00  0.1420E+03
     -9.124  0.0000E+00  0.1420E+03
     -9.023  0.0000E+00  0.1420E+03
     -8.922  0.0000E+00  0.1420E+03
     -8.821  0.0000E+00  0.1420E+03
     -8.720  0.0000E+00  0.1420E+03
     -8.618  0.0000E+00  0.1420E+03
     -8.517  0.0000E+00  0.1420E+03
     -8.416  0.0000E+00  0.1420E+03
     -8.315  0.0000E+00  0.1420E+03
     -8.214  0.5764E+00  0.1421E+03
     -8.112  0.1646E-14  0.1422E+03
     -8.011  0.6772E+01  0.1429E+03
     -7.910  0.1370E+02  0.1444E+03
     -7.809  0.2712E+01  0.1448E+03
     -7.708  0.1936E+02  0.1472E+03
     -7.606  0.1522E+02  0.1488E+03
     -7.505  0.8151E+01  0.1498E+03
     -7.404  0.2216E+02  0.1530E+03
     -7.303  0.3929E+02  0.1570E+03
     -7.202  0.1544E+03  0.1759E+03
     -7.100  0.1030E+03  0.1892E+03
     -6.999  0.1042E+03  0.2043E+03
     -6.898  0.5096E+01  0.2050E+03
     -6.797  0.4927E+01  0.2057E+03
     -6.696  0.0000E+00  0.2058E+03
     -6.594  0.5583E-01  0.2058E+03
     -6.493  0.0000E+00  0.2060E+03
     -6.392  0.0000E+00  0.2060E+03
     -6.291  0.0000E+00  0.2060E+03
     -6.190  0.0000E+00  0.2060E+03
     -6.089  0.0000E+00  0.2060E+03
     -5.987  0.0000E+00  0.2060E+03
     -5.886  0.0000E+00  0.2060E+03
     -5.785  0.0000E+00  0.2060E+03
     -5.684  0.0000E+00  0.2060E+03
     -5.583  0.0000E+00  0.2060E+03
     -5.481  0.0000E+00  0.2060E+03
     -5.380  0.0000E+00  0.2060E+03
     -5.279  0.0000E+00  0.2060E+03
     -5.178  0.0000E+00  0.2060E+03
     -5.077  0.0000E+00  0.2060E+03
     -4.975  0.0000E+00  0.2060E+03
     -4.874  0.0000E+00  0.2060E+03
     -4.773  0.0000E+00  0.2060E+03
     -4.672  0.0000E+00  0.2060E+03
     -4.571  0.0000E+00  0.2060E+03
     -4.469  0.0000E+00  0.2060E+03
     -4.368  0.0000E+00  0.2060E+03
     -4.267  0.0000E+00  0.2060E+03
     -4.166  0.0000E+00  0.2060E+03
     -4.065  0.0000E+00  0.2060E+03
     -3.963  0.0000E+00  0.2060E+03
     -3.862  0.0000E+00  0.2060E+03
     -3.761  0.0000E+00  0.2060E+03
     -3.660  0.0000E+00  0.2060E+03
     -3.559  0.0000E+00  0.2060E+03
     -3.457  0.0000E+00  0.2060E+03
     -3.356  0.6410E+00  0.2061E+03
     -3.255  0.3185E+02  0.2097E+03
     -3.154  0.3424E+02  0.2142E+03
     -3.053  0.2389E+02  0.2169E+03
     -2.951  0.1976E+02  0.2192E+03
     -2.850  0.4940E+01  0.2200E+03
     -2.749  0.2062E-06  0.2200E+03
     -2.648  0.2820E+02  0.2229E+03
     -2.547  0.3162E+02  0.2264E+03
     -2.445  0.2699E+02  0.2307E+03
     -2.344  0.3292E+02  0.2346E+03
     -2.243  0.3147E+02  0.2382E+03
     -2.142  0.2402E+02  0.2417E+03
     -2.041  0.2560E+02  0.2451E+03
     -1.939  0.2541E+02  0.2488E+03
     -1.838  0.3665E+02  0.2535E+03
     -1.737  0.3931E+02  0.2587E+03
     -1.636  0.4229E+02  0.2640E+03
     -1.535  0.6512E+02  0.2726E+03
     -1.433  0.8364E+02  0.2830E+03
     -1.332  0.9338E+02  0.2947E+03
     -1.231  0.9151E+02  0.3065E+03
     -1.130  0.7646E+02  0.3160E+03
     -1.029  0.6609E+02  0.3257E+03
     -0.927  0.2146E+02  0.3294E+03
     -0.826  0.3255E+02  0.3333E+03
     -0.725  0.1669E+02  0.3354E+03
     -0.624  0.1242E+02  0.3368E+03
     -0.523  0.1593E+02  0.3386E+03
     -0.421  0.1237E+02  0.3403E+03
     -0.320  0.7411E+01  0.3412E+03
     -0.219  0.9881E+01  0.3422E+03
     -0.118  0.1231E+00  0.3423E+03
     -0.017  0.2548E+01  0.3430E+03
      0.085  0.4872E+01  0.3437E+03
      0.186  0.0000E+00  0.3438E+03
      0.287  0.0000E+00  0.3438E+03
      0.388  0.2429E+01  0.3440E+03
      0.489  0.0000E+00  0.3440E+03
      0.591  0.0000E+00  0.3440E+03
      0.692  0.0000E+00  0.3440E+03
      0.793  0.0000E+00  0.3440E+03
      0.894  0.0000E+00  0.3440E+03
      0.995  0.0000E+00  0.3440E+03
      1.097  0.0000E+00  0.3440E+03
      1.198  0.0000E+00  0.3440E+03
      1.299  0.0000E+00  0.3440E+03
      1.400  0.0000E+00  0.3440E+03
      1.501  0.0000E+00  0.3440E+03
      1.603  0.0000E+00  0.3440E+03
      1.704  0.0000E+00  0.3440E+03
      1.805  0.0000E+00  0.3440E+03
      1.906  0.0000E+00  0.3440E+03
      2.007  0.0000E+00  0.3440E+03
      2.109  0.0000E+00  0.3440E+03
      2.210  0.0000E+00  0.3440E+03
      2.311  0.0000E+00  0.3440E+03
      2.412  0.5690E-12  0.3440E+03
      2.513  0.4117E+01  0.3444E+03
      2.615  0.1182E+02  0.3457E+03
      2.716  0.4934E+01  0.3462E+03
      2.817  0.1336E-11  0.3463E+03
      2.918  0.7557E+01  0.3470E+03
      3.019  0.1467E+02  0.3490E+03
      3.121  0.1540E+02  0.3506E+03
      3.222  0.1886E+02  0.3527E+03
      3.323  0.1639E+02  0.3549E+03
      3.424  0.1017E+02  0.3565E+03
      3.525  0.9825E+01  0.3577E+03
      3.627  0.2470E+01  0.3580E+03
      3.728  0.0000E+00  0.3580E+03
      3.829  0.0000E+00  0.3580E+03
      3.930  0.6342E-04  0.3580E+03
      4.031  0.9371E+01  0.3589E+03
      4.133  0.1643E-12  0.3595E+03
      4.234  0.8794E+01  0.3604E+03
      4.335  0.2222E+02  0.3632E+03
      4.436  0.2742E+02  0.3660E+03
      4.537  0.3380E+02  0.3697E+03
      4.639  0.2487E+02  0.3725E+03
      4.740  0.2524E+02  0.3758E+03
      4.841  0.1877E+02  0.3784E+03
      4.942  0.2903E+02  0.3822E+03
      5.043  0.0000E+00  0.3822E+03
      5.145  0.0000E+00  0.3822E+03
      5.246  0.0000E+00  0.3822E+03
      5.347  0.2463E+01  0.3825E+03
      5.448  0.2784E+01  0.3828E+03
      5.549  0.2470E+01  0.3833E+03
      5.650  0.1447E+02  0.3847E+03
      5.752  0.1416E+02  0.3867E+03
      5.853  0.1232E+02  0.3885E+03
      5.954  0.3124E+02  0.3917E+03
      6.055  0.2253E+02  0.3943E+03
      6.156  0.3721E+02  0.3983E+03
      6.258  0.2954E+02  0.4017E+03
      6.359  0.3086E+02  0.4051E+03
      6.460  0.2810E+02  0.4088E+03
      6.561  0.2964E+02  0.4127E+03
      6.662  0.2176E+02  0.4157E+03
      6.764  0.2470E+01  0.4160E+03
      6.865  0.0000E+00  0.4160E+03
      6.966  0.0000E+00  0.4160E+03
      7.067  0.0000E+00  0.4160E+03
      7.168  0.0000E+00  0.4160E+03
      7.270  0.0000E+00  0.4160E+03
      7.371  0.0000E+00  0.4160E+03
      7.472  0.0000E+00  0.4160E+03
      7.573  0.0000E+00  0.4160E+03
      7.674  0.0000E+00  0.4160E+03
      7.776  0.0000E+00  0.4160E+03
      7.877  0.0000E+00  0.4160E+03
      7.978  0.0000E+00  0.4160E+03
      8.079  0.0000E+00  0.4160E+03
      8.07925260    -22.28022635  301      0.50203264      1.00000000
    -22.280  0.0000E+00  0.0000E+00  0.0000E+00
    -22.179  0.0000E+00  0.0000E+00  0.0000E+00
    -22.078  0.0000E+00  0.0000E+00  0.0000E+00
    -21.977  0.0000E+00  0.0000E+00  0.0000E+00
    -21.875  0.0000E+00  0.0000E+00  0.0000E+00
    -21.774  0.0000E+00  0.0000E+00  0.0000E+00
    -21.673  0.0000E+00  0.0000E+00  0.0000E+00
    -21.572  0.0000E+00  0.0000E+00  0.0000E+00
    -21.471  0.0000E+00  0.0000E+00  0.0000E+00
    -21.369  0.0000E+00  0.0000E+00  0.0000E+00
    -21.268  0.0000E+00  0.0000E+00  0.0000E+00
    -21.167  0.0000E+00  0.0000E+00  0.0000E+00
    -21.066  0.0000E+00  0.0000E+00  0.0000E+00
    -20.965  0.0000E+00  0.0000E+00  0.0000E+00
    -20.863  0.2220E-04  0.3330E-08  0.3813E-09
    -20.762  0.1754E+02  0.3204E-04  0.9205E-05
    -20.661  0.6078E-04  0.2914E-07  0.3824E-08
    -20.560  0.0000E+00  0.0000E+00  0.0000E+00
    -20.459  0.0000E+00  0.0000E+00  0.0000E+00
    -20.357  0.0000E+00  0.0000E+00  0.0000E+00
    -20.256  0.0000E+00  0.0000E+00  0.0000E+00
    -20.155  0.0000E+00  0.0000E+00  0.0000E+00
    -20.054  0.0000E+00  0.0000E+00  0.0000E+00
    -19.953  0.0000E+00  0.0000E+00  0.0000E+00
    -19.851  0.0000E+00  0.0000E+00  0.0000E+00
    -19.750  0.0000E+00  0.0000E+00  0.0000E+00
    -19.649  0.0000E+00  0.0000E+00  0.0000E+00
    -19.548  0.0000E+00  0.0000E+00  0.0000E+00
    -19.447  0.0000E+00  0.0000E+00  0.0000E+00
    -19.345  0.0000E+00  0.0000E+00  0.0000E+00
    -19.244  0.0000E+00  0.0000E+00  0.0000E+00
    -19.143  0.0000E+00  0.0000E+00  0.0000E+00
    -19.042  0.0000E+00  0.0000E+00  0.0000E+00
    -18.941  0.0000E+00  0.0000E+00  0.0000E+00
    -18.839  0.0000E+00  0.0000E+00  0.0000E+00
    -18.738  0.0000E+00  0.0000E+00  0.0000E+00
    -18.637  0.0000E+00  0.0000E+00  0.0000E+00
    -18.536  0.0000E+00  0.0000E+00  0.0000E+00
    -18.435  0.0000E+00  0.0000E+00  0.0000E+00
    -18.333  0.0000E+00  0.0000E+00  0.0000E+00
    -18.232  0.0000E+00  0.0000E+00  0.0000E+00
    -18.131  0.0000E+00  0.0000E+00  0.0000E+00
    -18.030  0.0000E+00  0.0000E+00  0.0000E+00
    -17.929  0.0000E+00  0.0000E+00  0.0000E+00
    -17.828  0.0000E+00  0.0000E+00  0.0000E+00
    -17.726  0.0000E+00  0.0000E+00  0.0000E+00
    -17.625  0.0000E+00  0.0000E+00  0.0000E+00
    -17.524  0.0000E+00  0.0000E+00  0.0000E+00
    -17.423  0.0000E+00  0.0000E+00  0.0000E+00
    -17.322  0.0000E+00  0.0000E+00  0.0000E+00
    -17.220  0.0000E+00  0.0000E+00  0.0000E+00
    -17.119  0.0000E+00  0.0000E+00  0.0000E+00
    -17.018  0.0000E+00  0.0000E+00  0.0000E+00
    -16.917  0.0000E+00  0.0000E+00  0.0000E+00
    -16.816  0.0000E+00  0.0000E+00  0.0000E+00
    -16.714  0.4716E-05  0.2772E-05  0.5694E-06
    -16.613  0.1469E-04  0.1272E-04  0.2790E-05
    -16.512  0.2152E-04  0.1666E-04  0.2488E-05
    -16.411  0.5492E-04  0.4078E-04  0.8186E-05
    -16.310  0.4799E-04  0.4898E-04  0.6897E-05
    -16.208  0.2132E-04  0.1363E-04  0.1709E-05
    -16.107  0.0000E+00  0.0000E+00  0.0000E+00
    -16.006  0.0000E+00  0.0000E+00  0.0000E+00
    -15.905  0.0000E+00  0.0000E+00  0.0000E+00
    -15.804  0.0000E+00  0.0000E+00  0.0000E+00
    -15.702  0.0000E+00  0.0000E+00  0.0000E+00
    -15.601  0.0000E+00  0.0000E+00  0.0000E+00
    -15.500  0.0000E+00  0.0000E+00  0.0000E+00
    -15.399  0.0000E+00  0.0000E+00  0.0000E+00
    -15.298  0.0000E+00  0.0000E+00  0.0000E+00
    -15.196  0.0000E+00  0.0000E+00  0.0000E+00
    -15.095  0.0000E+00  0.0000E+00  0.0000E+00
    -14.994  0.0000E+00  0.0000E+00  0.0000E+00
    -14.893  0.0000E+00  0.0000E+00  0.0000E+00
    -14.792  0.0000E+00  0.0000E+00  0.0000E+00
    -14.690  0.0000E+00  0.0000E+00  0.0000E+00
    -14.589  0.0000E+00  0.0000E+00  0.0000E+00
    -14.488  0.2565E-02  0.1351E-02  0.4442E-04
    -14.387  0.2997E-03  0.1756E-02  0.1122E-03
    -14.286  0.5922E-03  0.5863E-03  0.1480E-04
    -14.184  0.1276E-02  0.2481E-02  0.9559E-04
    -14.083  0.1624E-03  0.2182E-02  0.1083E-03
    -13.982  0.2269E-02  0.5917E-02  0.4930E-03
    -13.881  0.1298E-02  0.4107E-02  0.4455E-03
    -13.780  0.1311E-02  0.2745E-02  0.3423E-03
    -13.678  0.5447E-03  0.1030E-02  0.1141E-03
    -13.577  0.0000E+00  0.0000E+00  0.0000E+00
    -13.476  0.0000E+00  0.0000E+00  0.0000E+00
    -13.375  0.0000E+00  0.0000E+00  0.0000E+00
    -13.274  0.0000E+00  0.0000E+00  0.0000E+00
    -13.172  0.0000E+00  0.0000E+00  0.0000E+00
    -13.071  0.0000E+00  0.0000E+00  0.0000E+00
    -12.970  0.0000E+00  0.0000E+00  0.0000E+00
    -12.869  0.0000E+00  0.0000E+00  0.0000E+00
    -12.768  0.0000E+00  0.0000E+00  0.0000E+00
    -12.666  0.0000E+00  0.0000E+00  0.0000E+00
    -12.565  0.0000E+00  0.0000E+00  0.0000E+00
    -12.464  0.0000E+00  0.0000E+00  0.0000E+00
    -12.363  0.0000E+00  0.0000E+00  0.0000E+00
    -12.262  0.0000E+00  0.0000E+00  0.0000E+00
    -12.160  0.0000E+00  0.0000E+00  0.0000E+00
    -12.059  0.0000E+00  0.0000E+00  0.0000E+00
    -11.958  0.0000E+00  0.0000E+00  0.0000E+00
    -11.857  0.0000E+00  0.0000E+00  0.0000E+00
    -11.756  0.0000E+00  0.0000E+00  0.0000E+00
    -11.654  0.0000E+00  0.0000E+00  0.0000E+00
    -11.553  0.0000E+00  0.0000E+00  0.0000E+00
    -11.452  0.0000E+00  0.0000E+00  0.0000E+00
    -11.351  0.0000E+00  0.0000E+00  0.0000E+00
    -11.250  0.0000E+00  0.0000E+00  0.0000E+00
    -11.148  0.0000E+00  0.0000E+00  0.0000E+00
    -11.047  0.0000E+00  0.0000E+00  0.0000E+00
    -10.946  0.0000E+00  0.0000E+00  0.0000E+00
    -10.845  0.0000E+00  0.0000E+00  0.0000E+00
    -10.744  0.0000E+00  0.0000E+00  0.0000E+00
    -10.642  0.0000E+00  0.0000E+00  0.0000E+00
    -10.541  0.0000E+00  0.0000E+00  0.0000E+00
    -10.440  0.0000E+00  0.0000E+00  0.0000E+00
    -10.339  0.0000E+00  0.0000E+00  0.0000E+00
    -10.238  0.0000E+00  0.0000E+00  0.0000E+00
    -10.136  0.0000E+00  0.0000E+00  0.0000E+00
    -10.035  0.0000E+00  0.0000E+00  0.0000E+00
     -9.934  0.0000E+00  0.0000E+00  0.0000E+00
     -9.833  0.0000E+00  0.0000E+00  0.0000E+00
     -9.732  0.0000E+00  0.0000E+00  0.0000E+00
     -9.630  0.0000E+00  0.0000E+00  0.0000E+00
     -9.529  0.0000E+00  0.0000E+00  0.0000E+00
     -9.428  0.0000E+00  0.0000E+00  0.0000E+00
     -9.327  0.0000E+00  0.0000E+00  0.0000E+00
     -9.226  0.0000E+00  0.0000E+00  0.0000E+00
     -9.124  0.0000E+00  0.0000E+00  0.0000E+00
     -9.023  0.0000E+00  0.0000E+00  0.0000E+00
     -8.922  0.0000E+00  0.0000E+00  0.0000E+00
     -8.821  0.0000E+00  0.0000E+00  0.0000E+00
     -8.720  0.0000E+00  0.0000E+00  0.0000E+00
     -8.618  0.0000E+00  0.0000E+00  0.0000E+00
     -8.517  0.0000E+00  0.0000E+00  0.0000E+00
     -8.416  0.0000E+00  0.0000E+00  0.0000E+00
     -8.315  0.0000E+00  0.0000E+00  0.0000E+00
     -8.214  0.6334E-06  0.1146E-03  0.1454E-05
     -8.112  0.2249E-20  0.4278E-18  0.4853E-20
     -8.011  0.1097E-04  0.2577E-02  0.2282E-04
     -7.910  0.1334E-04  0.9850E-02  0.3553E-04
     -7.809  0.6332E-05  0.2220E-02  0.8882E-05
     -7.708  0.7072E-05  0.2528E-01  0.4722E-04
     -7.606  0.7467E-05  0.2870E-01  0.3057E-04
     -7.505  0.6274E-05  0.4240E-01  0.2312E-04
     -7.404  0.2527E-04  0.1849E+00  0.5279E-04
     -7.303  0.6236E-05  0.2710E+00  0.1917E-04
     -7.202  0.6541E-04  0.2527E+02  0.7938E-04
     -7.100  0.5848E-04  0.3739E+01  0.6072E-04
     -6.999  0.2136E-04  0.3693E+00  0.4416E-04
     -6.898  0.1679E-04  0.2828E-01  0.1544E-04
     -6.797  0.2550E-04  0.2113E-01  0.1155E-04
     -6.696  0.0000E+00  0.0000E+00  0.0000E+00
     -6.594  0.2702E-06  0.1221E-03  0.1008E-06
     -6.493  0.0000E+00  0.0000E+00  0.0000E+00
     -6.392  0.0000E+00  0.0000E+00  0.0000E+00
     -6.291  0.0000E+00  0.0000E+00  0.0000E+00
     -6.190  0.0000E+00  0.0000E+00  0.0000E+00
     -6.089  0.0000E+00  0.0000E+00  0.0000E+00
     -5.987  0.0000E+00  0.0000E+00  0.0000E+00
     -5.886  0.0000E+00  0.0000E+00  0.0000E+00
     -5.785  0.0000E+00  0.0000E+00  0.0000E+00
     -5.684  0.0000E+00  0.0000E+00  0.0000E+00
     -5.583  0.0000E+00  0.0000E+00  0.0000E+00
     -5.481  0.0000E+00  0.0000E+00  0.0000E+00
     -5.380  0.0000E+00  0.0000E+00  0.0000E+00
     -5.279  0.0000E+00  0.0000E+00  0.0000E+00
     -5.178  0.0000E+00  0.0000E+00  0.0000E+00
     -5.077  0.0000E+00  0.0000E+00  0.0000E+00
     -4.975  0.0000E+00  0.0000E+00  0.0000E+00
     -4.874  0.0000E+00  0.0000E+00  0.0000E+00
     -4.773  0.0000E+00  0.0000E+00  0.0000E+00
     -4.672  0.0000E+00  0.0000E+00  0.0000E+00
     -4.571  0.0000E+00  0.0000E+00  0.0000E+00
     -4.469  0.0000E+00  0.0000E+00  0.0000E+00
     -4.368  0.0000E+00  0.0000E+00  0.0000E+00
     -4.267  0.0000E+00  0.0000E+00  0.0000E+00
     -4.166  0.0000E+00  0.0000E+00  0.0000E+00
     -4.065  0.0000E+00  0.0000E+00  0.0000E+00
     -3.963  0.0000E+00  0.0000E+00  0.0000E+00
     -3.862  0.0000E+00  0.0000E+00  0.0000E+00
     -3.761  0.0000E+00  0.0000E+00  0.0000E+00
     -3.660  0.0000E+00  0.0000E+00  0.0000E+00
     -3.559  0.0000E+00  0.0000E+00  0.0000E+00
     -3.457  0.0000E+00  0.0000E+00  0.0000E+00
     -3.356  0.5355E-07  0.3775E-03  0.4025E-05
     -3.255  0.7003E-04  0.1862E-01  0.1304E-02
     -3.154  0.2141E-03  0.1755E-01  0.1958E-02
     -3.053  0.1344E-03  0.1228E-01  0.1197E-02
     -2.951  0.6798E-04  0.1128E-01  0.7621E-03
     -2.850  0.1916E-04  0.1989E-02  0.2657E-03
     -2.749  0.3013E-11  0.3305E-09  0.8418E-11
     -2.648  0.1194E-02  0.3046E-01  0.1347E-02
     -2.547  0.2398E-02  0.2284E-01  0.1479E-02
     -2.445  0.2629E-02  0.1814E-01  0.1062E-02
     -2.344  0.3366E-02  0.1118E-01  0.2946E-02
     -2.243  0.5141E-02  0.1773E-01  0.2236E-02
     -2.142  0.1128E-01  0.1736E-01  0.4376E-02
     -2.041  0.7088E-02  0.2243E-01  0.2852E-02
     -1.939  0.3494E-02  0.2829E-01  0.1779E-02
     -1.838  0.1703E-02  0.1128E+00  0.6304E-02
     -1.737  0.1938E-02  0.8919E-01  0.6536E-02
     -1.636  0.2915E-02  0.4891E-01  0.6425E-02
     -1.535  0.3711E-02  0.6615E-01  0.1288E-01
     -1.433  0.5341E-02  0.6153E-01  0.1479E-01
     -1.332  0.3217E-02  0.5295E-01  0.1482E-01
     -1.231  0.4261E-02  0.7295E-01  0.1384E-01
     -1.130  0.1331E-02  0.5697E-01  0.1204E-01
     -1.029  0.1110E-02  0.4171E-01  0.6698E-02
     -0.927  0.5171E-03  0.4479E-02  0.1692E-02
     -0.826  0.1295E-02  0.2560E-01  0.4539E-02
     -0.725  0.6147E-03  0.1220E-01  0.2959E-02
     -0.624  0.4349E-04  0.1872E-02  0.5256E-03
     -0.523  0.1392E-03  0.3080E-02  0.9854E-03
     -0.421  0.2603E-03  0.1040E-02  0.6286E-03
     -0.320  0.8039E-04  0.9841E-03  0.4833E-03
     -0.219  0.5886E-04  0.2338E-02  0.5588E-03
     -0.118  0.3064E-06  0.1858E-04  0.7351E-05
     -0.017  0.4338E-05  0.2621E-03  0.1062E-03
      0.085  0.1608E-04  0.2552E-03  0.2032E-03
      0.186  0.0000E+00  0.0000E+00  0.0000E+00
      0.287  0.0000E+00  0.0000E+00  0.0000E+00
      0.388  0.1278E-05  0.5621E-04  0.1833E-03
      0.489  0.0000E+00  0.0000E+00  0.0000E+00
      0.591  0.0000E+00  0.0000E+00  0.0000E+00
      0.692  0.0000E+00  0.0000E+00  0.0000E+00
      0.793  0.0000E+00  0.0000E+00  0.0000E+00
      0.894  0.0000E+00  0.0000E+00  0.0000E+00
      0.995  0.0000E+00  0.0000E+00  0.0000E+00
      1.097  0.0000E+00  0.0000E+00  0.0000E+00
      1.198  0.0000E+00  0.0000E+00  0.0000E+00
      1.299  0.0000E+00  0.0000E+00  0.0000E+00
      1.400  0.0000E+00  0.0000E+00  0.0000E+00
      1.501  0.0000E+00  0.0000E+00  0.0000E+00
      1.603  0.0000E+00  0.0000E+00  0.0000E+00
      1.704  0.0000E+00  0.0000E+00  0.0000E+00
      1.805  0.0000E+00  0.0000E+00  0.0000E+00
      1.906  0.0000E+00  0.0000E+00  0.0000E+00
      2.007  0.0000E+00  0.0000E+00  0.0000E+00
      2.109  0.0000E+00  0.0000E+00  0.0000E+00
      2.210  0.0000E+00  0.0000E+00  0.0000E+00
      2.311  0.0000E+00  0.0000E+00  0.0000E+00
      2.412  0.9927E-17  0.1530E-16  0.4938E-16
      2.513  0.4955E-04  0.1041E-03  0.4091E-03
      2.615  0.1488E-03  0.2994E-03  0.1306E-02
      2.716  0.3143E-04  0.2873E-03  0.1477E-02
      2.817  0.4893E-16  0.5117E-16  0.4439E-15
      2.918  0.1446E-03  0.3308E-03  0.2789E-02
      3.019  0.6290E-04  0.2422E-02  0.5099E-02
      3.121  0.1077E-03  0.2248E-02  0.3647E-02
      3.222  0.8322E-03  0.3563E-02  0.3510E-02
      3.323  0.2187E-03  0.2388E-02  0.2303E-02
      3.424  0.4780E-03  0.2425E-02  0.2390E-02
      3.525  0.5403E-03  0.1783E-02  0.1865E-02
      3.627  0.4642E-04  0.1947E-03  0.1921E-03
      3.728  0.0000E+00  0.0000E+00  0.0000E+00
      3.829  0.0000E+00  0.0000E+00  0.0000E+00
      3.930  0.1784E-08  0.7508E-08  0.1023E-07
      4.031  0.1574E-03  0.1001E-02  0.1956E-02
      4.133  0.5184E-18  0.9981E-18  0.5431E-16
      4.234  0.6023E-03  0.1179E-02  0.4859E-02
      4.335  0.2752E-03  0.2244E-02  0.1163E-01
      4.436  0.1144E-02  0.1941E-02  0.1530E-01
      4.537  0.1135E-02  0.6170E-02  0.2211E-01
      4.639  0.2195E-02  0.8097E-02  0.9157E-02
      4.740  0.7878E-02  0.3457E-02  0.1187E-01
      4.841  0.1465E-01  0.6464E-02  0.1140E-01
      4.942  0.1502E-01  0.8151E-02  0.1816E-01
      5.043  0.0000E+00  0.0000E+00  0.0000E+00
      5.145  0.0000E+00  0.0000E+00  0.0000E+00
      5.246  0.0000E+00  0.0000E+00  0.0000E+00
      5.347  0.9030E-02  0.3341E-02  0.1662E-02
      5.448  0.1310E-01  0.1423E-02  0.4382E-02
      5.549  0.2167E-04  0.3865E-04  0.1120E-02
      5.650  0.2256E-01  0.1100E-01  0.1511E-01
      5.752  0.1477E-01  0.5871E-02  0.1996E-01
      5.853  0.7168E-03  0.2637E-02  0.2111E-01
      5.954  0.1376E-01  0.7388E-02  0.6644E-01
      6.055  0.4984E-01  0.1079E-01  0.1067E+00
      6.156  0.5994E-01  0.2178E-01  0.2470E+00
      6.258  0.4260E-01  0.9844E-02  0.3016E+00
      6.359  0.2980E-01  0.2151E-01  0.3840E+00
      6.460  0.1912E-01  0.1335E-01  0.2999E+00
      6.561  0.2221E-01  0.1602E-01  0.3302E+00
      6.662  0.3302E-01  0.1796E-01  0.3096E+00
      6.764  0.5302E-03  0.3069E-02  0.3243E-01
      6.865  0.0000E+00  0.0000E+00  0.0000E+00
      6.966  0.0000E+00  0.0000E+00  0.0000E+00
      7.067  0.0000E+00  0.0000E+00  0.0000E+00
      7.168  0.0000E+00  0.0000E+00  0.0000E+00
      7.270  0.0000E+00  0.0000E+00  0.0000E+00
      7.371  0.0000E+00  0.0000E+00  0.0000E+00
      7.472  0.0000E+00  0.0000E+00  0.0000E+00
      7.573  0.0000E+00  0.0000E+00  0.0000E+00
      7.674  0.0000E+00  0.0000E+00  0.0000E+00
      7.776  0.0000E+00  0.0000E+00  0.0000E+00
      7.877  0.0000E+00  0.0000E+00  0.0000E+00
      7.978  0.0000E+00  0.0000E+00  0.0000E+00
      8.079  0.0000E+00  0.0000E+00  0.0000E+00
      8.07925260    -22.28022635  301      0.50203264      1.00000000
    -22.280  0.0000E+00  0.0000E+00  0.0000E+00
    -22.179  0.0000E+00  0.0000E+00  0.0000E+00
    -22.078  0.0000E+00  0.0000E+00  0.0000E+00
    -21.977  0.0000E+00  0.0000E+00  0.0000E+00
    -21.875  0.0000E+00  0.0000E+00  0.0000E+00
    -21.774  0.0000E+00  0.0000E+00  0.0000E+00
    -21.673  0.0000E+00  0.0000E+00  0.0000E+00
    -21.572  0.0000E+00  0.0000E+00  0.0000E+00
    -21.471  0.0000E+00  0.0000E+00  0.0000E+00
    -21.369  0.0000E+00  0.0000E+00  0.0000E+00
    -21.268  0.0000E+00  0.0000E+00  0.0000E+00
    -21.167  0.0000E+00  0.0000E+00  0.0000E+00
    -21.066  0.0000E+00  0.0000E+00  0.0000E+00
    -20.965  0.0000E+00  0.0000E+00  0.0000E+00
    -20.863  0.1754E+02  0.3049E-03  0.1457E-04
    -20.762  0.3916E-02  0.4589E-06  0.2455E-07
    -20.661  0.1302E-03  0.9975E-07  0.1299E-07
    -20.560  0.0000E+00  0.0000E+00  0.0000E+00
    -20.459  0.0000E+00  0.0000E+00  0.0000E+00
    -20.357  0.0000E+00  0.0000E+00  0.0000E+00
    -20.256  0.0000E+00  0.0000E+00  0.0000E+00
    -20.155  0.0000E+00  0.0000E+00  0.0000E+00
    -20.054  0.0000E+00  0.0000E+00  0.0000E+00
    -19.953  0.0000E+00  0.0000E+00  0.0000E+00
    -19.851  0.0000E+00  0.0000E+00  0.0000E+00
    -19.750  0.0000E+00  0.0000E+00  0.0000E+00
    -19.649  0.0000E+00  0.0000E+00  0.0000E+00
    -19.548  0.0000E+00  0.0000E+00  0.0000E+00
    -19.447  0.0000E+00  0.0000E+00  0.0000E+00
    -19.345  0.0000E+00  0.0000E+00  0.0000E+00
    -19.244  0.0000E+00  0.0000E+00  0.0000E+00
    -19.143  0.0000E+00  0.0000E+00  0.0000E+00
    -19.042  0.0000E+00  0.0000E+00  0.0000E+00
    -18.941  0.0000E+00  0.0000E+00  0.0000E+00
    -18.839  0.0000E+00  0.0000E+00  0.0000E+00
    -18.738  0.0000E+00  0.0000E+00  0.0000E+00
    -18.637  0.0000E+00  0.0000E+00  0.0000E+00
    -18.536  0.0000E+00  0.0000E+00  0.0000E+00
    -18.435  0.0000E+00  0.0000E+00  0.0000E+00
    -18.333  0.0000E+00  0.0000E+00  0.0000E+00
    -18.232  0.0000E+00  0.0000E+00  0.0000E+00
    -18.131  0.0000E+00  0.0000E+00  0.0000E+00
    -18.030  0.0000E+00  0.0000E+00  0.0000E+00
    -17.929  0.0000E+00  0.0000E+00  0.0000E+00
    -17.828  0.0000E+00  0.0000E+00  0.0000E+00
    -17.726  0.0000E+00  0.0000E+00  0.0000E+00
    -17.625  0.0000E+00  0.0000E+00  0.0000E+00
    -17.524  0.0000E+00  0.0000E+00  0.0000E+00
    -17.423  0.0000E+00  0.0000E+00  0.0000E+00
    -17.322  0.0000E+00  0.0000E+00  0.0000E+00
    -17.220  0.0000E+00  0.0000E+00  0.0000E+00
    -17.119  0.0000E+00  0.0000E+00  0.0000E+00
    -17.018  0.0000E+00  0.0000E+00  0.0000E+00
    -16.917  0.0000E+00  0.0000E+00  0.0000E+00
    -16.816  0.0000E+00  0.0000E+00  0.0000E+00
    -16.714  0.7030E-06  0.8059E-06  0.2622E-06
    -16.613  0.4238E-05  0.9822E-05  0.2510E-05
    -16.512  0.2312E-04  0.1191E-04  0.1504E-05
    -16.411  0.5057E-04  0.4356E-04  0.9068E-05
    -16.310  0.2261E-04  0.3486E-04  0.5369E-05
    -16.208  0.5538E-04  0.3314E-04  0.3635E-05
    -16.107  0.0000E+00  0.0000E+00  0.0000E+00
    -16.006  0.0000E+00  0.0000E+00  0.0000E+00
    -15.905  0.0000E+00  0.0000E+00  0.0000E+00
    -15.804  0.0000E+00  0.0000E+00  0.0000E+00
    -15.702  0.0000E+00  0.0000E+00  0.0000E+00
    -15.601  0.0000E+00  0.0000E+00  0.0000E+00
    -15.500  0.0000E+00  0.0000E+00  0.0000E+00
    -15.399  0.0000E+00  0.0000E+00  0.0000E+00
    -15.298  0.0000E+00  0.0000E+00  0.0000E+00
    -15.196  0.0000E+00  0.0000E+00  0.0000E+00
    -15.095  0.0000E+00  0.0000E+00  0.0000E+00
    -14.994  0.0000E+00  0.0000E+00  0.0000E+00
    -14.893  0.0000E+00  0.0000E+00  0.0000E+00
    -14.792  0.0000E+00  0.0000E+00  0.0000E+00
    -14.690  0.0000E+00  0.0000E+00  0.0000E+00
    -14.589  0.0000E+00  0.0000E+00  0.0000E+00
    -14.488  0.9695E-03  0.5916E-03  0.1613E-04
    -14.387  0.2550E-03  0.3043E-03  0.1108E-04
    -14.286  0.9020E-03  0.5461E-03  0.2349E-05
    -14.184  0.2716E-02  0.3347E-02  0.9229E-04
    -14.083  0.4320E-03  0.3278E-02  0.2027E-03
    -13.982  0.2236E-02  0.5642E-02  0.3959E-03
    -13.881  0.9898E-03  0.4025E-02  0.3617E-03
    -13.780  0.5618E-03  0.2032E-02  0.4026E-03
    -13.678  0.9904E-04  0.5349E-03  0.1268E-03
    -13.577  0.0000E+00  0.0000E+00  0.0000E+00
    -13.476  0.0000E+00  0.0000E+00  0.0000E+00
    -13.375  0.0000E+00  0.0000E+00  0.0000E+00
    -13.274  0.0000E+00  0.0000E+00  0.0000E+00