<?xml version="1.0" encoding="ISO-8859-1"?>
<modeling>
 <generator>
  <i name="program" type="string">vasp </i>
  <i name="version" type="string">5.4.4.18Apr17-6-g9f103f2a35  </i>
  <i name="subversion" type="string">(build Jun 22 2020 09:27:21) complex            parallel </i>
  <i name="platform" type="string">tx2_gcc-7.3_libsci-18.07_cray-fftw-3.3.8 </i>
  <i name="date" type="string">2021 10 12 </i>
  <i name="time" type="string">03:20:42 </i>
 </generator>
 <incar>
  <i type="string" name="SYSTEM"> CsPbBr3 cubic bulk</i>
  <i type="string" name="PREC">accurate</i>
  <i type="string" name="ALGO"> NORMAL   ! Electronic minimisation algo</i>
  <i type="logical" name="ADDGRID"> T  </i>
  <i type="int" name="ISPIN">     1</i>
  <i type="int" name="NELM">   200</i>
  <i type="int" name="IBRION">     2</i>
  <i name="EDIFF">      0.00000100</i>
  <i name="EDIFFG">     -0.01000000</i>
  <i type="int" name="NSW">     0</i>
  <i type="int" name="ISIF">     2</i>
  <i type="int" name="ISYM">     0</i>
  <i name="ENCUT">    300.00000000</i>
  <i name="POTIM">      0.50000000</i>
  <i name="NUPDOWN">      0.00000000</i>
  <i name="NELECT">    344.00000000</i>
  <i type="string" name="LREAL"> AUTO</i>
  <i type="int" name="ISMEAR">     0</i>
  <i name="SIGMA">      0.01000000</i>
  <i type="logical" name="LWAVE"> F  </i>
  <i type="logical" name="LCHARG"> F  </i>
  <i type="logical" name="LVHAR"> T  </i>
  <i type="int" name="LORBIT">    10</i>
  <i type="logical" name="LASPH"> T  </i>
  <v type="int" name="KPOINT_BSE">    -1     0     0     0</v>
  <i type="int" name="NELM">   200</i>
  <i type="string" name="METAGGA"> SCAN       ! PBE exchange-correlation</i>
  <i type="logical" name="LASPH"> T  </i>
 </incar>
 <structure name="primitive_cell" >
  <crystal>
   <varray name="basis" >
    <v>       8.45648900       0.00000000       8.04030100 </v>
    <v>       0.00000000      11.72984700       0.00000000 </v>
    <v>      -8.45648900       0.00000000       8.04030100 </v>
   </varray>
   <i name="volume">   1595.08833419 </i>
   <varray name="rec_basis" >
    <v>       0.05912619      -0.00000000       0.06218673 </v>
    <v>       0.00000000       0.08525260      -0.00000000 </v>
    <v>      -0.05912619       0.00000000       0.06218673 </v>
   </varray>
  </crystal>
  <varray name="positions" >
   <v>       0.27555600       0.24988100       0.21263900 </v>
   <v>       0.05867600       0.03542800       0.24807400 </v>
   <v>       0.05391400       0.46825600       0.24487800 </v>
   <v>      -0.46514600       0.25983400       0.04504800 </v>
   <v>       0.45820400       0.23361100      -0.49776800 </v>
   <v>       0.25378500       0.02908900      -0.03867000 </v>
   <v>       0.45250000      -0.03732700       0.26241900 </v>
   <v>       0.44906400      -0.45624800       0.23624300 </v>
   <v>       0.25188000       0.46496700      -0.05605700 </v>
   <v>      -0.03129700       0.25212900      -0.04046500 </v>
   <v>      -0.49304800       0.00727200       0.01051700 </v>
   <v>       0.01528000       0.24818600      -0.48729000 </v>
   <v>      -0.49999300      -0.49294400      -0.00189400 </v>
   <v>       0.48958100       0.48604900       0.48637300 </v>
   <v>       0.00570300       0.00431100       0.00071400 </v>
   <v>       0.00110600       0.49982100      -0.00536300 </v>
   <v>       0.24265100      -0.47551000      -0.45492200 </v>
   <v>       0.49975100      -0.00717200      -0.48814900 </v>
   <v>       0.25411500      -0.04642100      -0.45265800 </v>
   <v>      -0.19497600       0.25006400       0.22835200 </v>
   <v>      -0.00156100      -0.00480300       0.49382400 </v>
   <v>      -0.00546200      -0.49924500       0.49370500 </v>
   <v>       0.24225800       0.23232600      -0.26805200 </v>
   <v>       0.21664100      -0.24537500       0.27455400 </v>
   <v>      -0.26617900       0.46443600       0.44510000 </v>
   <v>      -0.25415600       0.02867200       0.45121600 </v>
   <v>      -0.24177300      -0.02438600       0.06101400 </v>
   <v>      -0.44295400       0.02929200      -0.23608200 </v>
   <v>       0.03065800      -0.24787800       0.01553100 </v>
   <v>      -0.24710100      -0.46599700       0.04412600 </v>
   <v>       0.48141200      -0.24314200      -0.02305800 </v>
   <v>      -0.03322800      -0.01759400      -0.25731700 </v>
   <v>      -0.05404500      -0.47037200      -0.25945300 </v>
   <v>      -0.47151500      -0.36722700      -0.33892200 </v>
   <v>      -0.03559900      -0.25172100       0.45204200 </v>
   <v>      -0.29144800      -0.24937300       0.26345600 </v>
   <v>       0.22273700      -0.25592800      -0.22686100 </v>
   <v>      -0.22718400       0.24730100      -0.29801100 </v>
   <v>      -0.24420200      -0.23136100      -0.18648500 </v>
  </varray>
 </structure>
 <varray name="primitive_index" >
  <v type="int" >        1 </v>
  <v type="int" >       29 </v>
  <v type="int" >       38 </v>
  <v type="int" >       22 </v>
  <v type="int" >       20 </v>
  <v type="int" >       32 </v>
  <v type="int" >       34 </v>
  <v type="int" >       26 </v>
  <v type="int" >       24 </v>
  <v type="int" >       19 </v>
  <v type="int" >       11 </v>
  <v type="int" >       23 </v>
  <v type="int" >       13 </v>
  <v type="int" >       16 </v>
  <v type="int" >        9 </v>
  <v type="int" >       15 </v>
  <v type="int" >       37 </v>
  <v type="int" >       10 </v>
  <v type="int" >       31 </v>
  <v type="int" >        6 </v>
  <v type="int" >       12 </v>
  <v type="int" >       14 </v>
  <v type="int" >        5 </v>
  <v type="int" >        8 </v>
  <v type="int" >       25 </v>
  <v type="int" >       33 </v>
  <v type="int" >       30 </v>
  <v type="int" >       28 </v>
  <v type="int" >       21 </v>
  <v type="int" >       36 </v>
  <v type="int" >       17 </v>
  <v type="int" >       35 </v>
  <v type="int" >       27 </v>
  <v type="int" >       39 </v>
  <v type="int" >       18 </v>
  <v type="int" >        3 </v>
  <v type="int" >        4 </v>
  <v type="int" >        2 </v>
  <v type="int" >        7 </v>
 </varray>
 <kpoints>
  <generation param="Gamma">
   <v type="int" name="divisions">       2        2        2 </v>
   <v name="usershift">      0.00000000       0.00000000       0.00000000 </v>
   <v name="genvec1">      0.50000000       0.00000000       0.00000000 </v>
   <v name="genvec2">      0.00000000       0.50000000       0.00000000 </v>
   <v name="genvec3">      0.00000000       0.00000000       0.50000000 </v>
   <v name="shift">      0.00000000       0.00000000       0.00000000 </v>
  </generation>
  <varray name="kpointlist" >
   <v>       0.00000000       0.00000000       0.00000000 </v>
   <v>       0.50000000       0.00000000       0.00000000 </v>
   <v>       0.00000000       0.50000000       0.00000000 </v>
   <v>       0.50000000       0.50000000       0.00000000 </v>
   <v>       0.00000000       0.00000000       0.50000000 </v>
   <v>       0.50000000       0.00000000       0.50000000 </v>
   <v>       0.00000000       0.50000000       0.50000000 </v>
   <v>       0.50000000       0.50000000       0.50000000 </v>
  </varray>
  <varray name="weights" >
   <v>       0.12500000 </v>
   <v>       0.12500000 </v>
   <v>       0.12500000 </v>
   <v>       0.12500000 </v>
   <v>       0.12500000 </v>
   <v>       0.12500000 </v>
   <v>       0.12500000 </v>
   <v>       0.12500000 </v>
  </varray>
 </kpoints>
 <parameters>
  <separator name="general" >
   <i type="string" name="SYSTEM">CsPbBr3 cubic bulk</i>
   <i type="logical" name="LCOMPAT"> F  </i>
  </separator>
  <separator name="electronic" >
   <i type="string" name="PREC">accura</i>
   <i name="ENMAX">    300.00000000</i>
   <i name="ENAUG">    503.85200000</i>
   <i name="EDIFF">      0.00000100</i>
   <i type="int" name="IALGO">    38</i>
   <i type="int" name="IWAVPR">    10</i>
   <i type="int" name="NBANDS">   208</i>
   <i name="NELECT">    344.00000000</i>
   <i type="int" name="TURBO">     0</i>
   <i type="int" name="IRESTART">     0</i>
   <i type="int" name="NREBOOT">     0</i>
   <i type="int" name="NMIN">     0</i>
   <i name="EREF">      0.00000000</i>
   <separator name="electronic smearing" >
    <i type="int" name="ISMEAR">     0</i>
    <i name="SIGMA">      0.01000000</i>
    <i name="KSPACING">      0.50000000</i>
    <i type="logical" name="KGAMMA"> T  </i>
   </separator>
   <separator name="electronic projectors" >
    <i type="logical" name="LREAL"> T  </i>
    <v name="ROPT">     -0.00025000     -0.00025000     -0.00025000</v>
    <i type="int" name="LMAXPAW">  -100</i>
    <i type="int" name="LMAXMIX">     2</i>
    <i type="logical" name="NLSPLINE"> F  </i>
   </separator>
   <separator name="electronic startup" >
    <i type="int" name="ISTART">     0</i>
    <i type="int" name="ICHARG">     2</i>
    <i type="int" name="INIWAV">     1</i>
   </separator>
   <separator name="electronic spin" >
    <i type="int" name="ISPIN">     1</i>
    <i type="logical" name="LNONCOLLINEAR"> F  </i>
    <v name="MAGMOM">      0.00000000      0.00000000      0.00000000      0.00000000      0.00000000      0.00000000      0.00000000      0.00000000      0.00000000      0.00000000      0.00000000      0.00000000      0.00000000      0.00000000      0.00000000      0.00000000      0.00000000      0.00000000      0.00000000      0.00000000
      0.00000000      0.00000000      0.00000000      0.00000000      0.00000000      0.00000000      0.00000000      0.00000000      0.00000000      0.00000000      0.00000000      0.00000000      0.00000000      0.00000000      0.00000000      0.00000000      0.00000000      0.00000000      0.00000000</v>
    <i name="NUPDOWN">      0.00000000</i>
    <i type="logical" name="LSORBIT"> F  </i>
    <v name="SAXIS">      0.00000000      0.00000000      1.00000000</v>
    <i type="logical" name="LSPIRAL"> F  </i>
    <v name="QSPIRAL">      0.00000000      0.00000000      0.00000000</v>
    <i type="logical" name="LZEROZ"> F  </i>
   </separator>
   <separator name="electronic exchange-correlation" >
    <i type="logical" name="LASPH"> T  </i>
    <i type="logical" name="LMETAGGA"> F  </i>
   </separator>
   <separator name="electronic convergence" >
    <i type="int" name="NELM">   200</i>
    <i type="int" name="NELMDL">    -5</i>
    <i type="int" name="NELMIN">     2</i>
    <i name="ENINI">    300.00000000</i>
    <separator name="electronic convergence detail" >
     <i type="logical" name="LDIAG"> T  </i>
     <i type="logical" name="LSUBROT"> F  </i>
     <i name="WEIMIN">      0.00000000</i>
     <i name="EBREAK">      0.00000000</i>
     <i name="DEPER">      0.30000000</i>
     <i type="int" name="NRMM">     4</i>
     <i name="TIME">      0.40000000</i>
    </separator>
   </separator>
   <separator name="electronic mixer" >
    <i name="AMIX">      0.40000000</i>
    <i name="BMIX">      1.00000000</i>
    <i name="AMIN">      0.10000000</i>
    <i name="AMIX_MAG">      1.60000000</i>
    <i name="BMIX_MAG">      1.00000000</i>
    <separator name="electronic mixer details" >
     <i type="int" name="IMIX">     4</i>
     <i type="logical" name="MIXFIRST"> F  </i>
     <i type="int" name="MAXMIX">   -45</i>
     <i name="WC">    100.00000000</i>
     <i type="int" name="INIMIX">     1</i>
     <i type="int" name="MIXPRE">     1</i>
     <i type="int" name="MREMOVE">     5</i>
    </separator>
   </separator>
   <separator name="electronic dipolcorrection" >
    <i type="logical" name="LDIPOL"> F  </i>
    <i type="logical" name="LMONO"> F  </i>
    <i type="int" name="IDIPOL">     0</i>
    <i name="EPSILON">      1.00000000</i>
    <v name="DIPOL">   -100.00000000   -100.00000000   -100.00000000</v>
    <i name="EFIELD">      0.00000000</i>
   </separator>
  </separator>
  <separator name="grids" >
   <i type="int" name="NGX">    70</i>
   <i type="int" name="NGY">    70</i>
   <i type="int" name="NGZ">    70</i>
   <i type="int" name="NGXF">   140</i>
   <i type="int" name="NGYF">   140</i>
   <i type="int" name="NGZF">   140</i>
   <i type="logical" name="ADDGRID"> T  </i>
  </separator>
  <separator name="ionic" >
   <i type="int" name="NSW">     0</i>
   <i type="int" name="IBRION">    -1</i>
   <i type="int" name="MDALGO">     0</i>
   <i type="int" name="ISIF">     2</i>
   <i name="PSTRESS">      0.00000000</i>
   <i name="EDIFFG">     -0.01000000</i>
   <i type="int" name="NFREE">     1</i>
   <i name="POTIM">      0.50000000</i>
   <i name="SMASS">     -3.00000000</i>
   <i name="SCALEE">      1.00000000</i>
  </separator>
  <separator name="ionic md" >
   <i name="TEBEG">      0.00010000</i>
   <i name="TEEND">      0.00010000</i>
   <i type="int" name="NBLOCK">     1</i>
   <i type="int" name="KBLOCK">     1</i>
   <i type="int" name="NPACO">   256</i>
   <i name="APACO">     16.00000000</i>
  </separator>
  <separator name="symmetry" >
   <i type="int" name="ISYM">     0</i>
   <i name="SYMPREC">      0.00001000</i>
  </separator>
  <separator name="dos" >
   <i type="int" name="LORBIT">    10</i>
   <v name="RWIGS">     -1.00000000     -1.00000000     -1.00000000</v>
   <i type="int" name="NEDOS">   301</i>
   <i name="EMIN">     10.00000000</i>
   <i name="EMAX">    -10.00000000</i>
   <i name="EFERMI">      0.00000000</i>
  </separator>
  <separator name="writing" >
   <i type="int" name="NWRITE">     2</i>
   <i type="logical" name="LWAVE"> F  </i>
   <i type="logical" name="LDOWNSAMPLE"> F  </i>
   <i type="logical" name="LCHARG"> F  </i>
   <i type="logical" name="LPARD"> F  </i>
   <i type="logical" name="LVTOT"> F  </i>
   <i type="logical" name="LVHAR"> T  </i>
   <i type="logical" name="LELF"> F  </i>
   <i type="logical" name="LOPTICS"> F  </i>
   <v name="STM">      0.00000000      0.00000000      0.00000000      0.00000000      0.00000000      0.00000000      0.00000000</v>
  </separator>
  <separator name="performance" >
   <i type="int" name="NPAR">     8</i>
   <i type="int" name="NSIM">     4</i>
   <i type="int" name="NBLK">    -1</i>
   <i type="logical" name="LPLANE"> T  </i>
   <i type="logical" name="LSCALAPACK"> T  </i>
   <i type="logical" name="LSCAAWARE"> F  </i>
   <i type="logical" name="LSCALU"> F  </i>
   <i type="logical" name="LASYNC"> F  </i>
   <i type="logical" name="LORBITALREAL"> F  </i>
  </separator>
  <separator name="miscellaneous" >
   <i type="int" name="IDIOT">     3</i>
   <i type="int" name="ISPECIAL">     0</i>
   <i type="logical" name="LMUSIC"> F  </i>
   <v name="POMASS">    132.90000000    207.20000000     79.90400000</v>
   <v name="DARWINR">      0.00000000      0.00000000      0.00000000</v>
   <v name="DARWINV">      1.00000000      1.00000000      1.00000000</v>
   <i type="logical" name="LCORR"> T  </i>
  </separator>
  <i type="logical" name="GGA_COMPAT"> T  </i>
  <i type="logical" name="LBERRY"> F  </i>
  <i type="int" name="ICORELEVEL">     0</i>
  <i type="logical" name="LDAU"> F  </i>
  <i type="int" name="I_CONSTRAINED_M">     0</i>
  <separator name="electronic exchange-correlation" >
   <i type="string" name="GGA">--</i>
   <i type="int" name="VOSKOWN">     0</i>
   <i type="logical" name="LHFCALC"> F  </i>
   <i type="string" name="PRECFOCK"></i>
   <i type="logical" name="LSYMGRAD"> F  </i>
   <i type="logical" name="LHFONE"> F  </i>
   <i type="logical" name="LRHFCALC"> F  </i>
   <i type="logical" name="LTHOMAS"> F  </i>
   <i type="logical" name="LMODELHF"> F  </i>
   <i name="ENCUT4O">     -1.00000000</i>
   <i type="int" name="EXXOEP">     0</i>
   <i type="int" name="FOURORBIT">     0</i>
   <i name="AEXX">      0.00000000</i>
   <i name="HFALPHA">      0.00000000</i>
   <i name="MCALPHA">      0.00000000</i>
   <i name="ALDAX">      1.00000000</i>
   <i name="AGGAX">      1.00000000</i>
   <i name="ALDAC">      1.00000000</i>
   <i name="AGGAC">      1.00000000</i>
   <i type="int" name="NKREDX">     1</i>
   <i type="int" name="NKREDY">     1</i>
   <i type="int" name="NKREDZ">     1</i>
   <i type="logical" name="SHIFTRED"> F  </i>
   <i type="logical" name="ODDONLY"> F  </i>
   <i type="logical" name="EVENONLY"> F  </i>
   <i type="int" name="LMAXFOCK">     0</i>
   <i type="int" name="NMAXFOCKAE">     0</i>
   <i type="logical" name="LFOCKAEDFT"> F  </i>
   <i name="HFSCREEN">      0.00000000</i>
   <i name="HFSCREENC">      0.00000000</i>
   <i type="int" name="NBANDSGWLOW">     0</i>
  </separator>
  <separator name="vdW DFT" >
   <i type="logical" name="LUSE_VDW"> F  </i>
   <i name="Zab_VDW">     -0.84910000</i>
   <i name="PARAM1">      0.12340000</i>
   <i name="PARAM2">      1.00000000</i>
   <i name="PARAM3">      0.00000000</i>
  </separator>
  <separator name="model GW" >
   <i type="int" name="MODEL_GW">     0</i>
   <i name="MODEL_EPS0">     24.53982053</i>
   <i name="MODEL_ALPHA">      1.00000000</i>
  </separator>
  <separator name="linear response parameters" >
   <i type="logical" name="LEPSILON"> F  </i>
   <i type="logical" name="LRPA"> F  </i>
   <i type="logical" name="LNABLA"> F  </i>
   <i type="logical" name="LVEL"> F  </i>
   <i type="int" name="KINTER">     0</i>
   <i name="CSHIFT">      0.10000000</i>
   <i name="OMEGAMAX">     -1.00000000</i>
   <i name="DEG_THRESHOLD">      0.00200000</i>
   <i name="RTIME">     -0.10000000</i>
   <i name="WPLASMAI">      0.00000000</i>
   <v name="DFIELD">      0.00000000      0.00000000      0.00000000</v>
   <v name="WPLASMA">      0.00000000      0.00000000      0.00000000      0.00000000      0.00000000      0.00000000      0.00000000      0.00000000      0.00000000</v>
  </separator>
  <separator name="orbital magnetization" >
   <i type="logical" name="NUCIND"> F  </i>
   <v name="MAGPOS">      0.00000000      0.00000000      0.00000000</v>
   <i type="logical" name="LNICSALL"> T  </i>
   <i type="logical" name="ORBITALMAG"> F  </i>
   <i type="logical" name="LMAGBLOCH"> F  </i>
   <i type="logical" name="LCHIMAG"> F  </i>
   <i type="logical" name="LGAUGE"> T  </i>
   <i type="int" name="MAGATOM">     0</i>
   <v name="MAGDIPOL">      0.00000000      0.00000000      0.00000000</v>
   <v name="AVECCONST">      0.00000000      0.00000000      0.00000000</v>
  </separator>
  <separator name="response functions" >
   <i type="logical" name="LADDER"> F  </i>
   <i type="logical" name="LRPAFORCE"> F  </i>
   <i type="logical" name="LFXC"> F  </i>
   <i type="logical" name="LHARTREE"> T  </i>
   <i type="int" name="IBSE">     0</i>
   <v type="int" name="KPOINT">    -1     0     0     0</v>
   <i type="logical" name="LTCTE"> F  </i>
   <i type="logical" name="LTETE"> F  </i>
   <i type="logical" name="LTRIPLET"> F  </i>
   <i type="logical" name="LFXCEPS"> F  </i>
   <i type="logical" name="LFXHEG"> F  </i>
   <i type="int" name="NATURALO">     2</i>
   <i type="logical" name="L2ORDER"> F  </i>
   <i type="logical" name="LMP2LT"> F  </i>
   <i type="logical" name="LUSEW"> F  </i>
   <i name="ENCUTGW">     -2.00000000</i>
   <i name="ENCUTGWSOFT">     -2.00000000</i>
   <i name="ENCUTLF">     -1.00000000</i>
   <i type="int" name="LMAXMP2">    -1</i>
   <i name="SCISSOR">      0.00000000</i>
   <i type="int" name="NOMEGA">     0</i>
   <i type="int" name="NOMEGAR">     0</i>
   <i type="int" name="NBANDSGW">    -1</i>
   <i type="int" name="NBANDSO">    -1</i>
   <i type="int" name="NBANDSV">    -1</i>
   <i type="int" name="NELM">   200</i>
   <i type="int" name="NELMHF">     1</i>
   <i type="int" name="DIM">     3</i>
   <i type="int" name="ANTIRES">     0</i>
   <i name="OMEGAMAX">    -30.00000000</i>
   <i name="OMEGAMIN">    -30.00000000</i>
   <i name="OMEGATL">   -200.00000000</i>
   <i type="int" name="OMEGAGRID">   140</i>
   <i name="CSHIFT">     -0.10000000</i>
   <i type="logical" name="SELFENERGY"> F  </i>
   <i type="logical" name="LSPECTRAL"> F  </i>
   <i type="logical" name="LSPECTRALGW"> F  </i>
   <i type="logical" name="LSINGLES"> F  </i>
   <i type="logical" name="LFERMIGW"> F  </i>
   <i type="logical" name="ODDONLYGW"> F  </i>
   <i type="logical" name="EVENONLYGW"> F  </i>
   <i type="int" name="NKREDLFX">     1</i>
   <i type="int" name="NKREDLFY">     1</i>
   <i type="int" name="NKREDLFZ">     1</i>
   <i type="int" name="MAXMEM">  2800</i>
   <i type="int" name="TELESCOPE">     0</i>
   <i type="int" name="TAUPAR">     1</i>
   <i type="int" name="OMEGAPAR">    -1</i>
   <i name="LAMBDA">      1.00000000</i>
  </separator>
  <separator name="External order field" >
   <i name="OFIELD_KAPPA">      0.00000000</i>
   <v name="OFIELD_K">      0.00000000      0.00000000      0.00000000</v>
   <i name="OFIELD_Q6_NEAR">      0.00000000</i>
   <i name="OFIELD_Q6_FAR">      0.00000000</i>
   <i name="OFIELD_A">      0.00000000</i>
  </separator>
 </parameters>
 <atominfo>
  <atoms>      39 </atoms>
  <types>       3 </types>
  <array name="atoms" >
   <dimension dim="1">ion</dimension>
   <field type="string">element</field>
   <field type="int">atomtype</field>
   <set>
    <rc><c>Cs</c><c>   1</c></rc>
    <rc><c>Cs</c><c>   1</c></rc>
    <rc><c>Cs</c><c>   1</c></rc>
    <rc><c>Cs</c><c>   1</c></rc>
    <rc><c>Cs</c><c>   1</c></rc>
    <rc><c>Cs</c><c>   1</c></rc>
    <rc><c>Cs</c><c>   1</c></rc>
    <rc><c>Cs</c><c>   1</c></rc>
    <rc><c>Pb</c><c>   2</c></rc>
    <rc><c>Pb</c><c>   2</c></rc>
    <rc><c>Pb</c><c>   2</c></rc>
    <rc><c>Pb</c><c>   2</c></rc>
    <rc><c>Pb</c><c>   2</c></rc>
    <rc><c>Pb</c><c>   2</c></rc>
    <rc><c>Pb</c><c>   2</c></rc>
    <rc><c>Pb</c><c>   2</c></rc>
    <rc><c>Br</c><c>   3</c></rc>
    <rc><c>Br</c><c>   3</c></rc>
    <rc><c>Br</c><c>   3</c></rc>
    <rc><c>Br</c><c>   3</c></rc>
    <rc><c>Br</c><c>   3</c></rc>
    <rc><c>Br</c><c>   3</c></rc>
    <rc><c>Br</c><c>   3</c></rc>
    <rc><c>Br</c><c>   3</c></rc>
    <rc><c>Br</c><c>   3</c></rc>
    <rc><c>Br</c><c>   3</c></rc>
    <rc><c>Br</c><c>   3</c></rc>
    <rc><c>Br</c><c>   3</c></rc>
    <rc><c>Br</c><c>   3</c></rc>
    <rc><c>Br</c><c>   3</c></rc>
    <rc><c>Br</c><c>   3</c></rc>
    <rc><c>Br</c><c>   3</c></rc>
    <rc><c>Br</c><c>   3</c></rc>
    <rc><c>Br</c><c>   3</c></rc>
    <rc><c>Br</c><c>   3</c></rc>
    <rc><c>Br</c><c>   3</c></rc>
    <rc><c>Br</c><c>   3</c></rc>
    <rc><c>Br</c><c>   3</c></rc>
    <rc><c>Br</c><c>   3</c></rc>
   </set>
  </array>
  <array name="atomtypes" >
   <dimension dim="1">type</dimension>
   <field type="int">atomspertype</field>
   <field type="string">element</field>
   <field>mass</field>
   <field>valence</field>
   <field type="string">pseudopotential</field>
   <set>
    <rc><c>   8</c><c>Cs</c><c>    132.90000000</c><c>      9.00000000</c><c>  PAW_PBE Cs_sv 08Apr2002               </c></rc>
    <rc><c>   8</c><c>Pb</c><c>    207.20000000</c><c>     14.00000000</c><c>  PAW_PBE Pb_d 06Sep2000                </c></rc>
    <rc><c>  23</c><c>Br</c><c>     79.90400000</c><c>      7.00000000</c><c>  PAW_PBE Br 06Sep2000                  </c></rc>
   </set>
  </array>
 </atominfo>
 <structure name="initialpos" >
  <crystal>
   <varray name="basis" >
    <v>       8.45648900       0.00000000       8.04030100 </v>
    <v>       0.00000000      11.72984700       0.00000000 </v>
    <v>      -8.45648900       0.00000000       8.04030100 </v>
   </varray>
   <i name="volume">   1595.08833419 </i>
   <varray name="rec_basis" >
    <v>       0.05912619      -0.00000000       0.06218673 </v>
    <v>       0.00000000       0.08525260      -0.00000000 </v>
    <v>      -0.05912619       0.00000000       0.06218673 </v>
   </varray>
  </crystal>
  <varray name="positions" >
   <v>       0.27555600       0.24988100       0.21263900 </v>
   <v>       0.77281600       0.24730100       0.70198900 </v>
   <v>       0.70855200       0.75062700       0.26345600 </v>
   <v>       0.22273700       0.74407200       0.77313900 </v>
   <v>       0.24225800       0.23232600       0.73194800 </v>
   <v>       0.80502400       0.25006400       0.22835200 </v>
   <v>       0.75579800       0.76863900       0.81351500 </v>
   <v>       0.21664100       0.75462500       0.27455400 </v>
   <v>       0.00570300       0.00431100       0.00071400 </v>
   <v>       0.49975100       0.99282800       0.51185100 </v>
   <v>       0.50695200       0.00727200       0.01051700 </v>
   <v>       0.99843900       0.99519700       0.49382400 </v>
   <v>       0.50000700       0.50705600       0.99810600 </v>
   <v>       0.99453800       0.50075500       0.49370500 </v>
   <v>       0.00110600       0.49982100       0.99463700 </v>
   <v>       0.48958100       0.48604900       0.48637300 </v>
   <v>       0.48141200       0.75685800       0.97694200 </v>
   <v>       0.96440100       0.74827900       0.45204200 </v>
   <v>       0.96870300       0.25212900       0.95953500 </v>
   <v>       0.45820400       0.23361100       0.50223200 </v>
   <v>       0.03065800       0.75212200       0.01553100 </v>
   <v>       0.53485400       0.25983400       0.04504800 </v>
   <v>       0.01528000       0.24818600       0.51271000 </v>
   <v>       0.25188000       0.46496700       0.94394300 </v>
   <v>       0.73382100       0.46443600       0.44510000 </v>
   <v>       0.44906400       0.54375200       0.23624300 </v>
   <v>       0.94595500       0.52962800       0.74054700 </v>
   <v>       0.55704600       0.02929200       0.76391800 </v>
   <v>       0.05867600       0.03542800       0.24807400 </v>
   <v>       0.75822700       0.97561400       0.06101400 </v>
   <v>       0.25411500       0.95357900       0.54734200 </v>
   <v>       0.25378500       0.02908900       0.96133000 </v>
   <v>       0.74584400       0.02867200       0.45121600 </v>
   <v>       0.45250000       0.96267300       0.26241900 </v>
   <v>       0.96677200       0.98240600       0.74268300 </v>
   <v>       0.75289900       0.53400300       0.04412600 </v>
   <v>       0.24265100       0.52449000       0.54507800 </v>
   <v>       0.05391400       0.46825600       0.24487800 </v>
   <v>       0.52848500       0.63277300       0.66107800 </v>
  </varray>
 </structure>
 <calculation>
  <scstep>
   <time name="dav">   16.62   16.62</time>
   <time name="total">   18.08   18.10</time>
   <energy>
    <i name="alphaZ">    872.70583573 </i>
    <i name="ewald"> -17920.88044500 </i>
    <i name="hartreedc">  -7435.96307467 </i>
    <i name="XCdc">    908.14816996 </i>
    <i name="pawpsdc">  21345.28103884 </i>
    <i name="pawaedc"> -22405.85761495 </i>
    <i name="eentropy">     -0.00000101 </i>
    <i name="bandstr">   -245.88401362 </i>
    <i name="atom">  26212.11861568 </i>
    <i name="e_fr_energy">   1329.66851097 </i>
    <i name="e_wo_entrp">   1329.66851198 </i>
    <i name="e_0_energy">   1329.66851147 </i>
   </energy>
  </scstep>
  <scstep>
   <time name="dav">   18.60   18.65</time>
   <time name="total">   18.60   18.65</time>
   <energy>
    <i name="e_fr_energy">  -1115.39556201 </i>
    <i name="e_wo_entrp">  -1115.39556201 </i>
    <i name="e_0_energy">  -1115.39556201 </i>
   </energy>
  </scstep>
  <scstep>
   <time name="dav">   19.46   19.49</time>
   <time name="total">   19.46   19.49</time>
   <energy>
    <i name="e_fr_energy">  -1475.00301817 </i>
    <i name="e_wo_entrp">  -1475.00301817 </i>
    <i name="e_0_energy">  -1475.00301817 </i>
   </energy>
  </scstep>
  <scstep>
   <time name="dav">   18.02   18.07</time>
   <time name="total">   18.02   18.07</time>
   <energy>
    <i name="e_fr_energy">  -1486.80571767 </i>
    <i name="e_wo_entrp">  -1486.80571767 </i>
    <i name="e_0_energy">  -1486.80571767 </i>
   </energy>
  </scstep>
  <scstep>
   <time name="dav">   19.41   19.44</time>
   <time name="total">   22.12   22.15</time>
   <energy>
    <i name="e_fr_energy">  -1487.33313380 </i>
    <i name="e_wo_entrp">  -1487.33313380 </i>
    <i name="e_0_energy">  -1487.33313380 </i>
   </energy>
  </scstep>
  <scstep>
   <time name="dav">   19.12   19.12</time>
   <time name="total">   23.26   23.32</time>
   <energy>
    <i name="e_fr_energy">  -1409.64868001 </i>
    <i name="e_wo_entrp">  -1409.64868001 </i>
    <i name="e_0_energy">  -1409.64868001 </i>
   </energy>
  </scstep>
  <scstep>
   <time name="dav">   18.49   18.49</time>
   <time name="total">   22.67   22.69</time>
   <energy>
    <i name="e_fr_energy">  -1409.13440995 </i>
    <i name="e_wo_entrp">  -1409.13440995 </i>
    <i name="e_0_energy">  -1409.13440995 </i>
   </energy>
  </scstep>
  <scstep>
   <time name="dav">   18.16   18.16</time>
   <time name="total">   22.31   22.36</time>
   <energy>
    <i name="e_fr_energy">  -1409.30762343 </i>
    <i name="e_wo_entrp">  -1409.30762343 </i>
    <i name="e_0_energy">  -1409.30762343 </i>
   </energy>
  </scstep>
  <scstep>
   <time name="dav">   17.33   17.33</time>
   <time name="total">   21.50   21.54</time>
   <energy>
    <i name="e_fr_energy">  -1409.37379543 </i>
    <i name="e_wo_entrp">  -1409.37379543 </i>
    <i name="e_0_energy">  -1409.37379543 </i>
   </energy>
  </scstep>
  <scstep>
   <time name="dav">   19.19   19.19</time>
   <time name="total">   23.36   23.39</time>
   <energy>
    <i name="e_fr_energy">  -1409.37750377 </i>
    <i name="e_wo_entrp">  -1409.37750377 </i>
    <i name="e_0_energy">  -1409.37750377 </i>
   </energy>
  </scstep>
  <scstep>
   <time name="dav">   17.46   17.46</time>
   <time name="total">   21.62   21.66</time>
   <energy>
    <i name="e_fr_energy">  -1409.37914639 </i>
    <i name="e_wo_entrp">  -1409.37914639 </i>
    <i name="e_0_energy">  -1409.37914639 </i>
   </energy>
  </scstep>
  <scstep>
   <time name="dav">   17.19   17.19</time>
   <time name="total">   21.37   21.38</time>
   <energy>
    <i name="e_fr_energy">  -1409.38183841 </i>
    <i name="e_wo_entrp">  -1409.38183841 </i>
    <i name="e_0_energy">  -1409.38183841 </i>
   </energy>
  </scstep>
  <scstep>
   <time name="dav">   19.60   19.60</time>
   <time name="total">   23.78   23.80</time>
   <energy>
    <i name="e_fr_energy">  -1409.38151110 </i>
    <i name="e_wo_entrp">  -1409.38151110 </i>
    <i name="e_0_energy">  -1409.38151110 </i>
   </energy>
  </scstep>
  <scstep>
   <time name="dav">   17.55   17.55</time>
   <time name="total">   21.73   21.76</time>
   <energy>
    <i name="e_fr_energy">  -1409.38139087 </i>
    <i name="e_wo_entrp">  -1409.38139087 </i>
    <i name="e_0_energy">  -1409.38139087 </i>
   </energy>
  </scstep>
  <scstep>
   <time name="dav">   18.28   18.28</time>
   <time name="total">   22.45   22.49</time>
   <energy>
    <i name="e_fr_energy">  -1409.38138273 </i>
    <i name="e_wo_entrp">  -1409.38138273 </i>
    <i name="e_0_energy">  -1409.38138273 </i>
   </energy>
  </scstep>
  <scstep>
   <time name="dav">   17.35   17.35</time>
   <time name="total">   21.54   21.57</time>
   <energy>
    <i name="e_fr_energy">  -1409.38139284 </i>
    <i name="e_wo_entrp">  -1409.38139284 </i>
    <i name="e_0_energy">  -1409.38139284 </i>
   </energy>
  </scstep>
  <scstep>
   <time name="dav">   18.40   18.40</time>
   <time name="total">   22.61   22.62</time>
   <energy>
    <i name="e_fr_energy">  -1409.38142370 </i>
    <i name="e_wo_entrp">  -1409.38142370 </i>
    <i name="e_0_energy">  -1409.38142370 </i>
   </energy>
  </scstep>
  <scstep>
   <time name="dav">   13.42   13.42</time>
   <time name="total">   17.61   17.65</time>
   <energy>
    <i name="e_fr_energy">  -1409.38140923 </i>
    <i name="e_wo_entrp">  -1409.38140923 </i>
    <i name="e_0_energy">  -1409.38140923 </i>
   </energy>
  </scstep>
  <scstep>
   <time name="dav">   13.20   13.20</time>
   <time name="total">   17.36   17.41</time>
   <energy>
    <i name="e_fr_energy">  -1409.38140515 </i>
    <i name="e_wo_entrp">  -1409.38140515 </i>
    <i name="e_0_energy">  -1409.38140515 </i>
   </energy>
  </scstep>
  <scstep>
   <time name="dav">   12.54   12.55</time>
   <time name="total">   14.05   14.06</time>
   <energy>
    <i name="alphaZ">    872.70583573 </i>
    <i name="ewald"> -17920.88044500 </i>
    <i name="hartreedc">  -7469.50223949 </i>
    <i name="XCdc">    943.67533867 </i>
    <i name="pawpsdc">  22766.73799115 </i>
    <i name="pawaedc"> -23825.22819705 </i>
    <i name="eentropy">     -0.00000000 </i>
    <i name="bandstr">  -2989.00830401 </i>
    <i name="atom">  26212.11861568 </i>
    <i name="e_fr_energy">  -1409.38140432 </i>
    <i name="e_wo_entrp">  -1409.38140432 </i>
    <i name="e_0_energy">  -1409.38140432 </i>
   </energy>
  </scstep>
  <structure>
   <crystal>
    <varray name="basis" >
     <v>       8.45648900       0.00000000       8.04030100 </v>
     <v>       0.00000000      11.72984700       0.00000000 </v>
     <v>      -8.45648900       0.00000000       8.04030100 </v>
    </varray>
    <i name="volume">   1595.08833419 </i>
    <varray name="rec_basis" >
     <v>       0.05912619      -0.00000000       0.06218673 </v>
     <v>       0.00000000       0.08525260      -0.00000000 </v>
     <v>      -0.05912619       0.00000000       0.06218673 </v>
    </varray>
   </crystal>
   <varray name="positions" >
    <v>       0.27555600       0.24988100       0.21263900 </v>
    <v>       0.77281600       0.24730100       0.70198900 </v>
    <v>       0.70855200       0.75062700       0.26345600 </v>
    <v>       0.22273700       0.74407200       0.77313900 </v>
    <v>       0.24225800       0.23232600       0.73194800 </v>
    <v>       0.80502400       0.25006400       0.22835200 </v>
    <v>       0.75579800       0.76863900       0.81351500 </v>
    <v>       0.21664100       0.75462500       0.27455400 </v>
    <v>       0.00570300       0.00431100       0.00071400 </v>
    <v>       0.49975100       0.99282800       0.51185100 </v>
    <v>       0.50695200       0.00727200       0.01051700 </v>
    <v>       0.99843900       0.99519700       0.49382400 </v>
    <v>       0.50000700       0.50705600       0.99810600 </v>
    <v>       0.99453800       0.50075500       0.49370500 </v>
    <v>       0.00110600       0.49982100       0.99463700 </v>
    <v>       0.48958100       0.48604900       0.48637300 </v>
    <v>       0.48141200       0.75685800       0.97694200 </v>
    <v>       0.96440100       0.74827900       0.45204200 </v>
    <v>       0.96870300       0.25212900       0.95953500 </v>
    <v>       0.45820400       0.23361100       0.50223200 </v>
    <v>       0.03065800       0.75212200       0.01553100 </v>
    <v>       0.53485400       0.25983400       0.04504800 </v>
    <v>       0.01528000       0.24818600       0.51271000 </v>
    <v>       0.25188000       0.46496700       0.94394300 </v>
    <v>       0.73382100       0.46443600       0.44510000 </v>
    <v>       0.44906400       0.54375200       0.23624300 </v>
    <v>       0.94595500       0.52962800       0.74054700 </v>
    <v>       0.55704600       0.02929200       0.76391800 </v>
    <v>       0.05867600       0.03542800       0.24807400 </v>
    <v>       0.75822700       0.97561400       0.06101400 </v>
    <v>       0.25411500       0.95357900       0.54734200 </v>
    <v>       0.25378500       0.02908900       0.96133000 </v>
    <v>       0.74584400       0.02867200       0.45121600 </v>
    <v>       0.45250000       0.96267300       0.26241900 </v>
    <v>       0.96677200       0.98240600       0.74268300 </v>
    <v>       0.75289900       0.53400300       0.04412600 </v>
    <v>       0.24265100       0.52449000       0.54507800 </v>
    <v>       0.05391400       0.46825600       0.24487800 </v>
    <v>       0.52848500       0.63277300       0.66107800 </v>
   </varray>
  </structure>
  <varray name="forces" >
   <v>      -0.01214539       0.01445053       0.02051762 </v>
   <v>       0.01019101       0.00863979      -0.01315721 </v>
   <v>      -0.00719183      -0.01583909      -0.01170783 </v>
   <v>       0.00339921      -0.01415877      -0.00562280 </v>
   <v>      -0.00424748       0.00226962      -0.01560381 </v>
   <v>      -0.00317129       0.00676870       0.01592705 </v>
   <v>       0.01261626       0.03751483       0.08026933 </v>
   <v>      -0.00441669      -0.00755949      -0.00808124 </v>
   <v>       0.00807850      -0.00130045       0.01174160 </v>
   <v>      -0.04823240       0.11898509       0.01298030 </v>
   <v>       0.01257273      -0.00015398       0.01338920 </v>
   <v>       0.01455705      -0.00428893      -0.01841315 </v>
   <v>      -0.09989495       0.02640471       0.06135009 </v>
   <v>       0.00322156      -0.00038538      -0.02726955 </v>
   <v>       0.01757653      -0.00038249      -0.00902513 </v>
   <v>       0.23245304      -0.33976276      -0.35363683 </v>
   <v>      -0.00390306       0.01429813       0.00901633 </v>
   <v>      -0.00447583       0.00764238       0.00127194 </v>
   <v>       0.00392460       0.00168831       0.00068352 </v>
   <v>      -0.01914376      -0.26369546       0.03711626 </v>
   <v>       0.00121652       0.00261555      -0.00352967 </v>
   <v>      -0.00157603       0.00645572       0.00749442 </v>
   <v>       0.00078314      -0.01170785      -0.00346150 </v>
   <v>       0.00605909      -0.00204855       0.00596741 </v>
   <v>       0.03282033      -0.00752324       0.01446418 </v>
   <v>       0.17541211       0.03271195      -0.14289688 </v>
   <v>       0.00588776       0.00193167       0.00106570 </v>
   <v>       0.00284864      -0.00432683      -0.00916019 </v>
   <v>       0.00748414       0.00266760      -0.01123592 </v>
   <v>       0.00227379      -0.00158634      -0.00052349 </v>
   <v>       0.00111545      -0.00314760       0.00299237 </v>
   <v>       0.00273200      -0.00057077       0.01679038 </v>
   <v>      -0.00398264      -0.00169747      -0.00681382 </v>
   <v>       0.01022619      -0.00170526      -0.00403061 </v>
   <v>      -0.00291387      -0.00488944       0.01155363 </v>
   <v>      -0.00275834       0.00124313      -0.00248250 </v>
   <v>      -0.05586044      -0.00578561      -0.05429111 </v>
   <v>      -0.00120152       0.00160679      -0.00311929 </v>
   <v>      -0.29233413       0.40462129       0.37947120 </v>
  </varray>
  <varray name="stress" >
   <v>      -7.44153094       0.21472354       0.23530294 </v>
   <v>       0.21465483      -4.32164639       1.49333129 </v>
   <v>       0.23520069       1.49347471      -3.92439131 </v>
  </varray>
  <energy>
   <i name="e_fr_energy">  -1409.38140432 </i>
   <i name="e_wo_entrp">  -1409.38140432 </i>
   <i name="e_0_energy">     -0.00000000 </i>
  </energy>
  <time name="totalsc">  468.73  469.41</time>
  <eigenvalues>
   <array>
    <dimension dim="1">band</dimension>
    <dimension dim="2">kpoint</dimension>
    <dimension dim="3">spin</dimension>
    <field>eigene</field>
    <field>occ</field>
    <set>
     <set comment="spin 1">
      <set comment="kpoint 1">
       <r>  -20.9003    1.0000 </r>
       <r>  -20.8622    1.0000 </r>
       <r>  -20.8416    1.0000 </r>
       <r>  -20.8138    1.0000 </r>
       <r>  -20.7416    1.0000 </r>
       <r>  -20.6871    1.0000 </r>
       <r>  -20.6813    1.0000 </r>
       <r>  -20.6526    1.0000 </r>
       <r>  -16.7104    1.0000 </r>
       <r>  -16.6999    1.0000 </r>
       <r>  -16.6698    1.0000 </r>
       <r>  -16.6628    1.0000 </r>
       <r>  -16.6171    1.0000 </r>
       <r>  -16.5998    1.0000 </r>
       <r>  -16.5900    1.0000 </r>
       <r>  -16.5874    1.0000 </r>
       <r>  -16.5852    1.0000 </r>
       <r>  -16.5850    1.0000 </r>
       <r>  -16.5639    1.0000 </r>
       <r>  -16.5436    1.0000 </r>
       <r>  -16.5389    1.0000 </r>
       <r>  -16.5279    1.0000 </r>
       <r>  -16.4463    1.0000 </r>
       <r>  -16.4401    1.0000 </r>
       <r>  -16.4263    1.0000 </r>
       <r>  -16.4215    1.0000 </r>
       <r>  -16.4195    1.0000 </r>
       <r>  -16.4093    1.0000 </r>
       <r>  -16.3950    1.0000 </r>
       <r>  -16.3599    1.0000 </r>
       <r>  -16.3582    1.0000 </r>
       <r>  -16.3463    1.0000 </r>
       <r>  -16.3322    1.0000 </r>
       <r>  -16.3219    1.0000 </r>
       <r>  -16.3142    1.0000 </r>
       <r>  -16.3067    1.0000 </r>
       <r>  -16.2919    1.0000 </r>
       <r>  -16.2867    1.0000 </r>
       <r>  -16.2836    1.0000 </r>
       <r>  -16.2806    1.0000 </r>
       <r>  -16.2780    1.0000 </r>
       <r>  -16.2712    1.0000 </r>
       <r>  -16.2662    1.0000 </r>
       <r>  -16.2636    1.0000 </r>
       <r>  -16.2577    1.0000 </r>
       <r>  -16.2505    1.0000 </r>
       <r>  -16.2465    1.0000 </r>
       <r>  -16.2357    1.0000 </r>
       <r>  -14.5250    1.0000 </r>
       <r>  -14.4176    1.0000 </r>
       <r>  -14.2968    1.0000 </r>
       <r>  -14.2002    1.0000 </r>
       <r>  -14.1236    1.0000 </r>
       <r>  -14.1090    1.0000 </r>
       <r>  -14.0807    1.0000 </r>
       <r>  -14.0615    1.0000 </r>
       <r>  -14.0550    1.0000 </r>
       <r>  -14.0485    1.0000 </r>
       <r>  -14.0438    1.0000 </r>
       <r>  -14.0390    1.0000 </r>
       <r>  -14.0330    1.0000 </r>
       <r>  -14.0272    1.0000 </r>
       <r>  -14.0042    1.0000 </r>
       <r>  -13.9881    1.0000 </r>
       <r>  -13.9360    1.0000 </r>
       <r>  -13.9211    1.0000 </r>
       <r>  -13.8886    1.0000 </r>
       <r>  -13.7658    1.0000 </r>
       <r>  -13.7574    1.0000 </r>
       <r>  -13.7381    1.0000 </r>
       <r>  -13.7109    1.0000 </r>
       <r>   -8.2085    1.0000 </r>
       <r>   -7.7929    1.0000 </r>
       <r>   -7.7612    1.0000 </r>
       <r>   -7.7151    1.0000 </r>
       <r>   -7.3373    1.0000 </r>
       <r>   -7.3232    1.0000 </r>
       <r>   -7.3051    1.0000 </r>
       <r>   -7.2925    1.0000 </r>
       <r>   -7.2741    1.0000 </r>
       <r>   -7.2671    1.0000 </r>
       <r>   -7.2547    1.0000 </r>
       <r>   -7.2433    1.0000 </r>
       <r>   -7.2347    1.0000 </r>
       <r>   -7.2320    1.0000 </r>
       <r>   -7.2243    1.0000 </r>
       <r>   -7.2098    1.0000 </r>
       <r>   -7.2040    1.0000 </r>
       <r>   -7.1853    1.0000 </r>
       <r>   -7.1686    1.0000 </r>
       <r>   -7.1463    1.0000 </r>
       <r>   -7.1320    1.0000 </r>
       <r>   -7.1147    1.0000 </r>
       <r>   -7.1002    1.0000 </r>
       <r>   -7.0989    1.0000 </r>
       <r>   -7.0902    1.0000 </r>
       <r>   -7.0830    1.0000 </r>
       <r>   -7.0720    1.0000 </r>
       <r>   -7.0683    1.0000 </r>
       <r>   -7.0598    1.0000 </r>
       <r>   -7.0428    1.0000 </r>
       <r>   -7.0302    1.0000 </r>
       <r>   -6.5803    1.0000 </r>
       <r>   -3.3512    1.0000 </r>
       <r>   -3.3245    1.0000 </r>
       <r>   -3.2921    1.0000 </r>
       <r>   -3.2687    1.0000 </r>
       <r>   -3.2352    1.0000 </r>
       <r>   -3.2129    1.0000 </r>
       <r>   -3.1921    1.0000 </r>
       <r>   -3.1707    1.0000 </r>
       <r>   -3.0922    1.0000 </r>
       <r>   -3.0597    1.0000 </r>
       <r>   -2.9876    1.0000 </r>
       <r>   -2.9279    1.0000 </r>
       <r>   -2.2286    1.0000 </r>
       <r>   -2.1851    1.0000 </r>
       <r>   -2.1711    1.0000 </r>
       <r>   -2.0501    1.0000 </r>
       <r>   -2.0303    1.0000 </r>
       <r>   -1.9934    1.0000 </r>
       <r>   -1.9142    1.0000 </r>
       <r>   -1.9084    1.0000 </r>
       <r>   -1.8682    1.0000 </r>
       <r>   -1.8316    1.0000 </r>
       <r>   -1.7644    1.0000 </r>
       <r>   -1.7340    1.0000 </r>
       <r>   -1.7126    1.0000 </r>
       <r>   -1.6606    1.0000 </r>
       <r>   -1.6370    1.0000 </r>
       <r>   -1.5970    1.0000 </r>
       <r>   -1.5609    1.0000 </r>
       <r>   -1.5532    1.0000 </r>
       <r>   -1.5491    1.0000 </r>
       <r>   -1.5210    1.0000 </r>
       <r>   -1.5101    1.0000 </r>
       <r>   -1.4996    1.0000 </r>
       <r>   -1.4877    1.0000 </r>
       <r>   -1.4816    1.0000 </r>
       <r>   -1.4557    1.0000 </r>
       <r>   -1.4397    1.0000 </r>
       <r>   -1.4214    1.0000 </r>
       <r>   -1.4085    1.0000 </r>
       <r>   -1.3904    1.0000 </r>
       <r>   -1.3739    1.0000 </r>
       <r>   -1.3634    1.0000 </r>
       <r>   -1.3535    1.0000 </r>
       <r>   -1.3399    1.0000 </r>
       <r>   -1.3249    1.0000 </r>
       <r>   -1.3212    1.0000 </r>
       <r>   -1.3120    1.0000 </r>
       <r>   -1.3032    1.0000 </r>
       <r>   -1.2801    1.0000 </r>
       <r>   -1.2715    1.0000 </r>
       <r>   -1.2196    1.0000 </r>
       <r>   -1.1937    1.0000 </r>
       <r>   -1.1810    1.0000 </r>
       <r>   -1.1568    1.0000 </r>
       <r>   -1.1157    1.0000 </r>
       <r>   -1.1013    1.0000 </r>
       <r>   -1.0540    1.0000 </r>
       <r>   -1.0165    1.0000 </r>
       <r>   -0.9983    1.0000 </r>
       <r>   -0.9393    1.0000 </r>
       <r>   -0.8469    1.0000 </r>
       <r>   -0.8128    1.0000 </r>
       <r>   -0.7309    1.0000 </r>
       <r>   -0.6780    1.0000 </r>
       <r>   -0.3516    1.0000 </r>
       <r>   -0.2433    1.0000 </r>
       <r>   -0.1057    1.0000 </r>
       <r>    0.3732    1.0000 </r>
       <r>    2.5748    0.0000 </r>
       <r>    2.6962    0.0000 </r>
       <r>    2.8982    0.0000 </r>
       <r>    2.9457    0.0000 </r>
       <r>    3.0569    0.0000 </r>
       <r>    3.1257    0.0000 </r>
       <r>    3.1535    0.0000 </r>
       <r>    3.1801    0.0000 </r>
       <r>    3.3197    0.0000 </r>
       <r>    3.4624    0.0000 </r>
       <r>    3.5112    0.0000 </r>
       <r>    3.5627    0.0000 </r>
       <r>    4.2491    0.0000 </r>
       <r>    4.7847    0.0000 </r>
       <r>    4.8798    0.0000 </r>
       <r>    5.4926    0.0000 </r>
       <r>    5.6090    0.0000 </r>
       <r>    5.7371    0.0000 </r>
       <r>    5.8168    0.0000 </r>
       <r>    5.8367    0.0000 </r>
       <r>    5.8993    0.0000 </r>
       <r>    5.9516    0.0000 </r>
       <r>    6.0500    0.0000 </r>
       <r>    6.0843    0.0000 </r>
       <r>    6.0932    0.0000 </r>
       <r>    6.1348    0.0000 </r>
       <r>    6.1777    0.0000 </r>
       <r>    6.2243    0.0000 </r>
       <r>    6.3362    0.0000 </r>
       <r>    6.3449    0.0000 </r>
       <r>    6.3746    0.0000 </r>
       <r>    6.4310    0.0000 </r>
       <r>    6.5115    0.0000 </r>
       <r>    6.5705    0.0000 </r>
       <r>    6.6044    0.0000 </r>
       <r>    6.6993    0.0000 </r>
      </set>
      <set comment="kpoint 2">
       <r>  -20.9002    1.0000 </r>
       <r>  -20.8622    1.0000 </r>
       <r>  -20.8416    1.0000 </r>
       <r>  -20.8138    1.0000 </r>
       <r>  -20.7416    1.0000 </r>
       <r>  -20.6869    1.0000 </r>
       <r>  -20.6815    1.0000 </r>
       <r>  -20.6526    1.0000 </r>
       <r>  -16.7098    1.0000 </r>
       <r>  -16.6996    1.0000 </r>
       <r>  -16.6678    1.0000 </r>
       <r>  -16.6610    1.0000 </r>
       <r>  -16.6167    1.0000 </r>
       <r>  -16.5976    1.0000 </r>
       <r>  -16.5900    1.0000 </r>
       <r>  -16.5874    1.0000 </r>
       <r>  -16.5851    1.0000 </r>
       <r>  -16.5850    1.0000 </r>
       <r>  -16.5638    1.0000 </r>
       <r>  -16.5437    1.0000 </r>
       <r>  -16.5389    1.0000 </r>
       <r>  -16.5279    1.0000 </r>
       <r>  -16.4403    1.0000 </r>
       <r>  -16.4314    1.0000 </r>
       <r>  -16.4258    1.0000 </r>
       <r>  -16.4214    1.0000 </r>
       <r>  -16.4210    1.0000 </r>
       <r>  -16.4154    1.0000 </r>
       <r>  -16.3971    1.0000 </r>
       <r>  -16.3701    1.0000 </r>
       <r>  -16.3608    1.0000 </r>
       <r>  -16.3490    1.0000 </r>
       <r>  -16.3327    1.0000 </r>
       <r>  -16.3220    1.0000 </r>
       <r>  -16.3143    1.0000 </r>
       <r>  -16.3067    1.0000 </r>
       <r>  -16.2919    1.0000 </r>
       <r>  -16.2867    1.0000 </r>
       <r>  -16.2836    1.0000 </r>
       <r>  -16.2806    1.0000 </r>
       <r>  -16.2780    1.0000 </r>
       <r>  -16.2712    1.0000 </r>
       <r>  -16.2663    1.0000 </r>
       <r>  -16.2636    1.0000 </r>
       <r>  -16.2577    1.0000 </r>
       <r>  -16.2505    1.0000 </r>
       <r>  -16.2466    1.0000 </r>
       <r>  -16.2357    1.0000 </r>
       <r>  -14.5205    1.0000 </r>
       <r>  -14.4157    1.0000 </r>
       <r>  -14.3092    1.0000 </r>
       <r>  -14.1983    1.0000 </r>
       <r>  -14.1550    1.0000 </r>
       <r>  -14.1417    1.0000 </r>
       <r>  -14.1181    1.0000 </r>
       <r>  -14.0782    1.0000 </r>
       <r>  -14.0592    1.0000 </r>
       <r>  -14.0533    1.0000 </r>
       <r>  -14.0420    1.0000 </r>
       <r>  -14.0373    1.0000 </r>
       <r>  -14.0213    1.0000 </r>
       <r>  -13.9981    1.0000 </r>
       <r>  -13.9718    1.0000 </r>
       <r>  -13.9370    1.0000 </r>
       <r>  -13.8689    1.0000 </r>
       <r>  -13.8530    1.0000 </r>
       <r>  -13.8411    1.0000 </r>
       <r>  -13.8311    1.0000 </r>
       <r>  -13.8019    1.0000 </r>
       <r>  -13.7962    1.0000 </r>
       <r>  -13.7174    1.0000 </r>
       <r>   -8.0158    1.0000 </r>
       <r>   -7.9602    1.0000 </r>
       <r>   -7.6390    1.0000 </r>
       <r>   -7.5994    1.0000 </r>
       <r>   -7.4620    1.0000 </r>
       <r>   -7.4176    1.0000 </r>
       <r>   -7.3239    1.0000 </r>
       <r>   -7.3049    1.0000 </r>
       <r>   -7.2881    1.0000 </r>
       <r>   -7.2770    1.0000 </r>
       <r>   -7.2673    1.0000 </r>
       <r>   -7.2413    1.0000 </r>
       <r>   -7.2338    1.0000 </r>
       <r>   -7.2332    1.0000 </r>
       <r>   -7.2248    1.0000 </r>
       <r>   -7.2150    1.0000 </r>
       <r>   -7.2105    1.0000 </r>
       <r>   -7.1876    1.0000 </r>
       <r>   -7.1722    1.0000 </r>
       <r>   -7.1468    1.0000 </r>
       <r>   -7.1332    1.0000 </r>
       <r>   -7.1118    1.0000 </r>
       <r>   -7.1038    1.0000 </r>
       <r>   -7.0933    1.0000 </r>
       <r>   -7.0852    1.0000 </r>
       <r>   -7.0745    1.0000 </r>
       <r>   -7.0701    1.0000 </r>
       <r>   -7.0639    1.0000 </r>
       <r>   -7.0451    1.0000 </r>
       <r>   -7.0375    1.0000 </r>
       <r>   -7.0278    1.0000 </r>
       <r>   -6.8148    1.0000 </r>
       <r>   -3.3177    1.0000 </r>
       <r>   -3.3005    1.0000 </r>
       <r>   -3.2402    1.0000 </r>
       <r>   -3.2265    1.0000 </r>
       <r>   -3.2182    1.0000 </r>
       <r>   -3.0731    1.0000 </r>
       <r>   -3.0307    1.0000 </r>
       <r>   -2.9954    1.0000 </r>
       <r>   -2.5953    1.0000 </r>
       <r>   -2.5692    1.0000 </r>
       <r>   -2.5286    1.0000 </r>
       <r>   -2.5127    1.0000 </r>
       <r>   -2.4582    1.0000 </r>
       <r>   -2.3821    1.0000 </r>
       <r>   -2.3683    1.0000 </r>
       <r>   -2.3183    1.0000 </r>
       <r>   -2.1701    1.0000 </r>
       <r>   -2.1112    1.0000 </r>
       <r>   -2.0531    1.0000 </r>
       <r>   -2.0372    1.0000 </r>
       <r>   -2.0035    1.0000 </r>
       <r>   -1.9173    1.0000 </r>
       <r>   -1.8713    1.0000 </r>
       <r>   -1.8456    1.0000 </r>
       <r>   -1.8167    1.0000 </r>
       <r>   -1.7950    1.0000 </r>
       <r>   -1.7791    1.0000 </r>
       <r>   -1.6669    1.0000 </r>
       <r>   -1.6200    1.0000 </r>
       <r>   -1.5926    1.0000 </r>
       <r>   -1.5578    1.0000 </r>
       <r>   -1.5064    1.0000 </r>
       <r>   -1.5022    1.0000 </r>
       <r>   -1.4900    1.0000 </r>
       <r>   -1.4741    1.0000 </r>
       <r>   -1.4634    1.0000 </r>
       <r>   -1.4385    1.0000 </r>
       <r>   -1.4346    1.0000 </r>
       <r>   -1.4092    1.0000 </r>
       <r>   -1.3999    1.0000 </r>
       <r>   -1.3861    1.0000 </r>
       <r>   -1.3749    1.0000 </r>
       <r>   -1.3696    1.0000 </r>
       <r>   -1.3428    1.0000 </r>
       <r>   -1.3245    1.0000 </r>
       <r>   -1.3099    1.0000 </r>
       <r>   -1.2950    1.0000 </r>
       <r>   -1.2806    1.0000 </r>
       <r>   -1.2656    1.0000 </r>
       <r>   -1.2603    1.0000 </r>
       <r>   -1.2321    1.0000 </r>
       <r>   -1.2152    1.0000 </r>
       <r>   -1.1940    1.0000 </r>
       <r>   -1.1808    1.0000 </r>
       <r>   -1.1422    1.0000 </r>
       <r>   -1.1312    1.0000 </r>
       <r>   -1.1156    1.0000 </r>
       <r>   -1.0922    1.0000 </r>
       <r>   -1.0809    1.0000 </r>
       <r>   -1.0344    1.0000 </r>
       <r>   -1.0119    1.0000 </r>
       <r>   -0.9380    1.0000 </r>
       <r>   -0.8805    1.0000 </r>
       <r>   -0.7837    1.0000 </r>
       <r>   -0.6428    1.0000 </r>
       <r>   -0.5364    1.0000 </r>
       <r>   -0.4569    1.0000 </r>
       <r>   -0.2508    1.0000 </r>
       <r>    0.0711    1.0000 </r>
       <r>    2.6596    0.0000 </r>
       <r>    2.9623    0.0000 </r>
       <r>    2.9892    0.0000 </r>
       <r>    3.0084    0.0000 </r>
       <r>    3.0673    0.0000 </r>
       <r>    3.2876    0.0000 </r>
       <r>    3.3465    0.0000 </r>
       <r>    3.4325    0.0000 </r>
       <r>    4.1849    0.0000 </r>
       <r>    4.1901    0.0000 </r>
       <r>    4.2712    0.0000 </r>
       <r>    4.4970    0.0000 </r>
       <r>    4.5252    0.0000 </r>
       <r>    4.5790    0.0000 </r>
       <r>    4.6227    0.0000 </r>
       <r>    4.7360    0.0000 </r>
       <r>    4.8477    0.0000 </r>
       <r>    4.9330    0.0000 </r>
       <r>    5.3275    0.0000 </r>
       <r>    5.5812    0.0000 </r>
       <r>    5.7087    0.0000 </r>
       <r>    5.7586    0.0000 </r>
       <r>    5.9331    0.0000 </r>
       <r>    5.9467    0.0000 </r>
       <r>    6.0362    0.0000 </r>
       <r>    6.0895    0.0000 </r>
       <r>    6.1099    0.0000 </r>
       <r>    6.2161    0.0000 </r>
       <r>    6.2344    0.0000 </r>
       <r>    6.3061    0.0000 </r>
       <r>    6.3478    0.0000 </r>
       <r>    6.3938    0.0000 </r>
       <r>    6.4671    0.0000 </r>
       <r>    6.5344    0.0000 </r>
       <r>    6.5926    0.0000 </r>
       <r>    6.6329    0.0000 </r>
      </set>
      <set comment="kpoint 3">
       <r>  -20.9002    1.0000 </r>
       <r>  -20.8621    1.0000 </r>
       <r>  -20.8416    1.0000 </r>
       <r>  -20.8138    1.0000 </r>
       <r>  -20.7416    1.0000 </r>
       <r>  -20.6871    1.0000 </r>
       <r>  -20.6813    1.0000 </r>
       <r>  -20.6526    1.0000 </r>
       <r>  -16.7102    1.0000 </r>
       <r>  -16.6990    1.0000 </r>
       <r>  -16.6673    1.0000 </r>
       <r>  -16.6629    1.0000 </r>
       <r>  -16.6169    1.0000 </r>
       <r>  -16.6001    1.0000 </r>
       <r>  -16.5900    1.0000 </r>
       <r>  -16.5874    1.0000 </r>
       <r>  -16.5851    1.0000 </r>
       <r>  -16.5850    1.0000 </r>
       <r>  -16.5639    1.0000 </r>
       <r>  -16.5436    1.0000 </r>
       <r>  -16.5389    1.0000 </r>
       <r>  -16.5279    1.0000 </r>
       <r>  -16.4470    1.0000 </r>
       <r>  -16.4273    1.0000 </r>
       <r>  -16.4242    1.0000 </r>
       <r>  -16.4214    1.0000 </r>
       <r>  -16.4062    1.0000 </r>
       <r>  -16.4019    1.0000 </r>
       <r>  -16.3968    1.0000 </r>
       <r>  -16.3767    1.0000 </r>
       <r>  -16.3673    1.0000 </r>
       <r>  -16.3560    1.0000 </r>
       <r>  -16.3368    1.0000 </r>
       <r>  -16.3219    1.0000 </r>
       <r>  -16.3143    1.0000 </r>
       <r>  -16.3066    1.0000 </r>
       <r>  -16.2918    1.0000 </r>
       <r>  -16.2867    1.0000 </r>
       <r>  -16.2836    1.0000 </r>
       <r>  -16.2806    1.0000 </r>
       <r>  -16.2780    1.0000 </r>
       <r>  -16.2711    1.0000 </r>
       <r>  -16.2661    1.0000 </r>
       <r>  -16.2637    1.0000 </r>
       <r>  -16.2577    1.0000 </r>
       <r>  -16.2504    1.0000 </r>
       <r>  -16.2465    1.0000 </r>
       <r>  -16.2357    1.0000 </r>
       <r>  -14.5159    1.0000 </r>
       <r>  -14.4304    1.0000 </r>
       <r>  -14.2839    1.0000 </r>
       <r>  -14.2181    1.0000 </r>
       <r>  -14.1682    1.0000 </r>
       <r>  -14.1491    1.0000 </r>
       <r>  -14.0873    1.0000 </r>
       <r>  -14.0595    1.0000 </r>
       <r>  -14.0537    1.0000 </r>
       <r>  -14.0461    1.0000 </r>
       <r>  -14.0405    1.0000 </r>
       <r>  -14.0311    1.0000 </r>
       <r>  -14.0125    1.0000 </r>
       <r>  -14.0097    1.0000 </r>
       <r>  -13.9893    1.0000 </r>
       <r>  -13.9361    1.0000 </r>
       <r>  -13.9251    1.0000 </r>
       <r>  -13.8599    1.0000 </r>
       <r>  -13.8499    1.0000 </r>
       <r>  -13.8250    1.0000 </r>
       <r>  -13.7967    1.0000 </r>
       <r>  -13.7551    1.0000 </r>
       <r>  -13.7237    1.0000 </r>
       <r>   -8.0534    1.0000 </r>
       <r>   -7.9472    1.0000 </r>
       <r>   -7.6548    1.0000 </r>
       <r>   -7.5143    1.0000 </r>
       <r>   -7.4696    1.0000 </r>
       <r>   -7.4476    1.0000 </r>
       <r>   -7.3279    1.0000 </r>
       <r>   -7.3039    1.0000 </r>
       <r>   -7.2945    1.0000 </r>
       <r>   -7.2727    1.0000 </r>
       <r>   -7.2580    1.0000 </r>
       <r>   -7.2527    1.0000 </r>
       <r>   -7.2372    1.0000 </r>
       <r>   -7.2291    1.0000 </r>
       <r>   -7.2198    1.0000 </r>
       <r>   -7.2122    1.0000 </r>
       <r>   -7.2017    1.0000 </r>
       <r>   -7.1882    1.0000 </r>
       <r>   -7.1705    1.0000 </r>
       <r>   -7.1475    1.0000 </r>
       <r>   -7.1274    1.0000 </r>
       <r>   -7.1123    1.0000 </r>
       <r>   -7.0996    1.0000 </r>
       <r>   -7.0984    1.0000 </r>
       <r>   -7.0826    1.0000 </r>
       <r>   -7.0805    1.0000 </r>
       <r>   -7.0713    1.0000 </r>
       <r>   -7.0592    1.0000 </r>
       <r>   -7.0509    1.0000 </r>
       <r>   -7.0476    1.0000 </r>
       <r>   -6.9574    1.0000 </r>
       <r>   -6.8873    1.0000 </r>
       <r>   -3.2836    1.0000 </r>
       <r>   -3.2751    1.0000 </r>
       <r>   -3.2374    1.0000 </r>
       <r>   -3.1800    1.0000 </r>
       <r>   -3.1662    1.0000 </r>
       <r>   -3.1407    1.0000 </r>
       <r>   -3.1155    1.0000 </r>
       <r>   -3.0082    1.0000 </r>
       <r>   -2.9736    1.0000 </r>
       <r>   -2.5399    1.0000 </r>
       <r>   -2.4766    1.0000 </r>
       <r>   -2.4478    1.0000 </r>
       <r>   -2.4208    1.0000 </r>
       <r>   -2.4014    1.0000 </r>
       <r>   -2.3568    1.0000 </r>
       <r>   -2.1800    1.0000 </r>
       <r>   -2.1301    1.0000 </r>
       <r>   -2.0887    1.0000 </r>
       <r>   -2.0332    1.0000 </r>
       <r>   -2.0002    1.0000 </r>
       <r>   -1.9824    1.0000 </r>
       <r>   -1.9256    1.0000 </r>
       <r>   -1.8746    1.0000 </r>
       <r>   -1.8456    1.0000 </r>
       <r>   -1.7872    1.0000 </r>
       <r>   -1.7500    1.0000 </r>
       <r>   -1.7274    1.0000 </r>
       <r>   -1.6902    1.0000 </r>
       <r>   -1.6582    1.0000 </r>
       <r>   -1.6169    1.0000 </r>
       <r>   -1.5717    1.0000 </r>
       <r>   -1.5406    1.0000 </r>
       <r>   -1.5195    1.0000 </r>
       <r>   -1.5021    1.0000 </r>
       <r>   -1.4809    1.0000 </r>
       <r>   -1.4751    1.0000 </r>
       <r>   -1.4497    1.0000 </r>
       <r>   -1.4251    1.0000 </r>
       <r>   -1.4139    1.0000 </r>
       <r>   -1.3924    1.0000 </r>
       <r>   -1.3855    1.0000 </r>
       <r>   -1.3771    1.0000 </r>
       <r>   -1.3573    1.0000 </r>
       <r>   -1.3555    1.0000 </r>
       <r>   -1.3257    1.0000 </r>
       <r>   -1.3187    1.0000 </r>
       <r>   -1.2917    1.0000 </r>
       <r>   -1.2873    1.0000 </r>
       <r>   -1.2596    1.0000 </r>
       <r>   -1.2414    1.0000 </r>
       <r>   -1.2318    1.0000 </r>
       <r>   -1.2263    1.0000 </r>
       <r>   -1.1986    1.0000 </r>
       <r>   -1.1750    1.0000 </r>
       <r>   -1.1476    1.0000 </r>
       <r>   -1.1316    1.0000 </r>
       <r>   -1.0987    1.0000 </r>
       <r>   -1.0802    1.0000 </r>
       <r>   -1.0763    1.0000 </r>
       <r>   -1.0543    1.0000 </r>
       <r>   -1.0229    1.0000 </r>
       <r>   -0.8626    1.0000 </r>
       <r>   -0.8432    1.0000 </r>
       <r>   -0.7579    1.0000 </r>
       <r>   -0.6448    1.0000 </r>
       <r>   -0.6108    1.0000 </r>
       <r>   -0.5261    1.0000 </r>
       <r>   -0.1001    1.0000 </r>
       <r>   -0.0035    1.0000 </r>
       <r>    2.5694    0.0000 </r>
       <r>    2.8673    0.0000 </r>
       <r>    2.9386    0.0000 </r>
       <r>    3.0741    0.0000 </r>
       <r>    3.2412    0.0000 </r>
       <r>    3.2916    0.0000 </r>
       <r>    3.3058    0.0000 </r>
       <r>    3.3374    0.0000 </r>
       <r>    3.4946    0.0000 </r>
       <r>    4.0264    0.0000 </r>
       <r>    4.4239    0.0000 </r>
       <r>    4.4859    0.0000 </r>
       <r>    4.6058    0.0000 </r>
       <r>    4.6748    0.0000 </r>
       <r>    4.7371    0.0000 </r>
       <r>    4.8386    0.0000 </r>
       <r>    4.9178    0.0000 </r>
       <r>    5.3775    0.0000 </r>
       <r>    5.5920    0.0000 </r>
       <r>    5.6675    0.0000 </r>
       <r>    5.7010    0.0000 </r>
       <r>    5.7503    0.0000 </r>
       <r>    5.8961    0.0000 </r>
       <r>    5.9434    0.0000 </r>
       <r>    6.0094    0.0000 </r>
       <r>    6.1040    0.0000 </r>
       <r>    6.1423    0.0000 </r>
       <r>    6.1660    0.0000 </r>
       <r>    6.2918    0.0000 </r>
       <r>    6.3618    0.0000 </r>
       <r>    6.3751    0.0000 </r>
       <r>    6.4509    0.0000 </r>
       <r>    6.4862    0.0000 </r>
       <r>    6.5252    0.0000 </r>
       <r>    6.5842    0.0000 </r>
       <r>    6.6486    0.0000 </r>
      </set>
      <set comment="kpoint 4">
       <r>  -20.9002    1.0000 </r>
       <r>  -20.8621    1.0000 </r>
       <r>  -20.8416    1.0000 </r>
       <r>  -20.8138    1.0000 </r>
       <r>  -20.7416    1.0000 </r>
       <r>  -20.6869    1.0000 </r>
       <r>  -20.6815    1.0000 </r>
       <r>  -20.6526    1.0000 </r>
       <r>  -16.7096    1.0000 </r>
       <r>  -16.6986    1.0000 </r>
       <r>  -16.6652    1.0000 </r>
       <r>  -16.6611    1.0000 </r>
       <r>  -16.6165    1.0000 </r>
       <r>  -16.5978    1.0000 </r>
       <r>  -16.5900    1.0000 </r>
       <r>  -16.5874    1.0000 </r>
       <r>  -16.5851    1.0000 </r>
       <r>  -16.5850    1.0000 </r>
       <r>  -16.5638    1.0000 </r>
       <r>  -16.5436    1.0000 </r>
       <r>  -16.5390    1.0000 </r>
       <r>  -16.5279    1.0000 </r>
       <r>  -16.4352    1.0000 </r>
       <r>  -16.4274    1.0000 </r>
       <r>  -16.4215    1.0000 </r>
       <r>  -16.4214    1.0000 </r>
       <r>  -16.4066    1.0000 </r>
       <r>  -16.4044    1.0000 </r>
       <r>  -16.3993    1.0000 </r>
       <r>  -16.3870    1.0000 </r>
       <r>  -16.3693    1.0000 </r>
       <r>  -16.3612    1.0000 </r>
       <r>  -16.3384    1.0000 </r>
       <r>  -16.3220    1.0000 </r>
       <r>  -16.3143    1.0000 </r>
       <r>  -16.3067    1.0000 </r>
       <r>  -16.2918    1.0000 </r>
       <r>  -16.2867    1.0000 </r>
       <r>  -16.2837    1.0000 </r>
       <r>  -16.2806    1.0000 </r>
       <r>  -16.2780    1.0000 </r>
       <r>  -16.2712    1.0000 </r>
       <r>  -16.2662    1.0000 </r>
       <r>  -16.2636    1.0000 </r>
       <r>  -16.2577    1.0000 </r>
       <r>  -16.2505    1.0000 </r>
       <r>  -16.2466    1.0000 </r>
       <r>  -16.2357    1.0000 </r>
       <r>  -14.5140    1.0000 </r>
       <r>  -14.4267    1.0000 </r>
       <r>  -14.2761    1.0000 </r>
       <r>  -14.2375    1.0000 </r>
       <r>  -14.2041    1.0000 </r>
       <r>  -14.1467    1.0000 </r>
       <r>  -14.1296    1.0000 </r>
       <r>  -14.1180    1.0000 </r>
       <r>  -14.0749    1.0000 </r>
       <r>  -14.0460    1.0000 </r>
       <r>  -14.0334    1.0000 </r>
       <r>  -13.9997    1.0000 </r>
       <r>  -13.9391    1.0000 </r>
       <r>  -13.9276    1.0000 </r>
       <r>  -13.9101    1.0000 </r>
       <r>  -13.9036    1.0000 </r>
       <r>  -13.8993    1.0000 </r>
       <r>  -13.8875    1.0000 </r>
       <r>  -13.8787    1.0000 </r>
       <r>  -13.8324    1.0000 </r>
       <r>  -13.8200    1.0000 </r>
       <r>  -13.8075    1.0000 </r>
       <r>  -13.7499    1.0000 </r>
       <r>   -7.9170    1.0000 </r>
       <r>   -7.7517    1.0000 </r>
       <r>   -7.7342    1.0000 </r>
       <r>   -7.6818    1.0000 </r>
       <r>   -7.4874    1.0000 </r>
       <r>   -7.3263    1.0000 </r>
       <r>   -7.3089    1.0000 </r>
       <r>   -7.2950    1.0000 </r>
       <r>   -7.2883    1.0000 </r>
       <r>   -7.2762    1.0000 </r>
       <r>   -7.2549    1.0000 </r>
       <r>   -7.2484    1.0000 </r>
       <r>   -7.2362    1.0000 </r>
       <r>   -7.2277    1.0000 </r>
       <r>   -7.2256    1.0000 </r>
       <r>   -7.2197    1.0000 </r>
       <r>   -7.2162    1.0000 </r>
       <r>   -7.2129    1.0000 </r>
       <r>   -7.1774    1.0000 </r>
       <r>   -7.1646    1.0000 </r>
       <r>   -7.1457    1.0000 </r>
       <r>   -7.1417    1.0000 </r>
       <r>   -7.1229    1.0000 </r>
       <r>   -7.1118    1.0000 </r>
       <r>   -7.0991    1.0000 </r>
       <r>   -7.0877    1.0000 </r>
       <r>   -7.0796    1.0000 </r>
       <r>   -7.0725    1.0000 </r>
       <r>   -7.0627    1.0000 </r>
       <r>   -7.0461    1.0000 </r>
       <r>   -7.0427    1.0000 </r>
       <r>   -7.0315    1.0000 </r>
       <r>   -3.2246    1.0000 </r>
       <r>   -3.2111    1.0000 </r>
       <r>   -3.1049    1.0000 </r>
       <r>   -3.0550    1.0000 </r>
       <r>   -3.0258    1.0000 </r>
       <r>   -2.6990    1.0000 </r>
       <r>   -2.6770    1.0000 </r>
       <r>   -2.6608    1.0000 </r>
       <r>   -2.5899    1.0000 </r>
       <r>   -2.5666    1.0000 </r>
       <r>   -2.5375    1.0000 </r>
       <r>   -2.4578    1.0000 </r>
       <r>   -2.4204    1.0000 </r>
       <r>   -2.3796    1.0000 </r>
       <r>   -2.3450    1.0000 </r>
       <r>   -2.3394    1.0000 </r>
       <r>   -2.3206    1.0000 </r>
       <r>   -2.2525    1.0000 </r>
       <r>   -2.2335    1.0000 </r>
       <r>   -2.1402    1.0000 </r>
       <r>   -2.0245    1.0000 </r>
       <r>   -1.9825    1.0000 </r>
       <r>   -1.9353    1.0000 </r>
       <r>   -1.9154    1.0000 </r>
       <r>   -1.8444    1.0000 </r>
       <r>   -1.8066    1.0000 </r>
       <r>   -1.7891    1.0000 </r>
       <r>   -1.7268    1.0000 </r>
       <r>   -1.7027    1.0000 </r>
       <r>   -1.6517    1.0000 </r>
       <r>   -1.6274    1.0000 </r>
       <r>   -1.6155    1.0000 </r>
       <r>   -1.5898    1.0000 </r>
       <r>   -1.5818    1.0000 </r>
       <r>   -1.5793    1.0000 </r>
       <r>   -1.5297    1.0000 </r>
       <r>   -1.4995    1.0000 </r>
       <r>   -1.4721    1.0000 </r>
       <r>   -1.4552    1.0000 </r>
       <r>   -1.4147    1.0000 </r>
       <r>   -1.4051    1.0000 </r>
       <r>   -1.3827    1.0000 </r>
       <r>   -1.3507    1.0000 </r>
       <r>   -1.3152    1.0000 </r>
       <r>   -1.2972    1.0000 </r>
       <r>   -1.2798    1.0000 </r>
       <r>   -1.2641    1.0000 </r>
       <r>   -1.2491    1.0000 </r>
       <r>   -1.2450    1.0000 </r>
       <r>   -1.2253    1.0000 </r>
       <r>   -1.2008    1.0000 </r>
       <r>   -1.1695    1.0000 </r>
       <r>   -1.1604    1.0000 </r>
       <r>   -1.1442    1.0000 </r>
       <r>   -1.1293    1.0000 </r>
       <r>   -1.1255    1.0000 </r>
       <r>   -1.1108    1.0000 </r>
       <r>   -1.1086    1.0000 </r>
       <r>   -1.1020    1.0000 </r>
       <r>   -1.0669    1.0000 </r>
       <r>   -1.0108    1.0000 </r>
       <r>   -0.9512    1.0000 </r>
       <r>   -0.9303    1.0000 </r>
       <r>   -0.8740    1.0000 </r>
       <r>   -0.8446    1.0000 </r>
       <r>   -0.6777    1.0000 </r>
       <r>   -0.4725    1.0000 </r>
       <r>   -0.4399    1.0000 </r>
       <r>   -0.3863    1.0000 </r>
       <r>    2.6073    0.0000 </r>
       <r>    3.0891    0.0000 </r>
       <r>    3.1804    0.0000 </r>
       <r>    3.2304    0.0000 </r>
       <r>    3.3414    0.0000 </r>
       <r>    4.0010    0.0000 </r>
       <r>    4.2734    0.0000 </r>
       <r>    4.2993    0.0000 </r>
       <r>    4.3697    0.0000 </r>
       <r>    4.4291    0.0000 </r>
       <r>    4.4586    0.0000 </r>
       <r>    4.4982    0.0000 </r>
       <r>    4.5304    0.0000 </r>
       <r>    4.6012    0.0000 </r>
       <r>    4.6538    0.0000 </r>
       <r>    4.6865    0.0000 </r>
       <r>    4.7040    0.0000 </r>
       <r>    4.7698    0.0000 </r>
       <r>    4.8349    0.0000 </r>
       <r>    4.8772    0.0000 </r>
       <r>    4.9327    0.0000 </r>
       <r>    5.6110    0.0000 </r>
       <r>    5.7838    0.0000 </r>
       <r>    5.8207    0.0000 </r>
       <r>    5.9277    0.0000 </r>
       <r>    5.9576    0.0000 </r>
       <r>    6.0389    0.0000 </r>
       <r>    6.0966    0.0000 </r>
       <r>    6.2085    0.0000 </r>
       <r>    6.2328    0.0000 </r>
       <r>    6.3641    0.0000 </r>
       <r>    6.4013    0.0000 </r>
       <r>    6.4582    0.0000 </r>
       <r>    6.5055    0.0000 </r>
       <r>    6.5363    0.0000 </r>
       <r>    6.6001    0.0000 </r>
      </set>
      <set comment="kpoint 5">
       <r>  -20.9002    1.0000 </r>
       <r>  -20.8622    1.0000 </r>
       <r>  -20.8416    1.0000 </r>
       <r>  -20.8138    1.0000 </r>
       <r>  -20.7416    1.0000 </r>
       <r>  -20.6871    1.0000 </r>
       <r>  -20.6813    1.0000 </r>
       <r>  -20.6526    1.0000 </r>
       <r>  -16.7100    1.0000 </r>
       <r>  -16.6998    1.0000 </r>
       <r>  -16.6698    1.0000 </r>
       <r>  -16.6607    1.0000 </r>
       <r>  -16.6169    1.0000 </r>
       <r>  -16.6000    1.0000 </r>
       <r>  -16.5900    1.0000 </r>
       <r>  -16.5874    1.0000 </r>
       <r>  -16.5852    1.0000 </r>
       <r>  -16.5850    1.0000 </r>
       <r>  -16.5639    1.0000 </r>
       <r>  -16.5436    1.0000 </r>
       <r>  -16.5389    1.0000 </r>
       <r>  -16.5279    1.0000 </r>
       <r>  -16.4460    1.0000 </r>
       <r>  -16.4290    1.0000 </r>
       <r>  -16.4274    1.0000 </r>
       <r>  -16.4245    1.0000 </r>
       <r>  -16.4213    1.0000 </r>
       <r>  -16.3991    1.0000 </r>
       <r>  -16.3835    1.0000 </r>
       <r>  -16.3730    1.0000 </r>
       <r>  -16.3552    1.0000 </r>
       <r>  -16.3513    1.0000 </r>
       <r>  -16.3492    1.0000 </r>
       <r>  -16.3219    1.0000 </r>
       <r>  -16.3143    1.0000 </r>
       <r>  -16.3067    1.0000 </r>
       <r>  -16.2918    1.0000 </r>
       <r>  -16.2867    1.0000 </r>
       <r>  -16.2837    1.0000 </r>
       <r>  -16.2805    1.0000 </r>
       <r>  -16.2780    1.0000 </r>
       <r>  -16.2713    1.0000 </r>
       <r>  -16.2662    1.0000 </r>
       <r>  -16.2636    1.0000 </r>
       <r>  -16.2577    1.0000 </r>
       <r>  -16.2505    1.0000 </r>
       <r>  -16.2465    1.0000 </r>
       <r>  -16.2357    1.0000 </r>
       <r>  -14.5162    1.0000 </r>
       <r>  -14.4276    1.0000 </r>
       <r>  -14.2745    1.0000 </r>
       <r>  -14.2318    1.0000 </r>
       <r>  -14.1684    1.0000 </r>
       <r>  -14.1216    1.0000 </r>
       <r>  -14.0797    1.0000 </r>
       <r>  -14.0635    1.0000 </r>
       <r>  -14.0608    1.0000 </r>
       <r>  -14.0560    1.0000 </r>
       <r>  -14.0478    1.0000 </r>
       <r>  -14.0411    1.0000 </r>
       <r>  -14.0260    1.0000 </r>
       <r>  -14.0172    1.0000 </r>
       <r>  -13.9920    1.0000 </r>
       <r>  -13.9628    1.0000 </r>
       <r>  -13.9043    1.0000 </r>
       <r>  -13.8469    1.0000 </r>
       <r>  -13.8388    1.0000 </r>
       <r>  -13.7984    1.0000 </r>
       <r>  -13.7868    1.0000 </r>
       <r>  -13.7582    1.0000 </r>
       <r>  -13.7470    1.0000 </r>
       <r>   -8.0559    1.0000 </r>
       <r>   -7.9791    1.0000 </r>
       <r>   -7.6366    1.0000 </r>
       <r>   -7.5167    1.0000 </r>
       <r>   -7.5001    1.0000 </r>
       <r>   -7.4392    1.0000 </r>
       <r>   -7.3244    1.0000 </r>
       <r>   -7.3009    1.0000 </r>
       <r>   -7.2902    1.0000 </r>
       <r>   -7.2736    1.0000 </r>
       <r>   -7.2572    1.0000 </r>
       <r>   -7.2485    1.0000 </r>
       <r>   -7.2421    1.0000 </r>
       <r>   -7.2338    1.0000 </r>
       <r>   -7.2222    1.0000 </r>
       <r>   -7.2200    1.0000 </r>
       <r>   -7.2078    1.0000 </r>
       <r>   -7.1874    1.0000 </r>
       <r>   -7.1676    1.0000 </r>
       <r>   -7.1447    1.0000 </r>
       <r>   -7.1261    1.0000 </r>
       <r>   -7.1135    1.0000 </r>
       <r>   -7.0994    1.0000 </r>
       <r>   -7.0951    1.0000 </r>
       <r>   -7.0838    1.0000 </r>
       <r>   -7.0782    1.0000 </r>
       <r>   -7.0704    1.0000 </r>
       <r>   -7.0559    1.0000 </r>
       <r>   -7.0462    1.0000 </r>
       <r>   -7.0423    1.0000 </r>
       <r>   -6.9234    1.0000 </r>
       <r>   -6.8485    1.0000 </r>
       <r>   -3.3412    1.0000 </r>
       <r>   -3.2863    1.0000 </r>
       <r>   -3.2781    1.0000 </r>
       <r>   -3.2625    1.0000 </r>
       <r>   -3.2246    1.0000 </r>
       <r>   -3.1618    1.0000 </r>
       <r>   -3.1278    1.0000 </r>
       <r>   -3.0463    1.0000 </r>
       <r>   -2.9153    1.0000 </r>
       <r>   -2.5648    1.0000 </r>
       <r>   -2.4980    1.0000 </r>
       <r>   -2.4737    1.0000 </r>
       <r>   -2.4284    1.0000 </r>
       <r>   -2.3579    1.0000 </r>
       <r>   -2.3214    1.0000 </r>
       <r>   -2.1588    1.0000 </r>
       <r>   -2.1384    1.0000 </r>
       <r>   -2.0723    1.0000 </r>
       <r>   -2.0311    1.0000 </r>
       <r>   -1.9782    1.0000 </r>
       <r>   -1.9550    1.0000 </r>
       <r>   -1.9392    1.0000 </r>
       <r>   -1.8600    1.0000 </r>
       <r>   -1.8182    1.0000 </r>
       <r>   -1.8089    1.0000 </r>
       <r>   -1.7501    1.0000 </r>
       <r>   -1.6961    1.0000 </r>
       <r>   -1.6749    1.0000 </r>
       <r>   -1.6556    1.0000 </r>
       <r>   -1.5943    1.0000 </r>
       <r>   -1.5546    1.0000 </r>
       <r>   -1.5475    1.0000 </r>
       <r>   -1.5272    1.0000 </r>
       <r>   -1.4896    1.0000 </r>
       <r>   -1.4818    1.0000 </r>
       <r>   -1.4603    1.0000 </r>
       <r>   -1.4490    1.0000 </r>
       <r>   -1.4390    1.0000 </r>
       <r>   -1.4247    1.0000 </r>
       <r>   -1.4119    1.0000 </r>
       <r>   -1.3990    1.0000 </r>
       <r>   -1.3775    1.0000 </r>
       <r>   -1.3541    1.0000 </r>
       <r>   -1.3486    1.0000 </r>
       <r>   -1.3346    1.0000 </r>
       <r>   -1.3098    1.0000 </r>
       <r>   -1.3021    1.0000 </r>
       <r>   -1.2972    1.0000 </r>
       <r>   -1.2698    1.0000 </r>
       <r>   -1.2533    1.0000 </r>
       <r>   -1.2406    1.0000 </r>
       <r>   -1.2180    1.0000 </r>
       <r>   -1.1962    1.0000 </r>
       <r>   -1.1823    1.0000 </r>
       <r>   -1.1782    1.0000 </r>
       <r>   -1.1243    1.0000 </r>
       <r>   -1.1061    1.0000 </r>
       <r>   -1.0840    1.0000 </r>
       <r>   -1.0557    1.0000 </r>
       <r>   -1.0108    1.0000 </r>
       <r>   -0.9941    1.0000 </r>
       <r>   -0.8898    1.0000 </r>
       <r>   -0.8635    1.0000 </r>
       <r>   -0.6880    1.0000 </r>
       <r>   -0.6022    1.0000 </r>
       <r>   -0.5308    1.0000 </r>
       <r>   -0.4718    1.0000 </r>
       <r>   -0.0525    1.0000 </r>
       <r>    0.0355    1.0000 </r>
       <r>    2.4633    0.0000 </r>
       <r>    2.8938    0.0000 </r>
       <r>    2.9292    0.0000 </r>
       <r>    2.9750    0.0000 </r>
       <r>    3.1808    0.0000 </r>
       <r>    3.2866    0.0000 </r>
       <r>    3.3121    0.0000 </r>
       <r>    3.3556    0.0000 </r>
       <r>    3.4741    0.0000 </r>
       <r>    3.9686    0.0000 </r>
       <r>    4.3122    0.0000 </r>
       <r>    4.3920    0.0000 </r>
       <r>    4.5228    0.0000 </r>
       <r>    4.5974    0.0000 </r>
       <r>    4.7527    0.0000 </r>
       <r>    4.8330    0.0000 </r>
       <r>    4.8743    0.0000 </r>
       <r>    5.4562    0.0000 </r>
       <r>    5.6258    0.0000 </r>
       <r>    5.6450    0.0000 </r>
       <r>    5.6610    0.0000 </r>
       <r>    5.8982    0.0000 </r>
       <r>    5.9300    0.0000 </r>
       <r>    6.0557    0.0000 </r>
       <r>    6.0985    0.0000 </r>
       <r>    6.1211    0.0000 </r>
       <r>    6.1989    0.0000 </r>
       <r>    6.2230    0.0000 </r>
       <r>    6.2650    0.0000 </r>
       <r>    6.2882    0.0000 </r>
       <r>    6.3809    0.0000 </r>
       <r>    6.3902    0.0000 </r>
       <r>    6.4550    0.0000 </r>
       <r>    6.5367    0.0000 </r>
       <r>    6.6377    0.0000 </r>
       <r>    6.6556    0.0000 </r>
      </set>
      <set comment="kpoint 6">
       <r>  -20.9002    1.0000 </r>
       <r>  -20.8621    1.0000 </r>
       <r>  -20.8416    1.0000 </r>
       <r>  -20.8138    1.0000 </r>
       <r>  -20.7416    1.0000 </r>
       <r>  -20.6869    1.0000 </r>
       <r>  -20.6815    1.0000 </r>
       <r>  -20.6526    1.0000 </r>
       <r>  -16.7093    1.0000 </r>
       <r>  -16.6994    1.0000 </r>
       <r>  -16.6677    1.0000 </r>
       <r>  -16.6589    1.0000 </r>
       <r>  -16.6164    1.0000 </r>
       <r>  -16.5978    1.0000 </r>
       <r>  -16.5900    1.0000 </r>
       <r>  -16.5874    1.0000 </r>
       <r>  -16.5852    1.0000 </r>
       <r>  -16.5850    1.0000 </r>
       <r>  -16.5638    1.0000 </r>
       <r>  -16.5436    1.0000 </r>
       <r>  -16.5389    1.0000 </r>
       <r>  -16.5279    1.0000 </r>
       <r>  -16.4317    1.0000 </r>
       <r>  -16.4304    1.0000 </r>
       <r>  -16.4280    1.0000 </r>
       <r>  -16.4241    1.0000 </r>
       <r>  -16.4213    1.0000 </r>
       <r>  -16.4014    1.0000 </r>
       <r>  -16.3859    1.0000 </r>
       <r>  -16.3838    1.0000 </r>
       <r>  -16.3592    1.0000 </r>
       <r>  -16.3537    1.0000 </r>
       <r>  -16.3502    1.0000 </r>
       <r>  -16.3220    1.0000 </r>
       <r>  -16.3143    1.0000 </r>
       <r>  -16.3067    1.0000 </r>
       <r>  -16.2918    1.0000 </r>
       <r>  -16.2867    1.0000 </r>
       <r>  -16.2837    1.0000 </r>
       <r>  -16.2805    1.0000 </r>
       <r>  -16.2780    1.0000 </r>
       <r>  -16.2712    1.0000 </r>
       <r>  -16.2663    1.0000 </r>
       <r>  -16.2637    1.0000 </r>
       <r>  -16.2577    1.0000 </r>
       <r>  -16.2505    1.0000 </r>
       <r>  -16.2466    1.0000 </r>
       <r>  -16.2357    1.0000 </r>
       <r>  -14.5138    1.0000 </r>
       <r>  -14.4240    1.0000 </r>
       <r>  -14.2657    1.0000 </r>
       <r>  -14.2494    1.0000 </r>
       <r>  -14.2073    1.0000 </r>
       <r>  -14.1473    1.0000 </r>
       <r>  -14.0995    1.0000 </r>
       <r>  -14.0776    1.0000 </r>
       <r>  -14.0763    1.0000 </r>
       <r>  -14.0629    1.0000 </r>
       <r>  -14.0539    1.0000 </r>
       <r>  -14.0528    1.0000 </r>
       <r>  -14.0147    1.0000 </r>
       <r>  -13.9087    1.0000 </r>
       <r>  -13.8943    1.0000 </r>
       <r>  -13.8870    1.0000 </r>
       <r>  -13.8771    1.0000 </r>
       <r>  -13.8717    1.0000 </r>
       <r>  -13.8508    1.0000 </r>
       <r>  -13.8258    1.0000 </r>
       <r>  -13.8137    1.0000 </r>
       <r>  -13.7983    1.0000 </r>
       <r>  -13.7907    1.0000 </r>
       <r>   -7.9140    1.0000 </r>
       <r>   -7.7773    1.0000 </r>
       <r>   -7.7420    1.0000 </r>
       <r>   -7.7223    1.0000 </r>
       <r>   -7.4840    1.0000 </r>
       <r>   -7.3348    1.0000 </r>
       <r>   -7.3102    1.0000 </r>
       <r>   -7.3036    1.0000 </r>
       <r>   -7.2858    1.0000 </r>
       <r>   -7.2752    1.0000 </r>
       <r>   -7.2637    1.0000 </r>
       <r>   -7.2440    1.0000 </r>
       <r>   -7.2349    1.0000 </r>
       <r>   -7.2335    1.0000 </r>
       <r>   -7.2240    1.0000 </r>
       <r>   -7.2189    1.0000 </r>
       <r>   -7.1994    1.0000 </r>
       <r>   -7.1889    1.0000 </r>
       <r>   -7.1765    1.0000 </r>
       <r>   -7.1447    1.0000 </r>
       <r>   -7.1364    1.0000 </r>
       <r>   -7.1208    1.0000 </r>
       <r>   -7.1156    1.0000 </r>
       <r>   -7.1098    1.0000 </r>
       <r>   -7.0936    1.0000 </r>
       <r>   -7.0843    1.0000 </r>
       <r>   -7.0790    1.0000 </r>
       <r>   -7.0709    1.0000 </r>
[...]
        <r>  0.0000  0.0009  0.0015 </r>
        <r>  0.0003  0.0007  0.0007 </r>
        <r>  0.0016  0.0003  0.0011 </r>
        <r>  0.0005  0.0005  0.0006 </r>
        <r>  0.0002  0.0023  0.0002 </r>
        <r>  0.0006  0.0006  0.0011 </r>
        <r>  0.0010  0.0019  0.0012 </r>
        <r>  0.0002  0.0021  0.0009 </r>
        <r>  0.0006  0.0011  0.0014 </r>
       </set>
       <set comment="band 199">
        <r>  0.0003  0.0002  0.0047 </r>
        <r>  0.0016  0.0007  0.0030 </r>
        <r>  0.0002  0.0020  0.0088 </r>
        <r>  0.0000  0.0007  0.0041 </r>
        <r>  0.0000  0.0001  0.0046 </r>
        <r>  0.0002  0.0002  0.0050 </r>
        <r>  0.0083  0.0015  0.0197 </r>
        <r>  0.0071  0.0008  0.0063 </r>
        <r>  0.0000  0.0007  0.0004 </r>
        <r>  0.0000  0.0063  0.0010 </r>
        <r>  0.0000  0.0019  0.0002 </r>
        <r>  0.0000  0.0027  0.0001 </r>
        <r>  0.0002  0.0042  0.0003 </r>
        <r>  0.0000  0.0016  0.0001 </r>
        <r>  0.0000  0.0063  0.0001 </r>
        <r>  0.0002  0.0043  0.0004 </r>
        <r>  0.0016  0.0013  0.0017 </r>
        <r>  0.0017  0.0027  0.0037 </r>
        <r>  0.0001  0.0007  0.0004 </r>
        <r>  0.0001  0.0004  0.0006 </r>
        <r>  0.0000  0.0042  0.0006 </r>
        <r>  0.0005  0.0019  0.0010 </r>
        <r>  0.0001  0.0027  0.0003 </r>
        <r>  0.0006  0.0021  0.0004 </r>
        <r>  0.0004  0.0021  0.0007 </r>
        <r>  0.0025  0.0040  0.0009 </r>
        <r>  0.0009  0.0024  0.0010 </r>
        <r>  0.0000  0.0015  0.0005 </r>
        <r>  0.0000  0.0001  0.0007 </r>
        <r>  0.0003  0.0010  0.0009 </r>
        <r>  0.0000  0.0019  0.0015 </r>
        <r>  0.0005  0.0006  0.0004 </r>
        <r>  0.0003  0.0035  0.0018 </r>
        <r>  0.0004  0.0025  0.0013 </r>
        <r>  0.0006  0.0021  0.0012 </r>
        <r>  0.0021  0.0003  0.0012 </r>
        <r>  0.0005  0.0011  0.0009 </r>
        <r>  0.0000  0.0020  0.0003 </r>
        <r>  0.0004  0.0040  0.0011 </r>
       </set>
       <set comment="band 200">
        <r>  0.0051  0.0002  0.0124 </r>
        <r>  0.0055  0.0003  0.0095 </r>
        <r>  0.0070  0.0001  0.0047 </r>
        <r>  0.0000  0.0006  0.0040 </r>
        <r>  0.0063  0.0013  0.0126 </r>
        <r>  0.0001  0.0007  0.0020 </r>
        <r>  0.0001  0.0016  0.0022 </r>
        <r>  0.0000  0.0005  0.0025 </r>
        <r>  0.0000  0.0087  0.0001 </r>
        <r>  0.0000  0.0094  0.0002 </r>
        <r>  0.0000  0.0019  0.0001 </r>
        <r>  0.0000  0.0026  0.0002 </r>
        <r>  0.0000  0.0133  0.0006 </r>
        <r>  0.0000  0.0024  0.0001 </r>
        <r>  0.0000  0.0019  0.0002 </r>
        <r>  0.0000  0.0047  0.0011 </r>
        <r>  0.0004  0.0016  0.0003 </r>
        <r>  0.0005  0.0026  0.0006 </r>
        <r>  0.0018  0.0022  0.0016 </r>
        <r>  0.0010  0.0051  0.0028 </r>
        <r>  0.0002  0.0040  0.0006 </r>
        <r>  0.0002  0.0015  0.0010 </r>
        <r>  0.0001  0.0049  0.0018 </r>
        <r>  0.0009  0.0040  0.0023 </r>
        <r>  0.0000  0.0023  0.0003 </r>
        <r>  0.0001  0.0004  0.0008 </r>
        <r>  0.0014  0.0033  0.0003 </r>
        <r>  0.0001  0.0030  0.0004 </r>
        <r>  0.0000  0.0019  0.0006 </r>
        <r>  0.0003  0.0023  0.0005 </r>
        <r>  0.0003  0.0031  0.0012 </r>
        <r>  0.0008  0.0018  0.0010 </r>
        <r>  0.0008  0.0001  0.0017 </r>
        <r>  0.0009  0.0003  0.0013 </r>
        <r>  0.0013  0.0012  0.0011 </r>
        <r>  0.0011  0.0048  0.0017 </r>
        <r>  0.0001  0.0024  0.0012 </r>
        <r>  0.0004  0.0004  0.0006 </r>
        <r>  0.0002  0.0002  0.0014 </r>
       </set>
       <set comment="band 201">
        <r>  0.0065  0.0006  0.0054 </r>
        <r>  0.0022  0.0013  0.0167 </r>
        <r>  0.0001  0.0004  0.0022 </r>
        <r>  0.0011  0.0009  0.0044 </r>
        <r>  0.0035  0.0008  0.0071 </r>
        <r>  0.0022  0.0009  0.0049 </r>
        <r>  0.0000  0.0001  0.0125 </r>
        <r>  0.0037  0.0006  0.0068 </r>
        <r>  0.0000  0.0056  0.0001 </r>
        <r>  0.0004  0.0026  0.0001 </r>
        <r>  0.0000  0.0027  0.0002 </r>
        <r>  0.0000  0.0044  0.0003 </r>
        <r>  0.0000  0.0165  0.0000 </r>
        <r>  0.0000  0.0034  0.0001 </r>
        <r>  0.0000  0.0019  0.0001 </r>
        <r>  0.0000  0.0096  0.0002 </r>
        <r>  0.0005  0.0035  0.0017 </r>
        <r>  0.0005  0.0028  0.0003 </r>
        <r>  0.0004  0.0014  0.0018 </r>
        <r>  0.0046  0.0028  0.0019 </r>
        <r>  0.0000  0.0032  0.0012 </r>
        <r>  0.0013  0.0009  0.0026 </r>
        <r>  0.0007  0.0018  0.0019 </r>
        <r>  0.0000  0.0020  0.0012 </r>
        <r>  0.0002  0.0016  0.0006 </r>
        <r>  0.0000  0.0034  0.0006 </r>
        <r>  0.0001  0.0025  0.0006 </r>
        <r>  0.0001  0.0027  0.0005 </r>
        <r>  0.0003  0.0028  0.0005 </r>
        <r>  0.0000  0.0005  0.0003 </r>
        <r>  0.0023  0.0001  0.0019 </r>
        <r>  0.0003  0.0012  0.0005 </r>
        <r>  0.0001  0.0062  0.0008 </r>
        <r>  0.0014  0.0006  0.0014 </r>
        <r>  0.0014  0.0018  0.0018 </r>
        <r>  0.0006  0.0004  0.0009 </r>
        <r>  0.0001  0.0021  0.0001 </r>
        <r>  0.0000  0.0012  0.0005 </r>
        <r>  0.0001  0.0011  0.0023 </r>
       </set>
       <set comment="band 202">
        <r>  0.0008  0.0003  0.0056 </r>
        <r>  0.0028  0.0005  0.0053 </r>
        <r>  0.0055  0.0005  0.0084 </r>
        <r>  0.0054  0.0012  0.0154 </r>
        <r>  0.0023  0.0005  0.0038 </r>
        <r>  0.0003  0.0006  0.0036 </r>
        <r>  0.0008  0.0004  0.0163 </r>
        <r>  0.0016  0.0004  0.0120 </r>
        <r>  0.0000  0.0011  0.0001 </r>
        <r>  0.0000  0.0077  0.0004 </r>
        <r>  0.0000  0.0020  0.0003 </r>
        <r>  0.0000  0.0050  0.0000 </r>
        <r>  0.0001  0.0009  0.0002 </r>
        <r>  0.0000  0.0026  0.0003 </r>
        <r>  0.0000  0.0103  0.0000 </r>
        <r>  0.0000  0.0072  0.0002 </r>
        <r>  0.0007  0.0025  0.0025 </r>
        <r>  0.0007  0.0016  0.0015 </r>
        <r>  0.0003  0.0013  0.0008 </r>
        <r>  0.0005  0.0003  0.0013 </r>
        <r>  0.0006  0.0028  0.0026 </r>
        <r>  0.0002  0.0009  0.0009 </r>
        <r>  0.0004  0.0035  0.0006 </r>
        <r>  0.0000  0.0025  0.0008 </r>
        <r>  0.0000  0.0034  0.0006 </r>
        <r>  0.0000  0.0017  0.0011 </r>
        <r>  0.0021  0.0009  0.0025 </r>
        <r>  0.0008  0.0012  0.0024 </r>
        <r>  0.0002  0.0005  0.0002 </r>
        <r>  0.0009  0.0014  0.0011 </r>
        <r>  0.0003  0.0006  0.0004 </r>
        <r>  0.0002  0.0030  0.0015 </r>
        <r>  0.0000  0.0012  0.0002 </r>
        <r>  0.0001  0.0023  0.0025 </r>
        <r>  0.0000  0.0027  0.0009 </r>
        <r>  0.0006  0.0036  0.0010 </r>
        <r>  0.0013  0.0008  0.0014 </r>
        <r>  0.0006  0.0019  0.0006 </r>
        <r>  0.0015  0.0008  0.0009 </r>
       </set>
       <set comment="band 203">
        <r>  0.0015  0.0019  0.0067 </r>
        <r>  0.0001  0.0010  0.0122 </r>
        <r>  0.0011  0.0004  0.0013 </r>
        <r>  0.0000  0.0002  0.0037 </r>
        <r>  0.0054  0.0006  0.0058 </r>
        <r>  0.0088  0.0010  0.0160 </r>
        <r>  0.0006  0.0002  0.0031 </r>
        <r>  0.0004  0.0002  0.0095 </r>
        <r>  0.0000  0.0043  0.0003 </r>
        <r>  0.0000  0.0034  0.0002 </r>
        <r>  0.0000  0.0058  0.0001 </r>
        <r>  0.0000  0.0040  0.0001 </r>
        <r>  0.0000  0.0104  0.0003 </r>
        <r>  0.0000  0.0006  0.0002 </r>
        <r>  0.0000  0.0056  0.0001 </r>
        <r>  0.0000  0.0188  0.0002 </r>
        <r>  0.0000  0.0054  0.0003 </r>
        <r>  0.0001  0.0028  0.0003 </r>
        <r>  0.0002  0.0021  0.0009 </r>
        <r>  0.0004  0.0052  0.0015 </r>
        <r>  0.0001  0.0003  0.0006 </r>
        <r>  0.0005  0.0027  0.0043 </r>
        <r>  0.0020  0.0018  0.0012 </r>
        <r>  0.0001  0.0022  0.0012 </r>
        <r>  0.0020  0.0022  0.0027 </r>
        <r>  0.0017  0.0043  0.0011 </r>
        <r>  0.0001  0.0014  0.0001 </r>
        <r>  0.0005  0.0018  0.0017 </r>
        <r>  0.0011  0.0023  0.0020 </r>
        <r>  0.0000  0.0008  0.0007 </r>
        <r>  0.0011  0.0006  0.0009 </r>
        <r>  0.0000  0.0012  0.0007 </r>
        <r>  0.0008  0.0023  0.0006 </r>
        <r>  0.0001  0.0026  0.0007 </r>
        <r>  0.0000  0.0014  0.0005 </r>
        <r>  0.0001  0.0041  0.0007 </r>
        <r>  0.0004  0.0035  0.0008 </r>
        <r>  0.0010  0.0027  0.0009 </r>
        <r>  0.0008  0.0003  0.0006 </r>
       </set>
       <set comment="band 204">
        <r>  0.0004  0.0006  0.0039 </r>
        <r>  0.0003  0.0004  0.0092 </r>
        <r>  0.0000  0.0004  0.0228 </r>
        <r>  0.0101  0.0004  0.0034 </r>
        <r>  0.0002  0.0002  0.0070 </r>
        <r>  0.0015  0.0001  0.0067 </r>
        <r>  0.0011  0.0013  0.0194 </r>
        <r>  0.0062  0.0019  0.0021 </r>
        <r>  0.0000  0.0058  0.0002 </r>
        <r>  0.0001  0.0045  0.0002 </r>
        <r>  0.0000  0.0005  0.0002 </r>
        <r>  0.0000  0.0019  0.0001 </r>
        <r>  0.0001  0.0050  0.0001 </r>
        <r>  0.0000  0.0049  0.0002 </r>
        <r>  0.0000  0.0057  0.0004 </r>
        <r>  0.0000  0.0019  0.0001 </r>
        <r>  0.0007  0.0065  0.0008 </r>
        <r>  0.0001  0.0025  0.0007 </r>
        <r>  0.0001  0.0063  0.0007 </r>
        <r>  0.0000  0.0007  0.0001 </r>
        <r>  0.0048  0.0011  0.0041 </r>
        <r>  0.0001  0.0026  0.0004 </r>
        <r>  0.0002  0.0009  0.0007 </r>
        <r>  0.0016  0.0008  0.0014 </r>
        <r>  0.0002  0.0002  0.0005 </r>
        <r>  0.0017  0.0016  0.0011 </r>
        <r>  0.0004  0.0034  0.0018 </r>
        <r>  0.0012  0.0017  0.0007 </r>
        <r>  0.0001  0.0013  0.0004 </r>
        <r>  0.0000  0.0037  0.0022 </r>
        <r>  0.0001  0.0027  0.0010 </r>
        <r>  0.0005  0.0020  0.0004 </r>
        <r>  0.0002  0.0018  0.0012 </r>
        <r>  0.0005  0.0007  0.0009 </r>
        <r>  0.0010  0.0018  0.0016 </r>
        <r>  0.0009  0.0041  0.0021 </r>
        <r>  0.0001  0.0004  0.0005 </r>
        <r>  0.0008  0.0009  0.0017 </r>
        <r>  0.0002  0.0011  0.0008 </r>
       </set>
       <set comment="band 205">
        <r>  0.0009  0.0012  0.0071 </r>
        <r>  0.0005  0.0010  0.0210 </r>
        <r>  0.0008  0.0006  0.0093 </r>
        <r>  0.0063  0.0012  0.0077 </r>
        <r>  0.0018  0.0001  0.0079 </r>
        <r>  0.0017  0.0002  0.0039 </r>
        <r>  0.0032  0.0006  0.0032 </r>
        <r>  0.0015  0.0003  0.0167 </r>
        <r>  0.0000  0.0009  0.0005 </r>
        <r>  0.0000  0.0019  0.0002 </r>
        <r>  0.0000  0.0178  0.0001 </r>
        <r>  0.0000  0.0089  0.0000 </r>
        <r>  0.0000  0.0016  0.0002 </r>
        <r>  0.0000  0.0013  0.0004 </r>
        <r>  0.0000  0.0103  0.0001 </r>
        <r>  0.0000  0.0010  0.0006 </r>
        <r>  0.0008  0.0008  0.0011 </r>
        <r>  0.0000  0.0020  0.0002 </r>
        <r>  0.0006  0.0043  0.0011 </r>
        <r>  0.0003  0.0008  0.0006 </r>
        <r>  0.0012  0.0032  0.0014 </r>
        <r>  0.0002  0.0022  0.0010 </r>
        <r>  0.0001  0.0006  0.0011 </r>
        <r>  0.0002  0.0017  0.0007 </r>
        <r>  0.0002  0.0006  0.0016 </r>
        <r>  0.0000  0.0009  0.0016 </r>
        <r>  0.0013  0.0010  0.0021 </r>
        <r>  0.0002  0.0030  0.0010 </r>
        <r>  0.0006  0.0039  0.0006 </r>
        <r>  0.0016  0.0023  0.0028 </r>
        <r>  0.0002  0.0009  0.0011 </r>
        <r>  0.0033  0.0043  0.0032 </r>
        <r>  0.0000  0.0024  0.0005 </r>
        <r>  0.0000  0.0017  0.0003 </r>
        <r>  0.0018  0.0030  0.0021 </r>
        <r>  0.0001  0.0002  0.0006 </r>
        <r>  0.0000  0.0011  0.0018 </r>
        <r>  0.0003  0.0031  0.0010 </r>
        <r>  0.0000  0.0011  0.0009 </r>
       </set>
       <set comment="band 206">
        <r>  0.0002  0.0004  0.0179 </r>
        <r>  0.0006  0.0001  0.0144 </r>
        <r>  0.0001  0.0015  0.0045 </r>
        <r>  0.0031  0.0004  0.0108 </r>
        <r>  0.0004  0.0008  0.0056 </r>
        <r>  0.0000  0.0004  0.0070 </r>
        <r>  0.0002  0.0001  0.0060 </r>
        <r>  0.0023  0.0019  0.0283 </r>
        <r>  0.0000  0.0063  0.0001 </r>
        <r>  0.0000  0.0096  0.0006 </r>
        <r>  0.0000  0.0021  0.0008 </r>
        <r>  0.0001  0.0023  0.0005 </r>
        <r>  0.0000  0.0080  0.0003 </r>
        <r>  0.0000  0.0041  0.0002 </r>
        <r>  0.0001  0.0043  0.0005 </r>
        <r>  0.0001  0.0095  0.0008 </r>
        <r>  0.0006  0.0007  0.0018 </r>
        <r>  0.0005  0.0017  0.0012 </r>
        <r>  0.0007  0.0005  0.0009 </r>
        <r>  0.0009  0.0045  0.0012 </r>
        <r>  0.0002  0.0054  0.0030 </r>
        <r>  0.0000  0.0006  0.0006 </r>
        <r>  0.0003  0.0015  0.0005 </r>
        <r>  0.0013  0.0011  0.0019 </r>
        <r>  0.0003  0.0030  0.0009 </r>
        <r>  0.0003  0.0018  0.0011 </r>
        <r>  0.0000  0.0006  0.0005 </r>
        <r>  0.0001  0.0018  0.0013 </r>
        <r>  0.0005  0.0011  0.0012 </r>
        <r>  0.0002  0.0005  0.0004 </r>
        <r>  0.0006  0.0015  0.0020 </r>
        <r>  0.0003  0.0020  0.0009 </r>
        <r>  0.0002  0.0041  0.0006 </r>
        <r>  0.0004  0.0013  0.0021 </r>
        <r>  0.0001  0.0015  0.0015 </r>
        <r>  0.0001  0.0007  0.0011 </r>
        <r>  0.0010  0.0015  0.0025 </r>
        <r>  0.0010  0.0026  0.0011 </r>
        <r>  0.0003  0.0004  0.0009 </r>
       </set>
       <set comment="band 207">
        <r>  0.0007  0.0009  0.0081 </r>
        <r>  0.0012  0.0005  0.0164 </r>
        <r>  0.0004  0.0005  0.0207 </r>
        <r>  0.0008  0.0010  0.0265 </r>
        <r>  0.0006  0.0013  0.0156 </r>
        <r>  0.0005  0.0001  0.0029 </r>
        <r>  0.0021  0.0002  0.0136 </r>
        <r>  0.0002  0.0015  0.0045 </r>
        <r>  0.0000  0.0074  0.0005 </r>
        <r>  0.0000  0.0041  0.0001 </r>
        <r>  0.0000  0.0053  0.0003 </r>
        <r>  0.0000  0.0047  0.0004 </r>
        <r>  0.0000  0.0048  0.0004 </r>
        <r>  0.0000  0.0010  0.0002 </r>
        <r>  0.0000  0.0030  0.0003 </r>
        <r>  0.0000  0.0091  0.0002 </r>
        <r>  0.0012  0.0007  0.0017 </r>
        <r>  0.0001  0.0011  0.0021 </r>
        <r>  0.0002  0.0006  0.0017 </r>
        <r>  0.0003  0.0022  0.0004 </r>
        <r>  0.0002  0.0006  0.0015 </r>
        <r>  0.0000  0.0016  0.0002 </r>
        <r>  0.0000  0.0004  0.0008 </r>
        <r>  0.0003  0.0024  0.0009 </r>
        <r>  0.0004  0.0011  0.0016 </r>
        <r>  0.0001  0.0001  0.0006 </r>
        <r>  0.0000  0.0019  0.0005 </r>
        <r>  0.0013  0.0003  0.0017 </r>
        <r>  0.0002  0.0009  0.0009 </r>
        <r>  0.0000  0.0043  0.0005 </r>
        <r>  0.0008  0.0026  0.0027 </r>
        <r>  0.0007  0.0016  0.0028 </r>
        <r>  0.0000  0.0011  0.0010 </r>
        <r>  0.0001  0.0024  0.0006 </r>
        <r>  0.0041  0.0004  0.0037 </r>
        <r>  0.0008  0.0006  0.0019 </r>
        <r>  0.0003  0.0037  0.0012 </r>
        <r>  0.0000  0.0005  0.0003 </r>
        <r>  0.0000  0.0007  0.0012 </r>
       </set>
       <set comment="band 208">
        <r>  0.0003  0.0009  0.0153 </r>
        <r>  0.0004  0.0002  0.0314 </r>
        <r>  0.0005  0.0002  0.0178 </r>
        <r>  0.0001  0.0001  0.0151 </r>
        <r>  0.0005  0.0013  0.0172 </r>
        <r>  0.0001  0.0002  0.0088 </r>
        <r>  0.0002  0.0004  0.0071 </r>
        <r>  0.0005  0.0004  0.0107 </r>
        <r>  0.0000  0.0047  0.0005 </r>
        <r>  0.0000  0.0008  0.0002 </r>
        <r>  0.0000  0.0026  0.0004 </r>
        <r>  0.0001  0.0017  0.0006 </r>
        <r>  0.0002  0.0006  0.0003 </r>
        <r>  0.0001  0.0089  0.0006 </r>
        <r>  0.0000  0.0014  0.0005 </r>
        <r>  0.0000  0.0023  0.0002 </r>
        <r>  0.0012  0.0013  0.0014 </r>
        <r>  0.0005  0.0012  0.0018 </r>
        <r>  0.0010  0.0013  0.0021 </r>
        <r>  0.0002  0.0021  0.0013 </r>
        <r>  0.0003  0.0014  0.0016 </r>
        <r>  0.0001  0.0016  0.0008 </r>
        <r>  0.0014  0.0017  0.0034 </r>
        <r>  0.0001  0.0013  0.0010 </r>
        <r>  0.0000  0.0023  0.0008 </r>
        <r>  0.0005  0.0013  0.0008 </r>
        <r>  0.0001  0.0038  0.0019 </r>
        <r>  0.0003  0.0011  0.0010 </r>
        <r>  0.0006  0.0015  0.0017 </r>
        <r>  0.0000  0.0010  0.0009 </r>
        <r>  0.0000  0.0005  0.0009 </r>
        <r>  0.0001  0.0009  0.0017 </r>
        <r>  0.0007  0.0006  0.0012 </r>
        <r>  0.0001  0.0008  0.0008 </r>
        <r>  0.0000  0.0003  0.0011 </r>
        <r>  0.0001  0.0015  0.0020 </r>
        <r>  0.0002  0.0015  0.0006 </r>
        <r>  0.0002  0.0008  0.0005 </r>
        <r>  0.0011  0.0008  0.0007 </r>
       </set>
      </set>
     </set>
    </set>
   </array>
  </projected>
 </calculation>
 <structure name="finalpos" >
  <crystal>
   <varray name="basis" >
    <v>       8.45648900       0.00000000       8.04030100 </v>
    <v>       0.00000000      11.72984700       0.00000000 </v>
    <v>      -8.45648900       0.00000000       8.04030100 </v>
   </varray>
   <i name="volume">   1595.08833419 </i>
   <varray name="rec_basis" >
    <v>       0.05912619      -0.00000000       0.06218673 </v>
    <v>       0.00000000       0.08525260      -0.00000000 </v>
    <v>      -0.05912619       0.00000000       0.06218673 </v>
   </varray>
  </crystal>
  <varray name="positions" >
   <v>       0.27555600       0.24988100       0.21263900 </v>
   <v>       0.77281600       0.24730100       0.70198900 </v>
   <v>       0.70855200       0.75062700       0.26345600 </v>
   <v>       0.22273700       0.74407200       0.77313900 </v>
   <v>       0.24225800       0.23232600       0.73194800 </v>
   <v>       0.80502400       0.25006400       0.22835200 </v>
   <v>       0.75579800       0.76863900       0.81351500 </v>
   <v>       0.21664100       0.75462500       0.27455400 </v>
   <v>       0.00570300       0.00431100       0.00071400 </v>
   <v>       0.49975100       0.99282800       0.51185100 </v>
   <v>       0.50695200       0.00727200       0.01051700 </v>
   <v>       0.99843900       0.99519700       0.49382400 </v>
   <v>       0.50000700       0.50705600       0.99810600 </v>
   <v>       0.99453800       0.50075500       0.49370500 </v>
   <v>       0.00110600       0.49982100       0.99463700 </v>
   <v>       0.48958100       0.48604900       0.48637300 </v>
   <v>       0.48141200       0.75685800       0.97694200 </v>
   <v>       0.96440100       0.74827900       0.45204200 </v>
   <v>       0.96870300       0.25212900       0.95953500 </v>
   <v>       0.45820400       0.23361100       0.50223200 </v>
   <v>       0.03065800       0.75212200       0.01553100 </v>
   <v>       0.53485400       0.25983400       0.04504800 </v>
   <v>       0.01528000       0.24818600       0.51271000 </v>
   <v>       0.25188000       0.46496700       0.94394300 </v>
   <v>       0.73382100       0.46443600       0.44510000 </v>
   <v>       0.44906400       0.54375200       0.23624300 </v>
   <v>       0.94595500       0.52962800       0.74054700 </v>
   <v>       0.55704600       0.02929200       0.76391800 </v>
   <v>       0.05867600       0.03542800       0.24807400 </v>
   <v>       0.75822700       0.97561400       0.06101400 </v>
   <v>       0.25411500       0.95357900       0.54734200 </v>
   <v>       0.25378500       0.02908900       0.96133000 </v>
   <v>       0.74584400       0.02867200       0.45121600 </v>
   <v>       0.45250000       0.96267300       0.26241900 </v>
   <v>       0.96677200       0.98240600       0.74268300 </v>
   <v>       0.75289900       0.53400300       0.04412600 </v>
   <v>       0.24265100       0.52449000       0.54507800 </v>
   <v>       0.05391400       0.46825600       0.24487800 </v>
   <v>       0.52848500       0.63277300       0.66107800 </v>
  </varray>
 </structure>
</modeling>
