CsPbBr3 cubic bulk                      
           1
     8.456489    0.000000    8.040301
     0.000000   11.729847    0.000000
    -8.456489    0.000000    8.040301
   Cs   Pb   Br
   8   8  23
Direct configuration=     1
   0.27555600  0.24988100  0.21263900
   0.77281600  0.24730100  0.70198900
   0.70855200  0.75062700  0.26345600
   0.22273700  0.74407200  0.77313900
   0.24225800  0.23232600  0.73194800
   0.80502400  0.25006400  0.22835200
   0.75579800  0.76863900  0.81351500
   0.21664100  0.75462500  0.27455400
   0.00570300  0.00431100  0.00071400
   0.49975100  0.99282800  0.51185100
   0.50695200  0.00727200  0.01051700
   0.99843900  0.99519700  0.49382400
   0.50000700  0.50705600  0.99810600
   0.99453800  0.50075500  0.49370500
   0.00110600  0.49982100  0.99463700
   0.48958100  0.48604900  0.48637300
   0.48141200  0.75685800  0.97694200
   0.96440100  0.74827900  0.45204200
   0.96870300  0.25212900  0.95953500
   0.45820400  0.23361100  0.50223200
   0.03065800  0.75212200  0.01553100
   0.53485400  0.25983400  0.04504800
   0.01528000  0.24818600  0.51271000
   0.25188000  0.46496700  0.94394300
   0.73382100  0.46443600  0.44510000
   0.44906400  0.54375200  0.23624300
   0.94595500  0.52962800  0.74054700
   0.55704600  0.02929200  0.76391800
   0.05867600  0.03542800  0.24807400
   0.75822700  0.97561400  0.06101400
   0.25411500  0.95357900  0.54734200
   0.25378500  0.02908900  0.96133000
   0.74584400  0.02867200  0.45121600
   0.45250000  0.96267300  0.26241900
   0.96677200  0.98240600  0.74268300
   0.75289900  0.53400300  0.04412600
   0.24265100  0.52449000  0.54507800
   0.05391400  0.46825600  0.24487800
   0.52848500  0.63277300  0.66107800
