  40  40   1   0
  0.4040437E+02  0.1173535E-08  0.1173535E-08  0.1173535E-08  0.5000000E-15
   1.0000000000000000E-004
  CAR 
 CsPbBr3 cubic bulk                      
      8.38310895    -21.56252603  301     -0.07653294      1.00000000
    -21.563  0.0000E+00  0.0000E+00
    -21.463  0.0000E+00  0.0000E+00
    -21.363  0.0000E+00  0.0000E+00
    -21.263  0.0000E+00  0.0000E+00
    -21.163  0.0000E+00  0.0000E+00
    -21.063  0.0000E+00  0.0000E+00
    -20.964  0.0000E+00  0.0000E+00
    -20.864  0.0000E+00  0.0000E+00
    -20.764  0.0000E+00  0.0000E+00
    -20.664  0.0000E+00  0.0000E+00
    -20.564  0.0000E+00  0.0000E+00
    -20.465  0.0000E+00  0.0000E+00
    -20.365  0.0000E+00  0.0000E+00
    -20.265  0.0000E+00  0.0000E+00
    -20.165  0.1603E+03  0.1600E+02
    -20.065  0.0000E+00  0.1600E+02
    -19.965  0.0000E+00  0.1600E+02
    -19.866  0.0000E+00  0.1600E+02
    -19.766  0.0000E+00  0.1600E+02
    -19.666  0.0000E+00  0.1600E+02
    -19.566  0.0000E+00  0.1600E+02
    -19.466  0.0000E+00  0.1600E+02
    -19.367  0.0000E+00  0.1600E+02
    -19.267  0.0000E+00  0.1600E+02
    -19.167  0.0000E+00  0.1600E+02
    -19.067  0.0000E+00  0.1600E+02
    -18.967  0.0000E+00  0.1600E+02
    -18.867  0.0000E+00  0.1600E+02
    -18.768  0.0000E+00  0.1600E+02
    -18.668  0.0000E+00  0.1600E+02
    -18.568  0.0000E+00  0.1600E+02
    -18.468  0.0000E+00  0.1600E+02
    -18.368  0.0000E+00  0.1600E+02
    -18.269  0.0000E+00  0.1600E+02
    -18.169  0.0000E+00  0.1600E+02
    -18.069  0.0000E+00  0.1600E+02
    -17.969  0.0000E+00  0.1600E+02
    -17.869  0.0000E+00  0.1600E+02
    -17.769  0.0000E+00  0.1600E+02
    -17.670  0.0000E+00  0.1600E+02
    -17.570  0.0000E+00  0.1600E+02
    -17.470  0.0000E+00  0.1600E+02
    -17.370  0.0000E+00  0.1600E+02
    -17.270  0.0000E+00  0.1600E+02
    -17.170  0.2925E+03  0.4520E+02
    -17.071  0.3206E+03  0.9600E+02
    -16.971  0.0000E+00  0.9600E+02
    -16.871  0.0000E+00  0.9600E+02
    -16.771  0.0000E+00  0.9600E+02
    -16.671  0.0000E+00  0.9600E+02
    -16.572  0.0000E+00  0.9600E+02
    -16.472  0.0000E+00  0.9600E+02
    -16.372  0.0000E+00  0.9600E+02
    -16.272  0.0000E+00  0.9600E+02
    -16.172  0.0000E+00  0.9600E+02
    -16.072  0.0000E+00  0.9600E+02
    -15.973  0.0000E+00  0.9600E+02
    -15.873  0.0000E+00  0.9600E+02
    -15.773  0.0000E+00  0.9600E+02
    -15.673  0.0000E+00  0.9600E+02
    -15.573  0.0000E+00  0.9600E+02
    -15.474  0.0000E+00  0.9600E+02
    -15.374  0.0000E+00  0.9600E+02
    -15.274  0.0000E+00  0.9600E+02
    -15.174  0.0000E+00  0.9600E+02
    -15.074  0.0000E+00  0.9600E+02
    -14.974  0.0000E+00  0.9600E+02
    -14.875  0.0000E+00  0.9600E+02
    -14.775  0.0000E+00  0.9600E+02
    -14.675  0.0000E+00  0.9600E+02
    -14.575  0.0000E+00  0.9600E+02
    -14.475  0.5130E-12  0.9600E+02
    -14.376  0.5982E+02  0.1020E+03
    -14.276  0.8356E+02  0.1121E+03
    -14.176  0.8561E+02  0.1208E+03
    -14.076  0.6612E+02  0.1291E+03
    -13.976  0.6506E+02  0.1367E+03
    -13.876  0.2254E+02  0.1440E+03
    -13.777  0.0000E+00  0.1440E+03
    -13.677  0.0000E+00  0.1440E+03
    -13.577  0.0000E+00  0.1440E+03
    -13.477  0.0000E+00  0.1440E+03
    -13.377  0.0000E+00  0.1440E+03
    -13.278  0.0000E+00  0.1440E+03
    -13.178  0.0000E+00  0.1440E+03
    -13.078  0.0000E+00  0.1440E+03
    -12.978  0.0000E+00  0.1440E+03
    -12.878  0.0000E+00  0.1440E+03
    -12.778  0.0000E+00  0.1440E+03
    -12.679  0.0000E+00  0.1440E+03
    -12.579  0.0000E+00  0.1440E+03
    -12.479  0.0000E+00  0.1440E+03
    -12.379  0.0000E+00  0.1440E+03
    -12.279  0.0000E+00  0.1440E+03
    -12.180  0.0000E+00  0.1440E+03
    -12.080  0.0000E+00  0.1440E+03
    -11.980  0.0000E+00  0.1440E+03
    -11.880  0.0000E+00  0.1440E+03
    -11.780  0.0000E+00  0.1440E+03
    -11.680  0.0000E+00  0.1440E+03
    -11.581  0.0000E+00  0.1440E+03
    -11.481  0.0000E+00  0.1440E+03
    -11.381  0.0000E+00  0.1440E+03
    -11.281  0.0000E+00  0.1440E+03
    -11.181  0.0000E+00  0.1440E+03
    -11.082  0.0000E+00  0.1440E+03
    -10.982  0.0000E+00  0.1440E+03
    -10.882  0.0000E+00  0.1440E+03
    -10.782  0.0000E+00  0.1440E+03
    -10.682  0.0000E+00  0.1440E+03
    -10.582  0.0000E+00  0.1440E+03
    -10.483  0.0000E+00  0.1440E+03
    -10.383  0.0000E+00  0.1440E+03
    -10.283  0.0000E+00  0.1440E+03
    -10.183  0.0000E+00  0.1440E+03
    -10.083  0.0000E+00  0.1440E+03
     -9.984  0.0000E+00  0.1440E+03
     -9.884  0.0000E+00  0.1440E+03
     -9.784  0.0000E+00  0.1440E+03
     -9.684  0.0000E+00  0.1440E+03
     -9.584  0.0000E+00  0.1440E+03
     -9.484  0.0000E+00  0.1440E+03
     -9.385  0.0000E+00  0.1440E+03
     -9.285  0.0000E+00  0.1440E+03
     -9.185  0.0000E+00  0.1440E+03
     -9.085  0.0000E+00  0.1440E+03
     -8.985  0.0000E+00  0.1440E+03
     -8.886  0.0000E+00  0.1440E+03
     -8.786  0.0000E+00  0.1440E+03
     -8.686  0.0000E+00  0.1440E+03
     -8.586  0.0000E+00  0.1440E+03
     -8.486  0.0000E+00  0.1440E+03
     -8.386  0.0000E+00  0.1440E+03
     -8.287  0.0000E+00  0.1440E+03
     -8.187  0.0000E+00  0.1440E+03
     -8.087  0.4067E-03  0.1440E+03
     -7.987  0.2291E+02  0.1463E+03
     -7.887  0.4817E+02  0.1528E+03
     -7.788  0.4266E+02  0.1578E+03
     -7.688  0.1253E+02  0.1593E+03
     -7.588  0.5598E+01  0.1598E+03
     -7.488  0.0000E+00  0.1600E+03
     -7.388  0.0000E+00  0.1600E+03
     -7.288  0.0000E+00  0.1600E+03
     -7.189  0.0000E+00  0.1600E+03
     -7.089  0.5213E+01  0.1605E+03
     -6.989  0.7399E+02  0.1696E+03
     -6.889  0.3954E+02  0.1764E+03
     -6.789  0.6836E+02  0.1886E+03
     -6.690  0.1138E+03  0.2021E+03
     -6.590  0.2253E+02  0.2080E+03
     -6.490  0.0000E+00  0.2080E+03
     -6.390  0.0000E+00  0.2080E+03
     -6.290  0.0000E+00  0.2080E+03
     -6.190  0.0000E+00  0.2080E+03
     -6.091  0.0000E+00  0.2080E+03
     -5.991  0.0000E+00  0.2080E+03
     -5.891  0.0000E+00  0.2080E+03
     -5.791  0.0000E+00  0.2080E+03
     -5.691  0.0000E+00  0.2080E+03
     -5.592  0.0000E+00  0.2080E+03
     -5.492  0.0000E+00  0.2080E+03
     -5.392  0.0000E+00  0.2080E+03
     -5.292  0.0000E+00  0.2080E+03
     -5.192  0.0000E+00  0.2080E+03
     -5.092  0.0000E+00  0.2080E+03
     -4.993  0.0000E+00  0.2080E+03
     -4.893  0.0000E+00  0.2080E+03
     -4.793  0.0000E+00  0.2080E+03
     -4.693  0.0000E+00  0.2080E+03
     -4.593  0.0000E+00  0.2080E+03
     -4.494  0.0000E+00  0.2080E+03
     -4.394  0.0000E+00  0.2080E+03
     -4.294  0.0000E+00  0.2080E+03
     -4.194  0.0000E+00  0.2080E+03
     -4.094  0.0000E+00  0.2080E+03
     -3.994  0.0000E+00  0.2080E+03
     -3.895  0.0000E+00  0.2080E+03
     -3.795  0.0000E+00  0.2080E+03
     -3.695  0.0000E+00  0.2080E+03
     -3.595  0.0000E+00  0.2080E+03
     -3.495  0.0000E+00  0.2080E+03
     -3.396  0.0000E+00  0.2080E+03
     -3.296  0.0000E+00  0.2080E+03
     -3.196  0.0000E+00  0.2080E+03
     -3.096  0.0000E+00  0.2080E+03
     -2.996  0.0000E+00  0.2080E+03
     -2.896  0.1434E-08  0.2080E+03
     -2.797  0.1871E+02  0.2099E+03
     -2.697  0.4949E+02  0.2162E+03
     -2.597  0.1752E+02  0.2185E+03
     -2.497  0.1155E+02  0.2202E+03
     -2.397  0.3549E+02  0.2258E+03
     -2.298  0.6499E+02  0.2335E+03
     -2.198  0.4129E+02  0.2376E+03
     -2.098  0.6758E+02  0.2455E+03
     -1.998  0.2456E+02  0.2485E+03
     -1.898  0.5529E+02  0.2540E+03
     -1.798  0.3491E+02  0.2587E+03
     -1.699  0.4950E+02  0.2649E+03
     -1.599  0.5958E+02  0.2729E+03
     -1.499  0.6679E+02  0.2799E+03
     -1.399  0.6795E+02  0.2870E+03
     -1.299  0.3750E+02  0.2922E+03
     -1.199  0.8102E+02  0.3016E+03
     -1.100  0.7993E+02  0.3100E+03
     -1.000  0.5929E+02  0.3207E+03
     -0.900  0.6776E+02  0.3288E+03
     -0.800  0.3884E+02  0.3331E+03
     -0.700  0.1867E+02  0.3356E+03
     -0.601  0.5560E-02  0.3363E+03
     -0.501  0.3145E+02  0.3394E+03
     -0.401  0.4393E+02  0.3444E+03
     -0.301  0.1978E+02  0.3465E+03
     -0.201  0.3221E+02  0.3505E+03
     -0.101  0.1002E+02  0.3520E+03
     -0.002  0.0000E+00  0.3520E+03
      0.098  0.0000E+00  0.3520E+03
      0.198  0.0000E+00  0.3520E+03
      0.298  0.0000E+00  0.3520E+03
      0.398  0.0000E+00  0.3520E+03
      0.497  0.0000E+00  0.3520E+03
      0.597  0.0000E+00  0.3520E+03
      0.697  0.0000E+00  0.3520E+03
      0.797  0.0000E+00  0.3520E+03
      0.897  0.0000E+00  0.3520E+03
      0.997  0.0000E+00  0.3520E+03
      1.096  0.0000E+00  0.3520E+03
      1.196  0.0000E+00  0.3520E+03
      1.296  0.0000E+00  0.3520E+03
      1.396  0.0000E+00  0.3520E+03
      1.496  0.0000E+00  0.3520E+03
      1.595  0.0000E+00  0.3520E+03
      1.695  0.0000E+00  0.3520E+03
      1.795  0.0000E+00  0.3520E+03
      1.895  0.0000E+00  0.3520E+03
      1.995  0.0000E+00  0.3520E+03
      2.095  0.0000E+00  0.3520E+03
      2.194  0.0000E+00  0.3520E+03
      2.294  0.0000E+00  0.3520E+03
      2.394  0.7294E-10  0.3520E+03
      2.494  0.1022E+02  0.3530E+03
      2.594  0.3308E+02  0.3566E+03
      2.693  0.3745E+02  0.3622E+03
      2.793  0.1006E+02  0.3633E+03
      2.893  0.2504E+01  0.3640E+03
      2.993  0.1230E+02  0.3652E+03
      3.093  0.2456E+02  0.3705E+03
      3.193  0.4795E+02  0.3753E+03
      3.292  0.2545E+02  0.3780E+03
      3.392  0.2921E+02  0.3834E+03
      3.492  0.2249E+02  0.3882E+03
      3.592  0.5009E+01  0.3887E+03
      3.692  0.2255E+01  0.3890E+03
      3.791  0.1252E+02  0.3902E+03
      3.891  0.1809E+02  0.3921E+03
      3.991  0.2004E+02  0.3942E+03
      4.091  0.2012E+02  0.3963E+03
      4.191  0.5063E+01  0.3978E+03
      4.291  0.3388E+01  0.3991E+03
      4.390  0.3965E+01  0.3996E+03
      4.490  0.1898E+01  0.3999E+03
      4.590  0.0000E+00  0.4000E+03
      4.690  0.0000E+00  0.4000E+03
      4.790  0.0000E+00  0.4000E+03
      4.889  0.0000E+00  0.4000E+03
      4.989  0.0000E+00  0.4000E+03
      5.089  0.2447E+01  0.4002E+03
      5.189  0.0000E+00  0.4002E+03
      5.289  0.0000E+00  0.4002E+03
      5.389  0.0000E+00  0.4002E+03
      5.488  0.0000E+00  0.4002E+03
      5.588  0.0000E+00  0.4002E+03
      5.688  0.2059E-01  0.4003E+03
      5.788  0.1002E+02  0.4017E+03
      5.888  0.0000E+00  0.4018E+03
      5.987  0.0000E+00  0.4018E+03
      6.087  0.3144E+01  0.4021E+03
      6.187  0.2454E+02  0.4047E+03
      6.287  0.1001E+02  0.4062E+03
      6.387  0.5560E+01  0.4068E+03
      6.487  0.3248E+02  0.4117E+03
      6.586  0.4449E+02  0.4177E+03
      6.686  0.5331E+02  0.4236E+03
      6.786  0.1607E+02  0.4264E+03
      6.886  0.1636E+02  0.4294E+03
      6.986  0.1885E+02  0.4316E+03
      7.085  0.2505E+01  0.4320E+03
      7.185  0.0000E+00  0.4320E+03
      7.285  0.0000E+00  0.4320E+03
      7.385  0.0000E+00  0.4320E+03
      7.485  0.0000E+00  0.4320E+03
      7.585  0.0000E+00  0.4320E+03
      7.684  0.0000E+00  0.4320E+03
      7.784  0.0000E+00  0.4320E+03
      7.884  0.0000E+00  0.4320E+03
      7.984  0.0000E+00  0.4320E+03
      8.084  0.0000E+00  0.4320E+03
      8.183  0.0000E+00  0.4320E+03
      8.283  0.0000E+00  0.4320E+03
      8.383  0.0000E+00  0.4320E+03
      8.38310895    -21.56252603  301     -0.07653294      1.00000000
    -21.563  0.0000E+00  0.0000E+00  0.0000E+00
    -21.463  0.0000E+00  0.0000E+00  0.0000E+00
    -21.363  0.0000E+00  0.0000E+00  0.0000E+00
    -21.263  0.0000E+00  0.0000E+00  0.0000E+00
    -21.163  0.0000E+00  0.0000E+00  0.0000E+00
    -21.063  0.0000E+00  0.0000E+00  0.0000E+00
    -20.964  0.0000E+00  0.0000E+00  0.0000E+00
    -20.864  0.0000E+00  0.0000E+00  0.0000E+00
    -20.764  0.0000E+00  0.0000E+00  0.0000E+00
    -20.664  0.0000E+00  0.0000E+00  0.0000E+00
    -20.564  0.0000E+00  0.0000E+00  0.0000E+00
    -20.465  0.0000E+00  0.0000E+00  0.0000E+00
    -20.365  0.0000E+00  0.0000E+00  0.0000E+00
    -20.265  0.0000E+00  0.0000E+00  0.0000E+00
    -20.165  0.1736E+02  0.2853E-02  0.6580E-03
    -20.065  0.0000E+00  0.0000E+00  0.0000E+00
    -19.965  0.0000E+00  0.0000E+00  0.0000E+00
    -19.866  0.0000E+00  0.0000E+00  0.0000E+00
    -19.766  0.0000E+00  0.0000E+00  0.0000E+00
    -19.666  0.0000E+00  0.0000E+00  0.0000E+00
    -19.566  0.0000E+00  0.0000E+00  0.0000E+00
    -19.466  0.0000E+00  0.0000E+00  0.0000E+00
    -19.367  0.0000E+00  0.0000E+00  0.0000E+00
    -19.267  0.0000E+00  0.0000E+00  0.0000E+00
    -19.167  0.0000E+00  0.0000E+00  0.0000E+00
    -19.067  0.0000E+00  0.0000E+00  0.0000E+00
    -18.967  0.0000E+00  0.0000E+00  0.0000E+00
    -18.867  0.0000E+00  0.0000E+00  0.0000E+00
    -18.768  0.0000E+00  0.0000E+00  0.0000E+00
    -18.668  0.0000E+00  0.0000E+00  0.0000E+00
    -18.568  0.0000E+00  0.0000E+00  0.0000E+00
    -18.468  0.0000E+00  0.0000E+00  0.0000E+00
    -18.368  0.0000E+00  0.0000E+00  0.0000E+00
    -18.269  0.0000E+00  0.0000E+00  0.0000E+00
    -18.169  0.0000E+00  0.0000E+00  0.0000E+00
    -18.069  0.0000E+00  0.0000E+00  0.0000E+00
    -17.969  0.0000E+00  0.0000E+00  0.0000E+00
    -17.869  0.0000E+00  0.0000E+00  0.0000E+00
    -17.769  0.0000E+00  0.0000E+00  0.0000E+00
    -17.670  0.0000E+00  0.0000E+00  0.0000E+00
    -17.570  0.0000E+00  0.0000E+00  0.0000E+00
    -17.470  0.0000E+00  0.0000E+00  0.0000E+00
    -17.370  0.0000E+00  0.0000E+00  0.0000E+00
    -17.270  0.0000E+00  0.0000E+00  0.0000E+00
    -17.170  0.2787E-02  0.6616E-03  0.1128E-03
    -17.071  0.2138E-03  0.6019E-04  0.1004E-04
    -16.971  0.0000E+00  0.0000E+00  0.0000E+00
    -16.871  0.0000E+00  0.0000E+00  0.0000E+00
    -16.771  0.0000E+00  0.0000E+00  0.0000E+00
    -16.671  0.0000E+00  0.0000E+00  0.0000E+00
    -16.572  0.0000E+00  0.0000E+00  0.0000E+00
    -16.472  0.0000E+00  0.0000E+00  0.0000E+00
    -16.372  0.0000E+00  0.0000E+00  0.0000E+00
    -16.272  0.0000E+00  0.0000E+00  0.0000E+00
    -16.172  0.0000E+00  0.0000E+00  0.0000E+00
    -16.072  0.0000E+00  0.0000E+00  0.0000E+00
    -15.973  0.0000E+00  0.0000E+00  0.0000E+00
    -15.873  0.0000E+00  0.0000E+00  0.0000E+00
    -15.773  0.0000E+00  0.0000E+00  0.0000E+00
    -15.673  0.0000E+00  0.0000E+00  0.0000E+00
    -15.573  0.0000E+00  0.0000E+00  0.0000E+00
    -15.474  0.0000E+00  0.0000E+00  0.0000E+00
    -15.374  0.0000E+00  0.0000E+00  0.0000E+00
    -15.274  0.0000E+00  0.0000E+00  0.0000E+00
    -15.174  0.0000E+00  0.0000E+00  0.0000E+00
    -15.074  0.0000E+00  0.0000E+00  0.0000E+00
    -14.974  0.0000E+00  0.0000E+00  0.0000E+00
    -14.875  0.0000E+00  0.0000E+00  0.0000E+00
    -14.775  0.0000E+00  0.0000E+00  0.0000E+00
    -14.675  0.0000E+00  0.0000E+00  0.0000E+00
    -14.575  0.0000E+00  0.0000E+00  0.0000E+00
    -14.475  0.5258E-16  0.1546E-14  0.9727E-16
    -14.376  0.5142E-02  0.1773E+00  0.1125E-01
    -14.276  0.4578E-02  0.2721E+00  0.1976E-01
    -14.176  0.9416E-02  0.1251E+00  0.2013E-01
    -14.076  0.3620E-01  0.8497E-01  0.1501E-01
    -13.976  0.2275E+00  0.3899E-01  0.7744E-02
    -13.876  0.8397E-01  0.1391E-01  0.3069E-02
    -13.777  0.0000E+00  0.0000E+00  0.0000E+00
    -13.677  0.0000E+00  0.0000E+00  0.0000E+00
    -13.577  0.0000E+00  0.0000E+00  0.0000E+00
    -13.477  0.0000E+00  0.0000E+00  0.0000E+00
    -13.377  0.0000E+00  0.0000E+00  0.0000E+00
    -13.278  0.0000E+00  0.0000E+00  0.0000E+00
    -13.178  0.0000E+00  0.0000E+00  0.0000E+00
    -13.078  0.0000E+00  0.0000E+00  0.0000E+00
    -12.978  0.0000E+00  0.0000E+00  0.0000E+00
    -12.878  0.0000E+00  0.0000E+00  0.0000E+00
    -12.778  0.0000E+00  0.0000E+00  0.0000E+00
    -12.679  0.0000E+00  0.0000E+00  0.0000E+00
    -12.579  0.0000E+00  0.0000E+00  0.0000E+00
    -12.479  0.0000E+00  0.0000E+00  0.0000E+00
    -12.379  0.0000E+00  0.0000E+00  0.0000E+00
    -12.279  0.0000E+00  0.0000E+00  0.0000E+00
    -12.180  0.0000E+00  0.0000E+00  0.0000E+00
    -12.080  0.0000E+00  0.0000E+00  0.0000E+00
    -11.980  0.0000E+00  0.0000E+00  0.0000E+00
    -11.880  0.0000E+00  0.0000E+00  0.0000E+00
    -11.780  0.0000E+00  0.0000E+00  0.0000E+00
    -11.680  0.0000E+00  0.0000E+00  0.0000E+00
    -11.581  0.0000E+00  0.0000E+00  0.0000E+00
    -11.481  0.0000E+00  0.0000E+00  0.0000E+00
    -11.381  0.0000E+00  0.0000E+00  0.0000E+00
    -11.281  0.0000E+00  0.0000E+00  0.0000E+00
    -11.181  0.0000E+00  0.0000E+00  0.0000E+00
    -11.082  0.0000E+00  0.0000E+00  0.0000E+00
    -10.982  0.0000E+00  0.0000E+00  0.0000E+00
    -10.882  0.0000E+00  0.0000E+00  0.0000E+00
    -10.782  0.0000E+00  0.0000E+00  0.0000E+00
    -10.682  0.0000E+00  0.0000E+00  0.0000E+00
    -10.582  0.0000E+00  0.0000E+00  0.0000E+00
    -10.483  0.0000E+00  0.0000E+00  0.0000E+00
    -10.383  0.0000E+00  0.0000E+00  0.0000E+00
    -10.283  0.0000E+00  0.0000E+00  0.0000E+00
    -10.183  0.0000E+00  0.0000E+00  0.0000E+00
    -10.083  0.0000E+00  0.0000E+00  0.0000E+00
     -9.984  0.0000E+00  0.0000E+00  0.0000E+00
     -9.884  0.0000E+00  0.0000E+00  0.0000E+00
     -9.784  0.0000E+00  0.0000E+00  0.0000E+00
     -9.684  0.0000E+00  0.0000E+00  0.0000E+00
     -9.584  0.0000E+00  0.0000E+00  0.0000E+00
     -9.484  0.0000E+00  0.0000E+00  0.0000E+00
     -9.385  0.0000E+00  0.0000E+00  0.0000E+00
     -9.285  0.0000E+00  0.0000E+00  0.0000E+00
     -9.185  0.0000E+00  0.0000E+00  0.0000E+00
     -9.085  0.0000E+00  0.0000E+00  0.0000E+00
     -8.985  0.0000E+00  0.0000E+00  0.0000E+00
     -8.886  0.0000E+00  0.0000E+00  0.0000E+00
     -8.786  0.0000E+00  0.0000E+00  0.0000E+00
     -8.686  0.0000E+00  0.0000E+00  0.0000E+00
     -8.586  0.0000E+00  0.0000E+00  0.0000E+00
     -8.486  0.0000E+00  0.0000E+00  0.0000E+00
     -8.386  0.0000E+00  0.0000E+00  0.0000E+00
     -8.287  0.0000E+00  0.0000E+00  0.0000E+00
     -8.187  0.0000E+00  0.0000E+00  0.0000E+00
     -8.087  0.2988E-16  0.2989E-07  0.2950E-09
     -7.987  0.2292E-03  0.1179E+00  0.4202E-03
     -7.887  0.5171E-03  0.4669E+00  0.2285E-02
     -7.788  0.1919E-02  0.1646E+00  0.1810E-02
     -7.688  0.9193E-03  0.6676E-01  0.6587E-03
     -7.588  0.6180E-03  0.3829E-01  0.3548E-03
     -7.488  0.0000E+00  0.0000E+00  0.0000E+00
     -7.388  0.0000E+00  0.0000E+00  0.0000E+00
     -7.288  0.0000E+00  0.0000E+00  0.0000E+00
     -7.189  0.0000E+00  0.0000E+00  0.0000E+00
     -7.089  0.2222E-05  0.4127E+00  0.2473E-03
     -6.989  0.3085E-03  0.5334E+01  0.3078E-02
     -6.889  0.4575E-03  0.2876E+01  0.1218E-02
     -6.789  0.6539E-03  0.5832E+01  0.1900E-02
     -6.690  0.2828E-02  0.9485E+01  0.7740E-03
     -6.590  0.1893E-03  0.1834E+01  0.6506E-04
     -6.490  0.0000E+00  0.0000E+00  0.0000E+00
     -6.390  0.0000E+00  0.0000E+00  0.0000E+00
     -6.290  0.0000E+00  0.0000E+00  0.0000E+00
     -6.190  0.0000E+00  0.0000E+00  0.0000E+00
     -6.091  0.0000E+00  0.0000E+00  0.0000E+00
     -5.991  0.0000E+00  0.0000E+00  0.0000E+00
     -5.891  0.0000E+00  0.0000E+00  0.0000E+00
     -5.791  0.0000E+00  0.0000E+00  0.0000E+00
     -5.691  0.0000E+00  0.0000E+00  0.0000E+00
     -5.592  0.0000E+00  0.0000E+00  0.0000E+00
     -5.492  0.0000E+00  0.0000E+00  0.0000E+00
     -5.392  0.0000E+00  0.0000E+00  0.0000E+00
     -5.292  0.0000E+00  0.0000E+00  0.0000E+00
     -5.192  0.0000E+00  0.0000E+00  0.0000E+00
     -5.092  0.0000E+00  0.0000E+00  0.0000E+00
     -4.993  0.0000E+00  0.0000E+00  0.0000E+00
     -4.893  0.0000E+00  0.0000E+00  0.0000E+00
     -4.793  0.0000E+00  0.0000E+00  0.0000E+00
     -4.693  0.0000E+00  0.0000E+00  0.0000E+00
     -4.593  0.0000E+00  0.0000E+00  0.0000E+00
     -4.494  0.0000E+00  0.0000E+00  0.0000E+00
     -4.394  0.0000E+00  0.0000E+00  0.0000E+00
     -4.294  0.0000E+00  0.0000E+00  0.0000E+00
     -4.194  0.0000E+00  0.0000E+00  0.0000E+00
     -4.094  0.0000E+00  0.0000E+00  0.0000E+00
     -3.994  0.0000E+00  0.0000E+00  0.0000E+00
     -3.895  0.0000E+00  0.0000E+00  0.0000E+00
     -3.795  0.0000E+00  0.0000E+00  0.0000E+00
     -3.695  0.0000E+00  0.0000E+00  0.0000E+00
     -3.595  0.0000E+00  0.0000E+00  0.0000E+00
     -3.495  0.0000E+00  0.0000E+00  0.0000E+00
     -3.396  0.0000E+00  0.0000E+00  0.0000E+00
     -3.296  0.0000E+00  0.0000E+00  0.0000E+00
     -3.196  0.0000E+00  0.0000E+00  0.0000E+00
     -3.096  0.0000E+00  0.0000E+00  0.0000E+00
     -2.996  0.0000E+00  0.0000E+00  0.0000E+00
     -2.896  0.3123E-19  0.4286E-12  0.7198E-12
     -2.797  0.4971E-03  0.2751E-01  0.8321E-02
     -2.697  0.1189E-02  0.3881E-01  0.1732E-01
     -2.597  0.9075E-05  0.2134E-01  0.5741E-02
     -2.497  0.1479E-02  0.3371E-02  0.8866E-02
     -2.397  0.1831E-01  0.4310E-01  0.3176E-01
     -2.298  0.3592E-02  0.1367E+00  0.4128E-01
     -2.198  0.1055E-01  0.8178E-01  0.2819E-01
     -2.098  0.7636E-02  0.9692E-01  0.4131E-01
     -1.998  0.1450E-01  0.3856E-01  0.2574E-01
     -1.898  0.1847E-01  0.4292E-01  0.4756E-01
     -1.798  0.6501E-02  0.1973E-01  0.2838E-01
     -1.699  0.1391E-01  0.4747E-01  0.4201E-01
     -1.599  0.3295E-01  0.6192E-01  0.5200E-01
     -1.499  0.4318E-01  0.1027E+00  0.5550E-01
     -1.399  0.5852E-01  0.1572E+00  0.5767E-01
     -1.299  0.5259E-01  0.1654E+00  0.4160E-01
     -1.199  0.2182E-01  0.2206E+00  0.5164E-01
     -1.100  0.4500E-01  0.2634E+00  0.5401E-01
     -1.000  0.1961E-01  0.3217E+00  0.4564E-01
     -0.900  0.9248E-02  0.5401E+00  0.8056E-01
     -0.800  0.1035E-01  0.3461E+00  0.7857E-01
     -0.700  0.6511E-04  0.2193E+00  0.3963E-01
     -0.601  0.6988E-06  0.1555E-03  0.1616E-04
     -0.501  0.1555E-02  0.5932E+00  0.6069E-01
     -0.401  0.3003E-02  0.7490E+00  0.7724E-01
     -0.301  0.8339E-03  0.3422E+00  0.3449E-01
     -0.201  0.1777E-02  0.7654E+00  0.7664E-01
     -0.101  0.1397E-03  0.1837E+00  0.1831E-01
     -0.002  0.0000E+00  0.0000E+00  0.0000E+00
      0.098  0.0000E+00  0.0000E+00  0.0000E+00
      0.198  0.0000E+00  0.0000E+00  0.0000E+00
      0.298  0.0000E+00  0.0000E+00  0.0000E+00
      0.398  0.0000E+00  0.0000E+00  0.0000E+00
      0.497  0.0000E+00  0.0000E+00  0.0000E+00
      0.597  0.0000E+00  0.0000E+00  0.0000E+00
      0.697  0.0000E+00  0.0000E+00  0.0000E+00
      0.797  0.0000E+00  0.0000E+00  0.0000E+00
      0.897  0.0000E+00  0.0000E+00  0.0000E+00
      0.997  0.0000E+00  0.0000E+00  0.0000E+00
      1.096  0.0000E+00  0.0000E+00  0.0000E+00
      1.196  0.0000E+00  0.0000E+00  0.0000E+00
      1.296  0.0000E+00  0.0000E+00  0.0000E+00
      1.396  0.0000E+00  0.0000E+00  0.0000E+00
      1.496  0.0000E+00  0.0000E+00  0.0000E+00
      1.595  0.0000E+00  0.0000E+00  0.0000E+00
      1.695  0.0000E+00  0.0000E+00  0.0000E+00
      1.795  0.0000E+00  0.0000E+00  0.0000E+00
      1.895  0.0000E+00  0.0000E+00  0.0000E+00
      1.995  0.0000E+00  0.0000E+00  0.0000E+00
      2.095  0.0000E+00  0.0000E+00  0.0000E+00
      2.194  0.0000E+00  0.0000E+00  0.0000E+00
      2.294  0.0000E+00  0.0000E+00  0.0000E+00
      2.394  0.2667E-25  0.1248E-13  0.9647E-13
      2.494  0.1113E-02  0.1152E-02  0.8566E-02
      2.594  0.8630E-02  0.8916E-02  0.2118E-01
      2.693  0.3568E-02  0.4088E-01  0.1871E-01
      2.793  0.1745E-04  0.1649E-01  0.2556E-02
      2.893  0.4016E-04  0.7148E-02  0.1368E-02
      2.993  0.1816E-02  0.3134E-02  0.1673E-01
      3.093  0.1158E-03  0.1193E-01  0.3023E-01
      3.193  0.4108E-02  0.5747E-01  0.1795E-01
      3.292  0.5175E-02  0.2029E-01  0.1634E-01
      3.392  0.1142E-02  0.1582E-01  0.1987E-01
      3.492  0.1779E-02  0.1312E-01  0.1179E-01
      3.592  0.3181E-16  0.1129E-02  0.7000E-02
      3.692  0.1017E-12  0.1118E-02  0.2150E-02
      3.791  0.7089E-03  0.1371E-02  0.2222E-02
      3.891  0.4146E-03  0.4069E-02  0.1866E-01
      3.991  0.6221E-03  0.7991E-02  0.1833E-01
      4.091  0.2674E-03  0.1174E-01  0.4566E-02
      4.191  0.8499E-15  0.9227E-03  0.2303E-02
      4.291  0.4748E-14  0.1596E-02  0.2651E-02
      4.390  0.4996E-05  0.2836E-02  0.2111E-02
      4.490  0.8111E-05  0.1989E-02  0.1365E-02
      4.590  0.0000E+00  0.0000E+00  0.0000E+00
      4.690  0.0000E+00  0.0000E+00  0.0000E+00
      4.790  0.0000E+00  0.0000E+00  0.0000E+00
      4.889  0.0000E+00  0.0000E+00  0.0000E+00
      4.989  0.0000E+00  0.0000E+00  0.0000E+00
      5.089  0.7655E-02  0.9546E-03  0.4302E-02
      5.189  0.0000E+00  0.0000E+00  0.0000E+00
      5.289  0.0000E+00  0.0000E+00  0.0000E+00
      5.389  0.0000E+00  0.0000E+00  0.0000E+00
      5.488  0.0000E+00  0.0000E+00  0.0000E+00
      5.588  0.0000E+00  0.0000E+00  0.0000E+00
      5.688  0.5147E-04  0.2037E-04  0.6956E-04
      5.788  0.2311E-01  0.1004E-01  0.2751E-01
      5.888  0.0000E+00  0.0000E+00  0.0000E+00
      5.987  0.0000E+00  0.0000E+00  0.0000E+00
      6.087  0.6260E-02  0.3539E-02  0.1471E-01
      6.187  0.4715E-01  0.2870E-01  0.1294E+00
      6.287  0.1835E-01  0.7967E-02  0.7830E-01
      6.387  0.3756E-02  0.2588E-02  0.4879E-01
      6.487  0.2582E-01  0.1224E-01  0.3490E+00
      6.586  0.1351E-01  0.2992E-01  0.4051E+00
      6.686  0.2671E-01  0.2821E-01  0.5376E+00
      6.786  0.3415E-02  0.1533E-01  0.1607E+00
      6.886  0.7630E-02  0.7988E-02  0.2358E+00
      6.986  0.9562E-02  0.1149E-01  0.2022E+00
      7.085  0.4192E-03  0.8794E-02  0.2676E-01
      7.185  0.0000E+00  0.0000E+00  0.0000E+00
      7.285  0.0000E+00  0.0000E+00  0.0000E+00
      7.385  0.0000E+00  0.0000E+00  0.0000E+00
      7.485  0.0000E+00  0.0000E+00  0.0000E+00
      7.585  0.0000E+00  0.0000E+00  0.0000E+00
      7.684  0.0000E+00  0.0000E+00  0.0000E+00
      7.784  0.0000E+00  0.0000E+00  0.0000E+00
      7.884  0.0000E+00  0.0000E+00  0.0000E+00
      7.984  0.0000E+00  0.0000E+00  0.0000E+00
      8.084  0.0000E+00  0.0000E+00  0.0000E+00
      8.183  0.0000E+00  0.0000E+00  0.0000E+00
      8.283  0.0000E+00  0.0000E+00  0.0000E+00
      8.383  0.0000E+00  0.0000E+00  0.0000E+00
      8.38310895    -21.56252603  301     -0.07653294      1.00000000
    -21.563  0.0000E+00  0.0000E+00  0.0000E+00
    -21.463  0.0000E+00  0.0000E+00  0.0000E+00
    -21.363  0.0000E+00  0.0000E+00  0.0000E+00
    -21.263  0.0000E+00  0.0000E+00  0.0000E+00
    -21.163  0.0000E+00  0.0000E+00  0.0000E+00
    -21.063  0.0000E+00  0.0000E+00  0.0000E+00
    -20.964  0.0000E+00  0.0000E+00  0.0000E+00
    -20.864  0.0000E+00  0.0000E+00  0.0000E+00
    -20.764  0.0000E+00  0.0000E+00  0.0000E+00
    -20.664  0.0000E+00  0.0000E+00  0.0000E+00
    -20.564  0.0000E+00  0.0000E+00  0.0000E+00
    -20.465  0.0000E+00  0.0000E+00  0.0000E+00
    -20.365  0.0000E+00  0.0000E+00  0.0000E+00
    -20.265  0.0000E+00  0.0000E+00  0.0000E+00
    -20.165  0.1736E+02  0.2853E-02  0.6580E-03
    -20.065  0.0000E+00  0.0000E+00  0.0000E+00
    -19.965  0.0000E+00  0.0000E+00  0.0000E+00
    -19.866  0.0000E+00  0.0000E+00  0.0000E+00
    -19.766  0.0000E+00  0.0000E+00  0.0000E+00
    -19.666  0.0000E+00  0.0000E+00  0.0000E+00
    -19.566  0.0000E+00  0.0000E+00  0.0000E+00
    -19.466  0.0000E+00  0.0000E+00  0.0000E+00
    -19.367  0.0000E+00  0.0000E+00  0.0000E+00
    -19.267  0.0000E+00  0.0000E+00  0.0000E+00
    -19.167  0.0000E+00  0.0000E+00  0.0000E+00
    -19.067  0.0000E+00  0.0000E+00  0.0000E+00
    -18.967  0.0000E+00  0.0000E+00  0.0000E+00
    -18.867  0.0000E+00  0.0000E+00  0.0000E+00
    -18.768  0.0000E+00  0.0000E+00  0.0000E+00
    -18.668  0.0000E+00  0.0000E+00  0.0000E+00
    -18.568  0.0000E+00  0.0000E+00  0.0000E+00
    -18.468  0.0000E+00  0.0000E+00  0.0000E+00
    -18.368  0.0000E+00  0.0000E+00  0.0000E+00
    -18.269  0.0000E+00  0.0000E+00  0.0000E+00
    -18.169  0.0000E+00  0.0000E+00  0.0000E+00
    -18.069  0.0000E+00  0.0000E+00  0.0000E+00
    -17.969  0.0000E+00  0.0000E+00  0.0000E+00
    -17.869  0.0000E+00  0.0000E+00  0.0000E+00
    -17.769  0.0000E+00  0.0000E+00  0.0000E+00
    -17.670  0.0000E+00  0.0000E+00  0.0000E+00
    -17.570  0.0000E+00  0.0000E+00  0.0000E+00
    -17.470  0.0000E+00  0.0000E+00  0.0000E+00
    -17.370  0.0000E+00  0.0000E+00  0.0000E+00
    -17.270  0.0000E+00  0.0000E+00  0.0000E+00
    -17.170  0.2787E-02  0.6616E-03  0.1128E-03
    -17.071  0.2138E-03  0.6019E-04  0.1004E-04
    -16.971  0.0000E+00  0.0000E+00  0.0000E+00
    -16.871  0.0000E+00  0.0000E+00  0.0000E+00
    -16.771  0.0000E+00  0.0000E+00  0.0000E+00
    -16.671  0.0000E+00  0.0000E+00  0.0000E+00
    -16.572  0.0000E+00  0.0000E+00  0.0000E+00
    -16.472  0.0000E+00  0.0000E+00  0.0000E+00
    -16.372  0.0000E+00  0.0000E+00  0.0000E+00
    -16.272  0.0000E+00  0.0000E+00  0.0000E+00
    -16.172  0.0000E+00  0.0000E+00  0.0000E+00
    -16.072  0.0000E+00  0.0000E+00  0.0000E+00
    -15.973  0.0000E+00  0.0000E+00  0.0000E+00
    -15.873  0.0000E+00  0.0000E+00  0.0000E+00
    -15.773  0.0000E+00  0.0000E+00  0.0000E+00
    -15.673  0.0000E+00  0.0000E+00  0.0000E+00
    -15.573  0.0000E+00  0.0000E+00  0.0000E+00
    -15.474  0.0000E+00  0.0000E+00  0.0000E+00
    -15.374  0.0000E+00  0.0000E+00  0.0000E+00
    -15.274  0.0000E+00  0.0000E+00  0.0000E+00
    -15.174  0.0000E+00  0.0000E+00  0.0000E+00
    -15.074  0.0000E+00  0.0000E+00  0.0000E+00
    -14.974  0.0000E+00  0.0000E+00  0.0000E+00
    -14.875  0.0000E+00  0.0000E+00  0.0000E+00
    -14.775  0.0000E+00  0.0000E+00  0.0000E+00
    -14.675  0.0000E+00  0.0000E+00  0.0000E+00
    -14.575  0.0000E+00  0.0000E+00  0.0000E+00
    -14.475  0.5258E-16  0.1546E-14  0.9727E-16
    -14.376  0.5142E-02  0.1773E+00  0.1125E-01
    -14.276  0.4578E-02  0.2721E+00  0.1976E-01
    -14.176  0.9416E-02  0.1251E+00  0.2013E-01
    -14.076  0.3620E-01  0.8497E-01  0.1501E-01
    -13.976  0.2275E+00  0.3899E-01  0.7744E-02
    -13.876  0.8397E-01  0.1391E-01  0.3069E-02
    -13.777  0.0000E+00  0.0000E+00  0.0000E+00
    -13.677  0.0000E+00  0.0000E+00  0.0000E+00
    -13.577  0.0000E+00  0.0000E+00  0.0000E+00
    -13.477  0.0000E+00  0.0000E+00  0.0000E+00
    -13.377  0.0000E+00  0.0000E+00  0.0000E+00
    -13.278  0.0000E+00  0.0000E+00  0.0000E+00
    -13.178  0.0000E+00  0.0000E+00  0.0000E+00
    -13.078  0.0000E+00  0.0000E+00  0.0000E+00
    -12.978  0.0000E+00  0.0000E+00  0.0000E+00
    -12.878  0.0000E+00  0.0000E+00  0.0000E+00
    -12.778  0.0000E+00  0.0000E+00  0.0000E+00
    -12.679  0.0000E+00  0.0000E+00  0.0000E+00