       N       E                     dE             d eps       ncg     rms          rms(c)
DAV:   1     0.140930287303E+04    0.14093E+04   -0.11298E+05  2696   0.958E+02
DAV:   2    -0.109512590098E+04   -0.25044E+04   -0.23819E+04  3200   0.296E+02
DAV:   3    -0.147728258806E+04   -0.38216E+03   -0.37899E+03  3456   0.136E+02
DAV:   4    -0.149002052496E+04   -0.12738E+02   -0.12709E+02  2960   0.330E+01
DAV:   5    -0.149066314039E+04   -0.64262E+00   -0.64245E+00  3416   0.588E+00    0.147E+01
DAV:   6    -0.140271678937E+04    0.87946E+02   -0.30010E+01  3336   0.276E+01    0.993E+00
DAV:   7    -0.140199650018E+04    0.72029E+00   -0.11195E+01  3096   0.653E+00    0.427E+00
DAV:   8    -0.140229329901E+04   -0.29680E+00   -0.99104E-01  2896   0.267E+00    0.223E+00
DAV:   9    -0.140235945995E+04   -0.66161E-01   -0.28005E-01  2832   0.146E+00    0.473E-01
DAV:  10    -0.140237031722E+04   -0.10857E-01   -0.34289E-02  3336   0.422E-01    0.346E-01
DAV:  11    -0.140237373022E+04   -0.34130E-02   -0.65064E-03  2864   0.221E-01    0.908E-02
DAV:  12    -0.140237410508E+04   -0.37486E-03   -0.14226E-03  2936   0.102E-01    0.484E-02
DAV:  13    -0.140237454429E+04   -0.43921E-03   -0.17290E-04  2976   0.326E-02    0.347E-02
DAV:  14    -0.140237456683E+04   -0.22540E-04   -0.10559E-04  2944   0.246E-02    0.943E-03
DAV:  15    -0.140237453308E+04    0.33748E-04   -0.21386E-05  2664   0.106E-02    0.459E-03
DAV:  16    -0.140237453945E+04   -0.63663E-05   -0.18729E-06  1736   0.315E-03    0.235E-03
DAV:  17    -0.140237454074E+04   -0.12919E-05   -0.84010E-07  1696   0.252E-03    0.102E-03
DAV:  18    -0.140237453492E+04    0.58157E-05   -0.34534E-07  1512   0.157E-03    0.483E-04
DAV:  19    -0.140237453625E+04   -0.13282E-05   -0.11379E-07  1512   0.136E-03    0.299E-04
DAV:  20    -0.140237453751E+04   -0.12642E-05   -0.30456E-08  1480   0.650E-04    0.151E-04
DAV:  21    -0.140237453789E+04   -0.37413E-06   -0.11878E-08  1464   0.427E-04
   1 F= -.14023745E+04 E0= -.14023745E+04  d E =-.923329E-24
