 vasp.5.4.4.18Apr17-6-g9f103f2a35 (build Jun 22 2020 09:27:21) complex           
 executed on tx2_gcc-7.3_libsci-1 date 2021.09.22  08:51:38
 running on   64 total cores
 distrk:  each k-point on   64 cores,    1 groups
 distr:  one band on NCORES_PER_BAND=   8 cores,    8 groups


--------------------------------------------------------------------------------------------------------


 INCAR:
 POTCAR:    PAW_PBE Cs_sv 08Apr2002               
 POTCAR:    PAW_PBE Pb_d 06Sep2000                
 POTCAR:    PAW_PBE Br 06Sep2000                  
 POTCAR:    PAW_PBE Cs_sv 08Apr2002               
   SHA256 =  c1463496f0f6037ed62c6012a8013a89ee9ad6ffb38599dcd6c079e7ed31779b Cs
   COPYR  = (c) Copyright 08Apr2002 Georg Kresse                                
   COPYR  = This file is part of the software VASP. Any use, copying, and all ot
   COPYR  = If you do not have a valid VASP license, you may not use, copy or di
   VRHFIN =Cs: 5s5p6s                                                           
   LEXCH  = PE                                                                  
   EATOM  =   555.6835 eV,   40.8416 Ry                                         
                                                                                
   TITEL  = PAW_PBE Cs_sv 08Apr2002                                             
   LULTRA =        F    use ultrasoft PP ?                                      
   IUNSCR =        1    unscreen: 0-lin 1-nonlin 2-no                           
   RPACOR =    2.200    partial core radius                                     
   POMASS =  132.900; ZVAL   =    9.000    mass and valenz                      
   RCORE  =    2.500    outmost cutoff radius                                   
   RWIGS  =    2.500; RWIGS  =    1.323    wigner-seitz radius (au A)           
   ENMAX  =  220.318; ENMIN  =  165.238 eV                                      
   RCLOC  =    2.207    cutoff for local pot                                    
   LCOR   =        T    correct aug charges                                     
   LPAW   =        T    paw PP                                                  
   EAUG   =  407.933                                                            
   DEXC   =    0.000                                                            
   RMAX   =    2.554    core radius for proj-oper                               
   RAUG   =    1.300    factor for augmentation sphere                          
   RDEP   =    2.590    radius for radial grids                                 
   RDEPT  =    2.117    core radius for aug-charge                              
                                                                                
   Atomic configuration                                                         
   13 entries                                                                   
     n  l   j            E        occ.                                          
     1  0  0.50    -35790.1377   2.0000                                         
     2  0  0.50     -5613.6201   2.0000                                         
     2  1  1.50     -5035.0101   6.0000                                         
     3  0  0.50     -1167.0767   2.0000                                         
     3  1  1.50      -980.9754   6.0000                                         
     3  2  2.50      -708.0703  10.0000                                         
     4  0  0.50      -220.2386   2.0000                                         
     4  1  1.50      -160.7596   6.0000                                         
     4  2  2.50       -74.2354  10.0000                                         
     5  0  0.50       -26.7287   2.0000                                         
     6  0  0.50        -2.0862   1.0000                                         
     5  1  1.50       -13.5159   6.0000                                         
     5  2  2.50        -0.4136   0.0000                                         
   Description                                                                  
     l       E           TYP  RCUT    TYP  RCUT                                 
     0    -26.7287425     23  1.900                                             
     0     -2.0862306     23  1.900                                             
     1    -13.5158719     23  2.500                                             
     1     -2.7211652     23  2.500                                             
     2     -0.4136171     23  2.500                                             
  local pseudopotential read in
  partial core-charges read in
  partial kinetic energy density read in
  atomic valenz-charges read in
  non local Contribution for L=           0  read in
    real space projection operators read in
  non local Contribution for L=           0  read in
    real space projection operators read in
  non local Contribution for L=           1  read in
    real space projection operators read in
  non local Contribution for L=           1  read in
    real space projection operators read in
  non local Contribution for L=           2  read in
    real space projection operators read in
    PAW grid and wavefunctions read in

   number of l-projection  operators is LMAX  =           5
   number of lm-projection operators is LMMAX =          13

 POTCAR:    PAW_PBE Pb_d 06Sep2000                
   SHA256 =  fb885b08f0fba73a15f6a6b0e39bd200c13ec96ef97cf3ecd8e63bade5137abd Pb
   COPYR  = (c) Copyright 06Sep2000 Georg Kresse                                
   COPYR  = This file is part of the software VASP. Any use, copying, and all ot
   COPYR  = If you do not have a valid VASP license, you may not use, copy or di
   VRHFIN =Pb:                                                                  
   LEXCH  = PE                                                                  
   EATOM  =  1661.6185 eV,  122.1255 Ry                                         
                                                                                
   TITEL  = PAW_PBE Pb_d 06Sep2000                                              
   LULTRA =        F    use ultrasoft PP ?                                      
   IUNSCR =        1    unscreen: 0-lin 1-nonlin 2-no                           
   RPACOR =    2.200    partial core radius                                     
   POMASS =  207.200; ZVAL   =   14.000    mass and valenz                      
   RCORE  =    2.500    outmost cutoff radius                                   
   RWIGS  =    3.260; RWIGS  =    1.725    wigner-seitz radius (au A)           
   ENMAX  =  237.835; ENMIN  =  178.376 eV                                      
   ICORE  =        3    local potential                                         
   LCOR   =        T    correct aug charges                                     
   LPAW   =        T    paw PP                                                  
   EAUG   =  391.914                                                            
   DEXC   =    0.000                                                            
   RMAX   =    2.565    core radius for proj-oper                               
   RAUG   =    1.300    factor for augmentation sphere                          
   RDEP   =    2.643    radius for radial grids                                 
   RDEPT  =    2.092    core radius for aug-charge                              
                                                                                
   Atomic configuration                                                         
   16 entries                                                                   
     n  l   j            E        occ.                                          
     1  0  0.50    -88091.8466   2.0000                                         
     2  0  0.50    -15753.4197   2.0000                                         
     2  1  1.50    -13508.1797   6.0000                                         
     3  0  0.50     -3781.7194   2.0000                                         
     3  1  1.50     -3138.2529   6.0000                                         
     3  2  2.50     -2483.2977  10.0000                                         
     4  0  0.50      -856.2895   2.0000                                         
     4  1  1.50      -645.4942   6.0000                                         
     4  2  2.50      -401.8768  10.0000                                         
     4  3  3.50      -132.9059  14.0000                                         
     5  0  0.50      -144.0950   2.0000                                         
     5  1  1.50       -85.7879   6.0000                                         
     5  2  2.50       -21.1769  10.0000                                         
     6  0  0.50       -12.0372   2.0000                                         
     6  1  1.50        -3.4971   2.0000                                         
     5  3  2.50        -2.7212   0.0000                                         
   Description                                                                  
     l       E           TYP  RCUT    TYP  RCUT                                 
     2    -21.1768523     23  2.500                                             
     2      1.3605826     23  2.500                                             
     0    -12.0371562     23  2.500                                             
     0     13.6058260     23  2.500                                             
     1     -3.4971339     23  2.500                                             
     1     13.6058260     23  2.500                                             
     3     -1.3605826      7  2.500                                             
  local pseudopotential read in
  partial core-charges read in
  partial kinetic energy density read in
  atomic valenz-charges read in
  non local Contribution for L=           2  read in
    real space projection operators read in
  non local Contribution for L=           2  read in
    real space projection operators read in
  non local Contribution for L=           0  read in
    real space projection operators read in
  non local Contribution for L=           0  read in
    real space projection operators read in
  non local Contribution for L=           1  read in
    real space projection operators read in
  non local Contribution for L=           1  read in
    real space projection operators read in
    PAW grid and wavefunctions read in

   number of l-projection  operators is LMAX  =           6
   number of lm-projection operators is LMMAX =          18

 POTCAR:    PAW_PBE Br 06Sep2000                  
   SHA256 =  96a73d2954943bbee26f4990d676cc6c3bf44b8dd2c75cd4b3b825d8403f0103 Br
   COPYR  = (c) Copyright 06Sep2000 Georg Kresse                                
   COPYR  = This file is part of the software VASP. Any use, copying, and all ot
   COPYR  = If you do not have a valid VASP license, you may not use, copy or di
   VRHFIN =Br: s2p5                                                             
   LEXCH  = PE                                                                  
   EATOM  =   368.4488 eV,   27.0802 Ry                                         
                                                                                
   TITEL  = PAW_PBE Br 06Sep2000                                                
   LULTRA =        F    use ultrasoft PP ?                                      
   IUNSCR =        1    unscreen: 0-lin 1-nonlin 2-no                           
   RPACOR =    1.900    partial core radius                                     
   POMASS =   79.904; ZVAL   =    7.000    mass and valenz                      
   RCORE  =    2.100    outmost cutoff radius                                   
   RWIGS  =    2.200; RWIGS  =    1.164    wigner-seitz radius (au A)           
   ENMAX  =  216.285; ENMIN  =  162.214 eV                                      
   ICORE  =        3    local potential                                         
   LCOR   =        T    correct aug charges                                     
   LPAW   =        T    paw PP                                                  
   EAUG   =  503.852                                                            
   DEXC   =    0.000                                                            
   RMAX   =    2.139    core radius for proj-oper                               
   RAUG   =    1.300    factor for augmentation sphere                          
   RDEP   =    2.186    radius for radial grids                                 
   RDEPT  =    1.890    core radius for aug-charge                              
                                                                                
   Atomic configuration                                                         
   10 entries                                                                   
     n  l   j            E        occ.                                          
     1  0  0.50    -13316.2796   2.0000                                         
     2  0  0.50     -1732.8239   2.0000                                         
     2  1  1.50     -1528.2193   6.0000                                         
     3  0  0.50      -238.0460   2.0000                                         
     3  1  1.50      -173.4609   6.0000                                         
     3  2  2.50       -66.7132  10.0000                                         
     4  0  0.50       -20.1334   2.0000                                         
     4  1  0.50        -7.8591   5.0000                                         
     4  2  2.50        -8.1635   0.0000                                         
     4  3  2.50        -8.1635   0.0000                                         
   Description                                                                  
     l       E           TYP  RCUT    TYP  RCUT                                 
     0    -20.1333652     23  2.100                                             
     0    -21.4939478     23  2.100                                             
     1     -7.8591052     23  2.100                                             
     1     -3.1608434     23  2.100                                             
     2     -8.1634956     23  2.100                                             
     3     -1.3605826      7  2.100                                             
  local pseudopotential read in
  partial core-charges read in
  partial kinetic energy density read in
  atomic valenz-charges read in
  non local Contribution for L=           0  read in
    real space projection operators read in
  non local Contribution for L=           0  read in
    real space projection operators read in
  non local Contribution for L=           1  read in
    real space projection operators read in
  non local Contribution for L=           1  read in
    real space projection operators read in
  non local Contribution for L=           2  read in
    real space projection operators read in
    PAW grid and wavefunctions read in

   number of l-projection  operators is LMAX  =           5
   number of lm-projection operators is LMMAX =          13

 Optimization of the real space projectors (new method)

 maximal supplied QI-value         = 15.12
 optimisation between [QCUT,QGAM] = [  8.77, 17.69] = [ 21.53, 87.61] Ry 
 Optimized for a Real-space Cutoff    1.85 Angstroem

   l    n(q)    QCUT    max X(q) W(low)/X(q) W(high)/X(q)  e(spline) 
   0     10     8.768    25.322    0.81E-04    0.51E-04    0.48E-06
   0     10     8.768    99.187    0.78E-04    0.50E-04    0.47E-06
   1      9     8.768    11.761    0.21E-03    0.20E-03    0.37E-06
   1      9     8.768     8.275    0.24E-03    0.22E-03    0.41E-06
   2      9     8.768     3.829    0.23E-04    0.15E-03    0.18E-06
 Optimization of the real space projectors (new method)

 maximal supplied QI-value         = 15.12
 optimisation between [QCUT,QGAM] = [  8.77, 17.69] = [ 21.53, 87.61] Ry 
 Optimized for a Real-space Cutoff    1.59 Angstroem

   l    n(q)    QCUT    max X(q) W(low)/X(q) W(high)/X(q)  e(spline) 
   2      7     8.768     3.846    0.48E-04    0.11E-03    0.11E-06
   2      7     8.768     8.593    0.20E-03    0.22E-04    0.24E-06
   0      8     8.768    20.082    0.68E-04    0.88E-04    0.41E-07
   0      8     8.768     8.597    0.89E-04    0.13E-03    0.59E-07
   1      8     8.768    33.223    0.15E-03    0.53E-04    0.87E-07
   1      8     8.768    15.899    0.14E-03    0.44E-04    0.78E-07
 Optimization of the real space projectors (new method)

 maximal supplied QI-value         = 17.95
 optimisation between [QCUT,QGAM] = [  8.80, 17.59] = [ 21.67, 86.68] Ry 
 Optimized for a Real-space Cutoff    1.59 Angstroem

   l    n(q)    QCUT    max X(q) W(low)/X(q) W(high)/X(q)  e(spline) 
   0      8     8.797   175.082    0.82E-04    0.14E-03    0.89E-07
   0      8     8.797   174.004    0.79E-04    0.14E-03    0.86E-07
   1      8     8.797    54.315    0.16E-03    0.14E-04    0.30E-06
   1      8     8.797    42.441    0.16E-03    0.14E-04    0.30E-06
   2      7     8.797     3.596    0.92E-04    0.15E-03    0.85E-07
  PAW_PBE Cs_sv 08Apr2002               :
 energy of atom  1       EATOM= -555.6835
 kinetic energy error for atom=    0.0069 (will be added to EATOM!!)
  PAW_PBE Pb_d 06Sep2000                :
 energy of atom  2       EATOM=-1661.6185
 kinetic energy error for atom=    0.0498 (will be added to EATOM!!)
  PAW_PBE Br 06Sep2000                  :
 energy of atom  3       EATOM= -368.4488
 kinetic energy error for atom=    0.0072 (will be added to EATOM!!)


 POSCAR: Cs8 Pb8 Br24                            
  positions in direct lattice
  No initial velocities read in

 METAGGA = SCAN     LMAXTAU =  6    LMIXTAU =  F

 exchange correlation table for  LEXCH =        8
   RHO(1)=    0.500       N(1)  =     2000
   RHO(2)=  100.500       N(2)  =     4000

 VTST: version 3.2, (02/03/18)

 CHAIN: initializing optimizer
 
 OPT: Using VASP Conjugate-Gradient optimizer
 CHAIN: Read ICHAIN            0

 POSCAR: Cs8 Pb8 Br24                            
  positions in direct lattice
  No initial velocities read in



--------------------------------------------------------------------------------------------------------


 ion  position               nearest neighbor table
   1  0.250  0.250  0.250-  29 2.70  35 2.77  36 2.77
   2  0.250  0.250  0.750-  28 2.70  33 2.77  34 2.77
   3  0.250  0.750  0.250-  25 2.70  24 2.77  23 2.77
   4  0.250  0.750  0.750-  32 2.70  20 2.77  19 2.77
   5  0.750  0.250  0.250-  31 2.70  18 2.77  17 2.77
   6  0.750  0.250  0.750-  26 2.70  22 2.77  21 2.77
   7  0.750  0.750  0.250-  27 2.70  37 2.77  38 2.77
   8  0.750  0.750  0.750-  30 2.70  39 2.77  40 2.77
   9  0.000  0.000  0.000-  17 3.24  19 3.24  33 3.24  37 3.24  25 3.27  26 3.27
  10  0.000  0.000  0.500-  18 3.24  20 3.24  34 3.24  38 3.24  25 3.27  26 3.27
  11  0.000  0.500  0.000-  17 3.24  19 3.24  35 3.24  39 3.24  27 3.27  28 3.27
  12  0.000  0.500  0.500-  18 3.24  20 3.24  36 3.24  40 3.24  27 3.27  28 3.27
  13  0.500  0.000  0.000-  21 3.24  23 3.24  33 3.24  37 3.24  29 3.27  30 3.27
  14  0.500  0.000  0.500-  22 3.24  24 3.24  34 3.24  38 3.24  29 3.27  30 3.27
  15  0.500  0.500  0.000-  21 3.24  23 3.24  35 3.24  39 3.24  31 3.27  32 3.27
  16  0.500  0.500  0.500-  22 3.24  24 3.24  36 3.24  40 3.24  31 3.27  32 3.27
  17  0.921  0.250  0.087-   5 2.77   9 3.24  11 3.24
  18  0.921  0.250  0.413-   5 2.77  10 3.24  12 3.24
  19  0.079  0.750  0.913-   4 2.77   9 3.24  11 3.24
  20  0.079  0.750  0.587-   4 2.77  10 3.24  12 3.24
  21  0.579  0.250  0.913-   6 2.77  13 3.24  15 3.24
  22  0.579  0.250  0.587-   6 2.77  14 3.24  16 3.24
  23  0.421  0.750  0.087-   3 2.77  13 3.24  15 3.24
  24  0.421  0.750  0.413-   3 2.77  14 3.24  16 3.24
  25  0.087  0.913  0.250-   3 2.70   9 3.27  10 3.27
  26  0.913  0.087  0.750-   6 2.70   9 3.27  10 3.27
  27  0.913  0.587  0.250-   7 2.70  11 3.27  12 3.27
  28  0.087  0.413  0.750-   2 2.70  11 3.27  12 3.27
  29  0.413  0.087  0.250-   1 2.70  13 3.27  14 3.27
  30  0.587  0.913  0.750-   8 2.70  13 3.27  14 3.27
  31  0.587  0.413  0.250-   5 2.70  15 3.27  16 3.27
  32  0.413  0.587  0.750-   4 2.70  15 3.27  16 3.27
  33  0.250  0.079  0.913-   2 2.77   9 3.24  13 3.24
  34  0.250  0.079  0.587-   2 2.77  10 3.24  14 3.24
  35  0.250  0.421  0.087-   1 2.77  11 3.24  15 3.24
  36  0.250  0.421  0.413-   1 2.77  12 3.24  16 3.24
  37  0.750  0.921  0.087-   7 2.77   9 3.24  13 3.24
  38  0.750  0.921  0.413-   7 2.77  10 3.24  14 3.24
  39  0.750  0.579  0.913-   8 2.77  11 3.24  15 3.24
  40  0.750  0.579  0.587-   8 2.77  12 3.24  16 3.24

  LATTYP: Found a simple cubic cell.
 ALAT       =    11.7353520000
  
  Lattice vectors:
  
 A1 = (  11.7353520000,   0.0000000000,   0.0000000000)
 A2 = (   0.0000000000,  11.7353520000,   0.0000000000)
 A3 = (   0.0000000000,   0.0000000000,  11.7353520000)


Analysis of symmetry for initial positions (statically):
=====================================================================
 Subroutine PRICEL returns following result:
 
  LATTYP: Found a simple tetragonal cell.
 ALAT       =     8.2981469788
 C/A-ratio  =     1.4142135624
  
  Lattice vectors:
  
 A1 = (   5.8676760000,  -5.8676760000,   0.0000000000)
 A2 = (  -5.8676760000,  -5.8676760000,   0.0000000000)
 A3 = (   0.0000000000,   0.0000000000, -11.7353520000)
 
   2 primitive cells build up your supercell.
 

 Routine SETGRP: Setting up the symmetry group for a 
 simple cubic supercell.


 Subroutine GETGRP returns: Found  8 space group operations
 (whereof  2 operations were pure point group operations)
 out of a pool of 48 trial point group operations.


The static configuration has the point symmetry S_2 .
 The point group associated with its full space group is D_2h.


Analysis of symmetry for dynamics (positions and initial velocities):
=====================================================================
 Subroutine PRICEL returns following result:
 
  LATTYP: Found a simple tetragonal cell.
 ALAT       =     8.2981469788
 C/A-ratio  =     1.4142135624
  
  Lattice vectors:
  
 A1 = (   5.8676760000,  -5.8676760000,   0.0000000000)
 A2 = (  -5.8676760000,  -5.8676760000,   0.0000000000)
 A3 = (   0.0000000000,   0.0000000000, -11.7353520000)
 
   2 primitive cells build up your supercell.
 

 Routine SETGRP: Setting up the symmetry group for a 
 simple cubic supercell.


 Subroutine GETGRP returns: Found  8 space group operations
 (whereof  2 operations were pure point group operations)
 out of a pool of 48 trial point group operations.


The dynamic configuration has the point symmetry S_2 .
 The point group associated with its full space group is D_2h.


 Subroutine INISYM returns: Found  8 space group operations
 (whereof  2 operations are pure point group operations),
 and found     2 'primitive' translations



 KPOINTS: 1x1x1                                   

Automatic generation of k-mesh.
Space group operators:
 irot       det(A)        alpha          n_x          n_y          n_z        tau_x        tau_y        tau_z
    1     1.000000     0.000000     1.000000     0.000000     0.000000    -0.000000    -0.000000    -0.000000
    2    -1.000000     0.000000     1.000000     0.000000     0.000000    -0.000000    -0.000000    -0.000000
    3     1.000000   180.000000     0.000000     0.000000     1.000000    -0.000000    -0.000000    -0.500000
    4    -1.000000   180.000000     0.000000     0.000000     1.000000    -0.000000    -0.000000    -0.500000
    5     1.000000   180.000000     0.707107     0.707107     0.000000     0.000000    -0.500000    -0.500000
    6    -1.000000   180.000000     0.707107     0.707107     0.000000     0.000000    -0.500000    -0.500000
    7     1.000000   180.000000     0.707107    -0.707107     0.000000     0.000000    -0.500000    -0.000000
    8    -1.000000   180.000000     0.707107    -0.707107     0.000000     0.000000    -0.500000    -0.000000
 
 Subroutine IBZKPT returns following result:
 ===========================================
 
 Found      6 irreducible k-points:
 
 Following reciprocal coordinates:
            Coordinates               Weight
  0.000000  0.000000  0.000000      1.000000
  0.500000  0.000000  0.000000      2.000000
  0.500000  0.500000  0.000000      1.000000
  0.000000  0.000000  0.500000      1.000000
  0.500000  0.000000  0.500000      2.000000
  0.500000  0.500000  0.500000      1.000000
 
 Following cartesian coordinates:
            Coordinates               Weight
  0.000000  0.000000  0.000000      1.000000
  0.042606  0.000000  0.000000      2.000000
  0.042606  0.042606  0.000000      1.000000
  0.000000  0.000000  0.042606      1.000000
  0.042606  0.000000  0.042606      2.000000
  0.042606  0.042606  0.042606      1.000000
 


--------------------------------------------------------------------------------------------------------




 Dimension of arrays:
   k-points           NKPTS =      6   k-points in BZ     NKDIM =      6   number of bands    NBANDS=    216
   number of dos      NEDOS =    301   number of ions     NIONS =     40
   non local maximal  LDIM  =      6   non local SUM 2l+1 LMDIM =     18
   total plane-waves  NPLWV = 343000
   max r-space proj   IRMAX =   5660   max aug-charges    IRDMAX=  90331
   dimension x,y,z NGX =    70 NGY =   70 NGZ =   70
   dimension x,y,z NGXF=   140 NGYF=  140 NGZF=  140
   support grid    NGXF=   280 NGYF=  280 NGZF=  280
   ions per type =               8   8  24
   NGX,Y,Z   is equivalent  to a cutoff of   9.92,  9.92,  9.92 a.u.
   NGXF,Y,Z  is equivalent  to a cutoff of  19.83, 19.83, 19.83 a.u.

 SYSTEM =  CsPbBr3 cubic bulk                      
 POSCAR =  Cs8 Pb8 Br24                            

 Startparameter for this run:
   NWRITE =      2    write-flag & timer
   PREC   = accura    normal or accurate (medium, high low for compatibility)
   ISTART =      0    job   : 0-new  1-cont  2-samecut
   ICHARG =      2    charge: 1-file 2-atom 10-const
   ISPIN  =      1    spin polarized calculation?
   LNONCOLLINEAR =      F non collinear calculations
   LSORBIT =      F    spin-orbit coupling
   INIWAV =      1    electr: 0-lowe 1-rand  2-diag
   LASPH  =      T    aspherical Exc in radial PAW
   METAGGA=      F    non-selfconsistent MetaGGA calc.

 Electronic Relaxation 1
   ENCUT  =  300.0 eV  22.05 Ry    4.70 a.u.  16.57 16.57 16.57*2*pi/ulx,y,z
   ENINI  =  300.0     initial cutoff
   ENAUG  =  503.9 eV  augmentation charge cutoff
   NELM   =    200;   NELMIN=  2; NELMDL= -5     # of ELM steps 
   EDIFF  = 0.1E-05   stopping-criterion for ELM
   LREAL  =      T    real-space projection
   NLSPLINE    = F    spline interpolate recip. space projectors
   LCOMPAT=      F    compatible to vasp.4.4
   GGA_COMPAT  = T    GGA compatible to vasp.4.4-vasp.4.6
   LMAXPAW     = -100 max onsite density
   LMAXMIX     =    2 max onsite mixed and CHGCAR
   VOSKOWN=      0    Vosko Wilk Nusair interpolation
   ROPT   =   -0.00025  -0.00025  -0.00025
 Ionic relaxation
   EDIFFG = -.1E-01   stopping-criterion for IOM
   NSW    =      0    number of steps for IOM
   NBLOCK =      1;   KBLOCK =      1    inner block; outer block 
   IBRION =     -1    ionic relax: 0-MD 1-quasi-New 2-CG
   NFREE  =      1    steps in history (QN), initial steepest desc. (CG)
   ISIF   =      3    stress and relaxation
   IWAVPR =     10    prediction:  0-non 1-charg 2-wave 3-comb
   ISYM   =      2    0-nonsym 1-usesym 2-fastsym
   LCORR  =      T    Harris-Foulkes like correction to forces

   POTIM  = 0.5000    time-step for ionic-motion
   TEIN   =    0.0    initial temperature
   TEBEG  =    0.0;   TEEND  =   0.0 temperature during run
   SMASS  =  -3.00    Nose mass-parameter (am)
   estimated Nose-frequenzy (Omega)   =  0.10E-29 period in steps =****** mass=  -0.315E-26a.u.
   SCALEE = 1.0000    scale energy and forces
   NPACO  =    256;   APACO  = 16.0  distance and # of slots for P.C.
   PSTRESS=    0.0 pullay stress

  Mass of Ions in am
   POMASS = 132.90207.20 79.90
  Ionic Valenz
   ZVAL   =   9.00 14.00  7.00
  Atomic Wigner-Seitz radii
   RWIGS  =  -1.00 -1.00 -1.00
  virtual crystal weights 
   VCA    =   1.00  1.00  1.00
   NELECT =     352.0000    total number of electrons
   NUPDOWN=      -1.0000    fix difference up-down

 DOS related values:
   EMIN   =  10.00;   EMAX   =-10.00  energy-range for DOS
   EFERMI =   0.00
   ISMEAR =     0;   SIGMA  =   0.01  broadening in eV -4-tet -1-fermi 0-gaus

 Electronic relaxation 2 (details)
   IALGO  =     38    algorithm
   LDIAG  =      T    sub-space diagonalisation (order eigenvalues)
   LSUBROT=      F    optimize rotation matrix (better conditioning)
   TURBO    =      0    0=normal 1=particle mesh
   IRESTART =      0    0=no restart 2=restart with 2 vectors
   NREBOOT  =      0    no. of reboots
   NMIN     =      0    reboot dimension
   EREF     =   0.00    reference energy to select bands
   IMIX   =      4    mixing-type and parameters
     AMIX     =   0.40;   BMIX     =  1.00
     AMIX_MAG =   1.60;   BMIX_MAG =  1.00
     AMIN     =   0.10
     WC   =   100.;   INIMIX=   1;  MIXPRE=   1;  MAXMIX= -45

 Intra band minimization:
   WEIMIN = 0.0000     energy-eigenvalue tresh-hold
   EBREAK =  0.12E-08  absolut break condition
   DEPER  =   0.30     relativ break condition  

   TIME   =   0.40     timestep for ELM

  volume/ion in A,a.u.               =      40.40       272.66
  Fermi-wavevector in a.u.,A,eV,Ry     =   0.984977  1.861337 13.200107  0.970180
  Thomas-Fermi vector in A             =   2.116250

 Write flags
   LWAVE        =      F    write WAVECAR
   LDOWNSAMPLE  =      F    k-point downsampling of WAVECAR
   LCHARG       =      T    write CHGCAR
   LVTOT        =      F    write LOCPOT, total local potential
   LVHAR        =      T    write LOCPOT, Hartree potential only
   LELF         =      F    write electronic localiz. function (ELF)
   LORBIT       =     10    0 simple, 1 ext, 2 COOP (PROOUT), +10 PAW based schemes


 Dipole corrections
   LMONO  =      F    monopole corrections only (constant potential shift)
   LDIPOL =      F    correct potential (dipole corrections)
   IDIPOL =      0    1-x, 2-y, 3-z, 4-all directions 
   EPSILON=  1.0000000 bulk dielectric constant

 Exchange correlation treatment:
   GGA     =    --    GGA type
   LEXCH   =     8    internal setting for exchange type
   VOSKOWN=      0    Vosko Wilk Nusair interpolation
   LHFCALC =     F    Hartree Fock is set to
   LHFONE  =     F    Hartree Fock one center treatment
   AEXX    =    0.0000 exact exchange contribution

 Linear response parameters
   LEPSILON=     F    determine dielectric tensor
   LRPA    =     F    only Hartree local field effects (RPA)
   LNABLA  =     F    use nabla operator in PAW spheres
   LVEL    =     F    velocity operator in full k-point grid
   LINTERFAST=   F  fast interpolation
   KINTER  =     0    interpolate to denser k-point grid
   CSHIFT  =0.1000    complex shift for real part using Kramers Kronig
   OMEGAMAX=  -1.0    maximum frequency
   DEG_THRESHOLD= 0.2000000E-02 threshold for treating states as degnerate
   RTIME   =   -0.100 relaxation time in fs
  (WPLASMAI=    0.000 imaginary part of plasma frequency in eV, 0.658/RTIME)
   DFIELD  = 0.0000000 0.0000000 0.0000000 field for delta impulse in time

 Orbital magnetization related:
   ORBITALMAG=     F  switch on orbital magnetization
   LCHIMAG   =     F  perturbation theory with respect to B field
   DQ        =  0.001000  dq finite difference perturbation B field
   LLRAUG    =     F  two centre corrections for induced B field



--------------------------------------------------------------------------------------------------------


 Static calculation
 charge density and potential will be updated during run
 non-spin polarized calculation
 Variant of blocked Davidson
 Davidson routine will perform the subspace rotation
 perform sub-space diagonalisation
    after iterative eigenvector-optimisation
 modified Broyden-mixing scheme, WC =      100.0
 initial mixing is a Kerker type mixing with AMIX =  0.4000 and BMIX =      1.0000
 Hartree-type preconditioning will be used
 using additional bands           40
 real space projection scheme for non local part
 use partial core corrections
 calculate Harris-corrections to forces   (improved forces if not selfconsistent)
 use gradient corrections 
 use of overlap-Matrix (Vanderbilt PP)
 Gauss-broadening in eV      SIGMA  =   0.01


--------------------------------------------------------------------------------------------------------


  energy-cutoff  :      300.00
  volume of cell :     1616.17
      direct lattice vectors                 reciprocal lattice vectors
    11.735352000  0.000000000  0.000000000     0.085212612  0.000000000  0.000000000
     0.000000000 11.735352000  0.000000000     0.000000000  0.085212612  0.000000000
     0.000000000  0.000000000 11.735352000     0.000000000  0.000000000  0.085212612

  length of vectors
    11.735352000 11.735352000 11.735352000     0.085212612  0.085212612  0.085212612



 k-points in units of 2pi/SCALE and weight: 1x1x1                                   
   0.00000000  0.00000000  0.00000000       0.125
   0.04260631  0.00000000  0.00000000       0.250
   0.04260631  0.04260631  0.00000000       0.125
   0.00000000  0.00000000  0.04260631       0.125
   0.04260631  0.00000000  0.04260631       0.250
   0.04260631  0.04260631  0.04260631       0.125

 k-points in reciprocal lattice and weights: 1x1x1                                   
   0.00000000  0.00000000  0.00000000       0.125
   0.50000000  0.00000000  0.00000000       0.250
   0.50000000  0.50000000  0.00000000       0.125
   0.00000000  0.00000000  0.50000000       0.125
   0.50000000  0.00000000  0.50000000       0.250
   0.50000000  0.50000000  0.50000000       0.125

 position of ions in fractional coordinates (direct lattice) 
   0.25000000  0.25000000  0.25000000
   0.25000000  0.25000000  0.75000000
   0.25000000  0.75000000  0.25000000
   0.25000000  0.75000000  0.75000000
   0.75000000  0.25000000  0.25000000
   0.75000000  0.25000000  0.75000000
   0.75000000  0.75000000  0.25000000
   0.75000000  0.75000000  0.75000000
   0.00000000  0.00000000  0.00000000
   0.00000000  0.00000000  0.50000000
   0.00000000  0.50000000  0.00000000
   0.00000000  0.50000000  0.50000000
   0.50000000  0.00000000  0.00000000
   0.50000000  0.00000000  0.50000000
   0.50000000  0.50000000  0.00000000
   0.50000000  0.50000000  0.50000000
   0.92125000  0.25000000  0.08750000
   0.92125000  0.25000000  0.41250000
   0.07875000  0.75000000  0.91250000
   0.07875000  0.75000000  0.58750000
   0.57875000  0.25000000  0.91250000
   0.57875000  0.25000000  0.58750000
   0.42125000  0.75000000  0.08750000
   0.42125000  0.75000000  0.41250000
   0.08750000  0.91250000  0.25000000
   0.91250000  0.08750000  0.75000000
   0.91250000  0.58750000  0.25000000
   0.08750000  0.41250000  0.75000000
   0.41250000  0.08750000  0.25000000
   0.58750000  0.91250000  0.75000000
   0.58750000  0.41250000  0.25000000
   0.41250000  0.58750000  0.75000000
   0.25000000  0.07875000  0.91250000
   0.25000000  0.07875000  0.58750000
   0.25000000  0.42125000  0.08750000
   0.25000000  0.42125000  0.41250000
   0.75000000  0.92125000  0.08750000
   0.75000000  0.92125000  0.41250000
   0.75000000  0.57875000  0.91250000
   0.75000000  0.57875000  0.58750000

 position of ions in cartesian coordinates  (Angst):
   2.93383800  2.93383800  2.93383800
   2.93383800  2.93383800  8.80151400
   2.93383800  8.80151400  2.93383800
   2.93383800  8.80151400  8.80151400
   8.80151400  2.93383800  2.93383800
   8.80151400  2.93383800  8.80151400
   8.80151400  8.80151400  2.93383800
   8.80151400  8.80151400  8.80151400
   0.00000000  0.00000000  0.00000000
   0.00000000  0.00000000  5.86767600
   0.00000000  5.86767600  0.00000000
   0.00000000  5.86767600  5.86767600
   5.86767600  0.00000000  0.00000000
   5.86767600  0.00000000  5.86767600
   5.86767600  5.86767600  0.00000000
   5.86767600  5.86767600  5.86767600
  10.81119303  2.93383800  1.02684330
  10.81119303  2.93383800  4.84083270
   0.92415897  8.80151400 10.70850870
   0.92415897  8.80151400  6.89451930
   6.79183497  2.93383800 10.70850870
   6.79183497  2.93383800  6.89451930
   4.94351703  8.80151400  1.02684330
   4.94351703  8.80151400  4.84083270
   1.02684330 10.70850870  2.93383800
  10.70850870  1.02684330  8.80151400
  10.70850870  6.89451930  2.93383800
   1.02684330  4.84083270  8.80151400
   4.84083270  1.02684330  2.93383800
   6.89451930 10.70850870  8.80151400
   6.89451930  4.84083270  2.93383800
   4.84083270  6.89451930  8.80151400
   2.93383800  0.92415897 10.70850870
   2.93383800  0.92415897  6.89451930
   2.93383800  4.94351703  1.02684330
   2.93383800  4.94351703  4.84083270
   8.80151400 10.81119303  1.02684330
   8.80151400 10.81119303  4.84083270
   8.80151400  6.79183497 10.70850870
   8.80151400  6.79183497  6.89451930



--------------------------------------------------------------------------------------------------------


 k-point  1 :   0.0000 0.0000 0.0000  plane waves:   19093
 k-point  2 :   0.5000 0.0000 0.0000  plane waves:   19066
 k-point  3 :   0.5000 0.5000 0.0000  plane waves:   19072
 k-point  4 :   0.0000 0.0000 0.5000  plane waves:   19066
 k-point  5 :   0.5000 0.0000 0.5000  plane waves:   19072
 k-point  6 :   0.5000 0.5000 0.5000  plane waves:   19064

 maximum and minimum number of plane-waves per node :      2417     2354

 maximum number of plane-waves:     19093
 maximum index in each direction: 
   IXMAX=   16   IYMAX=   16   IZMAX=   16
   IXMIN=  -17   IYMIN=  -17   IZMIN=  -17


 real space projection operators:
  total allocation   :      16866.38 KBytes
  max/ min on nodes  :       2193.44       1876.94


 parallel 3D FFT for wavefunctions:
    minimum data exchange during FFTs selected (reduces bandwidth)
 parallel 3D FFT for charge:
    minimum data exchange during FFTs selected (reduces bandwidth)


 total amount of memory used by VASP MPI-rank0    58941. kBytes
=======================================================================

   base      :      30000. kBytes
   nonlr-proj:       6569. kBytes
   fftplans  :       8423. kBytes
   grid      :       7465. kBytes
   one-center:         77. kBytes
   wavefun   :       6407. kBytes

     INWAV:  cpu time    0.0000: real time    0.0000
 Broyden mixing: mesh for mixing (old mesh)
   NGX = 33   NGY = 33   NGZ = 33
  (NGX  =140   NGY  =140   NGZ  =140)
  gives a total of  35937 points

 initial charge density was supplied:
 charge density of overlapping atoms calculated
 number of electron     352.0000000 magnetization 
 keeping initial charge density in first step


--------------------------------------------------------------------------------------------------------


 Maximum index for non-local projection operator          712
 Maximum index for augmentation-charges         2962 (set IRDMAX)


--------------------------------------------------------------------------------------------------------


 First call to EWALD:  gamma=   0.151
 Maximum number of real-space cells 3x 3x 3
 Maximum number of reciprocal cells 3x 3x 3

    FEWALD:  cpu time    0.0036: real time    0.0036


--------------------------------------- Iteration      1(   1)  ---------------------------------------


    POTLOK:  cpu time    0.2614: real time    0.2687
    SETDIJ:  cpu time    1.1926: real time    1.1927
     EDDAV:  cpu time   12.8531: real time   12.8592
       DOS:  cpu time    0.0007: real time    0.0007
    --------------------------------------------
      LOOP:  cpu time   14.3078: real time   14.3213

 eigenvalue-minimisations  :  2696
 total energy-change (2. order) : 0.1409303E+04  (-0.1129789E+05)
 number of electron     352.0000000 magnetization 
 augmentation part      352.0000000 magnetization 

 Free energy of the ion-electron system (eV)
  ---------------------------------------------------
  alpha Z        PSCENC =       892.99476195
  Ewald energy   TEWEN  =    -18708.38065697
  -Hartree energ DENC   =     -6973.06670825
  -exchange      EXHF   =         0.00000000
  -V(xc)+E(xc)   XCENC  =       925.90579291
  PAW double counting   =     21633.96174531   -22707.92185401
  entropy T*S    EENTRO =        -0.00127070
  eigenvalues    EBANDS =      -234.74913579
  atomic energy  EATOM  =     26580.56019858
  Solvation  Ediel_sol  =         0.00000000
  ---------------------------------------------------
  free energy    TOTEN  =      1409.30287303 eV

  energy without entropy =     1409.30414373  energy(sigma->0) =     1409.30350838


--------------------------------------------------------------------------------------------------------




--------------------------------------- Iteration      1(   2)  ---------------------------------------


     EDDAV:  cpu time   14.3462: real time   14.3834
       DOS:  cpu time    0.0003: real time    0.0003
    --------------------------------------------
      LOOP:  cpu time   14.3466: real time   14.3837

 eigenvalue-minimisations  :  3200
 total energy-change (2. order) :-0.2504429E+04  (-0.2381934E+04)
 number of electron     352.0000000 magnetization 
 augmentation part      352.0000000 magnetization 

 Free energy of the ion-electron system (eV)
  ---------------------------------------------------
  alpha Z        PSCENC =       892.99476195
  Ewald energy   TEWEN  =    -18708.38065697
  -Hartree energ DENC   =     -6973.06670825
  -exchange      EXHF   =         0.00000000
  -V(xc)+E(xc)   XCENC  =       925.90579291
  PAW double counting   =     21633.96174531   -22707.92185401
  entropy T*S    EENTRO =        -0.00000000
  eigenvalues    EBANDS =     -2739.17918049
  atomic energy  EATOM  =     26580.56019858
  Solvation  Ediel_sol  =         0.00000000
  ---------------------------------------------------
  free energy    TOTEN  =     -1095.12590098 eV

  energy without entropy =    -1095.12590098  energy(sigma->0) =    -1095.12590098


--------------------------------------------------------------------------------------------------------




--------------------------------------- Iteration      1(   3)  ---------------------------------------


     EDDAV:  cpu time   15.0646: real time   15.0880
       DOS:  cpu time    0.0003: real time    0.0003
    --------------------------------------------
      LOOP:  cpu time   15.0649: real time   15.0884

 eigenvalue-minimisations  :  3456
 total energy-change (2. order) :-0.3821567E+03  (-0.3789917E+03)
 number of electron     352.0000000 magnetization 
 augmentation part      352.0000000 magnetization 

 Free energy of the ion-electron system (eV)
  ---------------------------------------------------
  alpha Z        PSCENC =       892.99476195
  Ewald energy   TEWEN  =    -18708.38065697
  -Hartree energ DENC   =     -6973.06670825
  -exchange      EXHF   =         0.00000000
  -V(xc)+E(xc)   XCENC  =       925.90579291
  PAW double counting   =     21633.96174531   -22707.92185401
  entropy T*S    EENTRO =        -0.00000000
  eigenvalues    EBANDS =     -3121.33586758
  atomic energy  EATOM  =     26580.56019858
  Solvation  Ediel_sol  =         0.00000000
  ---------------------------------------------------
  free energy    TOTEN  =     -1477.28258806 eV

  energy without entropy =    -1477.28258806  energy(sigma->0) =    -1477.28258806


--------------------------------------------------------------------------------------------------------




--------------------------------------- Iteration      1(   4)  ---------------------------------------


     EDDAV:  cpu time   13.6125: real time   13.6477
       DOS:  cpu time    0.0003: real time    0.0003
    --------------------------------------------
      LOOP:  cpu time   13.6129: real time   13.6481

 eigenvalue-minimisations  :  2960
 total energy-change (2. order) :-0.1273794E+02  (-0.1270883E+02)
 number of electron     352.0000000 magnetization 
 augmentation part      352.0000000 magnetization 

 Free energy of the ion-electron system (eV)
  ---------------------------------------------------
  alpha Z        PSCENC =       892.99476195
  Ewald energy   TEWEN  =    -18708.38065697
  -Hartree energ DENC   =     -6973.06670825
  -exchange      EXHF   =         0.00000000
  -V(xc)+E(xc)   XCENC  =       925.90579291
  PAW double counting   =     21633.96174531   -22707.92185401
  entropy T*S    EENTRO =        -0.00000000
  eigenvalues    EBANDS =     -3134.07380448
  atomic energy  EATOM  =     26580.56019858
  Solvation  Ediel_sol  =         0.00000000
  ---------------------------------------------------
  free energy    TOTEN  =     -1490.02052496 eV

  energy without entropy =    -1490.02052496  energy(sigma->0) =    -1490.02052496


--------------------------------------------------------------------------------------------------------




--------------------------------------- Iteration      1(   5)  ---------------------------------------


     EDDAV:  cpu time   14.9265: real time   14.9501
       DOS:  cpu time    0.0004: real time    0.0004
    CHARGE:  cpu time    2.7876: real time    2.7878
    MIXING:  cpu time    0.0014: real time    0.0015
    --------------------------------------------
      LOOP:  cpu time   17.7160: real time   17.7399

 eigenvalue-minimisations  :  3416
 total energy-change (2. order) :-0.6426154E+00  (-0.6424480E+00)
 number of electron     351.9999996 magnetization 
 augmentation part       -7.0961089 magnetization 

 Broyden mixing:
  rms(total) = 0.14672E+01    rms(broyden)= 0.14669E+01
  rms(prec ) = 0.20492E+01
  weight for this iteration     100.00

 Free energy of the ion-electron system (eV)
  ---------------------------------------------------
  alpha Z        PSCENC =       892.99476195
  Ewald energy   TEWEN  =    -18708.38065697
  -Hartree energ DENC   =     -6973.06670825
  -exchange      EXHF   =         0.00000000
  -V(xc)+E(xc)   XCENC  =       925.90579291
  PAW double counting   =     21633.96174531   -22707.92185401
  entropy T*S    EENTRO =        -0.00000000
  eigenvalues    EBANDS =     -3134.71641991
  atomic energy  EATOM  =     26580.56019858
  Solvation  Ediel_sol  =         0.00000000
  ---------------------------------------------------
  free energy    TOTEN  =     -1490.66314039 eV

  energy without entropy =    -1490.66314039  energy(sigma->0) =    -1490.66314039


--------------------------------------------------------------------------------------------------------




--------------------------------------- Iteration      1(   6)  ---------------------------------------


    POTLOK:  cpu time    0.2668: real time    0.2923
    SETDIJ:  cpu time    1.1971: real time    1.1971
     EDDAV:  cpu time   14.6977: real time   14.6986
       DOS:  cpu time    0.0006: real time    0.0006
    CHARGE:  cpu time    2.8128: real time    2.8130
    MIXING:  cpu time    0.0015: real time    0.0015
    --------------------------------------------
      LOOP:  cpu time   18.9765: real time   19.0031

 eigenvalue-minimisations  :  3336
 total energy-change (2. order) : 0.8794635E+02  (-0.3001020E+01)
 number of electron     351.9999996 magnetization 
 augmentation part       -5.1515473 magnetization 

 Broyden mixing:
  rms(total) = 0.99261E+00    rms(broyden)= 0.99255E+00
  rms(prec ) = 0.12125E+01
  weight for this iteration     100.00

 eigenvalues of (default mixing * dielectric matrix)
  average eigenvalue GAMMA=   1.2941
  1.2941

 Free energy of the ion-electron system (eV)
  ---------------------------------------------------
  alpha Z        PSCENC =       892.99476195
  Ewald energy   TEWEN  =    -18708.38065697
  -Hartree energ DENC   =     -6970.78278405
  -exchange      EXHF   =         0.00000000
  -V(xc)+E(xc)   XCENC  =       956.50247417
  PAW double counting   =     22064.30002520   -23133.69564199
  entropy T*S    EENTRO =        -0.00000000
  eigenvalues    EBANDS =     -3084.21516626
  atomic energy  EATOM  =     26580.56019858
  Solvation  Ediel_sol  =         0.00000000
  ---------------------------------------------------
  free energy    TOTEN  =     -1402.71678937 eV

  energy without entropy =    -1402.71678937  energy(sigma->0) =    -1402.71678937


--------------------------------------------------------------------------------------------------------




--------------------------------------- Iteration      1(   7)  ---------------------------------------


    POTLOK:  cpu time    0.2970: real time    0.3013
    SETDIJ:  cpu time    1.1962: real time    1.1962
     EDDAV:  cpu time   14.0130: real time   14.0136
       DOS:  cpu time    0.0004: real time    0.0004
    CHARGE:  cpu time    2.8273: real time    2.8274
    MIXING:  cpu time    0.0015: real time    0.0015
    --------------------------------------------
      LOOP:  cpu time   18.3354: real time   18.3404

 eigenvalue-minimisations  :  3096
 total energy-change (2. order) : 0.7202892E+00  (-0.1119475E+01)
 number of electron     351.9999996 magnetization 
 augmentation part       -4.5206412 magnetization 

 Broyden mixing:
  rms(total) = 0.42680E+00    rms(broyden)= 0.42676E+00
  rms(prec ) = 0.46837E+00
  weight for this iteration     100.00

 eigenvalues of (default mixing * dielectric matrix)
  average eigenvalue GAMMA=   1.3813
  1.3813  1.3813

 Free energy of the ion-electron system (eV)
  ---------------------------------------------------
  alpha Z        PSCENC =       892.99476195
  Ewald energy   TEWEN  =    -18708.38065697
  -Hartree energ DENC   =     -7015.05516168
  -exchange      EXHF   =         0.00000000
  -V(xc)+E(xc)   XCENC  =       963.39823944
  PAW double counting   =     22948.16358436   -24012.34481874
  entropy T*S    EENTRO =        -0.00000000
  eigenvalues    EBANDS =     -3051.33264712
  atomic energy  EATOM  =     26580.56019858
  Solvation  Ediel_sol  =         0.00000000
  ---------------------------------------------------
  free energy    TOTEN  =     -1401.99650018 eV

  energy without entropy =    -1401.99650018  energy(sigma->0) =    -1401.99650018


--------------------------------------------------------------------------------------------------------




--------------------------------------- Iteration      1(   8)  ---------------------------------------


    POTLOK:  cpu time    0.2940: real time    0.3039
    SETDIJ:  cpu time    1.1940: real time    1.1941
     EDDAV:  cpu time   13.4333: real time   13.4340
       DOS:  cpu time    0.0004: real time    0.0004
    CHARGE:  cpu time    2.8265: real time    2.8266
    MIXING:  cpu time    0.0015: real time    0.0015
    --------------------------------------------
      LOOP:  cpu time   17.7498: real time   17.7605

 eigenvalue-minimisations  :  2896
 total energy-change (2. order) :-0.2967988E+00  (-0.9910403E-01)
 number of electron     351.9999996 magnetization 
 augmentation part       -4.7579459 magnetization 

 Broyden mixing:
  rms(total) = 0.22288E+00    rms(broyden)= 0.22287E+00
  rms(prec ) = 0.25399E+00
  weight for this iteration     100.00

 eigenvalues of (default mixing * dielectric matrix)
  average eigenvalue GAMMA=   1.5736
  2.1838  1.1515  1.3854

 Free energy of the ion-electron system (eV)
  ---------------------------------------------------
  alpha Z        PSCENC =       892.99476195
  Ewald energy   TEWEN  =    -18708.38065697
  -Hartree energ DENC   =     -7013.89949843
  -exchange      EXHF   =         0.00000000
  -V(xc)+E(xc)   XCENC  =       963.80432672
  PAW double counting   =     23247.28492915   -24312.13062659
  entropy T*S    EENTRO =        -0.00000000
  eigenvalues    EBANDS =     -3052.52673341
  atomic energy  EATOM  =     26580.56019858
  Solvation  Ediel_sol  =         0.00000000
  ---------------------------------------------------
  free energy    TOTEN  =     -1402.29329901 eV

  energy without entropy =    -1402.29329901  energy(sigma->0) =    -1402.29329901


--------------------------------------------------------------------------------------------------------




--------------------------------------- Iteration      1(   9)  ---------------------------------------


    POTLOK:  cpu time    0.2556: real time    0.3006
    SETDIJ:  cpu time    1.1909: real time    1.1910
     EDDAV:  cpu time   13.2336: real time   13.2343
       DOS:  cpu time    0.0007: real time    0.0007
    CHARGE:  cpu time    2.8304: real time    2.8305
    MIXING:  cpu time    0.0019: real time    0.0019
    --------------------------------------------
      LOOP:  cpu time   17.5131: real time   17.5590

 eigenvalue-minimisations  :  2832
 total energy-change (2. order) :-0.6616094E-01  (-0.2800533E-01)
 number of electron     351.9999996 magnetization 
 augmentation part       -4.7951624 magnetization 

 Broyden mixing:
  rms(total) = 0.47277E-01    rms(broyden)= 0.47271E-01
  rms(prec ) = 0.54856E-01
  weight for this iteration     100.00

 eigenvalues of (default mixing * dielectric matrix)
  average eigenvalue GAMMA=   1.4453
  2.5393  1.2280  1.2280  0.7857

 Free energy of the ion-electron system (eV)
  ---------------------------------------------------
  alpha Z        PSCENC =       892.99476195
  Ewald energy   TEWEN  =    -18708.38065697
  -Hartree energ DENC   =     -7018.12378938
  -exchange      EXHF   =         0.00000000
  -V(xc)+E(xc)   XCENC  =       965.45245295
  PAW double counting   =     23583.96705293   -24649.94927407
  entropy T*S    EENTRO =        -0.00000000
  eigenvalues    EBANDS =     -3048.88020593
  atomic energy  EATOM  =     26580.56019858
  Solvation  Ediel_sol  =         0.00000000
  ---------------------------------------------------
  free energy    TOTEN  =     -1402.35945995 eV

  energy without entropy =    -1402.35945995  energy(sigma->0) =    -1402.35945995


--------------------------------------------------------------------------------------------------------




--------------------------------------- Iteration      1(  10)  ---------------------------------------


    POTLOK:  cpu time    0.2501: real time    0.2974
    SETDIJ:  cpu time    1.1902: real time    1.1902
     EDDAV:  cpu time   14.6894: real time   14.6899
       DOS:  cpu time    0.0004: real time    0.0004
    CHARGE:  cpu time    2.8327: real time    2.8328
    MIXING:  cpu time    0.0016: real time    0.0016
    --------------------------------------------
      LOOP:  cpu time   18.9644: real time   19.0125

 eigenvalue-minimisations  :  3336
 total energy-change (2. order) :-0.1085728E-01  (-0.3428918E-02)
 number of electron     351.9999996 magnetization 
 augmentation part       -4.8044298 magnetization 

 Broyden mixing:
  rms(total) = 0.34561E-01    rms(broyden)= 0.34560E-01
  rms(prec ) = 0.39361E-01
  weight for this iteration     100.00

 eigenvalues of (default mixing * dielectric matrix)
  average eigenvalue GAMMA=   1.5844
  2.2377  2.2377  1.4504  0.9980  0.9980

 Free energy of the ion-electron system (eV)
  ---------------------------------------------------
  alpha Z        PSCENC =       892.99476195
  Ewald energy   TEWEN  =    -18708.38065697
  -Hartree energ DENC   =     -7016.47087472
  -exchange      EXHF   =         0.00000000
  -V(xc)+E(xc)   XCENC  =       965.53643804
  PAW double counting   =     23610.97206456   -24677.40885802
  entropy T*S    EENTRO =        -0.00000000
  eigenvalues    EBANDS =     -3050.17339064
  atomic energy  EATOM  =     26580.56019858
  Solvation  Ediel_sol  =         0.00000000
  ---------------------------------------------------
  free energy    TOTEN  =     -1402.37031722 eV

  energy without entropy =    -1402.37031722  energy(sigma->0) =    -1402.37031722


--------------------------------------------------------------------------------------------------------




--------------------------------------- Iteration      1(  11)  ---------------------------------------


    POTLOK:  cpu time    0.2698: real time    0.2982
    SETDIJ:  cpu time    1.1873: real time    1.1874
     EDDAV:  cpu time   13.3417: real time   13.3425
       DOS:  cpu time    0.0004: real time    0.0004
    CHARGE:  cpu time    2.8385: real time    2.8388
    MIXING:  cpu time    0.0016: real time    0.0016
    --------------------------------------------
      LOOP:  cpu time   17.6394: real time   17.6688

 eigenvalue-minimisations  :  2864
 total energy-change (2. order) :-0.3412990E-02  (-0.6506417E-03)
 number of electron     351.9999996 magnetization 
 augmentation part       -4.8050266 magnetization 

 Broyden mixing:
  rms(total) = 0.90779E-02    rms(broyden)= 0.90773E-02
  rms(prec ) = 0.11135E-01
  weight for this iteration     100.00

 eigenvalues of (default mixing * dielectric matrix)
  average eigenvalue GAMMA=   1.5552
  2.5738  2.3471  0.8925  1.2273  1.1453  1.1453

 Free energy of the ion-electron system (eV)
  ---------------------------------------------------
  alpha Z        PSCENC =       892.99476195
  Ewald energy   TEWEN  =    -18708.38065697
  -Hartree energ DENC   =     -7013.49679997
  -exchange      EXHF   =         0.00000000
  -V(xc)+E(xc)   XCENC  =       965.45096842
  PAW double counting   =     23580.26041514   -24647.49627470
  entropy T*S    EENTRO =        -0.00000000
  eigenvalues    EBANDS =     -3052.26634266
  atomic energy  EATOM  =     26580.56019858
  Solvation  Ediel_sol  =         0.00000000
  ---------------------------------------------------
  free energy    TOTEN  =     -1402.37373022 eV

  energy without entropy =    -1402.37373022  energy(sigma->0) =    -1402.37373022


--------------------------------------------------------------------------------------------------------




--------------------------------------- Iteration      1(  12)  ---------------------------------------


    POTLOK:  cpu time    0.2804: real time    0.2964
    SETDIJ:  cpu time    1.1890: real time    1.1890
     EDDAV:  cpu time   13.5098: real time   13.5107
       DOS:  cpu time    0.0006: real time    0.0006
    CHARGE:  cpu time    2.8363: real time    2.8364
    MIXING:  cpu time    0.0017: real time    0.0017
    --------------------------------------------
      LOOP:  cpu time   17.8178: real time   17.8348

 eigenvalue-minimisations  :  2936
 total energy-change (2. order) :-0.3748631E-03  (-0.1422562E-03)
 number of electron     351.9999996 magnetization 
 augmentation part       -4.8098106 magnetization 

 Broyden mixing:
  rms(total) = 0.48426E-02    rms(broyden)= 0.48424E-02
  rms(prec ) = 0.56281E-02
  weight for this iteration     100.00

 eigenvalues of (default mixing * dielectric matrix)
  average eigenvalue GAMMA=   1.5877
  2.7844  2.7844  1.1962  1.1962  0.9107  1.1209  1.1209

 Free energy of the ion-electron system (eV)
  ---------------------------------------------------
  alpha Z        PSCENC =       892.99476195
  Ewald energy   TEWEN  =    -18708.38065697
  -Hartree energ DENC   =     -7013.32502779
  -exchange      EXHF   =         0.00000000
  -V(xc)+E(xc)   XCENC  =       965.46773264
  PAW double counting   =     23586.33881837   -24653.74555757
  entropy T*S    EENTRO =        -0.00000000
  eigenvalues    EBANDS =     -3052.28437428
  atomic energy  EATOM  =     26580.56019858
  Solvation  Ediel_sol  =         0.00000000
  ---------------------------------------------------
  free energy    TOTEN  =     -1402.37410508 eV

  energy without entropy =    -1402.37410508  energy(sigma->0) =    -1402.37410508


--------------------------------------------------------------------------------------------------------




--------------------------------------- Iteration      1(  13)  ---------------------------------------


    POTLOK:  cpu time    0.2541: real time    0.2844
    SETDIJ:  cpu time    1.1914: real time    1.1914
     EDDAV:  cpu time   13.6603: real time   13.6611
       DOS:  cpu time    0.0004: real time    0.0004
    CHARGE:  cpu time    2.8325: real time    2.8362
    MIXING:  cpu time    0.0021: real time    0.0021
    --------------------------------------------
      LOOP:  cpu time   17.9408: real time   17.9757

 eigenvalue-minimisations  :  2976
 total energy-change (2. order) :-0.4392103E-03  (-0.1728957E-04)
 number of electron     351.9999996 magnetization 
 augmentation part       -4.8106631 magnetization 

 Broyden mixing:
  rms(total) = 0.34673E-02    rms(broyden)= 0.34672E-02
  rms(prec ) = 0.41644E-02
  weight for this iteration     100.00

 eigenvalues of (default mixing * dielectric matrix)
  average eigenvalue GAMMA=   1.5992
  2.8254  2.8254  1.4577  1.4577  1.2121  1.2121  0.9015  0.9015

 Free energy of the ion-electron system (eV)
  ---------------------------------------------------
  alpha Z        PSCENC =       892.99476195
  Ewald energy   TEWEN  =    -18708.38065697
  -Hartree energ DENC   =     -7012.95066501
  -exchange      EXHF   =         0.00000000
  -V(xc)+E(xc)   XCENC  =       965.44746977
  PAW double counting   =     23579.92479818   -24647.40540699
  entropy T*S    EENTRO =        -0.00000000
  eigenvalues    EBANDS =     -3052.56504380
  atomic energy  EATOM  =     26580.56019858
  Solvation  Ediel_sol  =         0.00000000
  ---------------------------------------------------
  free energy    TOTEN  =     -1402.37454429 eV

  energy without entropy =    -1402.37454429  energy(sigma->0) =    -1402.37454429


--------------------------------------------------------------------------------------------------------




--------------------------------------- Iteration      1(  14)  ---------------------------------------


    POTLOK:  cpu time    0.2486: real time    0.3007
    SETDIJ:  cpu time    1.1913: real time    1.1913
     EDDAV:  cpu time   13.5506: real time   13.5515
       DOS:  cpu time    0.0005: real time    0.0005
    CHARGE:  cpu time    2.8397: real time    2.8398
    MIXING:  cpu time    0.0017: real time    0.0017
    --------------------------------------------
      LOOP:  cpu time   17.8324: real time   17.8855

 eigenvalue-minimisations  :  2944
 total energy-change (2. order) :-0.2253968E-04  (-0.1055865E-04)
 number of electron     351.9999996 magnetization 
 augmentation part       -4.8098963 magnetization 

 Broyden mixing:
  rms(total) = 0.94341E-03    rms(broyden)= 0.94321E-03
  rms(prec ) = 0.10534E-02
  weight for this iteration     100.00

 eigenvalues of (default mixing * dielectric matrix)
  average eigenvalue GAMMA=   1.5922
  2.9870  2.5107  1.6708  1.6708  1.2961  1.2961  0.9409  0.9787  0.9787

 Free energy of the ion-electron system (eV)
  ---------------------------------------------------
  alpha Z        PSCENC =       892.99476195
  Ewald energy   TEWEN  =    -18708.38065697
  -Hartree energ DENC   =     -7013.17247759
  -exchange      EXHF   =         0.00000000
  -V(xc)+E(xc)   XCENC  =       965.47272259
  PAW double counting   =     23581.80373805   -24649.25045124
  entropy T*S    EENTRO =        -0.00000000
  eigenvalues    EBANDS =     -3052.40240219
  atomic energy  EATOM  =     26580.56019858
  Solvation  Ediel_sol  =         0.00000000
  ---------------------------------------------------
  free energy    TOTEN  =     -1402.37456683 eV

  energy without entropy =    -1402.37456683  energy(sigma->0) =    -1402.37456683


--------------------------------------------------------------------------------------------------------




--------------------------------------- Iteration      1(  15)  ---------------------------------------


    POTLOK:  cpu time    0.2604: real time    0.2911
    SETDIJ:  cpu time    1.1990: real time    1.1990
     EDDAV:  cpu time   12.7712: real time   12.7720
       DOS:  cpu time    0.0004: real time    0.0004
    CHARGE:  cpu time    2.8401: real time    2.8403
    MIXING:  cpu time    0.0018: real time    0.0018
    --------------------------------------------
      LOOP:  cpu time   17.0729: real time   17.1046

 eigenvalue-minimisations  :  2664
 total energy-change (2. order) : 0.3374814E-04  (-0.2138568E-05)
 number of electron     351.9999996 magnetization 
 augmentation part       -4.8101176 magnetization 

 Broyden mixing:
  rms(total) = 0.45876E-03    rms(broyden)= 0.45870E-03
  rms(prec ) = 0.49244E-03
  weight for this iteration     100.00

 eigenvalues of (default mixing * dielectric matrix)
  average eigenvalue GAMMA=   1.5808
  2.9688  2.3986  2.3986  1.4423  1.4423  1.2199  1.2199  0.9415  0.9415  0.8346

 Free energy of the ion-electron system (eV)
  ---------------------------------------------------
  alpha Z        PSCENC =       892.99476195
  Ewald energy   TEWEN  =    -18708.38065697
  -Hartree energ DENC   =     -7013.22921408
  -exchange      EXHF   =         0.00000000
  -V(xc)+E(xc)   XCENC  =       965.48059152
  PAW double counting   =     23582.73288753   -24650.16788824
  entropy T*S    EENTRO =        -0.00000000
  eigenvalues    EBANDS =     -3052.36521336
  atomic energy  EATOM  =     26580.56019858
  Solvation  Ediel_sol  =         0.00000000
  ---------------------------------------------------
  free energy    TOTEN  =     -1402.37453308 eV

  energy without entropy =    -1402.37453308  energy(sigma->0) =    -1402.37453308


--------------------------------------------------------------------------------------------------------




--------------------------------------- Iteration      1(  16)  ---------------------------------------


    POTLOK:  cpu time    0.2918: real time    0.3056
    SETDIJ:  cpu time    1.1985: real time    1.1986
     EDDAV:  cpu time   10.1897: real time   10.1904
       DOS:  cpu time    0.0004: real time    0.0004
    CHARGE:  cpu time    2.8451: real time    2.8452
    MIXING:  cpu time    0.0021: real time    0.0021
    --------------------------------------------
      LOOP:  cpu time   14.5277: real time   14.5422

 eigenvalue-minimisations  :  1736
 total energy-change (2. order) :-0.6366319E-05  (-0.1872894E-06)
 number of electron     351.9999996 magnetization 
 augmentation part       -4.8100316 magnetization 

 Broyden mixing:
  rms(total) = 0.23503E-03    rms(broyden)= 0.23499E-03
  rms(prec ) = 0.26535E-03
  weight for this iteration     100.00

 eigenvalues of (default mixing * dielectric matrix)
  average eigenvalue GAMMA=   1.5644
  3.0372  2.6524  2.1955  1.6187  1.6187  1.2387  1.2387  0.9673  0.9487  0.9487
  0.7437

 Free energy of the ion-electron system (eV)
  ---------------------------------------------------
  alpha Z        PSCENC =       892.99476195
  Ewald energy   TEWEN  =    -18708.38065697
  -Hartree energ DENC   =     -7013.25284293
  -exchange      EXHF   =         0.00000000
  -V(xc)+E(xc)   XCENC  =       965.48324055
  PAW double counting   =     23582.53711954   -24649.96870422
  entropy T*S    EENTRO =        -0.00000000
  eigenvalues    EBANDS =     -3052.34765594
  atomic energy  EATOM  =     26580.56019858
  Solvation  Ediel_sol  =         0.00000000
  ---------------------------------------------------
  free energy    TOTEN  =     -1402.37453945 eV

  energy without entropy =    -1402.37453945  energy(sigma->0) =    -1402.37453945


--------------------------------------------------------------------------------------------------------




--------------------------------------- Iteration      1(  17)  ---------------------------------------


    POTLOK:  cpu time    0.2824: real time    0.3020
    SETDIJ:  cpu time    1.1941: real time    1.1941
     EDDAV:  cpu time   10.0770: real time   10.0775
       DOS:  cpu time    0.0007: real time    0.0007
    CHARGE:  cpu time    2.8412: real time    2.8441
    MIXING:  cpu time    0.0020: real time    0.0020
    --------------------------------------------
      LOOP:  cpu time   14.3974: real time   14.4203

 eigenvalue-minimisations  :  1696
 total energy-change (2. order) :-0.1291861E-05  (-0.8401030E-07)
 number of electron     351.9999996 magnetization 
 augmentation part       -4.8099959 magnetization 

 Broyden mixing:
  rms(total) = 0.10232E-03    rms(broyden)= 0.10224E-03
  rms(prec ) = 0.11675E-03
  weight for this iteration     100.00

 eigenvalues of (default mixing * dielectric matrix)
  average eigenvalue GAMMA=   1.5360
  3.0453  2.4611  2.4611  1.6833  1.6833  1.2724  1.2724  0.9953  0.9953  0.9415
  0.9415  0.6792

 Free energy of the ion-electron system (eV)
  ---------------------------------------------------
  alpha Z        PSCENC =       892.99476195
  Ewald energy   TEWEN  =    -18708.38065697
  -Hartree energ DENC   =     -7013.24722932
  -exchange      EXHF   =         0.00000000
  -V(xc)+E(xc)   XCENC  =       965.48276425
  PAW double counting   =     23582.30271710   -24649.73260091
  entropy T*S    EENTRO =        -0.00000000
  eigenvalues    EBANDS =     -3052.35449541
  atomic energy  EATOM  =     26580.56019858
  Solvation  Ediel_sol  =         0.00000000
  ---------------------------------------------------
  free energy    TOTEN  =     -1402.37454074 eV

  energy without entropy =    -1402.37454074  energy(sigma->0) =    -1402.37454074


--------------------------------------------------------------------------------------------------------




--------------------------------------- Iteration      1(  18)  ---------------------------------------


    POTLOK:  cpu time    0.2545: real time    0.3042
    SETDIJ:  cpu time    1.1942: real time    1.1942
     EDDAV:  cpu time    9.5578: real time    9.5583
       DOS:  cpu time    0.0006: real time    0.0006
    CHARGE:  cpu time    2.8450: real time    2.8451
    MIXING:  cpu time    0.0020: real time    0.0020
    --------------------------------------------
      LOOP:  cpu time   13.8542: real time   13.9045

 eigenvalue-minimisations  :  1512
 total energy-change (2. order) : 0.5815689E-05  (-0.3453396E-07)
 number of electron     351.9999996 magnetization 
 augmentation part       -4.8100533 magnetization 

 Broyden mixing:
  rms(total) = 0.48253E-04    rms(broyden)= 0.48088E-04
  rms(prec ) = 0.52678E-04
  weight for this iteration     100.00

 eigenvalues of (default mixing * dielectric matrix)
  average eigenvalue GAMMA=   1.5463
  3.0851  2.5131  2.5131  1.5882  1.5882  1.5444  1.5444  1.0712  1.0712  0.9535
  0.9535  0.9064  0.7690

 Free energy of the ion-electron system (eV)
  ---------------------------------------------------
  alpha Z        PSCENC =       892.99476195
  Ewald energy   TEWEN  =    -18708.38065697
  -Hartree energ DENC   =     -7013.24734294
  -exchange      EXHF   =         0.00000000
  -V(xc)+E(xc)   XCENC  =       965.48253813
  PAW double counting   =     23582.29616212   -24649.72556422
  entropy T*S    EENTRO =        -0.00000000
  eigenvalues    EBANDS =     -3052.35463158
  atomic energy  EATOM  =     26580.56019858
  Solvation  Ediel_sol  =         0.00000000
  ---------------------------------------------------
  free energy    TOTEN  =     -1402.37453492 eV

  energy without entropy =    -1402.37453492  energy(sigma->0) =    -1402.37453492


--------------------------------------------------------------------------------------------------------




--------------------------------------- Iteration      1(  19)  ---------------------------------------


    POTLOK:  cpu time    0.2492: real time    0.3032
    SETDIJ:  cpu time    1.1910: real time    1.1910
     EDDAV:  cpu time    9.5519: real time    9.5524
       DOS:  cpu time    0.0004: real time    0.0004
    CHARGE:  cpu time    2.8449: real time    2.8487
    MIXING:  cpu time    0.0022: real time    0.0022
    --------------------------------------------
      LOOP:  cpu time   13.8396: real time   13.8980

 eigenvalue-minimisations  :  1512
 total energy-change (2. order) :-0.1328218E-05  (-0.1137920E-07)
 number of electron     351.9999996 magnetization 
 augmentation part       -4.8100158 magnetization 

 Broyden mixing:
  rms(total) = 0.29886E-04    rms(broyden)= 0.29624E-04
  rms(prec ) = 0.33122E-04
  weight for this iteration     100.00

 eigenvalues of (default mixing * dielectric matrix)
  average eigenvalue GAMMA=   1.5587
  3.0914  2.6501  2.4059  1.9882  1.9882  1.5647  1.2697  1.2697  1.0981  1.0981
  0.9040  0.9040  0.8494  0.7400

 Free energy of the ion-electron system (eV)
  ---------------------------------------------------
  alpha Z        PSCENC =       892.99476195
  Ewald energy   TEWEN  =    -18708.38065697
  -Hartree energ DENC   =     -7013.24543862
  -exchange      EXHF   =         0.00000000
  -V(xc)+E(xc)   XCENC  =       965.48246262
  PAW double counting   =     23582.29007398   -24649.71966161
  entropy T*S    EENTRO =        -0.00000000
  eigenvalues    EBANDS =     -3052.35627618
  atomic energy  EATOM  =     26580.56019858
  Solvation  Ediel_sol  =         0.00000000
  ---------------------------------------------------
  free energy    TOTEN  =     -1402.37453625 eV

  energy without entropy =    -1402.37453625  energy(sigma->0) =    -1402.37453625


--------------------------------------------------------------------------------------------------------




--------------------------------------- Iteration      1(  20)  ---------------------------------------


    POTLOK:  cpu time    0.2531: real time    0.3058
    SETDIJ:  cpu time    1.1919: real time    1.1920
     EDDAV:  cpu time    9.4781: real time    9.4785
       DOS:  cpu time    0.0006: real time    0.0005
    CHARGE:  cpu time    2.8494: real time    2.8494
    MIXING:  cpu time    0.0022: real time    0.0022
    --------------------------------------------
      LOOP:  cpu time   13.7752: real time   13.8285

 eigenvalue-minimisations  :  1480
 total energy-change (2. order) :-0.1264155E-05  (-0.3045570E-08)
 number of electron     351.9999996 magnetization 
 augmentation part       -4.8100339 magnetization 

 Broyden mixing:
  rms(total) = 0.15148E-04    rms(broyden)= 0.14624E-04
  rms(prec ) = 0.15370E-04
  weight for this iteration     100.00

 eigenvalues of (default mixing * dielectric matrix)
  average eigenvalue GAMMA=   1.5776
  3.2208  2.6461  2.6461  2.2337  2.2337  1.4808  1.4808  1.2383  1.2383  0.9829
  0.9829  0.9325  0.8083  0.8083  0.7299

 Free energy of the ion-electron system (eV)
  ---------------------------------------------------
  alpha Z        PSCENC =       892.99476195
  Ewald energy   TEWEN  =    -18708.38065697
  -Hartree energ DENC   =     -7013.24480399
  -exchange      EXHF   =         0.00000000
  -V(xc)+E(xc)   XCENC  =       965.48242854
  PAW double counting   =     23582.30252234   -24649.73217464
  entropy T*S    EENTRO =        -0.00000000
  eigenvalues    EBANDS =     -3052.35681332
  atomic energy  EATOM  =     26580.56019858
  Solvation  Ediel_sol  =         0.00000000
  ---------------------------------------------------
  free energy    TOTEN  =     -1402.37453751 eV

  energy without entropy =    -1402.37453751  energy(sigma->0) =    -1402.37453751


--------------------------------------------------------------------------------------------------------




--------------------------------------- Iteration      1(  21)  ---------------------------------------


    POTLOK:  cpu time    0.2906: real time    0.3007
    SETDIJ:  cpu time    1.1961: real time    1.1962
     EDDAV:  cpu time    9.4170: real time    9.4173
       DOS:  cpu time    0.0003: real time    0.0003
    --------------------------------------------
      LOOP:  cpu time   10.9041: real time   10.9145

 eigenvalue-minimisations  :  1464
 total energy-change (2. order) :-0.3741256E-06  (-0.1187809E-08)
 number of electron     351.9999996 magnetization 
 augmentation part       -4.8100339 magnetization 

 Free energy of the ion-electron system (eV)
  ---------------------------------------------------
  alpha Z        PSCENC =       892.99476195
  Ewald energy   TEWEN  =    -18708.38065697
  -Hartree energ DENC   =     -7013.24423762
  -exchange      EXHF   =         0.00000000
  -V(xc)+E(xc)   XCENC  =       965.48243693
  PAW double counting   =     23582.30912671   -24649.73887863
  entropy T*S    EENTRO =        -0.00000000
  eigenvalues    EBANDS =     -3052.35728884
  atomic energy  EATOM  =     26580.56019858
  Solvation  Ediel_sol  =         0.00000000
  ---------------------------------------------------
  free energy    TOTEN  =     -1402.37453789 eV

  energy without entropy =    -1402.37453789  energy(sigma->0) =    -1402.37453789


--------------------------------------------------------------------------------------------------------




 average (electrostatic) potential at core
  the test charge radii are     1.1312  1.1541  1.0178
  (the norm of the test charge is              1.0000)
       1 -54.1648       2 -54.1648       3 -54.1648       4 -54.1648       5 -54.1648
       6 -54.1648       7 -54.1648       8 -54.1648       9-102.5488      10-102.5488
      11-102.5488      12-102.5488      13-102.5488      14-102.5488      15-102.5488
      16-102.5488      17 -69.0501      18 -69.0501      19 -69.0501      20 -69.0501
      21 -69.0501      22 -69.0501      23 -69.0501      24 -69.0501      25 -69.0595
      26 -69.0595      27 -69.0595      28 -69.0595      29 -69.0595      30 -69.0595
      31 -69.0595      32 -69.0595      33 -69.0501      34 -69.0501      35 -69.0501
      36 -69.0501      37 -69.0501      38 -69.0501      39 -69.0501      40 -69.0501



 E-fermi :  -0.0765     XC(G=0):  -8.0212     alpha+bet : -7.0048


 k-point     1 :       0.0000    0.0000    0.0000
  band No.  band energies     occupation 
      1     -20.2014      2.00000
      2     -20.1973      2.00000
      3     -20.1964      2.00000
      4     -20.1964      2.00000
      5     -20.1929      2.00000
      6     -20.1929      2.00000
      7     -20.1920      2.00000
      8     -20.1881      2.00000
      9     -17.1900      2.00000
     10     -17.1895      2.00000
     11     -17.1894      2.00000
     12     -17.1883      2.00000
     13     -17.1883      2.00000
     14     -17.1833      2.00000
     15     -17.1833      2.00000
     16     -17.1817      2.00000
     17     -17.1780      2.00000
     18     -17.1760      2.00000
     19     -17.1760      2.00000
     20     -17.1706      2.00000
     21     -17.1703      2.00000
     22     -17.1703      2.00000
     23     -17.1689      2.00000
     24     -17.1686      2.00000
     25     -17.1636      2.00000
     26     -17.1636      2.00000
     27     -17.1635      2.00000
     28     -17.1635      2.00000
     29     -17.1634      2.00000
     30     -17.1634      2.00000
     31     -17.1634      2.00000
     32     -17.1630      2.00000
     33     -17.1453      2.00000
     34     -17.1453      2.00000
     35     -17.1452      2.00000
     36     -17.1447      2.00000
     37     -17.1447      2.00000
     38     -17.1446      2.00000
     39     -17.1445      2.00000
     40     -17.1441      2.00000
     41     -17.1436      2.00000
     42     -17.1433      2.00000
     43     -17.1433      2.00000
     44     -17.1431      2.00000
     45     -17.1425      2.00000
     46     -17.1425      2.00000
     47     -17.1425      2.00000
     48     -17.1424      2.00000
     49     -14.4063      2.00000
     50     -14.4063      2.00000
     51     -14.3888      2.00000
     52     -14.3535      2.00000
     53     -14.3535      2.00000
     54     -14.3519      2.00000
     55     -14.3034      2.00000
     56     -14.2998      2.00000
     57     -14.2734      2.00000
     58     -14.2000      2.00000
     59     -14.2000      2.00000
     60     -14.1933      2.00000
     61     -14.1598      2.00000
     62     -14.1598      2.00000
     63     -14.1503      2.00000
     64     -14.1482      2.00000
     65     -14.1015      2.00000
     66     -14.0181      2.00000
     67     -14.0181      2.00000
     68     -14.0151      2.00000
     69     -13.9749      2.00000
[...]
 total charge-density along one line

 pseudopotential strength for first ion, spin component:           1
 17.567  -4.598  -0.002  -0.000   0.008   0.002   0.000  -0.013
 -4.598   1.212   0.000   0.000  -0.002   0.000  -0.000   0.004
 -0.002   0.000   2.111   0.000   0.002  -2.492  -0.000  -0.002
 -0.000   0.000   0.000   2.114   0.000  -0.000  -2.496  -0.000
  0.008  -0.002   0.002   0.000   2.118  -0.002  -0.000  -2.500
  0.002   0.000  -2.492  -0.000  -0.002   2.900   0.000   0.002
  0.000  -0.000  -0.000  -2.496  -0.000   0.000   2.904   0.000
 -0.013   0.004  -0.002  -0.000  -2.500   0.002   0.000   2.909
  0.003  -0.001  -0.001   0.000   0.007   0.001  -0.000  -0.008
  0.000  -0.000  -0.000  -0.009   0.000   0.000   0.012  -0.000
 -0.000   0.000  -0.006   0.000   0.001   0.008  -0.000  -0.001
  0.000  -0.000   0.000   0.005  -0.000  -0.000  -0.006   0.000
  0.004  -0.001   0.005   0.000   0.005  -0.007  -0.000  -0.006
 total augmentation occupancy for first ion, spin component:           1
  1.983  -0.017   0.001   0.000  -0.001  -0.006   0.000  -0.009   0.010   0.000   0.001  -0.000   0.009
 -0.017   0.504  -0.003   0.000   0.011   0.046   0.000   0.066  -0.081   0.000  -0.011  -0.000  -0.069
  0.001  -0.003   2.064   0.000   0.004   0.058   0.000  -0.006   0.002   0.000  -0.005   0.000   0.002
  0.000   0.000   0.000   2.067   0.000   0.000   0.050   0.000  -0.000  -0.009  -0.000   0.007   0.000
 -0.001   0.011   0.004   0.000   2.075  -0.006   0.000   0.053   0.004  -0.000  -0.001   0.000   0.006
 -0.006   0.046   0.058   0.000  -0.006   0.079   0.000  -0.026   0.036   0.000   0.030   0.000  -0.028
  0.000   0.000   0.000   0.050   0.000   0.000   0.047   0.000  -0.000   0.048   0.000   0.003   0.000
 -0.009   0.066  -0.006   0.000   0.053  -0.026   0.000   0.035  -0.029  -0.000  -0.020   0.000   0.005
  0.010  -0.081   0.002  -0.000   0.004   0.036  -0.000  -0.029   0.050   0.000   0.026  -0.000  -0.002
  0.000   0.000   0.000  -0.009  -0.000   0.000   0.048  -0.000   0.000   0.073  -0.000  -0.004   0.000
  0.001  -0.011  -0.005  -0.000  -0.001   0.030   0.000  -0.020   0.026  -0.000   0.031   0.000  -0.005
 -0.000  -0.000   0.000   0.007   0.000   0.000   0.003   0.000  -0.000  -0.004   0.000   0.011   0.000
  0.009  -0.069   0.002   0.000   0.006  -0.028   0.000   0.005  -0.002   0.000  -0.005   0.000   0.032


------------------------ aborting loop because EDIFF is reached ----------------------------------------





 total charge     

# of ion       s       p       d       tot
------------------------------------------
    1        1.835   4.724   0.149   6.709
    2        1.835   4.724   0.149   6.709
    3        1.836   4.723   0.149   6.707
    4        1.836   4.723   0.149   6.707
    5        1.836   4.723   0.149   6.707
    6        1.836   4.723   0.149   6.707
    7        1.835   4.724   0.149   6.709
    8        1.835   4.724   0.149   6.709
    9        1.548   0.337   9.815  11.701
   10        1.548   0.337   9.815  11.701
   11        1.548   0.337   9.815  11.701
   12        1.548   0.337   9.815  11.701
   13        1.548   0.337   9.815  11.701
   14        1.548   0.337   9.815  11.701
   15        1.548   0.337   9.815  11.701
   16        1.548   0.337   9.815  11.701
   17        1.622   3.299   0.010   4.931
   18        1.622   3.299   0.010   4.931
   19        1.622   3.299   0.010   4.931
   20        1.622   3.299   0.010   4.931
   21        1.622   3.299   0.010   4.931
   22        1.622   3.299   0.010   4.931
   23        1.622   3.299   0.010   4.931
   24        1.622   3.299   0.010   4.931
   25        1.626   3.300   0.012   4.937
   26        1.626   3.300   0.012   4.937
   27        1.625   3.300   0.012   4.937
   28        1.625   3.300   0.012   4.937
   29        1.625   3.300   0.012   4.937
   30        1.625   3.300   0.012   4.937
   31        1.626   3.300   0.012   4.937
   32        1.626   3.300   0.012   4.937
   33        1.622   3.291   0.010   4.923
   34        1.622   3.291   0.010   4.923
   35        1.622   3.291   0.010   4.923
   36        1.622   3.291   0.010   4.923
   37        1.622   3.291   0.010   4.923
   38        1.622   3.291   0.010   4.923
   39        1.622   3.291   0.010   4.923
   40        1.622   3.291   0.010   4.923
--------------------------------------------------
tot         66.028 119.608  79.964 265.600

    CHARGE:  cpu time    0.3861: real time    0.3862
    FORLOC:  cpu time    0.0112: real time    0.0112
    FORNL :  cpu time    1.5580: real time    1.5581
    STRESS:  cpu time   39.7230: real time   39.7246
    FORCOR:  cpu time    0.2414: real time    0.2414
    FORHAR:  cpu time    0.0276: real time    0.0276
    MIXING:  cpu time    0.0021: real time    0.0021
    OFIELD:  cpu time    0.0000: real time    0.0000

  FORCE on cell =-STRESS in cart. coord.  units (eV):
  Direction    XX          YY          ZZ          XY          YZ          ZX
  --------------------------------------------------------------------------------------
  Alpha Z   892.99476   892.99476   892.99476
  Ewald   -6239.83896 -6239.83896 -6228.79154  -870.97722     0.00000     0.00000
  Hartree  2313.82232  2313.82232  2385.59998  -425.17076    -0.00000    -0.00000
  E(xc)   -1481.49148 -1481.41476 -1481.62690    -1.53112     0.00000     0.00000
  Local   -2584.60664 -2584.60664 -2676.46149  1272.78925     0.00000    -0.00000
  n-local  1790.67911  1791.94766  1789.25986    -2.33997     0.00000     0.00000
  augment   815.85103   815.85103   815.58202    -1.18505    -0.00004    -0.00004
  Kinetic  4540.47307  4544.41710  4541.23487   -13.06089    -0.00000    -0.00000
  Fock        0.00000     0.00000     0.00000     0.00000     0.00000     0.00000
  -------------------------------------------------------------------------------------
  Total      50.52785    50.52785    37.79157   -41.47580     0.00000     0.00000
  in kB      50.09023    50.09023    37.46426   -41.11658     0.00000     0.00000
  external pressure =       45.88 kB  Pullay stress =        0.00 kB


 VOLUME and BASIS-vectors are now :
 -----------------------------------------------------------------------------
  energy-cutoff  :      300.00
  volume of cell :     1616.17
      direct lattice vectors                 reciprocal lattice vectors
    11.735352000  0.000000000  0.000000000     0.085212612  0.000000000  0.000000000
     0.000000000 11.735352000  0.000000000     0.000000000  0.085212612  0.000000000
     0.000000000  0.000000000 11.735352000     0.000000000  0.000000000  0.085212612

  length of vectors
    11.735352000 11.735352000 11.735352000     0.085212612  0.085212612  0.085212612


 FORCES acting on ions
    electron-ion (+dipol)            ewald-force                    non-local-force                 convergence-correction
 -----------------------------------------------------------------------------------------------
   0.438E+02 0.416E+02 0.579E-08   -.456E+02 -.422E+02 0.142E-13   -.164E+01 -.136E+01 -.553E-25   -.527E-05 -.113E-05 0.292E-12
   -.438E+02 -.416E+02 -.579E-08   0.456E+02 0.422E+02 0.142E-13   0.164E+01 0.136E+01 -.798E-24   0.527E-05 0.113E-05 -.260E-12
   0.416E+02 0.438E+02 0.579E-08   -.422E+02 -.456E+02 0.799E-14   -.136E+01 -.164E+01 0.672E-25   -.113E-05 -.527E-05 0.334E-12
   -.416E+02 -.438E+02 -.579E-08   0.422E+02 0.456E+02 0.799E-14   0.136E+01 0.164E+01 -.817E-24   0.113E-05 0.527E-05 -.299E-12
   0.416E+02 0.438E+02 0.579E-08   -.422E+02 -.456E+02 0.888E-14   -.136E+01 -.164E+01 0.907E-25   -.113E-05 -.527E-05 0.374E-12
   -.416E+02 -.438E+02 -.579E-08   0.422E+02 0.456E+02 0.107E-13   0.136E+01 0.164E+01 0.837E-24   0.113E-05 0.527E-05 -.326E-12
   0.438E+02 0.416E+02 0.579E-08   -.456E+02 -.422E+02 0.355E-14   -.164E+01 -.136E+01 -.131E-24   -.527E-05 -.113E-05 0.327E-12
   -.438E+02 -.416E+02 -.580E-08   0.456E+02 0.422E+02 0.142E-13   0.164E+01 0.136E+01 0.788E-24   0.527E-05 0.113E-05 -.283E-12
   -.143E-13 0.122E-12 0.674E-13   -.373E-13 0.204E-13 0.000E+00   0.993E-23 0.331E-23 0.117E-22   0.329E-13 0.205E-12 -.398E-12
   0.950E-13 0.137E-12 0.107E-11   -.355E-13 0.355E-13 0.444E-14   0.331E-23 0.000E+00 -.321E-22   0.626E-13 0.107E-12 0.347E-13
   0.852E-13 0.134E-11 0.118E-12   -.355E-13 0.293E-13 -.568E-13   -.165E-23 0.662E-23 0.220E-22   0.138E-13 -.194E-12 -.500E-12
   0.559E-13 0.119E-11 0.100E-11   -.142E-13 0.000E+00 0.639E-13   0.000E+00 0.662E-23 -.139E-22   -.142E-12 -.107E-12 0.135E-12
   0.176E-11 -.124E-12 0.675E-11   -.586E-13 0.320E-13 -.586E-13   -.165E-23 0.662E-23 -.113E-23   -.301E-13 0.289E-12 -.341E-12
   -.146E-11 0.189E-11 -.741E-11   -.533E-13 0.195E-13 0.746E-13   0.000E+00 -.662E-23 -.698E-23   -.409E-13 0.391E-12 -.534E-15
   0.214E-11 -.384E-11 0.260E-12   -.284E-13 0.293E-13 -.355E-14   0.993E-23 0.331E-23 0.152E-22   0.879E-14 -.260E-12 -.445E-12
   0.170E-11 -.270E-11 -.111E-11   -.426E-13 0.497E-13 0.142E-13   0.331E-23 0.000E+00 -.456E-23   0.146E-12 -.359E-12 0.895E-13
   -.923E+01 0.208E+01 0.128E+02   0.943E+01 -.207E+01 -.129E+02   0.240E+01 0.360E-01 -.248E+01   0.334E-05 0.319E-05 -.474E-05
   -.923E+01 0.208E+01 -.128E+02   0.943E+01 -.207E+01 0.129E+02   0.240E+01 0.360E-01 0.248E+01   0.334E-05 0.319E-05 0.474E-05
   0.923E+01 -.208E+01 -.128E+02   -.943E+01 0.207E+01 0.129E+02   -.240E+01 -.360E-01 0.248E+01   -.334E-05 -.319E-05 0.474E-05
   0.923E+01 -.208E+01 0.128E+02   -.943E+01 0.207E+01 -.129E+02   -.240E+01 -.360E-01 -.248E+01   -.334E-05 -.319E-05 -.474E-05
   0.923E+01 -.208E+01 -.128E+02   -.943E+01 0.207E+01 0.129E+02   -.240E+01 -.360E-01 0.248E+01   -.334E-05 -.319E-05 0.474E-05
   0.923E+01 -.208E+01 0.128E+02   -.943E+01 0.207E+01 -.129E+02   -.240E+01 -.360E-01 -.248E+01   -.334E-05 -.319E-05 -.474E-05
   -.923E+01 0.208E+01 0.128E+02   0.943E+01 -.207E+01 -.129E+02   0.240E+01 0.360E-01 -.248E+01   0.334E-05 0.319E-05 -.474E-05
   -.923E+01 0.208E+01 -.128E+02   0.943E+01 -.207E+01 0.129E+02   0.240E+01 0.360E-01 0.248E+01   0.334E-05 0.319E-05 0.474E-05
   0.604E+01 -.141E+02 -.587E-08   -.642E+01 0.145E+02 -.888E-15   -.278E+01 0.300E+01 -.263E-23   -.445E-05 0.101E-04 0.242E-12
   -.604E+01 0.141E+02 0.586E-08   0.642E+01 -.145E+02 -.266E-14   0.278E+01 -.300E+01 0.264E-23   0.445E-05 -.101E-04 -.135E-12
   -.141E+02 0.604E+01 -.587E-08   0.145E+02 -.642E+01 -.711E-14   0.300E+01 -.278E+01 0.180E-23   0.101E-04 -.445E-05 0.271E-12
   0.141E+02 -.604E+01 0.587E-08   -.145E+02 0.642E+01 0.711E-14   -.300E+01 0.278E+01 -.191E-23   -.101E-04 0.445E-05 -.141E-12
   -.141E+02 0.604E+01 -.586E-08   0.145E+02 -.642E+01 0.000E+00   0.300E+01 -.278E+01 -.155E-23   0.101E-04 -.445E-05 0.234E-12
   0.141E+02 -.604E+01 0.587E-08   -.145E+02 0.642E+01 0.355E-14   -.300E+01 0.278E+01 -.235E-24   -.101E-04 0.445E-05 -.137E-12
   0.604E+01 -.141E+02 -.587E-08   -.642E+01 0.145E+02 -.107E-13   -.278E+01 0.300E+01 -.235E-23   -.445E-05 0.101E-04 0.254E-12
   -.604E+01 0.141E+02 0.586E-08   0.642E+01 -.145E+02 0.178E-14   0.278E+01 -.300E+01 0.247E-23   0.445E-05 -.101E-04 -.127E-12
   -.208E+01 0.923E+01 -.128E+02   0.207E+01 -.943E+01 0.129E+02   -.360E-01 -.240E+01 0.248E+01   -.319E-05 -.334E-05 0.474E-05
   -.208E+01 0.923E+01 0.128E+02   0.207E+01 -.943E+01 -.129E+02   -.360E-01 -.240E+01 -.248E+01   -.319E-05 -.334E-05 -.474E-05
   0.208E+01 -.923E+01 0.128E+02   -.207E+01 0.943E+01 -.129E+02   0.360E-01 0.240E+01 -.248E+01   0.319E-05 0.334E-05 -.474E-05
   0.208E+01 -.923E+01 -.128E+02   -.207E+01 0.943E+01 0.129E+02   0.360E-01 0.240E+01 0.248E+01   0.319E-05 0.334E-05 0.474E-05
   0.208E+01 -.923E+01 0.128E+02   -.207E+01 0.943E+01 -.129E+02   0.360E-01 0.240E+01 -.248E+01   0.319E-05 0.334E-05 -.474E-05
   0.208E+01 -.923E+01 -.128E+02   -.207E+01 0.943E+01 0.129E+02   0.360E-01 0.240E+01 0.248E+01   0.319E-05 0.334E-05 0.474E-05
   -.208E+01 0.923E+01 -.128E+02   0.207E+01 -.943E+01 0.129E+02   -.360E-01 -.240E+01 0.248E+01   -.319E-05 -.334E-05 0.474E-05
   -.208E+01 0.923E+01 0.128E+02   0.207E+01 -.943E+01 -.129E+02   -.360E-01 -.240E+01 -.248E+01   -.319E-05 -.334E-05 -.474E-05
 -----------------------------------------------------------------------------------------------
   0.716E-11 -.137E-10 -.333E-11   -.391E-13 0.213E-13 0.178E-14   -.465E-15 -.888E-15 0.444E-15   0.197E-12 0.237E-12 -.119E-11


 POSITION                                       TOTAL-FORCE (eV/Angst)
 -----------------------------------------------------------------------------------
      2.93384      2.93384      2.93384        -3.132980     -1.824810     -0.000000
      2.93384      2.93384      8.80151         3.132980      1.824810     -0.000000
      2.93384      8.80151      2.93384        -1.824810     -3.132980     -0.000000
      2.93384      8.80151      8.80151         1.824810      3.132980     -0.000000
      8.80151      2.93384      2.93384        -1.824810     -3.132980     -0.000000
      8.80151      2.93384      8.80151         1.824810      3.132980     -0.000000
      8.80151      8.80151      2.93384        -3.132980     -1.824810     -0.000000
      8.80151      8.80151      8.80151         3.132980      1.824810     -0.000000
      0.00000      0.00000      0.00000         0.000000     -0.000000     -0.000000
      0.00000      0.00000      5.86768         0.000000      0.000000     -0.000000
      0.00000      5.86768      0.00000         0.000000      0.000000     -0.000000
      0.00000      5.86768      5.86768         0.000000      0.000000     -0.000000
      5.86768      0.00000      0.00000         0.000000     -0.000000     -0.000000
      5.86768      0.00000      5.86768        -0.000000     -0.000000     -0.000000
      5.86768      5.86768      0.00000        -0.000000     -0.000000     -0.000000
      5.86768      5.86768      5.86768         0.000000      0.000000     -0.000000
     10.81119      2.93384      1.02684         2.629233      0.049638     -2.640548
     10.81119      2.93384      4.84083         2.629233      0.049638      2.640548
      0.92416      8.80151     10.70851        -2.629233     -0.049638      2.640548
      0.92416      8.80151      6.89452        -2.629233     -0.049638     -2.640548
      6.79183      2.93384     10.70851        -2.629233     -0.049638      2.640548
      6.79183      2.93384      6.89452        -2.629233     -0.049638     -2.640548
      4.94352      8.80151      1.02684         2.629233      0.049638     -2.640548
      4.94352      8.80151      4.84083         2.629233      0.049638      2.640548
      1.02684     10.70851      2.93384        -3.199790      3.344332     -0.000000
     10.70851      1.02684      8.80151         3.199790     -3.344332     -0.000000
     10.70851      6.89452      2.93384         3.344332     -3.199790     -0.000000
      1.02684      4.84083      8.80151        -3.344332      3.199790     -0.000000
      4.84083      1.02684      2.93384         3.344332     -3.199790     -0.000000
      6.89452     10.70851      8.80151        -3.344332      3.199790     -0.000000
      6.89452      4.84083      2.93384        -3.199790      3.344332     -0.000000
      4.84083      6.89452      8.80151         3.199790     -3.344332     -0.000000
      2.93384      0.92416     10.70851        -0.049638     -2.629233      2.640548
      2.93384      0.92416      6.89452        -0.049638     -2.629233     -2.640548
      2.93384      4.94352      1.02684         0.049638      2.629233     -2.640548
      2.93384      4.94352      4.84083         0.049638      2.629233      2.640548
      8.80151     10.81119      1.02684         0.049638      2.629233     -2.640548
      8.80151     10.81119      4.84083         0.049638      2.629233      2.640548
      8.80151      6.79183     10.70851        -0.049638     -2.629233      2.640548
      8.80151      6.79183      6.89452        -0.049638     -2.629233     -2.640548
 -----------------------------------------------------------------------------------
    total drift:                                0.000000     -0.000000     -0.000000


--------------------------------------------------------------------------------------------------------



  FREE ENERGIE OF THE ION-ELECTRON SYSTEM (eV)
  ---------------------------------------------------
  free  energy   TOTEN  =     -1402.37453789 eV

  energy  without entropy=    -1402.37453789  energy(sigma->0) =    -1402.37453789



--------------------------------------------------------------------------------------------------------


    POTLOK:  cpu time    1.4293: real time    1.4294


--------------------------------------------------------------------------------------------------------


 stress matrix after NEB project (eV)
     50.52785    -41.47580      0.00000
    -41.47580     50.52785      0.00000
      0.00000      0.00000     37.79157
  FORCES: max atom, RMS     4.628521    3.531129
  FORCE total and by dimension   22.332819    3.344332
  Stress total and by dimension   99.873997   50.527853
     LOOP+:  cpu time  385.6777: real time  386.4014
    4ORBIT:  cpu time    0.0000: real time    0.0000



 total charge     

# of ion       s       p       d       tot
------------------------------------------
    1        1.835   4.724   0.149   6.709
    2        1.835   4.724   0.149   6.709
    3        1.836   4.723   0.149   6.707
    4        1.836   4.723   0.149   6.707
    5        1.836   4.723   0.149   6.707
    6        1.836   4.723   0.149   6.707
    7        1.835   4.724   0.149   6.709
    8        1.835   4.724   0.149   6.709
    9        1.548   0.337   9.815  11.701
   10        1.548   0.337   9.815  11.701
   11        1.548   0.337   9.815  11.701
   12        1.548   0.337   9.815  11.701
   13        1.548   0.337   9.815  11.701
   14        1.548   0.337   9.815  11.701
   15        1.548   0.337   9.815  11.701
   16        1.548   0.337   9.815  11.701
   17        1.622   3.299   0.010   4.931
   18        1.622   3.299   0.010   4.931
   19        1.622   3.299   0.010   4.931
   20        1.622   3.299   0.010   4.931
   21        1.622   3.299   0.010   4.931
   22        1.622   3.299   0.010   4.931
   23        1.622   3.299   0.010   4.931
   24        1.622   3.299   0.010   4.931
   25        1.626   3.300   0.012   4.937
   26        1.626   3.300   0.012   4.937
   27        1.625   3.300   0.012   4.937
   28        1.625   3.300   0.012   4.937
   29        1.625   3.300   0.012   4.937
   30        1.625   3.300   0.012   4.937
   31        1.626   3.300   0.012   4.937
   32        1.626   3.300   0.012   4.937
   33        1.622   3.291   0.010   4.923
   34        1.622   3.291   0.010   4.923
   35        1.622   3.291   0.010   4.923
   36        1.622   3.291   0.010   4.923
   37        1.622   3.291   0.010   4.923
   38        1.622   3.291   0.010   4.923
   39        1.622   3.291   0.010   4.923
   40        1.622   3.291   0.010   4.923
--------------------------------------------------
tot         66.028 119.608  79.964 265.600


 total amount of memory used by VASP MPI-rank0    58941. kBytes
=======================================================================

   base      :      30000. kBytes
   nonlr-proj:       6569. kBytes
   fftplans  :       8423. kBytes
   grid      :       7465. kBytes
   one-center:         77. kBytes
   wavefun   :       6407. kBytes

  
  
 General timing and accounting informations for this job:
 ========================================================
  
                  Total CPU time used (sec):      404.510
                            User time (sec):      400.551
                          System time (sec):        3.960
                         Elapsed time (sec):      406.026
  
                   Maximum memory used (kb):      127740.
                   Average memory used (kb):           0.
  
                          Minor page faults:       289358
                          Major page faults:            0
                 Voluntary context switches:         2089
