CsPbBr3 cubic bulk                      
           1
     8.420018    0.000000    8.077981
     0.000000   11.763808    0.000000
    -8.420018    0.000000    8.077981
   Cs   Pb   Br   Cs
   6   8  24   1
Direct configuration=     1
   0.25150800  0.24999000  0.20440100
   0.77520500  0.25000400  0.72053100
   0.19324300  0.75000300  0.75814600
   0.27645100  0.25000800  0.74066800
   0.75919500  0.25000700  0.22757200
   0.74095900  0.75000300  0.78097600
   0.99288800  0.99467800  0.00777600
   0.50184800  0.00418800  0.50147100
   0.50201700  0.00373600  0.98581700
   0.99969600  0.99901100  0.50020900
   0.50199900  0.49623100  0.98582400
   0.99970200  0.50098200  0.50021400
   0.99287000  0.50528000  0.00778300
   0.50187100  0.49582800  0.50147200
   0.46291400  0.74998000  0.93424600
   0.96498800  0.75000700  0.50181900
   0.95904900  0.25000900  0.98093400
   0.45670800  0.25001900  0.50072700
   0.05206800  0.74999200  0.02947200
   0.54160100  0.75003100  0.52842500
   0.54740100  0.24998600  0.97710800
   0.03079400  0.25000400  0.54634600
   0.24637600  0.46431600  0.95963100
   0.74804700  0.44805300  0.46828700
   0.47822600  0.45629800  0.23969300
   0.95223500  0.52421800  0.75431200
   0.56519800  0.02087300  0.74473600
   0.02760800  0.05139600  0.25519600
   0.74592100  0.94996100  0.04794900
   0.25371000  0.97882000  0.56102400
   0.24637700  0.03567900  0.95962300
   0.74805500  0.05196100  0.46830100
   0.47823300  0.04369400  0.23970000
   0.95223800  0.97579500  0.75432200
   0.74592400  0.55002700  0.04793800
   0.25371100  0.52120100  0.56102300
   0.56520300  0.47913400  0.74473400
   0.02761700  0.44859900  0.25520000
   0.47173700  0.74999900  0.23529200
