  20  20   1   0
  0.4074928E+02  0.8308951E-09  0.1235200E-08  0.7940842E-09  0.5000000E-15
   1.0000000000000000E-004
  CAR 
 CsPbBr3 cubic bulk                      
      8.57631499    -22.31756107  301      0.36369293      1.00000000
    -22.318  0.0000E+00  0.0000E+00
    -22.215  0.0000E+00  0.0000E+00
    -22.112  0.0000E+00  0.0000E+00
    -22.009  0.0000E+00  0.0000E+00
    -21.906  0.0000E+00  0.0000E+00
    -21.803  0.0000E+00  0.0000E+00
    -21.700  0.0000E+00  0.0000E+00
    -21.597  0.0000E+00  0.0000E+00
    -21.494  0.0000E+00  0.0000E+00
    -21.391  0.0000E+00  0.0000E+00
    -21.288  0.0000E+00  0.0000E+00
    -21.185  0.0000E+00  0.0000E+00
    -21.082  0.0000E+00  0.0000E+00
    -20.979  0.0000E+00  0.0000E+00
    -20.876  0.7769E+02  0.8000E+01
    -20.773  0.0000E+00  0.8000E+01
    -20.670  0.0000E+00  0.8000E+01
    -20.567  0.0000E+00  0.8000E+01
    -20.464  0.0000E+00  0.8000E+01
    -20.361  0.0000E+00  0.8000E+01
    -20.258  0.0000E+00  0.8000E+01
    -20.155  0.0000E+00  0.8000E+01
    -20.052  0.0000E+00  0.8000E+01
    -19.949  0.0000E+00  0.8000E+01
    -19.846  0.0000E+00  0.8000E+01
    -19.743  0.0000E+00  0.8000E+01
    -19.640  0.0000E+00  0.8000E+01
    -19.537  0.0000E+00  0.8000E+01
    -19.434  0.0000E+00  0.8000E+01
    -19.331  0.0000E+00  0.8000E+01
    -19.228  0.0000E+00  0.8000E+01
    -19.125  0.0000E+00  0.8000E+01
    -19.022  0.0000E+00  0.8000E+01
    -18.919  0.0000E+00  0.8000E+01
    -18.816  0.0000E+00  0.8000E+01
    -18.713  0.0000E+00  0.8000E+01
    -18.610  0.0000E+00  0.8000E+01
    -18.507  0.0000E+00  0.8000E+01
    -18.404  0.0000E+00  0.8000E+01
    -18.301  0.0000E+00  0.8000E+01
    -18.198  0.0000E+00  0.8000E+01
    -18.095  0.0000E+00  0.8000E+01
    -17.992  0.0000E+00  0.8000E+01
    -17.889  0.0000E+00  0.8000E+01
    -17.786  0.0000E+00  0.8000E+01
    -17.683  0.0000E+00  0.8000E+01
    -17.581  0.0000E+00  0.8000E+01
    -17.478  0.0000E+00  0.8000E+01
    -17.375  0.0000E+00  0.8000E+01
    -17.272  0.0000E+00  0.8000E+01
    -17.169  0.0000E+00  0.8000E+01
    -17.066  0.0000E+00  0.8000E+01
    -16.963  0.0000E+00  0.8000E+01
    -16.860  0.0000E+00  0.8000E+01
    -16.757  0.0000E+00  0.8000E+01
    -16.654  0.0000E+00  0.8000E+01
    -16.551  0.1623E+02  0.9672E+01
    -16.448  0.9626E+02  0.2402E+02
    -16.345  0.1554E+03  0.4800E+02
    -16.242  0.0000E+00  0.4800E+02
    -16.139  0.0000E+00  0.4800E+02
    -16.036  0.0000E+00  0.4800E+02
    -15.933  0.0000E+00  0.4800E+02
    -15.830  0.0000E+00  0.4800E+02
    -15.727  0.0000E+00  0.4800E+02
    -15.624  0.0000E+00  0.4800E+02
    -15.521  0.0000E+00  0.4800E+02
    -15.418  0.0000E+00  0.4800E+02
    -15.315  0.0000E+00  0.4800E+02
    -15.212  0.0000E+00  0.4800E+02
    -15.109  0.0000E+00  0.4800E+02
    -15.006  0.0000E+00  0.4800E+02
    -14.903  0.0000E+00  0.4800E+02
    -14.800  0.0000E+00  0.4800E+02
    -14.697  0.0000E+00  0.4800E+02
    -14.594  0.0000E+00  0.4800E+02
    -14.491  0.0000E+00  0.4800E+02
    -14.388  0.1601E-05  0.4800E+02
    -14.285  0.7536E+01  0.4878E+02
    -14.182  0.2340E+02  0.5163E+02
    -14.079  0.3830E+02  0.5639E+02
    -13.976  0.2488E+02  0.5990E+02
    -13.873  0.3725E+02  0.6517E+02
    -13.770  0.3812E+02  0.7159E+02
    -13.667  0.0000E+00  0.7200E+02
    -13.564  0.0000E+00  0.7200E+02
    -13.461  0.0000E+00  0.7200E+02
    -13.358  0.0000E+00  0.7200E+02
    -13.255  0.0000E+00  0.7200E+02
    -13.152  0.0000E+00  0.7200E+02
    -13.049  0.0000E+00  0.7200E+02
    -12.946  0.0000E+00  0.7200E+02
    -12.843  0.0000E+00  0.7200E+02
    -12.740  0.0000E+00  0.7200E+02
    -12.637  0.0000E+00  0.7200E+02
    -12.535  0.0000E+00  0.7200E+02
    -12.432  0.0000E+00  0.7200E+02
    -12.329  0.0000E+00  0.7200E+02
    -12.226  0.0000E+00  0.7200E+02
    -12.123  0.0000E+00  0.7200E+02
    -12.020  0.0000E+00  0.7200E+02
    -11.917  0.0000E+00  0.7200E+02
    -11.814  0.0000E+00  0.7200E+02
    -11.711  0.0000E+00  0.7200E+02
    -11.608  0.0000E+00  0.7200E+02
    -11.505  0.0000E+00  0.7200E+02
    -11.402  0.0000E+00  0.7200E+02
    -11.299  0.0000E+00  0.7200E+02
    -11.196  0.0000E+00  0.7200E+02
    -11.093  0.0000E+00  0.7200E+02
    -10.990  0.0000E+00  0.7200E+02
    -10.887  0.0000E+00  0.7200E+02
    -10.784  0.0000E+00  0.7200E+02
    -10.681  0.0000E+00  0.7200E+02
    -10.578  0.0000E+00  0.7200E+02
    -10.475  0.0000E+00  0.7200E+02
    -10.372  0.0000E+00  0.7200E+02
    -10.269  0.0000E+00  0.7200E+02
    -10.166  0.0000E+00  0.7200E+02
    -10.063  0.0000E+00  0.7200E+02
     -9.960  0.0000E+00  0.7200E+02
     -9.857  0.0000E+00  0.7200E+02
     -9.754  0.0000E+00  0.7200E+02
     -9.651  0.0000E+00  0.7200E+02
     -9.548  0.0000E+00  0.7200E+02
     -9.445  0.0000E+00  0.7200E+02
     -9.342  0.0000E+00  0.7200E+02
     -9.239  0.0000E+00  0.7200E+02
     -9.136  0.0000E+00  0.7200E+02
     -9.033  0.0000E+00  0.7200E+02
     -8.930  0.0000E+00  0.7200E+02
     -8.827  0.0000E+00  0.7200E+02
     -8.724  0.0000E+00  0.7200E+02
     -8.621  0.0000E+00  0.7200E+02
     -8.518  0.0000E+00  0.7200E+02
     -8.415  0.0000E+00  0.7200E+02
     -8.312  0.0000E+00  0.7200E+02
     -8.209  0.2066E-03  0.7200E+02
     -8.106  0.1079E+01  0.7211E+02
     -8.003  0.1832E+01  0.7230E+02
     -7.900  0.4316E+01  0.7278E+02
     -7.797  0.5973E+01  0.7339E+02
     -7.694  0.1053E-09  0.7422E+02
     -7.591  0.1009E+02  0.7526E+02
     -7.489  0.4315E+01  0.7600E+02
     -7.386  0.1500E+02  0.7777E+02
     -7.283  0.1507E+03  0.9329E+02
     -7.180  0.3021E+02  0.1027E+03
     -7.077  0.5394E+01  0.1032E+03
     -6.974  0.4316E+01  0.1037E+03
     -6.871  0.2158E+01  0.1039E+03
     -6.768  0.0000E+00  0.1039E+03
     -6.665  0.5813E-01  0.1039E+03
     -6.562  0.0000E+00  0.1040E+03
     -6.459  0.0000E+00  0.1040E+03
     -6.356  0.0000E+00  0.1040E+03
     -6.253  0.0000E+00  0.1040E+03
     -6.150  0.0000E+00  0.1040E+03
     -6.047  0.0000E+00  0.1040E+03
     -5.944  0.0000E+00  0.1040E+03
     -5.841  0.0000E+00  0.1040E+03
     -5.738  0.0000E+00  0.1040E+03
     -5.635  0.0000E+00  0.1040E+03
     -5.532  0.0000E+00  0.1040E+03
     -5.429  0.0000E+00  0.1040E+03
     -5.326  0.0000E+00  0.1040E+03
     -5.223  0.0000E+00  0.1040E+03
     -5.120  0.0000E+00  0.1040E+03
     -5.017  0.0000E+00  0.1040E+03
     -4.914  0.0000E+00  0.1040E+03
     -4.811  0.0000E+00  0.1040E+03
     -4.708  0.0000E+00  0.1040E+03
     -4.605  0.0000E+00  0.1040E+03
     -4.502  0.0000E+00  0.1040E+03
     -4.399  0.0000E+00  0.1040E+03
     -4.296  0.0000E+00  0.1040E+03
     -4.193  0.0000E+00  0.1040E+03
     -4.090  0.0000E+00  0.1040E+03
     -3.987  0.0000E+00  0.1040E+03
     -3.884  0.0000E+00  0.1040E+03
     -3.781  0.0000E+00  0.1040E+03
     -3.678  0.0000E+00  0.1040E+03
     -3.575  0.0000E+00  0.1040E+03
     -3.472  0.0000E+00  0.1040E+03
     -3.369  0.2202E+00  0.1040E+03
     -3.266  0.5895E+01  0.1047E+03
     -3.163  0.1700E+02  0.1066E+03
     -3.060  0.1173E+02  0.1079E+03
     -2.957  0.2157E+02  0.1101E+03
     -2.854  0.3422E+01  0.1105E+03
     -2.751  0.2224E+02  0.1132E+03
     -2.648  0.6474E+01  0.1140E+03
     -2.545  0.0000E+00  0.1140E+03
     -2.443  0.1079E+02  0.1151E+03
     -2.340  0.2572E+02  0.1178E+03
     -2.237  0.1066E+02  0.1189E+03
     -2.134  0.1063E+02  0.1219E+03
     -2.031  0.2069E+02  0.1240E+03
     -1.928  0.1949E+02  0.1268E+03
     -1.825  0.2152E+01  0.1272E+03
     -1.722  0.3189E+02  0.1318E+03
     -1.619  0.1432E+02  0.1345E+03
     -1.516  0.3017E+02  0.1382E+03
     -1.413  0.4138E+02  0.1438E+03
     -1.310  0.5349E+02  0.1510E+03
     -1.207  0.4502E+02  0.1567E+03
     -1.104  0.5304E+02  0.1642E+03
     -1.001  0.1706E+02  0.1679E+03
     -0.898  0.9471E+01  0.1690E+03
     -0.795  0.1931E+02  0.1710E+03
     -0.692  0.7525E+01  0.1718E+03
     -0.589  0.1928E+02  0.1738E+03
     -0.486  0.8631E+01  0.1747E+03
     -0.383  0.0000E+00  0.1747E+03
     -0.280  0.9114E+00  0.1748E+03
     -0.177  0.2158E+01  0.1756E+03
     -0.074  0.1079E+01  0.1757E+03
      0.029  0.2158E+01  0.1759E+03
      0.132  0.0000E+00  0.1759E+03
      0.235  0.0000E+00  0.1759E+03
      0.338  0.1079E+01  0.1760E+03
      0.441  0.0000E+00  0.1760E+03
      0.544  0.0000E+00  0.1760E+03
      0.647  0.0000E+00  0.1760E+03
      0.750  0.0000E+00  0.1760E+03
      0.853  0.0000E+00  0.1760E+03
      0.956  0.0000E+00  0.1760E+03
      1.059  0.0000E+00  0.1760E+03
      1.162  0.0000E+00  0.1760E+03
      1.265  0.0000E+00  0.1760E+03
      1.368  0.0000E+00  0.1760E+03
      1.471  0.0000E+00  0.1760E+03
      1.574  0.0000E+00  0.1760E+03
      1.677  0.0000E+00  0.1760E+03
      1.780  0.0000E+00  0.1760E+03
      1.883  0.0000E+00  0.1760E+03
      1.986  0.0000E+00  0.1760E+03
      2.089  0.0000E+00  0.1760E+03
      2.192  0.0000E+00  0.1760E+03
      2.295  0.0000E+00  0.1760E+03
      2.398  0.9887E-02  0.1760E+03
      2.501  0.0000E+00  0.1761E+03
      2.603  0.1117E+00  0.1761E+03
      2.706  0.3991E+00  0.1766E+03
      2.809  0.1079E+01  0.1771E+03
      2.912  0.3518E+01  0.1775E+03
      3.015  0.4408E+01  0.1781E+03
      3.118  0.3697E+01  0.1787E+03
      3.221  0.1853E+01  0.1792E+03
      3.324  0.9691E+01  0.1802E+03
      3.427  0.2521E+01  0.1805E+03
      3.530  0.6162E+00  0.1807E+03
      3.633  0.9370E-04  0.1809E+03
      3.736  0.8632E+01  0.1818E+03
      3.839  0.1285E+02  0.1831E+03
      3.942  0.7539E+01  0.1841E+03
      4.045  0.1706E+02  0.1860E+03
      4.148  0.9973E+01  0.1875E+03
      4.251  0.1295E+02  0.1889E+03
      4.354  0.8632E+01  0.1898E+03
      4.457  0.4406E-01  0.1898E+03
      4.560  0.0000E+00  0.1900E+03
      4.663  0.8984E-15  0.1900E+03
      4.766  0.1079E+01  0.1901E+03
      4.869  0.4314E+01  0.1906E+03
      4.972  0.1232E-09  0.1906E+03
      5.075  0.1240E+02  0.1918E+03
      5.178  0.1499E+02  0.1934E+03
      5.281  0.8042E+01  0.1944E+03
      5.384  0.6474E+01  0.1964E+03
      5.487  0.2158E+01  0.1967E+03
      5.590  0.4481E+01  0.1971E+03
      5.693  0.5394E+01  0.1979E+03
      5.796  0.1135E+02  0.1991E+03
      5.899  0.1128E+02  0.2014E+03
      6.002  0.8740E+01  0.2026E+03
      6.105  0.1080E+02  0.2039E+03
      6.208  0.1785E+02  0.2059E+03
      6.311  0.1732E+02  0.2079E+03
      6.414  0.2442E+01  0.2084E+03
      6.517  0.3811E+01  0.2098E+03
      6.620  0.2498E+02  0.2138E+03
      6.723  0.2373E+02  0.2172E+03
      6.826  0.2530E+02  0.2203E+03
      6.929  0.4316E+01  0.2210E+03
      7.032  0.2080E+02  0.2231E+03
      7.135  0.1078E+01  0.2236E+03
      7.238  0.4316E+01  0.2240E+03
      7.341  0.0000E+00  0.2240E+03
      7.444  0.0000E+00  0.2240E+03
      7.547  0.0000E+00  0.2240E+03
      7.649  0.0000E+00  0.2240E+03
      7.752  0.0000E+00  0.2240E+03
      7.855  0.0000E+00  0.2240E+03
      7.958  0.0000E+00  0.2240E+03
      8.061  0.0000E+00  0.2240E+03
      8.164  0.0000E+00  0.2240E+03
      8.267  0.0000E+00  0.2240E+03
      8.370  0.0000E+00  0.2240E+03
      8.473  0.0000E+00  0.2240E+03
      8.576  0.0000E+00  0.2240E+03
      8.57631499    -22.31756107  301      0.36369293      1.00000000
    -22.318  0.0000E+00  0.0000E+00  0.0000E+00
    -22.215  0.0000E+00  0.0000E+00  0.0000E+00
    -22.112  0.0000E+00  0.0000E+00  0.0000E+00
    -22.009  0.0000E+00  0.0000E+00  0.0000E+00
    -21.906  0.0000E+00  0.0000E+00  0.0000E+00
    -21.803  0.0000E+00  0.0000E+00  0.0000E+00
    -21.700  0.0000E+00  0.0000E+00  0.0000E+00
    -21.597  0.0000E+00  0.0000E+00  0.0000E+00
    -21.494  0.0000E+00  0.0000E+00  0.0000E+00
    -21.391  0.0000E+00  0.0000E+00  0.0000E+00
    -21.288  0.0000E+00  0.0000E+00  0.0000E+00
    -21.185  0.0000E+00  0.0000E+00  0.0000E+00
    -21.082  0.0000E+00  0.0000E+00  0.0000E+00
    -20.979  0.0000E+00  0.0000E+00  0.0000E+00
    -20.876  0.1724E+02  0.6587E-05  0.8053E-05
    -20.773  0.0000E+00  0.0000E+00  0.0000E+00
    -20.670  0.0000E+00  0.0000E+00  0.0000E+00
    -20.567  0.0000E+00  0.0000E+00  0.0000E+00
    -20.464  0.0000E+00  0.0000E+00  0.0000E+00
    -20.361  0.0000E+00  0.0000E+00  0.0000E+00
    -20.258  0.0000E+00  0.0000E+00  0.0000E+00
    -20.155  0.0000E+00  0.0000E+00  0.0000E+00
    -20.052  0.0000E+00  0.0000E+00  0.0000E+00
    -19.949  0.0000E+00  0.0000E+00  0.0000E+00
    -19.846  0.0000E+00  0.0000E+00  0.0000E+00
    -19.743  0.0000E+00  0.0000E+00  0.0000E+00
    -19.640  0.0000E+00  0.0000E+00  0.0000E+00
    -19.537  0.0000E+00  0.0000E+00  0.0000E+00
    -19.434  0.0000E+00  0.0000E+00  0.0000E+00
    -19.331  0.0000E+00  0.0000E+00  0.0000E+00
    -19.228  0.0000E+00  0.0000E+00  0.0000E+00
    -19.125  0.0000E+00  0.0000E+00  0.0000E+00
    -19.022  0.0000E+00  0.0000E+00  0.0000E+00
    -18.919  0.0000E+00  0.0000E+00  0.0000E+00
    -18.816  0.0000E+00  0.0000E+00  0.0000E+00
    -18.713  0.0000E+00  0.0000E+00  0.0000E+00
    -18.610  0.0000E+00  0.0000E+00  0.0000E+00
    -18.507  0.0000E+00  0.0000E+00  0.0000E+00
    -18.404  0.0000E+00  0.0000E+00  0.0000E+00
    -18.301  0.0000E+00  0.0000E+00  0.0000E+00
    -18.198  0.0000E+00  0.0000E+00  0.0000E+00
    -18.095  0.0000E+00  0.0000E+00  0.0000E+00
    -17.992  0.0000E+00  0.0000E+00  0.0000E+00
    -17.889  0.0000E+00  0.0000E+00  0.0000E+00
    -17.786  0.0000E+00  0.0000E+00  0.0000E+00
    -17.683  0.0000E+00  0.0000E+00  0.0000E+00
    -17.581  0.0000E+00  0.0000E+00  0.0000E+00
    -17.478  0.0000E+00  0.0000E+00  0.0000E+00
    -17.375  0.0000E+00  0.0000E+00  0.0000E+00
    -17.272  0.0000E+00  0.0000E+00  0.0000E+00
    -17.169  0.0000E+00  0.0000E+00  0.0000E+00
    -17.066  0.0000E+00  0.0000E+00  0.0000E+00
    -16.963  0.0000E+00  0.0000E+00  0.0000E+00
    -16.860  0.0000E+00  0.0000E+00  0.0000E+00
    -16.757  0.0000E+00  0.0000E+00  0.0000E+00
    -16.654  0.0000E+00  0.0000E+00  0.0000E+00
    -16.551  0.3862E-04  0.1939E-04  0.3362E-05
    -16.448  0.2182E-04  0.3777E-04  0.5001E-05
    -16.345  0.3158E-04  0.1947E-04  0.2504E-05
    -16.242  0.0000E+00  0.0000E+00  0.0000E+00
    -16.139  0.0000E+00  0.0000E+00  0.0000E+00
    -16.036  0.0000E+00  0.0000E+00  0.0000E+00
    -15.933  0.0000E+00  0.0000E+00  0.0000E+00
    -15.830  0.0000E+00  0.0000E+00  0.0000E+00
    -15.727  0.0000E+00  0.0000E+00  0.0000E+00
    -15.624  0.0000E+00  0.0000E+00  0.0000E+00
    -15.521  0.0000E+00  0.0000E+00  0.0000E+00
    -15.418  0.0000E+00  0.0000E+00  0.0000E+00
    -15.315  0.0000E+00  0.0000E+00  0.0000E+00
    -15.212  0.0000E+00  0.0000E+00  0.0000E+00
    -15.109  0.0000E+00  0.0000E+00  0.0000E+00
    -15.006  0.0000E+00  0.0000E+00  0.0000E+00
    -14.903  0.0000E+00  0.0000E+00  0.0000E+00
    -14.800  0.0000E+00  0.0000E+00  0.0000E+00
    -14.697  0.0000E+00  0.0000E+00  0.0000E+00
    -14.594  0.0000E+00  0.0000E+00  0.0000E+00
    -14.491  0.0000E+00  0.0000E+00  0.0000E+00
    -14.388  0.5563E-09  0.9962E-12  0.3550E-11
    -14.285  0.1889E-02  0.4792E-03  0.1642E-04
    -14.182  0.1865E-02  0.3718E-02  0.8078E-04
    -14.079  0.1755E-02  0.5191E-02  0.3213E-03
    -13.976  0.2898E-03  0.1579E-02  0.1955E-03
    -13.873  0.1055E-02  0.3225E-02  0.3998E-03
    -13.770  0.7479E-03  0.2275E-02  0.3155E-03
    -13.667  0.0000E+00  0.0000E+00  0.0000E+00
    -13.564  0.0000E+00  0.0000E+00  0.0000E+00
    -13.461  0.0000E+00  0.0000E+00  0.0000E+00
    -13.358  0.0000E+00  0.0000E+00  0.0000E+00
    -13.255  0.0000E+00  0.0000E+00  0.0000E+00
    -13.152  0.0000E+00  0.0000E+00  0.0000E+00
    -13.049  0.0000E+00  0.0000E+00  0.0000E+00
    -12.946  0.0000E+00  0.0000E+00  0.0000E+00
    -12.843  0.0000E+00  0.0000E+00  0.0000E+00
    -12.740  0.0000E+00  0.0000E+00  0.0000E+00
    -12.637  0.0000E+00  0.0000E+00  0.0000E+00
    -12.535  0.0000E+00  0.0000E+00  0.0000E+00
    -12.432  0.0000E+00  0.0000E+00  0.0000E+00
    -12.329  0.0000E+00  0.0000E+00  0.0000E+00
    -12.226  0.0000E+00  0.0000E+00  0.0000E+00
    -12.123  0.0000E+00  0.0000E+00  0.0000E+00
    -12.020  0.0000E+00  0.0000E+00  0.0000E+00
    -11.917  0.0000E+00  0.0000E+00  0.0000E+00
    -11.814  0.0000E+00  0.0000E+00  0.0000E+00
    -11.711  0.0000E+00  0.0000E+00  0.0000E+00
    -11.608  0.0000E+00  0.0000E+00  0.0000E+00
    -11.505  0.0000E+00  0.0000E+00  0.0000E+00
    -11.402  0.0000E+00  0.0000E+00  0.0000E+00
    -11.299  0.0000E+00  0.0000E+00  0.0000E+00
    -11.196  0.0000E+00  0.0000E+00  0.0000E+00
    -11.093  0.0000E+00  0.0000E+00  0.0000E+00
    -10.990  0.0000E+00  0.0000E+00  0.0000E+00
    -10.887  0.0000E+00  0.0000E+00  0.0000E+00
    -10.784  0.0000E+00  0.0000E+00  0.0000E+00
    -10.681  0.0000E+00  0.0000E+00  0.0000E+00
    -10.578  0.0000E+00  0.0000E+00  0.0000E+00
    -10.475  0.0000E+00  0.0000E+00  0.0000E+00
    -10.372  0.0000E+00  0.0000E+00  0.0000E+00
    -10.269  0.0000E+00  0.0000E+00  0.0000E+00
    -10.166  0.0000E+00  0.0000E+00  0.0000E+00
    -10.063  0.0000E+00  0.0000E+00  0.0000E+00
     -9.960  0.0000E+00  0.0000E+00  0.0000E+00
     -9.857  0.0000E+00  0.0000E+00  0.0000E+00
     -9.754  0.0000E+00  0.0000E+00  0.0000E+00
     -9.651  0.0000E+00  0.0000E+00  0.0000E+00
     -9.548  0.0000E+00  0.0000E+00  0.0000E+00
     -9.445  0.0000E+00  0.0000E+00  0.0000E+00
     -9.342  0.0000E+00  0.0000E+00  0.0000E+00
     -9.239  0.0000E+00  0.0000E+00  0.0000E+00
     -9.136  0.0000E+00  0.0000E+00  0.0000E+00
     -9.033  0.0000E+00  0.0000E+00  0.0000E+00
     -8.930  0.0000E+00  0.0000E+00  0.0000E+00
     -8.827  0.0000E+00  0.0000E+00  0.0000E+00
     -8.724  0.0000E+00  0.0000E+00  0.0000E+00
     -8.621  0.0000E+00  0.0000E+00  0.0000E+00
     -8.518  0.0000E+00  0.0000E+00  0.0000E+00
     -8.415  0.0000E+00  0.0000E+00  0.0000E+00
     -8.312  0.0000E+00  0.0000E+00  0.0000E+00
     -8.209  0.1956E-20  0.3917E-08  0.7090E-09
     -8.106  0.1021E-16  0.2045E-04  0.3701E-05
     -8.003  0.7911E-07  0.7539E-03  0.4591E-05
     -7.900  0.9403E-18  0.2713E-02  0.1813E-04
     -7.797  0.6502E-06  0.1042E-01  0.3603E-04
     -7.694  0.1048E-15  0.3894E-12  0.5746E-15
     -7.591  0.1123E-04  0.4252E-01  0.4959E-04
     -7.489  0.3928E-12  0.4663E-01  0.6525E-05
     -7.386  0.2853E-04  0.5010E+00  0.3861E-04
     -7.283  0.6059E-04  0.2833E+02  0.6607E-04
     -7.180  0.3474E-04  0.3980E+01  0.3271E-04
     -7.077  0.2157E-04  0.1450E+00  0.1666E-04
     -6.974  0.3433E-04  0.3283E-01  0.1071E-04
     -6.871  0.1394E-04  0.5167E-02  0.1112E-04
     -6.768  0.0000E+00  0.0000E+00  0.0000E+00
     -6.665  0.5808E-06  0.9166E-04  0.1695E-06
     -6.562  0.0000E+00  0.0000E+00  0.0000E+00
     -6.459  0.0000E+00  0.0000E+00  0.0000E+00
     -6.356  0.0000E+00  0.0000E+00  0.0000E+00
     -6.253  0.0000E+00  0.0000E+00  0.0000E+00
     -6.150  0.0000E+00  0.0000E+00  0.0000E+00
     -6.047  0.0000E+00  0.0000E+00  0.0000E+00
     -5.944  0.0000E+00  0.0000E+00  0.0000E+00
     -5.841  0.0000E+00  0.0000E+00  0.0000E+00
     -5.738  0.0000E+00  0.0000E+00  0.0000E+00
     -5.635  0.0000E+00  0.0000E+00  0.0000E+00
     -5.532  0.0000E+00  0.0000E+00  0.0000E+00
     -5.429  0.0000E+00  0.0000E+00  0.0000E+00
     -5.326  0.0000E+00  0.0000E+00  0.0000E+00
     -5.223  0.0000E+00  0.0000E+00  0.0000E+00
     -5.120  0.0000E+00  0.0000E+00  0.0000E+00
     -5.017  0.0000E+00  0.0000E+00  0.0000E+00
     -4.914  0.0000E+00  0.0000E+00  0.0000E+00
     -4.811  0.0000E+00  0.0000E+00  0.0000E+00
     -4.708  0.0000E+00  0.0000E+00  0.0000E+00
     -4.605  0.0000E+00  0.0000E+00  0.0000E+00
     -4.502  0.0000E+00  0.0000E+00  0.0000E+00
     -4.399  0.0000E+00  0.0000E+00  0.0000E+00
     -4.296  0.0000E+00  0.0000E+00  0.0000E+00
     -4.193  0.0000E+00  0.0000E+00  0.0000E+00
     -4.090  0.0000E+00  0.0000E+00  0.0000E+00
     -3.987  0.0000E+00  0.0000E+00  0.0000E+00
     -3.884  0.0000E+00  0.0000E+00  0.0000E+00
     -3.781  0.0000E+00  0.0000E+00  0.0000E+00
     -3.678  0.0000E+00  0.0000E+00  0.0000E+00
     -3.575  0.0000E+00  0.0000E+00  0.0000E+00
     -3.472  0.0000E+00  0.0000E+00  0.0000E+00
     -3.369  0.5125E-05  0.3798E-03  0.2693E-05
     -3.266  0.8292E-04  0.5905E-02  0.3634E-03
     -3.163  0.1922E-03  0.1213E-01  0.1848E-02
     -3.060  0.1230E-03  0.1981E-01  0.1489E-02
     -2.957  0.3250E-03  0.1916E-01  0.1761E-02
     -2.854  0.9529E-06  0.7363E-03  0.4100E-03
     -2.751  0.4156E-03  0.1383E-01  0.9983E-03
     -2.648  0.1649E-16  0.2103E-02  0.2459E-03
     -2.545  0.0000E+00  0.0000E+00  0.0000E+00
     -2.443  0.4735E-03  0.2490E-01  0.1638E-02
     -2.340  0.2750E-02  0.2334E-01  0.2872E-02
     -2.237  0.3454E-02  0.6443E-02  0.1714E-02
     -2.134  0.7968E-03  0.2634E-01  0.8599E-03
     -2.031  0.1692E-01  0.1943E-01  0.3890E-02
     -1.928  0.7402E-02  0.4362E-01  0.3730E-02
     -1.825  0.5389E-04  0.1839E-01  0.9377E-04
     -1.722  0.1689E-02  0.1065E+00  0.1027E-01
     -1.619  0.1407E-02  0.4372E-01  0.5165E-02
     -1.516  0.2274E-02  0.5499E-01  0.1282E-01
     -1.413  0.4234E-02  0.5799E-01  0.1623E-01
     -1.310  0.3532E-02  0.9292E-01  0.1859E-01
     -1.207  0.2226E-02  0.6955E-01  0.9659E-02
     -1.104  0.1913E-02  0.7358E-01  0.1202E-01
     -1.001  0.5417E-03  0.1167E-01  0.5317E-02
     -0.898  0.5467E-03  0.1107E-01  0.1867E-02
     -0.795  0.6092E-03  0.1255E-01  0.3951E-02
     -0.692  0.2053E-03  0.4543E-02  0.5076E-03
     -0.589  0.4662E-03  0.5507E-02  0.2521E-02
     -0.486  0.2028E-03  0.3904E-02  0.4644E-03
     -0.383  0.0000E+00  0.0000E+00  0.0000E+00
     -0.280  0.6196E-16  0.4029E-04  0.1401E-03
     -0.177  0.1658E-15  0.6276E-03  0.1407E-03
     -0.074  0.2770E-05  0.1127E-03  0.1131E-03
      0.029  0.2134E-05  0.1235E-03  0.1605E-03
      0.132  0.0000E+00  0.0000E+00  0.0000E+00
      0.235  0.0000E+00  0.0000E+00  0.0000E+00
      0.338  0.1714E-16  0.2326E-04  0.6376E-04
      0.441  0.0000E+00  0.0000E+00  0.0000E+00
      0.544  0.0000E+00  0.0000E+00  0.0000E+00
      0.647  0.0000E+00  0.0000E+00  0.0000E+00
      0.750  0.0000E+00  0.0000E+00  0.0000E+00
      0.853  0.0000E+00  0.0000E+00  0.0000E+00
      0.956  0.0000E+00  0.0000E+00  0.0000E+00
      1.059  0.0000E+00  0.0000E+00  0.0000E+00
      1.162  0.0000E+00  0.0000E+00  0.0000E+00
      1.265  0.0000E+00  0.0000E+00  0.0000E+00
      1.368  0.0000E+00  0.0000E+00  0.0000E+00
      1.471  0.0000E+00  0.0000E+00  0.0000E+00
      1.574  0.0000E+00  0.0000E+00  0.0000E+00
      1.677  0.0000E+00  0.0000E+00  0.0000E+00
      1.780  0.0000E+00  0.0000E+00  0.0000E+00
      1.883  0.0000E+00  0.0000E+00  0.0000E+00
      1.986  0.0000E+00  0.0000E+00  0.0000E+00
      2.089  0.0000E+00  0.0000E+00  0.0000E+00
      2.192  0.0000E+00  0.0000E+00  0.0000E+00
      2.295  0.0000E+00  0.0000E+00  0.0000E+00
      2.398  0.5945E-07  0.8724E-06  0.3961E-05
      2.501  0.0000E+00  0.0000E+00  0.0000E+00
      2.603  0.2738E-05  0.1378E-04  0.3275E-04
      2.706  0.8069E-06  0.1145E-03  0.1023E-03
      2.809  0.5036E-15  0.2511E-04  0.1040E-02
      2.912  0.1434E-03  0.2388E-03  0.4920E-03
      3.015  0.1780E-03  0.4799E-03  0.1446E-02
      3.118  0.9775E-05  0.3370E-02  0.1109E-02
      3.221  0.8975E-04  0.1581E-03  0.2420E-03
      3.324  0.1023E-02  0.4823E-02  0.2890E-02
      3.427  0.6143E-03  0.3697E-03  0.1011E-02
      3.530  0.2144E-16  0.2113E-03  0.4904E-03
      3.633  0.1895E-12  0.1414E-07  0.1295E-06
      3.736  0.5456E-03  0.1865E-02  0.7311E-02
      3.839  0.1159E-02  0.2185E-02  0.9066E-02
      3.942  0.2633E-03  0.1068E-02  0.3898E-02
      4.045  0.1083E-02  0.5083E-02  0.9326E-02
      4.148  0.2966E-03  0.2414E-02  0.4153E-02
      4.251  0.9929E-03  0.1769E-02  0.4388E-02
      4.354  0.1202E-02  0.2840E-02  0.4007E-02
      4.457  0.2393E-04  0.1361E-04  0.2805E-04
      4.560  0.0000E+00  0.0000E+00  0.0000E+00
      4.663  0.9840E-17  0.9236E-20  0.1063E-17
      4.766  0.1182E-01  0.1109E-04  0.1277E-02
      4.869  0.1393E-12  0.3240E-03  0.6420E-02
      4.972  0.9785E-24  0.4977E-13  0.1449E-12
      5.075  0.4795E-03  0.3182E-02  0.1426E-01
      5.178  0.3350E-01  0.1182E-01  0.1525E-01
      5.281  0.6917E-02  0.3654E-02  0.8768E-02
      5.384  0.1410E-02  0.8196E-03  0.6690E-02
      5.487  0.1227E-02  0.1443E-03  0.2945E-02
      5.590  0.2928E-05  0.2104E-03  0.4618E-02
      5.693  0.8050E-02  0.1654E-02  0.4610E-01
      5.796  0.2077E-01  0.3047E-02  0.5543E-01
      5.899  0.5990E-01  0.1297E-01  0.1256E+00
      6.002  0.6175E-02  0.5214E-02  0.8379E-01
      6.105  0.2428E-01  0.8892E-02  0.2801E+00
      6.208  0.8969E-01  0.4502E-01  0.2534E+00
      6.311  0.3617E-01  0.1992E-01  0.4259E+00
      6.414  0.1045E-02  0.8239E-03  0.4415E-01
      6.517  0.3638E-02  0.5743E-02  0.1131E+00
      6.620  0.3627E-01  0.5607E-01  0.6062E+00
      6.723  0.7159E-02  0.3803E-01  0.7087E+00
      6.826  0.9759E-02  0.3103E-01  0.9792E+00
      6.929  0.1280E-03  0.3420E-02  0.2247E+00
      7.032  0.2047E-01  0.6064E-01  0.6398E+00
      7.135  0.4102E-04  0.8710E-02  0.1513E-01
      7.238  0.8384E-02  0.3554E-01  0.7785E-01
      7.341  0.0000E+00  0.0000E+00  0.0000E+00
      7.444  0.0000E+00  0.0000E+00  0.0000E+00
      7.547  0.0000E+00  0.0000E+00  0.0000E+00
      7.649  0.0000E+00  0.0000E+00  0.0000E+00
      7.752  0.0000E+00  0.0000E+00  0.0000E+00
      7.855  0.0000E+00  0.0000E+00  0.0000E+00
      7.958  0.0000E+00  0.0000E+00  0.0000E+00
      8.061  0.0000E+00  0.0000E+00  0.0000E+00
      8.164  0.0000E+00  0.0000E+00  0.0000E+00
      8.267  0.0000E+00  0.0000E+00  0.0000E+00
      8.370  0.0000E+00  0.0000E+00  0.0000E+00
      8.473  0.0000E+00  0.0000E+00  0.0000E+00
      8.576  0.0000E+00  0.0000E+00  0.0000E+00
      8.57631499    -22.31756107  301      0.36369293      1.00000000
    -22.318  0.0000E+00  0.0000E+00  0.0000E+00
    -22.215  0.0000E+00  0.0000E+00  0.0000E+00
    -22.112  0.0000E+00  0.0000E+00  0.0000E+00
    -22.009  0.0000E+00  0.0000E+00  0.0000E+00
    -21.906  0.0000E+00  0.0000E+00  0.0000E+00
    -21.803  0.0000E+00  0.0000E+00  0.0000E+00
    -21.700  0.0000E+00  0.0000E+00  0.0000E+00
    -21.597  0.0000E+00  0.0000E+00  0.0000E+00
    -21.494  0.0000E+00  0.0000E+00  0.0000E+00
    -21.391  0.0000E+00  0.0000E+00  0.0000E+00
    -21.288  0.0000E+00  0.0000E+00  0.0000E+00
    -21.185  0.0000E+00  0.0000E+00  0.0000E+00
    -21.082  0.0000E+00  0.0000E+00  0.0000E+00
    -20.979  0.0000E+00  0.0000E+00  0.0000E+00
    -20.876  0.1724E+02  0.6591E-05  0.8068E-05
    -20.773  0.0000E+00  0.0000E+00  0.0000E+00
    -20.670  0.0000E+00  0.0000E+00  0.0000E+00
    -20.567  0.0000E+00  0.0000E+00  0.0000E+00
    -20.464  0.0000E+00  0.0000E+00  0.0000E+00
    -20.361  0.0000E+00  0.0000E+00  0.0000E+00
    -20.258  0.0000E+00  0.0000E+00  0.0000E+00
    -20.155  0.0000E+00  0.0000E+00  0.0000E+00
    -20.052  0.0000E+00  0.0000E+00  0.0000E+00
    -19.949  0.0000E+00  0.0000E+00  0.0000E+00
    -19.846  0.0000E+00  0.0000E+00  0.0000E+00
    -19.743  0.0000E+00  0.0000E+00  0.0000E+00
    -19.640  0.0000E+00  0.0000E+00  0.0000E+00
    -19.537  0.0000E+00  0.0000E+00  0.0000E+00
    -19.434  0.0000E+00  0.0000E+00  0.0000E+00
    -19.331  0.0000E+00  0.0000E+00  0.0000E+00
    -19.228  0.0000E+00  0.0000E+00  0.0000E+00
    -19.125  0.0000E+00  0.0000E+00  0.0000E+00
    -19.022  0.0000E+00  0.0000E+00  0.0000E+00
    -18.919  0.0000E+00  0.0000E+00  0.0000E+00
    -18.816  0.0000E+00  0.0000E+00  0.0000E+00
    -18.713  0.0000E+00  0.0000E+00  0.0000E+00
    -18.610  0.0000E+00  0.0000E+00  0.0000E+00
    -18.507  0.0000E+00  0.0000E+00  0.0000E+00
    -18.404  0.0000E+00  0.0000E+00  0.0000E+00
    -18.301  0.0000E+00  0.0000E+00  0.0000E+00
    -18.198  0.0000E+00  0.0000E+00  0.0000E+00
    -18.095  0.0000E+00  0.0000E+00  0.0000E+00
    -17.992  0.0000E+00  0.0000E+00  0.0000E+00
    -17.889  0.0000E+00  0.0000E+00  0.0000E+00
    -17.786  0.0000E+00  0.0000E+00  0.0000E+00
    -17.683  0.0000E+00  0.0000E+00  0.0000E+00
    -17.581  0.0000E+00  0.0000E+00  0.0000E+00
    -17.478  0.0000E+00  0.0000E+00  0.0000E+00
    -17.375  0.0000E+00  0.0000E+00  0.0000E+00
    -17.272  0.0000E+00  0.0000E+00  0.0000E+00
    -17.169  0.0000E+00  0.0000E+00  0.0000E+00
    -17.066  0.0000E+00  0.0000E+00  0.0000E+00
    -16.963  0.0000E+00  0.0000E+00  0.0000E+00
    -16.860  0.0000E+00  0.0000E+00  0.0000E+00
    -16.757  0.0000E+00  0.0000E+00  0.0000E+00
    -16.654  0.0000E+00  0.0000E+00  0.0000E+00
    -16.551  0.3090E-04  0.1297E-04  0.1666E-05
    -16.448  0.2363E-04  0.5198E-04  0.8550E-05
    -16.345  0.3107E-04  0.1932E-04  0.2489E-05
    -16.242  0.0000E+00  0.0000E+00  0.0000E+00
    -16.139  0.0000E+00  0.0000E+00  0.0000E+00
    -16.036  0.0000E+00  0.0000E+00  0.0000E+00
    -15.933  0.0000E+00  0.0000E+00  0.0000E+00
    -15.830  0.0000E+00  0.0000E+00  0.0000E+00
    -15.727  0.0000E+00  0.0000E+00  0.0000E+00
    -15.624  0.0000E+00  0.0000E+00  0.0000E+00
    -15.521  0.0000E+00  0.0000E+00  0.0000E+00
    -15.418  0.0000E+00  0.0000E+00  0.0000E+00
    -15.315  0.0000E+00  0.0000E+00  0.0000E+00
    -15.212  0.0000E+00  0.0000E+00  0.0000E+00
    -15.109  0.0000E+00  0.0000E+00  0.0000E+00
    -15.006  0.0000E+00  0.0000E+00  0.0000E+00
    -14.903  0.0000E+00  0.0000E+00  0.0000E+00
    -14.800  0.0000E+00  0.0000E+00  0.0000E+00
    -14.697  0.0000E+00  0.0000E+00  0.0000E+00
    -14.594  0.0000E+00  0.0000E+00  0.0000E+00
    -14.491  0.0000E+00  0.0000E+00  0.0000E+00
    -14.388  0.5563E-09  0.9962E-12  0.3550E-11
    -14.285  0.1889E-02  0.4792E-03  0.1642E-04
    -14.182  0.2858E-02  0.3315E-02  0.8685E-04
    -14.079  0.4907E-03  0.4882E-02  0.2499E-03
    -13.976  0.3069E-03  0.1557E-02  0.3474E-03
    -13.873  0.1338E-02  0.3562E-02  0.3232E-03
    -13.770  0.1110E-02  0.1878E-02  0.2895E-03
    -13.667  0.0000E+00  0.0000E+00  0.0000E+00
    -13.564  0.0000E+00  0.0000E+00  0.0000E+00
    -13.461  0.0000E+00  0.0000E+00  0.0000E+00
    -13.358  0.0000E+00  0.0000E+00  0.0000E+00
    -13.255  0.0000E+00  0.0000E+00  0.0000E+00
    -13.152  0.0000E+00  0.0000E+00  0.0000E+00