 vasp.5.4.4.18Apr17-6-g9f103f2a35 (build Jun 29 2021 14:23:36) complex           
 executed on tx2_gcc-7.3_libsci-1 date 2021.09.21  08:28:56
 running on   64 total cores
 distrk:  each k-point on   64 cores,    1 groups
 distr:  one band on NCORES_PER_BAND=   8 cores,    8 groups


--------------------------------------------------------------------------------------------------------


 INCAR:
 POTCAR:    PAW_PBE Cs_sv 08Apr2002               
 POTCAR:    PAW_PBE Pb_d 06Sep2000                
 POTCAR:    PAW_PBE Br 06Sep2000                  
 POTCAR:    PAW_PBE Cs_sv 08Apr2002               
   SHA256 =  c1463496f0f6037ed62c6012a8013a89ee9ad6ffb38599dcd6c079e7ed31779b Cs
   COPYR  = (c) Copyright 08Apr2002 Georg Kresse                                
   COPYR  = This file is part of the software VASP. Any use, copying, and all ot
   COPYR  = If you do not have a valid VASP license, you may not use, copy or di
   VRHFIN =Cs: 5s5p6s                                                           
   LEXCH  = PE                                                                  
   EATOM  =   555.6835 eV,   40.8416 Ry                                         
                                                                                
   TITEL  = PAW_PBE Cs_sv 08Apr2002                                             
   LULTRA =        F    use ultrasoft PP ?                                      
   IUNSCR =        1    unscreen: 0-lin 1-nonlin 2-no                           
   RPACOR =    2.200    partial core radius                                     
   POMASS =  132.900; ZVAL   =    9.000    mass and valenz                      
   RCORE  =    2.500    outmost cutoff radius                                   
   RWIGS  =    2.500; RWIGS  =    1.323    wigner-seitz radius (au A)           
   ENMAX  =  220.318; ENMIN  =  165.238 eV                                      
   RCLOC  =    2.207    cutoff for local pot                                    
   LCOR   =        T    correct aug charges                                     
   LPAW   =        T    paw PP                                                  
   EAUG   =  407.933                                                            
   DEXC   =    0.000                                                            
   RMAX   =    2.554    core radius for proj-oper                               
   RAUG   =    1.300    factor for augmentation sphere                          
   RDEP   =    2.590    radius for radial grids                                 
   RDEPT  =    2.117    core radius for aug-charge                              
                                                                                
   Atomic configuration                                                         
   13 entries                                                                   
     n  l   j            E        occ.                                          
     1  0  0.50    -35790.1377   2.0000                                         
     2  0  0.50     -5613.6201   2.0000                                         
     2  1  1.50     -5035.0101   6.0000                                         
     3  0  0.50     -1167.0767   2.0000                                         
     3  1  1.50      -980.9754   6.0000                                         
     3  2  2.50      -708.0703  10.0000                                         
     4  0  0.50      -220.2386   2.0000                                         
     4  1  1.50      -160.7596   6.0000                                         
     4  2  2.50       -74.2354  10.0000                                         
     5  0  0.50       -26.7287   2.0000                                         
     6  0  0.50        -2.0862   1.0000                                         
     5  1  1.50       -13.5159   6.0000                                         
     5  2  2.50        -0.4136   0.0000                                         
   Description                                                                  
     l       E           TYP  RCUT    TYP  RCUT                                 
     0    -26.7287425     23  1.900                                             
     0     -2.0862306     23  1.900                                             
     1    -13.5158719     23  2.500                                             
     1     -2.7211652     23  2.500                                             
     2     -0.4136171     23  2.500                                             
  local pseudopotential read in
  partial core-charges read in
  partial kinetic energy density read in
  atomic valenz-charges read in
  non local Contribution for L=           0  read in
    real space projection operators read in
  non local Contribution for L=           0  read in
    real space projection operators read in
  non local Contribution for L=           1  read in
    real space projection operators read in
  non local Contribution for L=           1  read in
    real space projection operators read in
  non local Contribution for L=           2  read in
    real space projection operators read in
    PAW grid and wavefunctions read in

   number of l-projection  operators is LMAX  =           5
   number of lm-projection operators is LMMAX =          13

 POTCAR:    PAW_PBE Pb_d 06Sep2000                
   SHA256 =  fb885b08f0fba73a15f6a6b0e39bd200c13ec96ef97cf3ecd8e63bade5137abd Pb
   COPYR  = (c) Copyright 06Sep2000 Georg Kresse                                
   COPYR  = This file is part of the software VASP. Any use, copying, and all ot
   COPYR  = If you do not have a valid VASP license, you may not use, copy or di
   VRHFIN =Pb:                                                                  
   LEXCH  = PE                                                                  
   EATOM  =  1661.6185 eV,  122.1255 Ry                                         
                                                                                
   TITEL  = PAW_PBE Pb_d 06Sep2000                                              
   LULTRA =        F    use ultrasoft PP ?                                      
   IUNSCR =        1    unscreen: 0-lin 1-nonlin 2-no                           
   RPACOR =    2.200    partial core radius                                     
   POMASS =  207.200; ZVAL   =   14.000    mass and valenz                      
   RCORE  =    2.500    outmost cutoff radius                                   
   RWIGS  =    3.260; RWIGS  =    1.725    wigner-seitz radius (au A)           
   ENMAX  =  237.835; ENMIN  =  178.376 eV                                      
   ICORE  =        3    local potential                                         
   LCOR   =        T    correct aug charges                                     
   LPAW   =        T    paw PP                                                  
   EAUG   =  391.914                                                            
   DEXC   =    0.000                                                            
   RMAX   =    2.565    core radius for proj-oper                               
   RAUG   =    1.300    factor for augmentation sphere                          
   RDEP   =    2.643    radius for radial grids                                 
   RDEPT  =    2.092    core radius for aug-charge                              
                                                                                
   Atomic configuration                                                         
   16 entries                                                                   
     n  l   j            E        occ.                                          
     1  0  0.50    -88091.8466   2.0000                                         
     2  0  0.50    -15753.4197   2.0000                                         
     2  1  1.50    -13508.1797   6.0000                                         
     3  0  0.50     -3781.7194   2.0000                                         
     3  1  1.50     -3138.2529   6.0000                                         
     3  2  2.50     -2483.2977  10.0000                                         
     4  0  0.50      -856.2895   2.0000                                         
     4  1  1.50      -645.4942   6.0000                                         
     4  2  2.50      -401.8768  10.0000                                         
     4  3  3.50      -132.9059  14.0000                                         
     5  0  0.50      -144.0950   2.0000                                         
     5  1  1.50       -85.7879   6.0000                                         
     5  2  2.50       -21.1769  10.0000                                         
     6  0  0.50       -12.0372   2.0000                                         
     6  1  1.50        -3.4971   2.0000                                         
     5  3  2.50        -2.7212   0.0000                                         
   Description                                                                  
     l       E           TYP  RCUT    TYP  RCUT                                 
     2    -21.1768523     23  2.500                                             
     2      1.3605826     23  2.500                                             
     0    -12.0371562     23  2.500                                             
     0     13.6058260     23  2.500                                             
     1     -3.4971339     23  2.500                                             
     1     13.6058260     23  2.500                                             
     3     -1.3605826      7  2.500                                             
  local pseudopotential read in
  partial core-charges read in
  partial kinetic energy density read in
  atomic valenz-charges read in
  non local Contribution for L=           2  read in
    real space projection operators read in
  non local Contribution for L=           2  read in
    real space projection operators read in
  non local Contribution for L=           0  read in
    real space projection operators read in
  non local Contribution for L=           0  read in
    real space projection operators read in
  non local Contribution for L=           1  read in
    real space projection operators read in
  non local Contribution for L=           1  read in
    real space projection operators read in
    PAW grid and wavefunctions read in

   number of l-projection  operators is LMAX  =           6
   number of lm-projection operators is LMMAX =          18

 POTCAR:    PAW_PBE Br 06Sep2000                  
   SHA256 =  96a73d2954943bbee26f4990d676cc6c3bf44b8dd2c75cd4b3b825d8403f0103 Br
   COPYR  = (c) Copyright 06Sep2000 Georg Kresse                                
   COPYR  = This file is part of the software VASP. Any use, copying, and all ot
   COPYR  = If you do not have a valid VASP license, you may not use, copy or di
   VRHFIN =Br: s2p5                                                             
   LEXCH  = PE                                                                  
   EATOM  =   368.4488 eV,   27.0802 Ry                                         
                                                                                
   TITEL  = PAW_PBE Br 06Sep2000                                                
   LULTRA =        F    use ultrasoft PP ?                                      
   IUNSCR =        1    unscreen: 0-lin 1-nonlin 2-no                           
   RPACOR =    1.900    partial core radius                                     
   POMASS =   79.904; ZVAL   =    7.000    mass and valenz                      
   RCORE  =    2.100    outmost cutoff radius                                   
   RWIGS  =    2.200; RWIGS  =    1.164    wigner-seitz radius (au A)           
   ENMAX  =  216.285; ENMIN  =  162.214 eV                                      
   ICORE  =        3    local potential                                         
   LCOR   =        T    correct aug charges                                     
   LPAW   =        T    paw PP                                                  
   EAUG   =  503.852                                                            
   DEXC   =    0.000                                                            
   RMAX   =    2.139    core radius for proj-oper                               
   RAUG   =    1.300    factor for augmentation sphere                          
   RDEP   =    2.186    radius for radial grids                                 
   RDEPT  =    1.890    core radius for aug-charge                              
                                                                                
   Atomic configuration                                                         
   10 entries                                                                   
     n  l   j            E        occ.                                          
     1  0  0.50    -13316.2796   2.0000                                         
     2  0  0.50     -1732.8239   2.0000                                         
     2  1  1.50     -1528.2193   6.0000                                         
     3  0  0.50      -238.0460   2.0000                                         
     3  1  1.50      -173.4609   6.0000                                         
     3  2  2.50       -66.7132  10.0000                                         
     4  0  0.50       -20.1334   2.0000                                         
     4  1  0.50        -7.8591   5.0000                                         
     4  2  2.50        -8.1635   0.0000                                         
     4  3  2.50        -8.1635   0.0000                                         
   Description                                                                  
     l       E           TYP  RCUT    TYP  RCUT                                 
     0    -20.1333652     23  2.100                                             
     0    -21.4939478     23  2.100                                             
     1     -7.8591052     23  2.100                                             
     1     -3.1608434     23  2.100                                             
     2     -8.1634956     23  2.100                                             
     3     -1.3605826      7  2.100                                             
  local pseudopotential read in
  partial core-charges read in
  partial kinetic energy density read in
  atomic valenz-charges read in
  non local Contribution for L=           0  read in
    real space projection operators read in
  non local Contribution for L=           0  read in
    real space projection operators read in
  non local Contribution for L=           1  read in
    real space projection operators read in
  non local Contribution for L=           1  read in
    real space projection operators read in
  non local Contribution for L=           2  read in
    real space projection operators read in
    PAW grid and wavefunctions read in

   number of l-projection  operators is LMAX  =           5
   number of lm-projection operators is LMMAX =          13

 Optimization of the real space projectors (new method)

 maximal supplied QI-value         = 15.12
 optimisation between [QCUT,QGAM] = [  8.77, 17.69] = [ 21.53, 87.61] Ry 
 Optimized for a Real-space Cutoff    1.85 Angstroem

   l    n(q)    QCUT    max X(q) W(low)/X(q) W(high)/X(q)  e(spline) 
   0     10     8.768    25.322    0.81E-04    0.51E-04    0.48E-06
   0     10     8.768    99.187    0.78E-04    0.50E-04    0.47E-06
   1      9     8.768    11.761    0.21E-03    0.20E-03    0.37E-06
   1      9     8.768     8.275    0.24E-03    0.22E-03    0.41E-06
   2      9     8.768     3.829    0.23E-04    0.15E-03    0.18E-06
 Optimization of the real space projectors (new method)

 maximal supplied QI-value         = 15.12
 optimisation between [QCUT,QGAM] = [  8.77, 17.69] = [ 21.53, 87.61] Ry 
 Optimized for a Real-space Cutoff    1.59 Angstroem

   l    n(q)    QCUT    max X(q) W(low)/X(q) W(high)/X(q)  e(spline) 
   2      7     8.768     3.846    0.48E-04    0.11E-03    0.11E-06
   2      7     8.768     8.593    0.20E-03    0.22E-04    0.24E-06
   0      8     8.768    20.082    0.68E-04    0.88E-04    0.41E-07
   0      8     8.768     8.597    0.89E-04    0.13E-03    0.59E-07
   1      8     8.768    33.223    0.15E-03    0.53E-04    0.87E-07
   1      8     8.768    15.899    0.14E-03    0.44E-04    0.78E-07
 Optimization of the real space projectors (new method)

 maximal supplied QI-value         = 17.95
 optimisation between [QCUT,QGAM] = [  8.80, 17.59] = [ 21.67, 86.68] Ry 
 Optimized for a Real-space Cutoff    1.59 Angstroem

   l    n(q)    QCUT    max X(q) W(low)/X(q) W(high)/X(q)  e(spline) 
   0      8     8.797   175.082    0.82E-04    0.14E-03    0.89E-07
   0      8     8.797   174.004    0.79E-04    0.14E-03    0.86E-07
   1      8     8.797    54.315    0.16E-03    0.14E-04    0.30E-06
   1      8     8.797    42.441    0.16E-03    0.14E-04    0.30E-06
   2      7     8.797     3.596    0.92E-04    0.15E-03    0.85E-07
  PAW_PBE Cs_sv 08Apr2002               :
 energy of atom  1       EATOM= -555.6835
 kinetic energy error for atom=    0.0069 (will be added to EATOM!!)
  PAW_PBE Pb_d 06Sep2000                :
 energy of atom  2       EATOM=-1661.6185
 kinetic energy error for atom=    0.0498 (will be added to EATOM!!)
  PAW_PBE Br 06Sep2000                  :
 energy of atom  3       EATOM= -368.4488
 kinetic energy error for atom=    0.0072 (will be added to EATOM!!)


 POSCAR: Cs4 Pb4 Br12                            
  positions in direct lattice
  velocities in cartesian coordinates

 METAGGA = SCAN     LMAXTAU =  6    LMIXTAU =  F

 exchange correlation table for  LEXCH =        8
   RHO(1)=    0.500       N(1)  =     2000
   RHO(2)=  100.500       N(2)  =     4000

 VTST: version 3.2, (02/03/18)

 CHAIN: initializing optimizer
 
 OPT: Using VASP Conjugate-Gradient optimizer
 CHAIN: Read ICHAIN            0

 POSCAR: Cs4 Pb4 Br12                            
  positions in direct lattice
  velocities in cartesian coordinates



--------------------------------------------------------------------------------------------------------


 ion  position               nearest neighbor table
   1  0.052  0.250  0.485-
   2  0.448  0.750  0.985-
   3  0.552  0.250  0.015-
   4  0.948  0.750  0.515-
   5  0.000  0.000  0.000-  15 2.98  18 2.98  16 2.99  17 2.99  10 3.10  11 3.10
   6  0.500  0.000  0.500-  17 2.98  16 2.98  15 2.99  18 2.99   9 3.10  12 3.10
   7  0.500  0.500  0.500-  13 2.98  19 2.98  14 2.99  20 2.99   9 3.10  12 3.10
   8  0.000  0.500  0.000-  14 2.98  20 2.98  19 2.99  13 2.99  10 3.10  11 3.10
   9  0.501  0.750  0.468-   6 3.10   7 3.10
  10  0.999  0.250  0.968-   5 3.10   8 3.10
  11  0.001  0.750  0.032-   5 3.10   8 3.10
  12  0.499  0.250  0.532-   6 3.10   7 3.10
  13  0.313  0.479  0.181-   7 2.98   8 2.99
  14  0.187  0.521  0.681-   8 2.98   7 2.99
  15  0.813  0.021  0.319-   5 2.98   6 2.99
  16  0.687  0.979  0.819-   6 2.98   5 2.99
  17  0.313  0.021  0.181-   6 2.98   5 2.99
  18  0.187  0.979  0.681-   5 2.98   6 2.99
  19  0.687  0.521  0.819-   7 2.98   8 2.99
  20  0.813  0.479  0.319-   8 2.98   7 2.99

  LATTYP: Found a simple orthorhombic cell.
 ALAT       =     7.9408418496
 B/A-ratio  =     1.0463564399
 C/A-ratio  =     1.5555023520
  
  Lattice vectors:
  
 A1 = (   0.0000000000,   0.0000000000,   7.9408418496)
 A2 = (  -8.3089510078,   0.0000000000,   0.0000000000)
 A3 = (   0.0000000000, -12.3519981739,   0.0000000000)


Analysis of symmetry for initial positions (statically):
=====================================================================
 Subroutine PRICEL returns:
 Original cell was already a primitive cell.
 

 Routine SETGRP: Setting up the symmetry group for a 
 simple orthorhombic supercell.


 Subroutine GETGRP returns: Found  8 space group operations
 (whereof  2 operations were pure point group operations)
 out of a pool of  8 trial point group operations.


The static configuration has the point symmetry S_2 .
 The point group associated with its full space group is D_2h.


Analysis of symmetry for dynamics (positions and initial velocities):
=====================================================================
 Subroutine PRICEL returns:
 Original cell was already a primitive cell.
 

 Routine SETGRP: Setting up the symmetry group for a 
 simple orthorhombic supercell.


 Subroutine GETGRP returns: Found  8 space group operations
 (whereof  2 operations were pure point group operations)
 out of a pool of  8 trial point group operations.


The dynamic configuration has the point symmetry S_2 .
 The point group associated with its full space group is D_2h.


 Subroutine INISYM returns: Found  8 space group operations
 (whereof  2 operations are pure point group operations),
 and found     1 'primitive' translations



 KPOINTS: 1x1x1                                   

Automatic generation of k-mesh.
Space group operators:
 irot       det(A)        alpha          n_x          n_y          n_z        tau_x        tau_y        tau_z
    1     1.000000     0.000000     1.000000     0.000000     0.000000     0.000000     0.000000     0.000000
    2    -1.000000     0.000000     1.000000     0.000000     0.000000     0.000000     0.000000     0.000000
    3     1.000000   180.000000     0.000000     1.000000     0.000000     0.000000    -0.500000     0.000000
    4    -1.000000   180.000000     0.000000     1.000000     0.000000     0.000000    -0.500000     0.000000
    5     1.000000   180.000000     1.000000     0.000000     0.000000    -0.500000    -0.500000     0.500000
    6    -1.000000   180.000000     1.000000     0.000000     0.000000    -0.500000    -0.500000     0.500000
    7     1.000000   180.000000     0.000000     0.000000     1.000000    -0.500000     0.000000     0.500000
    8    -1.000000   180.000000     0.000000     0.000000     1.000000    -0.500000     0.000000     0.500000
 
 Subroutine IBZKPT returns following result:
 ===========================================
 
 Found      8 irreducible k-points:
 
 Following reciprocal coordinates:
            Coordinates               Weight
  0.000000  0.000000  0.000000      1.000000
  0.333333  0.000000  0.000000      2.000000
  0.000000  0.500000  0.000000      1.000000
  0.333333  0.500000  0.000000      2.000000
  0.000000  0.000000  0.333333      2.000000
  0.333333  0.000000  0.333333      4.000000
  0.000000  0.500000  0.333333      2.000000
  0.333333  0.500000  0.333333      4.000000
 
 Following cartesian coordinates:
            Coordinates               Weight
  0.000000  0.000000  0.000000      1.000000
  0.040117  0.000000  0.000000      2.000000
  0.000000  0.040479  0.000000      1.000000
  0.040117  0.040479  0.000000      2.000000
  0.000000  0.000000  0.041977      2.000000
  0.040117  0.000000  0.041977      4.000000
  0.000000  0.040479  0.041977      2.000000
  0.040117  0.040479  0.041977      4.000000
 


--------------------------------------------------------------------------------------------------------




 Dimension of arrays:
   k-points           NKPTS =      8   k-points in BZ     NKDIM =      8   number of bands    NBANDS=    112
   number of dos      NEDOS =    301   number of ions     NIONS =     20
   non local maximal  LDIM  =      6   non local SUM 2l+1 LMDIM =     18
   total plane-waves  NPLWV = 161280
   max r-space proj   IRMAX =   5281   max aug-charges    IRDMAX=  84242
   dimension x,y,z NGX =    48 NGY =   70 NGZ =   48
   dimension x,y,z NGXF=    96 NGYF=  140 NGZF=   96
   support grid    NGXF=   192 NGYF=  280 NGZF=  192
   ions per type =               4   4  12
   NGX,Y,Z   is equivalent  to a cutoff of   9.60,  9.42, 10.05 a.u.
   NGXF,Y,Z  is equivalent  to a cutoff of  19.21, 18.84, 20.10 a.u.

 SYSTEM =  CsPbBr3 cubic bulk                      
 POSCAR =  Cs4 Pb4 Br12                            

 Startparameter for this run:
   NWRITE =      2    write-flag & timer
   PREC   = accura    normal or accurate (medium, high low for compatibility)
   ISTART =      0    job   : 0-new  1-cont  2-samecut
   ICHARG =      2    charge: 1-file 2-atom 10-const
   ISPIN  =      1    spin polarized calculation?
   LNONCOLLINEAR =      F non collinear calculations
   LSORBIT =      F    spin-orbit coupling
   INIWAV =      1    electr: 0-lowe 1-rand  2-diag
   LASPH  =      T    aspherical Exc in radial PAW
   METAGGA=      F    non-selfconsistent MetaGGA calc.

 Electronic Relaxation 1
   ENCUT  =  300.0 eV  22.05 Ry    4.70 a.u.  11.73 17.44 11.21*2*pi/ulx,y,z
   ENINI  =  300.0     initial cutoff
   ENAUG  =  503.9 eV  augmentation charge cutoff
   NELM   =    200;   NELMIN=  2; NELMDL= -5     # of ELM steps 
   EDIFF  = 0.1E-05   stopping-criterion for ELM
   LREAL  =      T    real-space projection
   NLSPLINE    = F    spline interpolate recip. space projectors
   LCOMPAT=      F    compatible to vasp.4.4
   GGA_COMPAT  = T    GGA compatible to vasp.4.4-vasp.4.6
   LMAXPAW     = -100 max onsite density
   LMAXMIX     =    2 max onsite mixed and CHGCAR
   VOSKOWN=      0    Vosko Wilk Nusair interpolation
   ROPT   =   -0.00025  -0.00025  -0.00025
 Ionic relaxation
   EDIFFG = -.1E-01   stopping-criterion for IOM
   NSW    =      0    number of steps for IOM
   NBLOCK =      1;   KBLOCK =      1    inner block; outer block 
   IBRION =     -1    ionic relax: 0-MD 1-quasi-New 2-CG
   NFREE  =      1    steps in history (QN), initial steepest desc. (CG)
   ISIF   =      3    stress and relaxation
   IWAVPR =     10    prediction:  0-non 1-charg 2-wave 3-comb
   ISYM   =      2    0-nonsym 1-usesym 2-fastsym
   LCORR  =      T    Harris-Foulkes like correction to forces

   POTIM  = 0.5000    time-step for ionic-motion
   TEIN   =    0.0    initial temperature
   TEBEG  =    0.0;   TEEND  =   0.0 temperature during run
   SMASS  =  -3.00    Nose mass-parameter (am)
   estimated Nose-frequenzy (Omega)   =  0.10E-29 period in steps =****** mass=  -0.158E-26a.u.
   SCALEE = 1.0000    scale energy and forces
   NPACO  =    256;   APACO  = 16.0  distance and # of slots for P.C.
   PSTRESS=    0.0 pullay stress

  Mass of Ions in am
   POMASS = 132.90207.20 79.90
  Ionic Valenz
   ZVAL   =   9.00 14.00  7.00
  Atomic Wigner-Seitz radii
   RWIGS  =  -1.00 -1.00 -1.00
  virtual crystal weights 
   VCA    =   1.00  1.00  1.00
   NELECT =     176.0000    total number of electrons
   NUPDOWN=      -1.0000    fix difference up-down

 DOS related values:
   EMIN   =  10.00;   EMAX   =-10.00  energy-range for DOS
   EFERMI =   0.00
   ISMEAR =     0;   SIGMA  =   0.01  broadening in eV -4-tet -1-fermi 0-gaus

 Electronic relaxation 2 (details)
   IALGO  =     38    algorithm
   LDIAG  =      T    sub-space diagonalisation (order eigenvalues)
   LSUBROT=      F    optimize rotation matrix (better conditioning)
   TURBO    =      0    0=normal 1=particle mesh
   IRESTART =      0    0=no restart 2=restart with 2 vectors
   NREBOOT  =      0    no. of reboots
   NMIN     =      0    reboot dimension
   EREF     =   0.00    reference energy to select bands
   IMIX   =      4    mixing-type and parameters
     AMIX     =   0.40;   BMIX     =  1.00
     AMIX_MAG =   1.60;   BMIX_MAG =  1.00
     AMIN     =   0.10
     WC   =   100.;   INIMIX=   1;  MIXPRE=   1;  MAXMIX= -45

 Intra band minimization:
   WEIMIN = 0.0000     energy-eigenvalue tresh-hold
   EBREAK =  0.22E-08  absolut break condition
   DEPER  =   0.30     relativ break condition  

   TIME   =   0.40     timestep for ELM

  volume/ion in A,a.u.               =      40.75       274.99
  Fermi-wavevector in a.u.,A,eV,Ry     =   0.982191  1.856071 13.125516  0.964698
  Thomas-Fermi vector in A             =   2.113254

 Write flags
   LWAVE        =      F    write WAVECAR
   LDOWNSAMPLE  =      F    k-point downsampling of WAVECAR
   LCHARG       =      F    write CHGCAR
   LVTOT        =      F    write LOCPOT, total local potential
   LVHAR        =      T    write LOCPOT, Hartree potential only
   LELF         =      F    write electronic localiz. function (ELF)
   LORBIT       =     10    0 simple, 1 ext, 2 COOP (PROOUT), +10 PAW based schemes


 Dipole corrections
   LMONO  =      F    monopole corrections only (constant potential shift)
   LDIPOL =      F    correct potential (dipole corrections)
   IDIPOL =      0    1-x, 2-y, 3-z, 4-all directions 
   EPSILON=  1.0000000 bulk dielectric constant

 Exchange correlation treatment:
   GGA     =    --    GGA type
   LEXCH   =     8    internal setting for exchange type
   VOSKOWN=      0    Vosko Wilk Nusair interpolation
   LHFCALC =     F    Hartree Fock is set to
   LHFONE  =     F    Hartree Fock one center treatment
   AEXX    =    0.0000 exact exchange contribution

 Linear response parameters
   LEPSILON=     F    determine dielectric tensor
   LRPA    =     F    only Hartree local field effects (RPA)
   LNABLA  =     F    use nabla operator in PAW spheres
   LVEL    =     F    velocity operator in full k-point grid
   LINTERFAST=   F  fast interpolation
   KINTER  =     0    interpolate to denser k-point grid
   CSHIFT  =0.1000    complex shift for real part using Kramers Kronig
   OMEGAMAX=  -1.0    maximum frequency
   DEG_THRESHOLD= 0.2000000E-02 threshold for treating states as degnerate
   RTIME   =   -0.100 relaxation time in fs
  (WPLASMAI=    0.000 imaginary part of plasma frequency in eV, 0.658/RTIME)
   DFIELD  = 0.0000000 0.0000000 0.0000000 field for delta impulse in time

 Orbital magnetization related:
   ORBITALMAG=     F  switch on orbital magnetization
   LCHIMAG   =     F  perturbation theory with respect to B field
   DQ        =  0.001000  dq finite difference perturbation B field
   LLRAUG    =     F  two centre corrections for induced B field



--------------------------------------------------------------------------------------------------------


 Static calculation
 charge density and potential will be updated during run
 non-spin polarized calculation
 Variant of blocked Davidson
 Davidson routine will perform the subspace rotation
 perform sub-space diagonalisation
    after iterative eigenvector-optimisation
 modified Broyden-mixing scheme, WC =      100.0
 initial mixing is a Kerker type mixing with AMIX =  0.4000 and BMIX =      1.0000
 Hartree-type preconditioning will be used
 using additional bands           24
 real space projection scheme for non local part
 use partial core corrections
 calculate Harris-corrections to forces   (improved forces if not selfconsistent)
 use gradient corrections 
 use of overlap-Matrix (Vanderbilt PP)
 Gauss-broadening in eV      SIGMA  =   0.01


--------------------------------------------------------------------------------------------------------


  energy-cutoff  :      300.00
  volume of cell :      814.99
      direct lattice vectors                 reciprocal lattice vectors
     8.308951008  0.000000000  0.000000000     0.120352136  0.000000000  0.000000000
     0.000000000 12.351998174  0.000000000     0.000000000  0.080958561  0.000000000
     0.000000000  0.000000000  7.940841850     0.000000000  0.000000000  0.125931232

  length of vectors
     8.308951008 12.351998174  7.940841850     0.120352136  0.080958561  0.125931232



 k-points in units of 2pi/SCALE and weight: 1x1x1                                   
   0.00000000  0.00000000  0.00000000       0.056
   0.04011738  0.00000000  0.00000000       0.111
   0.00000000  0.04047928  0.00000000       0.056
   0.04011738  0.04047928  0.00000000       0.111
   0.00000000  0.00000000  0.04197708       0.111
   0.04011738  0.00000000  0.04197708       0.222
   0.00000000  0.04047928  0.04197708       0.111
   0.04011738  0.04047928  0.04197708       0.222

 k-points in reciprocal lattice and weights: 1x1x1                                   
   0.00000000  0.00000000  0.00000000       0.056
   0.33333333  0.00000000  0.00000000       0.111
   0.00000000  0.50000000  0.00000000       0.056
   0.33333333  0.50000000  0.00000000       0.111
   0.00000000  0.00000000  0.33333333       0.111
   0.33333333  0.00000000  0.33333333       0.222
   0.00000000  0.50000000  0.33333333       0.111
   0.33333333  0.50000000  0.33333333       0.222

 position of ions in fractional coordinates (direct lattice) 
   0.05230406  0.25000000  0.48451483
   0.44769594  0.75000000  0.98451483
   0.55230406  0.25000000  0.01548517
   0.94769594  0.75000000  0.51548517
   0.00000000  0.00000000  0.00000000
   0.50000000  0.00000000  0.50000000
   0.50000000  0.50000000  0.50000000
   0.00000000  0.50000000  0.00000000
   0.50076151  0.75000000  0.46755179
   0.99923849  0.25000000  0.96755179
   0.00076151  0.75000000  0.03244821
   0.49923849  0.25000000  0.53244821
   0.31334856  0.47874255  0.18140468
   0.18665144  0.52125745  0.68140468
   0.81334856  0.02125745  0.31859532
   0.68665144  0.97874255  0.81859532
   0.31334856  0.02125745  0.18140468
   0.18665144  0.97874255  0.68140468
   0.68665144  0.52125745  0.81859532
   0.81334856  0.47874255  0.31859532

 position of ions in cartesian coordinates  (Angst):
   0.43459183  3.08799954  3.84745564
   3.71988367  9.26399863  7.81787657
   4.58906734  3.08799954  0.12296528
   7.87435917  9.26399863  4.09338621
   0.00000000  0.00000000  0.00000000
   4.15447550  0.00000000  3.97042092
   4.15447550  6.17599909  3.97042092
   0.00000000  6.17599909  0.00000000
   4.16080287  9.26399863  3.71275480
   8.30262364  3.08799954  7.68317573
   0.00632737  9.26399863  0.25766612
   4.14814814  3.08799954  4.22808705
   2.60359785  5.91342713  1.44050589
   1.55087765  6.43857104  5.41092682
   6.75807335  0.26257196  2.52991503
   5.70535316 12.08942622  6.50033595
   2.60359785  0.26257196  1.44050589
   1.55087765 12.08942622  5.41092682
   5.70535316  6.43857104  6.50033595
   6.75807335  5.91342713  2.52991503



--------------------------------------------------------------------------------------------------------


 k-point  1 :   0.0000 0.0000 0.0000  plane waves:    9615
 k-point  2 :   0.3333 0.0000 0.0000  plane waves:    9622
 k-point  3 :   0.0000 0.5000 0.0000  plane waves:    9626
 k-point  4 :   0.3333 0.5000 0.0000  plane waves:    9596
 k-point  5 :   0.0000 0.0000 0.3333  plane waves:    9620
 k-point  6 :   0.3333 0.0000 0.3333  plane waves:    9616
 k-point  7 :   0.0000 0.5000 0.3333  plane waves:    9614
 k-point  8 :   0.3333 0.5000 0.3333  plane waves:    9624

 maximum and minimum number of plane-waves per node :      1229     1183

 maximum number of plane-waves:      9626
 maximum index in each direction: 
   IXMAX=   11   IYMAX=   17   IZMAX=   11
   IXMIN=  -12   IYMIN=  -17   IZMIN=  -11


 real space projection operators:
  total allocation   :       7836.12 KBytes
  max/ min on nodes  :       1021.25        941.75


 parallel 3D FFT for wavefunctions:
    minimum data exchange during FFTs selected (reduces bandwidth)
 parallel 3D FFT for charge:
    minimum data exchange during FFTs selected (reduces bandwidth)


 total amount of memory used by VASP MPI-rank0    42327. kBytes
=======================================================================

   base      :      30000. kBytes
   nonlr-proj:       2939. kBytes
   fftplans  :       3668. kBytes
   grid      :       3424. kBytes
   one-center:         46. kBytes
   wavefun   :       2250. kBytes

     INWAV:  cpu time    0.0000: real time    0.0000
 Broyden mixing: mesh for mixing (old mesh)
   NGX = 23   NGY = 35   NGZ = 23
  (NGX  = 96   NGY  =140   NGZ  = 96)
  gives a total of  18515 points

 initial charge density was supplied:
 charge density of overlapping atoms calculated
 number of electron     176.0000000 magnetization 
 keeping initial charge density in first step


--------------------------------------------------------------------------------------------------------


 Maximum index for non-local projection operator          606
 Maximum index for augmentation-charges         2299 (set IRDMAX)


--------------------------------------------------------------------------------------------------------


 First call to EWALD:  gamma=   0.190
 Maximum number of real-space cells 3x 2x 3
 Maximum number of reciprocal cells 2x 3x 2

    FEWALD:  cpu time    0.0021: real time    0.0021


--------------------------------------- Iteration      1(   1)  ---------------------------------------


    POTLOK:  cpu time    0.1273: real time    0.1354
    SETDIJ:  cpu time    1.0880: real time    1.0880
     EDDAV:  cpu time    3.9857: real time    3.9907
       DOS:  cpu time    0.0006: real time    0.0006
    --------------------------------------------
      LOOP:  cpu time    5.2016: real time    5.2148

 eigenvalue-minimisations  :  1856
 total energy-change (2. order) : 0.6517492E+03  (-0.5589327E+04)
 number of electron     176.0000000 magnetization 
 augmentation part      176.0000000 magnetization 

 Free energy of the ion-electron system (eV)
  ---------------------------------------------------
  alpha Z        PSCENC =       442.71814144
  Ewald energy   TEWEN  =     -9191.90791598
  -Hartree energ DENC   =     -3671.04815158
  -exchange      EXHF   =         0.00000000
  -V(xc)+E(xc)   XCENC  =       461.47665582
  PAW double counting   =     10816.98087266   -11353.96092700
  entropy T*S    EENTRO =        -0.00125389
  eigenvalues    EBANDS =      -142.78835758
  atomic energy  EATOM  =     13290.28009929
  Solvation  Ediel_sol  =         0.00000000
  ---------------------------------------------------
  free energy    TOTEN  =       651.74916317 eV

  energy without entropy =      651.75041706  energy(sigma->0) =      651.74979012


--------------------------------------------------------------------------------------------------------




--------------------------------------- Iteration      1(   2)  ---------------------------------------


     EDDAV:  cpu time    4.4877: real time    4.5260
       DOS:  cpu time    0.0003: real time    0.0003
    --------------------------------------------
      LOOP:  cpu time    4.4880: real time    4.5263

 eigenvalue-minimisations  :  2216
 total energy-change (2. order) :-0.1231850E+04  (-0.1186945E+04)
 number of electron     176.0000000 magnetization 
 augmentation part      176.0000000 magnetization 

 Free energy of the ion-electron system (eV)
  ---------------------------------------------------
  alpha Z        PSCENC =       442.71814144
  Ewald energy   TEWEN  =     -9191.90791598
  -Hartree energ DENC   =     -3671.04815158
  -exchange      EXHF   =         0.00000000
  -V(xc)+E(xc)   XCENC  =       461.47665582
  PAW double counting   =     10816.98087266   -11353.96092700
  entropy T*S    EENTRO =        -0.00000000
  eigenvalues    EBANDS =     -1374.63956628
  atomic energy  EATOM  =     13290.28009929
  Solvation  Ediel_sol  =         0.00000000
  ---------------------------------------------------
  free energy    TOTEN  =      -580.10079164 eV

  energy without entropy =     -580.10079164  energy(sigma->0) =     -580.10079164


--------------------------------------------------------------------------------------------------------




--------------------------------------- Iteration      1(   3)  ---------------------------------------


     EDDAV:  cpu time    4.7540: real time    4.8033
       DOS:  cpu time    0.0003: real time    0.0003
    --------------------------------------------
      LOOP:  cpu time    4.7543: real time    4.8036

 eigenvalue-minimisations  :  2424
 total energy-change (2. order) :-0.1688816E+03  (-0.1678392E+03)
 number of electron     176.0000000 magnetization 
 augmentation part      176.0000000 magnetization 

 Free energy of the ion-electron system (eV)
  ---------------------------------------------------
  alpha Z        PSCENC =       442.71814144
  Ewald energy   TEWEN  =     -9191.90791598
  -Hartree energ DENC   =     -3671.04815158
  -exchange      EXHF   =         0.00000000
  -V(xc)+E(xc)   XCENC  =       461.47665582
  PAW double counting   =     10816.98087266   -11353.96092700
  entropy T*S    EENTRO =        -0.00000000
  eigenvalues    EBANDS =     -1543.52116081
  atomic energy  EATOM  =     13290.28009929
  Solvation  Ediel_sol  =         0.00000000
  ---------------------------------------------------
  free energy    TOTEN  =      -748.98238617 eV

  energy without entropy =     -748.98238617  energy(sigma->0) =     -748.98238617


--------------------------------------------------------------------------------------------------------




--------------------------------------- Iteration      1(   4)  ---------------------------------------


     EDDAV:  cpu time    4.3937: real time    4.4240
       DOS:  cpu time    0.0003: real time    0.0003
    --------------------------------------------
      LOOP:  cpu time    4.3941: real time    4.4244

 eigenvalue-minimisations  :  2152
 total energy-change (2. order) :-0.5494557E+01  (-0.5474675E+01)
 number of electron     176.0000000 magnetization 
 augmentation part      176.0000000 magnetization 

 Free energy of the ion-electron system (eV)
  ---------------------------------------------------
  alpha Z        PSCENC =       442.71814144
  Ewald energy   TEWEN  =     -9191.90791598
  -Hartree energ DENC   =     -3671.04815158
  -exchange      EXHF   =         0.00000000
  -V(xc)+E(xc)   XCENC  =       461.47665582
  PAW double counting   =     10816.98087266   -11353.96092700
  entropy T*S    EENTRO =        -0.00000000
  eigenvalues    EBANDS =     -1549.01571753
  atomic energy  EATOM  =     13290.28009929
  Solvation  Ediel_sol  =         0.00000000
  ---------------------------------------------------
  free energy    TOTEN  =      -754.47694290 eV

  energy without entropy =     -754.47694290  energy(sigma->0) =     -754.47694290


--------------------------------------------------------------------------------------------------------




--------------------------------------- Iteration      1(   5)  ---------------------------------------


     EDDAV:  cpu time    4.7251: real time    4.7512
       DOS:  cpu time    0.0003: real time    0.0003
    CHARGE:  cpu time    0.8567: real time    0.8567
    MIXING:  cpu time    0.0010: real time    0.0010
    --------------------------------------------
      LOOP:  cpu time    5.5831: real time    5.6092

 eigenvalue-minimisations  :  2392
 total energy-change (2. order) :-0.2582769E+00  (-0.2581253E+00)
 number of electron     176.0000000 magnetization 
 augmentation part       -3.2412570 magnetization 

 Broyden mixing:
  rms(total) = 0.69962E+00    rms(broyden)= 0.69937E+00
  rms(prec ) = 0.96106E+00
  weight for this iteration     100.00

 Free energy of the ion-electron system (eV)
  ---------------------------------------------------
  alpha Z        PSCENC =       442.71814144
  Ewald energy   TEWEN  =     -9191.90791598
  -Hartree energ DENC   =     -3671.04815158
  -exchange      EXHF   =         0.00000000
  -V(xc)+E(xc)   XCENC  =       461.47665582
  PAW double counting   =     10816.98087266   -11353.96092700
  entropy T*S    EENTRO =        -0.00000000
  eigenvalues    EBANDS =     -1549.27399448
  atomic energy  EATOM  =     13290.28009929
  Solvation  Ediel_sol  =         0.00000000
  ---------------------------------------------------
  free energy    TOTEN  =      -754.73521984 eV

  energy without entropy =     -754.73521984  energy(sigma->0) =     -754.73521984


--------------------------------------------------------------------------------------------------------




--------------------------------------- Iteration      1(   6)  ---------------------------------------


    POTLOK:  cpu time    0.1198: real time    0.1552
    SETDIJ:  cpu time    1.0889: real time    1.0890
     EDDAV:  cpu time    4.6628: real time    4.6629
       DOS:  cpu time    0.0004: real time    0.0004
    CHARGE:  cpu time    0.8382: real time    0.8382
    MIXING:  cpu time    0.0009: real time    0.0009
    --------------------------------------------
      LOOP:  cpu time    6.7109: real time    6.7466

 eigenvalue-minimisations  :  2368
 total energy-change (2. order) : 0.3986594E+02  (-0.1184063E+01)
 number of electron     176.0000000 magnetization 
 augmentation part       -2.5120976 magnetization 

 Broyden mixing:
  rms(total) = 0.49849E+00    rms(broyden)= 0.49841E+00
  rms(prec ) = 0.61428E+00
  weight for this iteration     100.00

 eigenvalues of (default mixing * dielectric matrix)
  average eigenvalue GAMMA=   1.1444
  1.1444

 Free energy of the ion-electron system (eV)
  ---------------------------------------------------
  alpha Z        PSCENC =       442.71814144
  Ewald energy   TEWEN  =     -9191.90791598
  -Hartree energ DENC   =     -3661.43970005
  -exchange      EXHF   =         0.00000000
  -V(xc)+E(xc)   XCENC  =       477.02489231
  PAW double counting   =     10949.37296669   -11485.32014508
  entropy T*S    EENTRO =        -0.00000000
  eigenvalues    EBANDS =     -1535.59762093
  atomic energy  EATOM  =     13290.28009929
  Solvation  Ediel_sol  =         0.00000000
  ---------------------------------------------------
  free energy    TOTEN  =      -714.86928231 eV

  energy without entropy =     -714.86928231  energy(sigma->0) =     -714.86928231


--------------------------------------------------------------------------------------------------------




--------------------------------------- Iteration      1(   7)  ---------------------------------------


    POTLOK:  cpu time    0.1275: real time    0.1706
    SETDIJ:  cpu time    1.0884: real time    1.0885
     EDDAV:  cpu time    4.3987: real time    4.3989
       DOS:  cpu time    0.0004: real time    0.0004
    CHARGE:  cpu time    0.8266: real time    0.8266
    MIXING:  cpu time    0.0009: real time    0.0009
    --------------------------------------------
      LOOP:  cpu time    6.4426: real time    6.4858

 eigenvalue-minimisations  :  2176
 total energy-change (2. order) : 0.2452350E+00  (-0.3941138E+00)
 number of electron     176.0000000 magnetization 
 augmentation part       -2.2437435 magnetization 

 Broyden mixing:
  rms(total) = 0.26066E+00    rms(broyden)= 0.26065E+00
  rms(prec ) = 0.28472E+00
  weight for this iteration     100.00

 eigenvalues of (default mixing * dielectric matrix)
  average eigenvalue GAMMA=   1.3116
  1.3116  1.3116

 Free energy of the ion-electron system (eV)
  ---------------------------------------------------
  alpha Z        PSCENC =       442.71814144
  Ewald energy   TEWEN  =     -9191.90791598
  -Hartree energ DENC   =     -3681.14171878
  -exchange      EXHF   =         0.00000000
  -V(xc)+E(xc)   XCENC  =       479.57489200
  PAW double counting   =     11244.77848032   -11779.70072243
  entropy T*S    EENTRO =        -0.00000000
  eigenvalues    EBANDS =     -1519.22530314
  atomic energy  EATOM  =     13290.28009929
  Solvation  Ediel_sol  =         0.00000000
  ---------------------------------------------------
  free energy    TOTEN  =      -714.62404728 eV

  energy without entropy =     -714.62404728  energy(sigma->0) =     -714.62404728


--------------------------------------------------------------------------------------------------------




--------------------------------------- Iteration      1(   8)  ---------------------------------------


    POTLOK:  cpu time    0.1322: real time    0.1633
    SETDIJ:  cpu time    1.0881: real time    1.0881
     EDDAV:  cpu time    4.3984: real time    4.3986
       DOS:  cpu time    0.0004: real time    0.0004
    CHARGE:  cpu time    0.8338: real time    0.8338
    MIXING:  cpu time    0.0009: real time    0.0009
    --------------------------------------------
      LOOP:  cpu time    6.4538: real time    6.4851

 eigenvalue-minimisations  :  2176
 total energy-change (2. order) :-0.9791353E-01  (-0.1890449E-01)
 number of electron     176.0000000 magnetization 
 augmentation part       -2.2866915 magnetization 

 Broyden mixing:
  rms(total) = 0.14917E+00    rms(broyden)= 0.14916E+00
  rms(prec ) = 0.16458E+00
  weight for this iteration     100.00

 eigenvalues of (default mixing * dielectric matrix)
  average eigenvalue GAMMA=   1.7075
  1.1064  1.3060  2.7099

 Free energy of the ion-electron system (eV)
  ---------------------------------------------------
  alpha Z        PSCENC =       442.71814144
  Ewald energy   TEWEN  =     -9191.90791598
  -Hartree energ DENC   =     -3683.31017300
  -exchange      EXHF   =         0.00000000
  -V(xc)+E(xc)   XCENC  =       479.92255901
  PAW double counting   =     11360.69109946   -11895.73353734
  entropy T*S    EENTRO =        -0.00000000
  eigenvalues    EBANDS =     -1517.38223369
  atomic energy  EATOM  =     13290.28009929
  Solvation  Ediel_sol  =         0.00000000
  ---------------------------------------------------
  free energy    TOTEN  =      -714.72196081 eV

  energy without entropy =     -714.72196081  energy(sigma->0) =     -714.72196081


--------------------------------------------------------------------------------------------------------




--------------------------------------- Iteration      1(   9)  ---------------------------------------


    POTLOK:  cpu time    0.1404: real time    0.1768
    SETDIJ:  cpu time    1.0896: real time    1.0896
     EDDAV:  cpu time    4.0892: real time    4.0894
       DOS:  cpu time    0.0006: real time    0.0006
    CHARGE:  cpu time    0.8293: real time    0.8293
    MIXING:  cpu time    0.0010: real time    0.0010
    --------------------------------------------
      LOOP:  cpu time    6.1501: real time    6.1867

 eigenvalue-minimisations  :  1944
 total energy-change (2. order) :-0.4231325E-01  (-0.8886479E-02)
 number of electron     176.0000000 magnetization 
 augmentation part       -2.3091055 magnetization 

 Broyden mixing:
  rms(total) = 0.32243E-01    rms(broyden)= 0.32240E-01
  rms(prec ) = 0.34408E-01
  weight for this iteration     100.00

 eigenvalues of (default mixing * dielectric matrix)
  average eigenvalue GAMMA=   1.4626
  2.5541  1.2378  1.2378  0.8208

 Free energy of the ion-electron system (eV)
  ---------------------------------------------------
  alpha Z        PSCENC =       442.71814144
  Ewald energy   TEWEN  =     -9191.90791598
  -Hartree energ DENC   =     -3685.87836987
  -exchange      EXHF   =         0.00000000
  -V(xc)+E(xc)   XCENC  =       480.93596485
  PAW double counting   =     11526.02573219   -12061.38964207
  entropy T*S    EENTRO =        -0.00000000
  eigenvalues    EBANDS =     -1515.54828391
  atomic energy  EATOM  =     13290.28009929
  Solvation  Ediel_sol  =         0.00000000
  ---------------------------------------------------
  free energy    TOTEN  =      -714.76427406 eV

  energy without entropy =     -714.76427406  energy(sigma->0) =     -714.76427406


--------------------------------------------------------------------------------------------------------




--------------------------------------- Iteration      1(  10)  ---------------------------------------


    POTLOK:  cpu time    0.1552: real time    0.1796
    SETDIJ:  cpu time    1.0874: real time    1.0875
     EDDAV:  cpu time    4.9862: real time    4.9864
       DOS:  cpu time    0.0004: real time    0.0004
    CHARGE:  cpu time    0.8333: real time    0.8333
    MIXING:  cpu time    0.0009: real time    0.0009
    --------------------------------------------
      LOOP:  cpu time    7.0636: real time    7.0881

 eigenvalue-minimisations  :  2616
 total energy-change (2. order) :-0.1019979E-02  (-0.5508677E-03)
 number of electron     176.0000000 magnetization 
 augmentation part       -2.3023535 magnetization 

 Broyden mixing:
  rms(total) = 0.19168E-01    rms(broyden)= 0.19168E-01
  rms(prec ) = 0.21181E-01
  weight for this iteration     100.00

 eigenvalues of (default mixing * dielectric matrix)
  average eigenvalue GAMMA=   1.5756
  2.3915  2.3915  1.1243  1.1243  0.8463

 Free energy of the ion-electron system (eV)
  ---------------------------------------------------
  alpha Z        PSCENC =       442.71814144
  Ewald energy   TEWEN  =     -9191.90791598
  -Hartree energ DENC   =     -3685.03380973
  -exchange      EXHF   =         0.00000000
  -V(xc)+E(xc)   XCENC  =       480.83338181
  PAW double counting   =     11510.02207561   -12045.43394906
  entropy T*S    EENTRO =        -0.00000000
  eigenvalues    EBANDS =     -1516.24331743
  atomic energy  EATOM  =     13290.28009929
  Solvation  Ediel_sol  =         0.00000000
  ---------------------------------------------------
  free energy    TOTEN  =      -714.76529404 eV

  energy without entropy =     -714.76529404  energy(sigma->0) =     -714.76529404


--------------------------------------------------------------------------------------------------------




--------------------------------------- Iteration      1(  11)  ---------------------------------------


    POTLOK:  cpu time    0.1460: real time    0.1680
    SETDIJ:  cpu time    1.0898: real time    1.0899
     EDDAV:  cpu time    4.0833: real time    4.0837
       DOS:  cpu time    0.0003: real time    0.0003
    CHARGE:  cpu time    0.8289: real time    0.8289
    MIXING:  cpu time    0.0010: real time    0.0010
    --------------------------------------------
      LOOP:  cpu time    6.1493: real time    6.1718

 eigenvalue-minimisations  :  1944
 total energy-change (2. order) :-0.1677267E-02  (-0.1712398E-03)
 number of electron     176.0000000 magnetization 
 augmentation part       -2.3020174 magnetization 

 Broyden mixing:
  rms(total) = 0.65874E-02    rms(broyden)= 0.65870E-02
  rms(prec ) = 0.80432E-02
  weight for this iteration     100.00

 eigenvalues of (default mixing * dielectric matrix)
  average eigenvalue GAMMA=   1.5751
  2.6003  2.6003  1.2195  1.2195  0.9057  0.9057

 Free energy of the ion-electron system (eV)
  ---------------------------------------------------
  alpha Z        PSCENC =       442.71814144
  Ewald energy   TEWEN  =     -9191.90791598
  -Hartree energ DENC   =     -3683.75374551
  -exchange      EXHF   =         0.00000000
  -V(xc)+E(xc)   XCENC  =       480.78609279
  PAW double counting   =     11496.35956852   -12031.93486718
  entropy T*S    EENTRO =        -0.00000000
  eigenvalues    EBANDS =     -1517.31434468
  atomic energy  EATOM  =     13290.28009929
  Solvation  Ediel_sol  =         0.00000000
  ---------------------------------------------------
  free energy    TOTEN  =      -714.76697131 eV

  energy without entropy =     -714.76697131  energy(sigma->0) =     -714.76697131


--------------------------------------------------------------------------------------------------------




--------------------------------------- Iteration      1(  12)  ---------------------------------------


    POTLOK:  cpu time    0.1213: real time    0.1496
    SETDIJ:  cpu time    1.0883: real time    1.0883
     EDDAV:  cpu time    4.1397: real time    4.1399
       DOS:  cpu time    0.0003: real time    0.0003
    CHARGE:  cpu time    0.8352: real time    0.8353
    MIXING:  cpu time    0.0010: real time    0.0010
    --------------------------------------------
      LOOP:  cpu time    6.1858: real time    6.2145

 eigenvalue-minimisations  :  1984
 total energy-change (2. order) :-0.1824947E-03  (-0.4623512E-04)
 number of electron     176.0000000 magnetization 
 augmentation part       -2.3037360 magnetization 

 Broyden mixing:
  rms(total) = 0.24175E-02    rms(broyden)= 0.24169E-02
  rms(prec ) = 0.27254E-02
  weight for this iteration     100.00

 eigenvalues of (default mixing * dielectric matrix)
  average eigenvalue GAMMA=   1.6326
  3.0705  2.3435  1.8671  1.2037  1.0340  0.9546  0.9546

 Free energy of the ion-electron system (eV)
  ---------------------------------------------------
  alpha Z        PSCENC =       442.71814144
  Ewald energy   TEWEN  =     -9191.90791598
  -Hartree energ DENC   =     -3683.85781612
  -exchange      EXHF   =         0.00000000
  -V(xc)+E(xc)   XCENC  =       480.84717539
  PAW double counting   =     11500.54466474   -12036.17290763
  entropy T*S    EENTRO =        -0.00000000
  eigenvalues    EBANDS =     -1517.21859493
  atomic energy  EATOM  =     13290.28009929
  Solvation  Ediel_sol  =         0.00000000
  ---------------------------------------------------
  free energy    TOTEN  =      -714.76715381 eV

  energy without entropy =     -714.76715381  energy(sigma->0) =     -714.76715381


--------------------------------------------------------------------------------------------------------




--------------------------------------- Iteration      1(  13)  ---------------------------------------


    POTLOK:  cpu time    0.1217: real time    0.1544
    SETDIJ:  cpu time    1.0894: real time    1.0894
     EDDAV:  cpu time    4.5577: real time    4.5578
       DOS:  cpu time    0.0004: real time    0.0004
    CHARGE:  cpu time    0.8325: real time    0.8324
    MIXING:  cpu time    0.0012: real time    0.0012
    --------------------------------------------
      LOOP:  cpu time    6.6028: real time    6.6356

 eigenvalue-minimisations  :  2288
 total energy-change (2. order) :-0.6912048E-06  (-0.4804994E-05)
 number of electron     176.0000000 magnetization 
 augmentation part       -2.3037632 magnetization 

 Broyden mixing:
  rms(total) = 0.83395E-03    rms(broyden)= 0.83294E-03
  rms(prec ) = 0.88968E-03
  weight for this iteration     100.00

 eigenvalues of (default mixing * dielectric matrix)
  average eigenvalue GAMMA=   1.6490
  3.0119  2.3247  2.3247  1.3039  1.3039  0.9348  0.9939  0.9939

 Free energy of the ion-electron system (eV)
  ---------------------------------------------------
  alpha Z        PSCENC =       442.71814144
  Ewald energy   TEWEN  =     -9191.90791598
  -Hartree energ DENC   =     -3684.02354236
  -exchange      EXHF   =         0.00000000
  -V(xc)+E(xc)   XCENC  =       480.86175721
  PAW double counting   =     11499.30419590   -12034.93650518
  entropy T*S    EENTRO =        -0.00000000
  eigenvalues    EBANDS =     -1517.06338482
  atomic energy  EATOM  =     13290.28009929
  Solvation  Ediel_sol  =         0.00000000
  ---------------------------------------------------
  free energy    TOTEN  =      -714.76715450 eV

  energy without entropy =     -714.76715450  energy(sigma->0) =     -714.76715450


--------------------------------------------------------------------------------------------------------




--------------------------------------- Iteration      1(  14)  ---------------------------------------


    POTLOK:  cpu time    0.1257: real time    0.1541
    SETDIJ:  cpu time    1.0895: real time    1.0896
     EDDAV:  cpu time    3.8560: real time    3.8561
       DOS:  cpu time    0.0004: real time    0.0004
    CHARGE:  cpu time    0.8241: real time    0.8242
    MIXING:  cpu time    0.0011: real time    0.0011
    --------------------------------------------
      LOOP:  cpu time    5.8968: real time    5.9254

 eigenvalue-minimisations  :  1744
 total energy-change (2. order) :-0.8915450E-05  (-0.4699969E-06)
 number of electron     176.0000000 magnetization 
 augmentation part       -2.3035136 magnetization 

 Broyden mixing:
  rms(total) = 0.22600E-03    rms(broyden)= 0.22242E-03
  rms(prec ) = 0.27121E-03
  weight for this iteration     100.00

 eigenvalues of (default mixing * dielectric matrix)
  average eigenvalue GAMMA=   1.6697
  2.9041  2.5937  2.1511  2.1511  1.1695  1.1695  0.9290  0.9798  0.9798

 Free energy of the ion-electron system (eV)
  ---------------------------------------------------
  alpha Z        PSCENC =       442.71814144
  Ewald energy   TEWEN  =     -9191.90791598
  -Hartree energ DENC   =     -3684.04739081
  -exchange      EXHF   =         0.00000000
  -V(xc)+E(xc)   XCENC  =       480.86227935
  PAW double counting   =     11498.91897569   -12034.54804085
  entropy T*S    EENTRO =        -0.00000000
  eigenvalues    EBANDS =     -1517.04331153
  atomic energy  EATOM  =     13290.28009929
  Solvation  Ediel_sol  =         0.00000000
  ---------------------------------------------------
  free energy    TOTEN  =      -714.76716341 eV

  energy without entropy =     -714.76716341  energy(sigma->0) =     -714.76716341


--------------------------------------------------------------------------------------------------------




--------------------------------------- Iteration      1(  15)  ---------------------------------------


    POTLOK:  cpu time    0.1293: real time    0.1443
    SETDIJ:  cpu time    1.0896: real time    1.0896
     EDDAV:  cpu time    3.3599: real time    3.3600
       DOS:  cpu time    0.0003: real time    0.0003
    CHARGE:  cpu time    0.8259: real time    0.8259
    MIXING:  cpu time    0.0011: real time    0.0011
    --------------------------------------------
      LOOP:  cpu time    5.4061: real time    5.4213

 eigenvalue-minimisations  :  1336
 total energy-change (2. order) :-0.3284022E-05  (-0.7963335E-07)
 number of electron     176.0000000 magnetization 
 augmentation part       -2.3035687 magnetization 

 Broyden mixing:
  rms(total) = 0.81420E-04    rms(broyden)= 0.71054E-04
  rms(prec ) = 0.93878E-04
  weight for this iteration     100.00
  WARNING: grid for Broyden might be to small

 eigenvalues of (default mixing * dielectric matrix)
  average eigenvalue GAMMA=   1.6523
  3.1204  2.5814  2.5814  1.7955  1.3454  1.1332  1.1332  0.9435  0.9435  0.9457

 Free energy of the ion-electron system (eV)
  ---------------------------------------------------
  alpha Z        PSCENC =       442.71814144
  Ewald energy   TEWEN  =     -9191.90791598
  -Hartree energ DENC   =     -3684.02907062
  -exchange      EXHF   =         0.00000000
  -V(xc)+E(xc)   XCENC  =       480.86094257
  PAW double counting   =     11498.96630078   -12034.59547551
  entropy T*S    EENTRO =        -0.00000000
  eigenvalues    EBANDS =     -1517.06018866
  atomic energy  EATOM  =     13290.28009929
  Solvation  Ediel_sol  =         0.00000000
  ---------------------------------------------------
  free energy    TOTEN  =      -714.76716670 eV

  energy without entropy =     -714.76716670  energy(sigma->0) =     -714.76716670


--------------------------------------------------------------------------------------------------------




--------------------------------------- Iteration      1(  16)  ---------------------------------------


    POTLOK:  cpu time    0.1284: real time    0.1691
    SETDIJ:  cpu time    1.0926: real time    1.0926
     EDDAV:  cpu time    3.1471: real time    3.1472
       DOS:  cpu time    0.0004: real time    0.0004
    CHARGE:  cpu time    0.8309: real time    0.8311
    MIXING:  cpu time    0.0011: real time    0.0011
    --------------------------------------------
      LOOP:  cpu time    5.2006: real time    5.2416

 eigenvalue-minimisations  :  1176
 total energy-change (2. order) : 0.2596049E-05  (-0.1804417E-07)
 number of electron     176.0000000 magnetization 
 augmentation part       -2.3035962 magnetization 

 Broyden mixing:
  rms(total) = 0.50188E-04    rms(broyden)= 0.30641E-04
  rms(prec ) = 0.37512E-04
  weight for this iteration     100.00
  WARNING: grid for Broyden might be to small

 eigenvalues of (default mixing * dielectric matrix)
  average eigenvalue GAMMA=   1.6633
  2.8740  2.8740  2.4482  1.9131  1.9131  1.1524  1.1524  0.9806  0.9806  1.0042
  1.0042

 Free energy of the ion-electron system (eV)
  ---------------------------------------------------
  alpha Z        PSCENC =       442.71814144
  Ewald energy   TEWEN  =     -9191.90791598
  -Hartree energ DENC   =     -3684.03893965
  -exchange      EXHF   =         0.00000000
  -V(xc)+E(xc)   XCENC  =       480.86185360
  PAW double counting   =     11498.93282209   -12034.56169367
  entropy T*S    EENTRO =        -0.00000000
  eigenvalues    EBANDS =     -1517.05153122
  atomic energy  EATOM  =     13290.28009929
  Solvation  Ediel_sol  =         0.00000000
  ---------------------------------------------------
  free energy    TOTEN  =      -714.76716410 eV

  energy without entropy =     -714.76716410  energy(sigma->0) =     -714.76716410


--------------------------------------------------------------------------------------------------------




--------------------------------------- Iteration      1(  17)  ---------------------------------------


    POTLOK:  cpu time    0.1309: real time    0.1664
    SETDIJ:  cpu time    1.0902: real time    1.0902
     EDDAV:  cpu time    3.0598: real time    3.0599
       DOS:  cpu time    0.0005: real time    0.0005
    --------------------------------------------
      LOOP:  cpu time    4.2813: real time    4.3170

 eigenvalue-minimisations  :  1112
 total energy-change (2. order) :-0.1874782E-06  (-0.3971190E-08)
 number of electron     176.0000000 magnetization 
 augmentation part       -2.3035962 magnetization 

 Free energy of the ion-electron system (eV)
  ---------------------------------------------------
  alpha Z        PSCENC =       442.71814144
  Ewald energy   TEWEN  =     -9191.90791598
  -Hartree energ DENC   =     -3684.04104252
  -exchange      EXHF   =         0.00000000
  -V(xc)+E(xc)   XCENC  =       480.86193644
  PAW double counting   =     11498.91185799   -12034.54070927
  entropy T*S    EENTRO =        -0.00000000
  eigenvalues    EBANDS =     -1517.04953167
  atomic energy  EATOM  =     13290.28009929
  Solvation  Ediel_sol  =         0.00000000
  ---------------------------------------------------
  free energy    TOTEN  =      -714.76716429 eV

  energy without entropy =     -714.76716429  energy(sigma->0) =     -714.76716429


--------------------------------------------------------------------------------------------------------




 average (electrostatic) potential at core
  the test charge radii are     1.1312  1.1541  1.0178
  (the norm of the test charge is              1.0000)
       1 -55.3910       2 -55.3910       3 -55.3910       4 -55.3910       5-101.7612
       6-101.7612       7-101.7612       8-101.7612       9 -68.9708      10 -68.9708
      11 -68.9708      12 -68.9708      13 -69.0465      14 -69.0465      15 -69.0465
      16 -69.0465      17 -69.0465      18 -69.0465      19 -69.0465      20 -69.0465



 E-fermi :   0.3637     XC(G=0):  -8.0161     alpha+bet : -6.9455


 k-point     1 :       0.0000    0.0000    0.0000
  band No.  band energies     occupation 
      1     -20.9133      2.00000
      2     -20.9118      2.00000
      3     -20.9097      2.00000
      4     -20.9088      2.00000
      5     -16.5683      2.00000
      6     -16.5682      2.00000
      7     -16.5456      2.00000
      8     -16.5149      2.00000
      9     -16.5138      2.00000
     10     -16.4791      2.00000
     11     -16.4739      2.00000
     12     -16.4738      2.00000
     13     -16.4289      2.00000
     14     -16.4284      2.00000
     15     -16.4282      2.00000
     16     -16.4275      2.00000
     17     -16.4206      2.00000
     18     -16.4205      2.00000
     19     -16.4199      2.00000
     20     -16.4194      2.00000
     21     -16.4000      2.00000
     22     -16.4000      2.00000
     23     -16.3982      2.00000
     24     -16.3981      2.00000
     25     -14.3551      2.00000
     26     -14.2476      2.00000
     27     -14.0773      2.00000
     28     -14.0722      2.00000
     29     -14.0479      2.00000
     30     -14.0421      2.00000
     31     -13.9430      2.00000
     32     -13.9422      2.00000
     33     -13.9117      2.00000
     34     -13.8010      2.00000
     35     -13.7951      2.00000
     36     -13.7712      2.00000
     37      -8.1842      2.00000
     38      -7.8138      2.00000
     39      -7.3547      2.00000
     40      -7.3453      2.00000
     41      -7.3400      2.00000
     42      -7.3279      2.00000
     43      -7.3153      2.00000
     44      -7.2951      2.00000
     45      -7.2938      2.00000
     46      -7.2901      2.00000
     47      -7.2871      2.00000
     48      -7.2867      2.00000
     49      -7.2714      2.00000
     50      -7.2609      2.00000
     51      -7.0995      2.00000
     52      -6.6533      2.00000
     53      -3.3635      2.00000
     54      -3.3178      2.00000
     55      -3.2992      2.00000
     56      -3.2465      2.00000
     57      -3.1230      2.00000
     58      -2.8665      2.00000
     59      -2.2385      2.00000
     60      -2.0384      2.00000
     61      -2.0127      2.00000
     62      -1.8454      2.00000
     63      -1.8362      2.00000
     64      -1.6364      2.00000
     65      -1.6142      2.00000
     66      -1.5975      2.00000
     67      -1.5900      2.00000
     68      -1.5470      2.00000
     69      -1.4894      2.00000
     70      -1.4875      2.00000
     71      -1.4553      2.00000
     72      -1.3883      2.00000
     73      -1.3882      2.00000
     74      -1.3590      2.00000
     75      -1.3347      2.00000
     76      -1.2822      2.00000
     77      -1.2808      2.00000
     78      -1.1835      2.00000
     79      -1.1826      2.00000
     80      -1.1574      2.00000
     81      -1.1293      2.00000
     82      -1.0580      2.00000
     83      -1.0389      2.00000
     84      -0.9834      2.00000
     85      -0.9094      2.00000
     86      -0.7371      2.00000
     87      -0.1204      2.00000
     88       0.3087      2.00000
     89       2.4142      0.00000
     90       2.7820      0.00000
     91       2.9344      0.00000
     92       3.1535      0.00000
     93       3.2173      0.00000
     94       3.3095      0.00000
     95       4.7194      0.00000
     96       5.1391      0.00000
     97       5.6701      0.00000
     98       5.7311      0.00000
     99       5.7376      0.00000
    100       5.8126      0.00000
    101       5.8997      0.00000
    102       6.1370      0.00000
    103       6.2249      0.00000
    104       6.2727      0.00000
    105       6.2729      0.00000
    106       6.3861      0.00000
    107       6.3863      0.00000
    108       6.6814      0.00000
    109       6.7409      0.00000
    110       6.8051      0.00000
    111       6.8212      0.00000
    112       7.0548      0.00000

 k-point     2 :       0.3333    0.0000    0.0000
  band No.  band energies     occupation 
      1     -20.9123      2.00000
      2     -20.9111      2.00000
      3     -20.9106      2.00000
      4     -20.9096      2.00000
      5     -16.5460      2.00000
      6     -16.5458      2.00000
      7     -16.5373      2.00000
      8     -16.5215      2.00000
      9     -16.5057      2.00000
     10     -16.4987      2.00000
     11     -16.4987      2.00000
     12     -16.4879      2.00000
     13     -16.4288      2.00000
     14     -16.4285      2.00000
     15     -16.4282      2.00000
     16     -16.4276      2.00000
     17     -16.4206      2.00000
     18     -16.4203      2.00000
     19     -16.4201      2.00000
     20     -16.4195      2.00000
     21     -16.3996      2.00000
     22     -16.3996      2.00000
     23     -16.3986      2.00000
     24     -16.3985      2.00000
     25     -14.3057      2.00000
     26     -14.2076      2.00000
     27     -14.1793      2.00000
     28     -14.1200      2.00000
     29     -13.9877      2.00000
     30     -13.9804      2.00000
     31     -13.9451      2.00000
     32     -13.9405      2.00000
     33     -13.8599      2.00000
     34     -13.8574      2.00000
     35     -13.8454      2.00000
     36     -13.7886      2.00000
     37      -7.9625      2.00000
     38      -7.5888      2.00000
     39      -7.4660      2.00000
     40      -7.3494      2.00000
     41      -7.3303      2.00000
     42      -7.3267      2.00000
     43      -7.3183      2.00000
     44      -7.3053      2.00000
     45      -7.2952      2.00000
     46      -7.2935      2.00000
     47      -7.2830      2.00000
     48      -7.2738      2.00000
     49      -7.2722      2.00000
     50      -7.2696      2.00000
     51      -7.2509      2.00000
     52      -7.0136      2.00000
     53      -3.0904      2.00000
     54      -3.0246      2.00000
     55      -2.9964      2.00000
     56      -2.9148      2.00000
     57      -2.7971      2.00000
     58      -2.7896      2.00000
     59      -2.2895      2.00000
     60      -2.1779      2.00000
     61      -2.1030      2.00000
     62      -2.0337      2.00000
     63      -1.9911      2.00000
     64      -1.9717      2.00000
     65      -1.7928      2.00000
     66      -1.7054      2.00000
     67      -1.6935      2.00000
     68      -1.6511      2.00000
     69      -1.5317      2.00000
     70      -1.4991      2.00000
     71      -1.4659      2.00000
     72      -1.4099      2.00000
     73      -1.3919      2.00000
     74      -1.3361      2.00000
     75      -1.3233      2.00000
     76      -1.3147      2.00000
     77      -1.2856      2.00000
     78      -1.2565      2.00000
     79      -1.2264      2.00000
     80      -1.1698      2.00000
     81      -1.1685      2.00000
     82      -1.1218      2.00000
     83      -1.0459      2.00000
     84      -1.0113      2.00000
     85      -0.8401      2.00000
     86      -0.6392      2.00000
     87      -0.5994      2.00000
     88      -0.2221      2.00000
     89       2.6168      0.00000
     90       3.0149      0.00000
     91       3.5343      0.00000
     92       3.8155      0.00000
     93       3.8316      0.00000
     94       4.1460      0.00000
     95       5.0183      0.00000
     96       5.1442      0.00000
     97       5.2108      0.00000
     98       5.3197      0.00000
     99       5.3226      0.00000
    100       5.6537      0.00000
    101       5.7176      0.00000
    102       6.0030      0.00000
    103       6.0684      0.00000
    104       6.1639      0.00000
    105       6.2908      0.00000
    106       6.3243      0.00000
    107       6.5260      0.00000
    108       6.7116      0.00000
    109       6.7989      0.00000
    110       6.8367      0.00000
    111       7.0155      0.00000
    112       7.0308      0.00000

 k-point     3 :       0.0000    0.5000    0.0000
  band No.  band energies     occupation 
      1     -20.9126      2.00000
      2     -20.9126      2.00000
      3     -20.9093      2.00000
      4     -20.9093      2.00000
      5     -16.5683      2.00000
      6     -16.5683      2.00000
      7     -16.5303      2.00000
      8     -16.5303      2.00000
      9     -16.4966      2.00000
     10     -16.4966      2.00000
     11     -16.4738      2.00000
     12     -16.4738      2.00000
     13     -16.4286      2.00000
     14     -16.4286      2.00000
     15     -16.4279      2.00000
     16     -16.4279      2.00000
     17     -16.4207      2.00000
     18     -16.4207      2.00000
     19     -16.4197      2.00000
     20     -16.4197      2.00000
     21     -16.4000      2.00000
     22     -16.4000      2.00000
     23     -16.3981      2.00000
     24     -16.3981      2.00000
     25     -14.3123      2.00000
     26     -14.3123      2.00000
     27     -14.0747      2.00000
     28     -14.0747      2.00000
     29     -14.0445      2.00000
     30     -14.0445      2.00000
     31     -13.9268      2.00000
     32     -13.9268      2.00000
     33     -13.8465      2.00000
     34     -13.8465      2.00000
     35     -13.7980      2.00000
     36     -13.7980      2.00000
     37      -8.0107      2.00000
     38      -8.0107      2.00000
     39      -7.3458      2.00000
     40      -7.3458      2.00000
     41      -7.3350      2.00000
     42      -7.3350      2.00000
     43      -7.2953      2.00000
     44      -7.2953      2.00000
     45      -7.2871      2.00000
     46      -7.2871      2.00000
     47      -7.2863      2.00000
     48      -7.2863      2.00000
     49      -7.2813      2.00000
     50      -7.2813      2.00000
     51      -6.9060      2.00000
     52      -6.9060      2.00000
     53      -3.3379      2.00000
     54      -3.3379      2.00000
     55      -3.2707      2.00000
     56      -3.2707      2.00000
     57      -2.4816      2.00000
     58      -2.4816      2.00000
     59      -2.2150      2.00000
     60      -2.2150      2.00000
     61      -2.1439      2.00000
     62      -2.1439      2.00000
     63      -1.7987      2.00000
     64      -1.7987      2.00000
     65      -1.7849      2.00000
     66      -1.7849      2.00000
     67      -1.5268      2.00000
     68      -1.5268      2.00000
     69      -1.4696      2.00000
     70      -1.4696      2.00000
     71      -1.3849      2.00000
     72      -1.3849      2.00000
     73      -1.3375      2.00000
     74      -1.3375      2.00000
     75      -1.3344      2.00000
     76      -1.3344      2.00000
     77      -1.2400      2.00000
     78      -1.2400      2.00000
     79      -1.2312      2.00000
     80      -1.2312      2.00000
     81      -1.1085      2.00000
     82      -1.1085      2.00000
     83      -1.0598      2.00000
     84      -1.0598      2.00000
     85      -0.9087      2.00000
     86      -0.9087      2.00000
     87      -0.0239      2.00000
     88      -0.0239      2.00000
     89       2.9692      0.00000
     90       2.9692      0.00000
     91       3.1235      0.00000
     92       3.1235      0.00000
     93       3.8483      0.00000
     94       3.8483      0.00000
     95       4.4716      0.00000
     96       4.4716      0.00000
     97       5.2844      0.00000
     98       5.2844      0.00000
     99       5.8244      0.00000
    100       5.8244      0.00000
    101       5.9854      0.00000
    102       5.9854      0.00000
    103       6.1231      0.00000
    104       6.1231      0.00000
    105       6.5227      0.00000
    106       6.5227      0.00000
    107       6.6904      0.00000
    108       6.6905      0.00000
    109       6.7126      0.00000
    110       6.7127      0.00000
    111       6.7378      0.00000
    112       6.7382      0.00000

 k-point     4 :       0.3333    0.5000    0.0000
  band No.  band energies     occupation 
      1     -20.9117      2.00000
      2     -20.9117      2.00000
      3     -20.9101      2.00000
      4     -20.9101      2.00000
      5     -16.5458      2.00000
      6     -16.5458      2.00000
      7     -16.5215      2.00000
      8     -16.5215      2.00000
      9     -16.5047      2.00000
     10     -16.5047      2.00000
     11     -16.4987      2.00000
     12     -16.4987      2.00000
     13     -16.4285      2.00000
     14     -16.4285      2.00000
     15     -16.4281      2.00000
     16     -16.4281      2.00000
     17     -16.4204      2.00000
     18     -16.4204      2.00000
     19     -16.4199      2.00000
     20     -16.4199      2.00000
     21     -16.3995      2.00000
     22     -16.3995      2.00000
     23     -16.3986      2.00000
     24     -16.3986      2.00000
     25     -14.2668      2.00000
     26     -14.2668      2.00000
     27     -14.1555      2.00000
     28     -14.1555      2.00000
     29     -13.9828      2.00000
     30     -13.9828      2.00000
     31     -13.8911      2.00000
     32     -13.8911      2.00000
     33     -13.8568      2.00000
     34     -13.8568      2.00000
     35     -13.8555      2.00000
     36     -13.8555      2.00000
     37      -7.7881      2.00000
     38      -7.7881      2.00000
     39      -7.3509      2.00000
     40      -7.3509      2.00000
     41      -7.3243      2.00000
     42      -7.3243      2.00000
     43      -7.3081      2.00000
     44      -7.3081      2.00000
     45      -7.2936      2.00000
     46      -7.2936      2.00000
     47      -7.2845      2.00000
[...]
     60      -2.3610      2.00000
     61      -2.2277      2.00000
     62      -2.2277      2.00000
     63      -2.0255      2.00000
     64      -2.0255      2.00000
     65      -1.7665      2.00000
     66      -1.7665      2.00000
     67      -1.7012      2.00000
     68      -1.7012      2.00000
     69      -1.5658      2.00000
     70      -1.5658      2.00000
     71      -1.4900      2.00000
     72      -1.4900      2.00000
     73      -1.4084      2.00000
     74      -1.4084      2.00000
     75      -1.3481      2.00000
     76      -1.3481      2.00000
     77      -1.2120      2.00000
     78      -1.2120      2.00000
     79      -1.1795      2.00000
     80      -1.1795      2.00000
     81      -1.1426      2.00000
     82      -1.1426      2.00000
     83      -1.1154      2.00000
     84      -1.1154      2.00000
     85      -0.8709      2.00000
     86      -0.8709      2.00000
     87      -0.6409      2.00000
     88      -0.6409      2.00000
     89       3.8085      0.00000
     90       3.8085      0.00000
     91       3.8196      0.00000
     92       3.8196      0.00000
     93       3.9899      0.00000
     94       3.9899      0.00000
     95       4.3239      0.00000
     96       4.3239      0.00000
     97       5.1738      0.00000
     98       5.1738      0.00000
     99       5.2905      0.00000
    100       5.2905      0.00000
    101       5.8388      0.00000
    102       5.8388      0.00000
    103       6.0470      0.00000
    104       6.0470      0.00000
    105       6.4247      0.00000
    106       6.4247      0.00000
    107       6.5185      0.00000
    108       6.5185      0.00000
    109       6.6366      0.00000
    110       6.6366      0.00000
    111       6.9783      0.00000
    112       6.9784      0.00000

 k-point     8 :       0.3333    0.5000    0.3333
  band No.  band energies     occupation 
      1     -20.9113      2.00000
      2     -20.9113      2.00000
      3     -20.9104      2.00000
      4     -20.9104      2.00000
      5     -16.5483      2.00000
      6     -16.5483      2.00000
      7     -16.5307      2.00000
      8     -16.5307      2.00000
      9     -16.5033      2.00000
     10     -16.5033      2.00000
     11     -16.4888      2.00000
     12     -16.4888      2.00000
     13     -16.4284      2.00000
     14     -16.4284      2.00000
     15     -16.4282      2.00000
     16     -16.4282      2.00000
     17     -16.4202      2.00000
     18     -16.4202      2.00000
     19     -16.4200      2.00000
     20     -16.4200      2.00000
     21     -16.3993      2.00000
     22     -16.3993      2.00000
     23     -16.3988      2.00000
     24     -16.3988      2.00000
     25     -14.2123      2.00000
     26     -14.2123      2.00000
     27     -14.0951      2.00000
     28     -14.0951      2.00000
     29     -14.0800      2.00000
     30     -14.0800      2.00000
     31     -13.9605      2.00000
     32     -13.9605      2.00000
     33     -13.8469      2.00000
     34     -13.8469      2.00000
     35     -13.8267      2.00000
     36     -13.8267      2.00000
     37      -7.6472      2.00000
     38      -7.6472      2.00000
     39      -7.4014      2.00000
     40      -7.4014      2.00000
     41      -7.3201      2.00000
     42      -7.3201      2.00000
     43      -7.3075      2.00000
     44      -7.3075      2.00000
     45      -7.2825      2.00000
     46      -7.2825      2.00000
     47      -7.2788      2.00000
     48      -7.2788      2.00000
     49      -7.2729      2.00000
     50      -7.2729      2.00000
     51      -7.2477      2.00000
     52      -7.2477      2.00000
     53      -3.1934      2.00000
     54      -3.1934      2.00000
     55      -2.8001      2.00000
     56      -2.8001      2.00000
     57      -2.4747      2.00000
     58      -2.4747      2.00000
     59      -2.3548      2.00000
     60      -2.3548      2.00000
     61      -2.2152      2.00000
     62      -2.2152      2.00000
     63      -2.0073      2.00000
     64      -2.0073      2.00000
     65      -1.8033      2.00000
     66      -1.8033      2.00000
     67      -1.7401      2.00000
     68      -1.7401      2.00000
     69      -1.5347      2.00000
     70      -1.5347      2.00000
     71      -1.4398      2.00000
     72      -1.4398      2.00000
     73      -1.3731      2.00000
     74      -1.3731      2.00000
     75      -1.2746      2.00000
     76      -1.2746      2.00000
     77      -1.2335      2.00000
     78      -1.2335      2.00000
     79      -1.1675      2.00000
     80      -1.1675      2.00000
     81      -1.1262      2.00000
     82      -1.1262      2.00000
     83      -1.0942      2.00000
     84      -1.0942      2.00000
     85      -0.8690      2.00000
     86      -0.8690      2.00000
     87      -0.6212      2.00000
     88      -0.6212      2.00000
     89       3.2611      0.00000
     90       3.2611      0.00000
     91       4.0437      0.00000
     92       4.0437      0.00000
     93       4.0806      0.00000
     94       4.0806      0.00000
     95       4.2217      0.00000
     96       4.2217      0.00000
     97       5.0642      0.00000
     98       5.0642      0.00000
     99       5.8002      0.00000
    100       5.8002      0.00000
    101       6.1463      0.00000
    102       6.1463      0.00000
    103       6.2787      0.00000
    104       6.2787      0.00000
    105       6.5650      0.00000
    106       6.5650      0.00000
    107       6.6466      0.00000
    108       6.6466      0.00000
    109       6.7843      0.00000
    110       6.7843      0.00000
    111       6.9687      0.00000
    112       6.9687      0.00000


--------------------------------------------------------------------------------------------------------


 soft charge-density along one line, spin component           1
         0         1         2         3         4         5         6         7         8         9
 total charge-density along one line

 pseudopotential strength for first ion, spin component:           1
 18.020  -4.717  -0.000  -0.001  -0.001   0.000   0.001   0.001
 -4.717   1.244   0.000   0.000   0.000  -0.000  -0.000  -0.000
 -0.000   0.000   2.285  -0.000   0.000  -2.737   0.000  -0.000
 -0.001   0.000  -0.000   2.286  -0.001   0.000  -2.739   0.002
 -0.001   0.000   0.000  -0.001   2.285  -0.000   0.002  -2.738
  0.000  -0.000  -2.737   0.000  -0.000   3.248  -0.000   0.000
  0.001  -0.000   0.000  -2.739   0.002  -0.000   3.250  -0.002
  0.001  -0.000  -0.000   0.002  -2.738   0.000  -0.002   3.249
  0.000  -0.000   0.001  -0.000  -0.000  -0.001   0.000   0.000
 -0.000   0.000  -0.000  -0.000  -0.000   0.000   0.000   0.000
  0.001  -0.000  -0.000  -0.001   0.001   0.000   0.001  -0.001
 -0.001   0.000  -0.000  -0.000   0.000   0.000   0.000  -0.000
  0.001  -0.000  -0.000   0.000  -0.002   0.000  -0.000   0.002
 total augmentation occupancy for first ion, spin component:           1
  1.909  -0.143   0.000  -0.000  -0.000   0.000  -0.000  -0.000   0.000  -0.000   0.001  -0.002   0.001
 -0.143   0.110   0.000  -0.003  -0.002   0.000   0.001   0.002   0.000  -0.000  -0.004   0.006  -0.002
  0.000   0.000   2.012  -0.000   0.000   0.000   0.000  -0.000   0.002  -0.000  -0.000   0.000   0.000
 -0.000  -0.003  -0.000   2.018  -0.004  -0.000   0.004  -0.003   0.000   0.000  -0.002   0.000   0.000
 -0.000  -0.002   0.000  -0.004   2.017   0.000  -0.003   0.004   0.000   0.000   0.001   0.000  -0.004
  0.000   0.000   0.000  -0.000   0.000   0.009   0.000  -0.000  -0.002  -0.001   0.000   0.000   0.000
 -0.000   0.001   0.000   0.004  -0.003   0.000   0.006   0.002  -0.000   0.000   0.001  -0.001  -0.000
 -0.000   0.002  -0.000  -0.003   0.004  -0.000   0.002   0.007   0.000   0.000  -0.001  -0.001   0.003
  0.000   0.000   0.002   0.000   0.000  -0.002  -0.000   0.000   0.005   0.003   0.000   0.000   0.000
 -0.000  -0.000  -0.000   0.000   0.000  -0.001   0.000   0.000   0.003   0.004  -0.000   0.000   0.000
  0.001  -0.004  -0.000  -0.002   0.001   0.000   0.001  -0.001   0.000  -0.000   0.005  -0.001  -0.000
 -0.002   0.006   0.000   0.000   0.000   0.000  -0.001  -0.001   0.000   0.000  -0.001   0.002  -0.000
  0.001  -0.002   0.000   0.000  -0.004   0.000  -0.000   0.003   0.000   0.000  -0.000  -0.000   0.005


------------------------ aborting loop because EDIFF is reached ----------------------------------------





 total charge     

# of ion       s       p       d       tot
------------------------------------------
    1        1.785   4.718   0.016   6.519
    2        1.785   4.718   0.016   6.519
    3        1.785   4.718   0.016   6.519
    4        1.785   4.718   0.016   6.519
    5        1.553   0.412   9.832  11.796
    6        1.553   0.411   9.832  11.796
    7        1.553   0.411   9.832  11.796
    8        1.553   0.412   9.832  11.796
    9        1.612   3.276   0.004   4.893
   10        1.612   3.276   0.004   4.893
   11        1.612   3.276   0.004   4.893
   12        1.612   3.276   0.004   4.893
   13        1.616   3.271   0.007   4.894
   14        1.614   3.294   0.006   4.914
   15        1.614   3.294   0.006   4.914
   16        1.616   3.271   0.007   4.894
   17        1.616   3.271   0.007   4.894
   18        1.614   3.294   0.006   4.914
   19        1.616   3.271   0.007   4.894
   20        1.614   3.294   0.006   4.914
--------------------------------------------------
tot         32.715  59.885  39.462 132.062

    CHARGE:  cpu time    0.1244: real time    0.1244
    FORLOC:  cpu time    0.0036: real time    0.0036
    FORNL :  cpu time    0.5426: real time    0.5426
    STRESS:  cpu time   12.2951: real time   12.2957
    FORCOR:  cpu time    0.1024: real time    0.1023
    FORHAR:  cpu time    0.0109: real time    0.0109
    MIXING:  cpu time    0.0011: real time    0.0011
    OFIELD:  cpu time    0.0000: real time    0.0000

  FORCE on cell =-STRESS in cart. coord.  units (eV):
  Direction    XX          YY          ZZ          XY          YZ          ZX
  --------------------------------------------------------------------------------------
  Alpha Z   442.71814   442.71814   442.71814
  Ewald   -2942.72870 -3216.35424 -3032.85152     0.00000    -0.00000    -0.00000
  Hartree  1319.96296  1099.39317  1264.68729    -0.00000    -0.00000    -0.00000
  E(xc)    -738.33212  -738.73643  -738.33411    -0.00000    -0.00000    -0.02857
  Local   -1637.70508 -1141.57754 -1493.92247     0.00000    -0.00000     0.00000
  n-local   900.26204   894.89537   899.57702     0.00000    -0.00000    -0.03964
  augment   406.73231   406.29544   406.34480     0.00000    -0.00008    -0.00003
  Kinetic  2248.11401  2246.20967  2250.99650    -0.00001    -0.00001    -1.55570
  Fock        0.00000     0.00000     0.00000     0.00000     0.00000     0.00000
  -------------------------------------------------------------------------------------
  Total      -0.97644    -7.15642    -0.78435     0.00000     0.00000     0.00000
  in kB      -1.91959   -14.06878    -1.54194     0.00000     0.00000     0.00000
  external pressure =       -5.84 kB  Pullay stress =        0.00 kB


 VOLUME and BASIS-vectors are now :
 -----------------------------------------------------------------------------
  energy-cutoff  :      300.00
  volume of cell :      814.99
      direct lattice vectors                 reciprocal lattice vectors
     8.308951008  0.000000000  0.000000000     0.120352136  0.000000000  0.000000000
     0.000000000 12.351998174  0.000000000     0.000000000  0.080958561  0.000000000
     0.000000000  0.000000000  7.940841850     0.000000000  0.000000000  0.125931232

  length of vectors
     8.308951008 12.351998174  7.940841850     0.120352136  0.080958561  0.125931232


 FORCES acting on ions
    electron-ion (+dipol)            ewald-force                    non-local-force                 convergence-correction
 -----------------------------------------------------------------------------------------------
   0.195E+02 -.130E-12 -.113E+02   -.194E+02 -.107E-13 0.114E+02   -.822E-01 0.000E+00 -.643E-01   -.170E-04 0.624E-13 0.653E-04
   -.195E+02 -.191E-11 -.113E+02   0.194E+02 0.142E-13 0.114E+02   0.822E-01 0.000E+00 -.643E-01   0.170E-04 -.253E-13 0.653E-04
   0.195E+02 0.199E-12 0.113E+02   -.194E+02 0.213E-13 -.114E+02   -.822E-01 0.000E+00 0.643E-01   -.170E-04 0.752E-13 -.653E-04
   -.195E+02 0.380E-11 0.113E+02   0.194E+02 0.284E-13 -.114E+02   0.822E-01 0.000E+00 0.643E-01   0.170E-04 -.551E-14 -.653E-04
   0.675E-12 0.163E-12 0.571E-12   0.102E-10 0.148E-11 0.725E-11   0.000E+00 0.000E+00 -.778E-24   -.613E-13 -.170E-12 0.425E-13
   0.323E-11 -.786E-12 -.735E-11   -.178E-12 -.956E-12 0.762E-11   0.000E+00 0.000E+00 -.787E-23   -.166E-12 -.167E-12 0.293E-14
   0.357E-11 -.120E-11 -.476E-11   -.156E-12 0.927E-12 0.762E-11   0.000E+00 0.000E+00 -.222E-23   -.161E-12 0.610E-13 -.289E-13
   0.655E-12 0.908E-12 0.531E-12   0.102E-10 -.147E-11 0.722E-11   0.000E+00 0.000E+00 0.107E-22   -.680E-13 0.773E-13 0.720E-13
   0.113E+02 -.165E-11 0.204E+02   -.114E+02 -.142E-13 -.205E+02   0.112E+00 -.529E-22 0.758E-01   -.215E-04 -.633E-13 -.513E-04
   -.113E+02 0.326E-12 0.204E+02   0.114E+02 -.426E-13 -.205E+02   -.112E+00 -.529E-22 0.758E-01   0.215E-04 0.507E-13 -.513E-04
   0.113E+02 0.244E-12 -.204E+02   -.114E+02 0.142E-13 0.205E+02   0.112E+00 0.529E-22 -.758E-01   -.215E-04 -.894E-13 0.513E-04
   -.113E+02 0.141E-11 -.204E+02   0.114E+02 0.000E+00 0.205E+02   -.112E+00 0.529E-22 -.758E-01   0.215E-04 0.218E-13 0.513E-04
   -.242E+02 0.126E+02 0.284E+02   0.245E+02 -.127E+02 -.288E+02   -.264E+00 0.121E+00 0.302E+00   0.309E-05 0.732E-05 -.118E-04
   0.242E+02 -.126E+02 0.284E+02   -.245E+02 0.127E+02 -.288E+02   0.264E+00 -.121E+00 0.302E+00   -.309E-05 -.732E-05 -.118E-04
   -.242E+02 -.126E+02 -.284E+02   0.245E+02 0.127E+02 0.288E+02   -.264E+00 -.121E+00 -.302E+00   0.309E-05 -.732E-05 0.118E-04
   0.242E+02 0.126E+02 -.284E+02   -.245E+02 -.127E+02 0.288E+02   0.264E+00 0.121E+00 -.302E+00   -.309E-05 0.732E-05 0.118E-04
   -.242E+02 -.126E+02 0.284E+02   0.245E+02 0.127E+02 -.288E+02   -.264E+00 -.121E+00 0.302E+00   0.309E-05 -.732E-05 -.118E-04
   0.242E+02 0.126E+02 0.284E+02   -.245E+02 -.127E+02 -.288E+02   0.264E+00 0.121E+00 0.302E+00   -.309E-05 0.732E-05 -.118E-04
   0.242E+02 -.126E+02 -.284E+02   -.245E+02 0.127E+02 0.288E+02   0.264E+00 -.121E+00 -.302E+00   -.309E-05 -.732E-05 0.118E-04
   -.242E+02 0.126E+02 -.284E+02   0.245E+02 -.127E+02 0.288E+02   -.264E+00 0.121E+00 -.302E+00   0.309E-05 0.732E-05 0.118E-04
 -----------------------------------------------------------------------------------------------
   -.946E-10 0.661E-12 -.952E-12   -.355E-13 -.782E-13 0.426E-13   0.000E+00 -.555E-16 -.555E-16   -.438E-12 -.218E-12 0.156E-12


 POSITION                                       TOTAL-FORCE (eV/Angst)
 -----------------------------------------------------------------------------------
      0.43459      3.08800      3.84746         0.001508      0.000000      0.001106
      3.71988      9.26400      7.81788        -0.001508      0.000000      0.001106
      4.58907      3.08800      0.12297         0.001508      0.000000     -0.001106
      7.87436      9.26400      4.09339        -0.001508      0.000000     -0.001106
      0.00000      0.00000      0.00000        -0.000000      0.000000     -0.000000
      4.15448      0.00000      3.97042        -0.000000      0.000000     -0.000000
      4.15448      6.17600      3.97042        -0.000000      0.000000     -0.000000
      0.00000      6.17600      0.00000        -0.000000      0.000000     -0.000000
      4.16080      9.26400      3.71275         0.000869      0.000000      0.000715
      8.30262      3.08800      7.68318        -0.000869      0.000000      0.000715
      0.00633      9.26400      0.25767         0.000869     -0.000000     -0.000715
      4.14815      3.08800      4.22809        -0.000869     -0.000000     -0.000715
      2.60360      5.91343      1.44051        -0.004911      0.002404      0.000115
      1.55088      6.43857      5.41093         0.004911     -0.002404      0.000115
      6.75807      0.26257      2.52992        -0.004911     -0.002404     -0.000115
      5.70535     12.08943      6.50034         0.004911      0.002404     -0.000115
      2.60360      0.26257      1.44051        -0.004911     -0.002404      0.000115
      1.55088     12.08943      5.41093         0.004911      0.002404      0.000115
      5.70535      6.43857      6.50034         0.004911     -0.002404     -0.000115
      6.75807      5.91343      2.52992        -0.004911      0.002404     -0.000115
 -----------------------------------------------------------------------------------
    total drift:                               -0.000000      0.000000     -0.000000


--------------------------------------------------------------------------------------------------------



  FREE ENERGIE OF THE ION-ELECTRON SYSTEM (eV)
  ---------------------------------------------------
  free  energy   TOTEN  =      -714.76716429 eV

  energy  without entropy=     -714.76716429  energy(sigma->0) =     -714.76716429



--------------------------------------------------------------------------------------------------------


    POTLOK:  cpu time    1.1916: real time    1.1916


--------------------------------------------------------------------------------------------------------


 stress matrix after NEB project (eV)
     -0.97644      0.00000      0.00000
      0.00000     -7.15642      0.00000
      0.00000      0.00000     -0.78435
  FORCES: max atom, RMS     0.005469    0.003594
  FORCE total and by dimension    0.016073    0.004911
  Stress total and by dimension    7.265189    7.156419
     LOOP+:  cpu time  112.4060: real time  112.9767
    4ORBIT:  cpu time    0.0000: real time    0.0000



 total charge     

# of ion       s       p       d       tot
------------------------------------------
    1        1.785   4.718   0.016   6.519
    2        1.785   4.718   0.016   6.519
    3        1.785   4.718   0.016   6.519
    4        1.785   4.718   0.016   6.519
    5        1.553   0.412   9.832  11.796
    6        1.553   0.411   9.832  11.796
    7        1.553   0.411   9.832  11.796
    8        1.553   0.412   9.832  11.796
    9        1.612   3.276   0.004   4.893
   10        1.612   3.276   0.004   4.893
   11        1.612   3.276   0.004   4.893
   12        1.612   3.276   0.004   4.893
   13        1.616   3.271   0.007   4.894
   14        1.614   3.294   0.006   4.914
   15        1.614   3.294   0.006   4.914
   16        1.616   3.271   0.007   4.894
   17        1.616   3.271   0.007   4.894
   18        1.614   3.294   0.006   4.914
   19        1.616   3.271   0.007   4.894
   20        1.614   3.294   0.006   4.914
--------------------------------------------------
tot         32.715  59.885  39.462 132.062


 total amount of memory used by VASP MPI-rank0    42327. kBytes
=======================================================================

   base      :      30000. kBytes
   nonlr-proj:       2939. kBytes
   fftplans  :       3668. kBytes
   grid      :       3424. kBytes
   one-center:         46. kBytes
   wavefun   :       2250. kBytes

  
  
 General timing and accounting informations for this job:
 ========================================================
  
                  Total CPU time used (sec):      118.718
                            User time (sec):      117.742
                          System time (sec):        0.975
                         Elapsed time (sec):      119.490
  
                   Maximum memory used (kb):       78400.
                   Average memory used (kb):           0.
  
                          Minor page faults:        19034
                          Major page faults:            2
                 Voluntary context switches:         2155
