PROCAR new format
# of k-points:    8         # of bands:  112         # of ions:   20

 k-point     1 :    0.00000000 0.00000000 0.00000000     weight = 0.05555556

band     1 # energy  -20.91329398 # occ.  2.00000000

ion      s      p      d    tot
    1  0.222  0.000  0.000  0.222
    2  0.221  0.000  0.000  0.221
    3  0.222  0.000  0.000  0.222
    4  0.221  0.000  0.000  0.221
    5  0.000  0.000  0.000  0.000
    6  0.000  0.000  0.000  0.000
    7  0.000  0.000  0.000  0.000
    8  0.000  0.000  0.000  0.000
    9  0.000  0.000  0.000  0.000
   10  0.000  0.000  0.000  0.000
   11  0.000  0.000  0.000  0.000
   12  0.000  0.000  0.000  0.000
   13  0.000  0.000  0.000  0.000
   14  0.000  0.000  0.000  0.000
   15  0.000  0.000  0.000  0.000
   16  0.000  0.000  0.000  0.000
   17  0.000  0.000  0.000  0.000
   18  0.000  0.000  0.000  0.000
   19  0.000  0.000  0.000  0.000
   20  0.000  0.000  0.000  0.000
tot    0.887  0.000  0.000  0.887

band     2 # energy  -20.91184551 # occ.  2.00000000

ion      s      p      d    tot
    1  0.222  0.000  0.000  0.222
    2  0.222  0.000  0.000  0.222
    3  0.222  0.000  0.000  0.222
    4  0.222  0.000  0.000  0.222
    5  0.000  0.000  0.000  0.000
    6  0.000  0.000  0.000  0.000
    7  0.000  0.000  0.000  0.000
    8  0.000  0.000  0.000  0.000
    9  0.000  0.000  0.000  0.000
   10  0.000  0.000  0.000  0.000
   11  0.000  0.000  0.000  0.000
   12  0.000  0.000  0.000  0.000
   13  0.000  0.000  0.000  0.000
   14  0.000  0.000  0.000  0.000
   15  0.000  0.000  0.000  0.000
   16  0.000  0.000  0.000  0.000
   17  0.000  0.000  0.000  0.000
   18  0.000  0.000  0.000  0.000
   19  0.000  0.000  0.000  0.000
   20  0.000  0.000  0.000  0.000
tot    0.888  0.000  0.000  0.888

band     3 # energy  -20.90972469 # occ.  2.00000000

ion      s      p      d    tot
    1  0.222  0.000  0.000  0.222
    2  0.222  0.000  0.000  0.222
    3  0.222  0.000  0.000  0.222
    4  0.222  0.000  0.000  0.222
    5  0.000  0.000  0.000  0.000
    6  0.000  0.000  0.000  0.000
    7  0.000  0.000  0.000  0.000
    8  0.000  0.000  0.000  0.000
    9  0.000  0.000  0.000  0.000
   10  0.000  0.000  0.000  0.000
   11  0.000  0.000  0.000  0.000
   12  0.000  0.000  0.000  0.000
   13  0.000  0.000  0.000  0.000
   14  0.000  0.000  0.000  0.000
   15  0.000  0.000  0.000  0.000
   16  0.000  0.000  0.000  0.000
   17  0.000  0.000  0.000  0.000
   18  0.000  0.000  0.000  0.000
   19  0.000  0.000  0.000  0.000
   20  0.000  0.000  0.000  0.000
tot    0.888  0.000  0.000  0.888

band     4 # energy  -20.90884291 # occ.  2.00000000

ion      s      p      d    tot
    1  0.222  0.000  0.000  0.222
    2  0.222  0.000  0.000  0.222
    3  0.222  0.000  0.000  0.222
    4  0.222  0.000  0.000  0.222
    5  0.000  0.000  0.000  0.000
    6  0.000  0.000  0.000  0.000
    7  0.000  0.000  0.000  0.000
    8  0.000  0.000  0.000  0.000
    9  0.000  0.000  0.000  0.000
   10  0.000  0.000  0.000  0.000
   11  0.000  0.000  0.000  0.000
   12  0.000  0.000  0.000  0.000
   13  0.000  0.000  0.000  0.000
   14  0.000  0.000  0.000  0.000
   15  0.000  0.000  0.000  0.000
   16  0.000  0.000  0.000  0.000
   17  0.000  0.000  0.000  0.000
   18  0.000  0.000  0.000  0.000
   19  0.000  0.000  0.000  0.000
   20  0.000  0.000  0.000  0.000
tot    0.888  0.000  0.000  0.888

band     5 # energy  -16.56828884 # occ.  2.00000000

ion      s      p      d    tot
    1  0.000  0.000  0.000  0.000
    2  0.000  0.000  0.000  0.000
    3  0.000  0.000  0.000  0.000
    4  0.000  0.000  0.000  0.000
    5  0.000  0.000  0.231  0.231
    6  0.000  0.000  0.231  0.231
    7  0.000  0.000  0.231  0.231
    8  0.000  0.000  0.231  0.231
    9  0.000  0.000  0.000  0.000
   10  0.000  0.000  0.000  0.000
   11  0.000  0.000  0.000  0.000
   12  0.000  0.000  0.000  0.000
   13  0.005  0.000  0.000  0.005
   14  0.005  0.000  0.000  0.005
   15  0.005  0.000  0.000  0.005
   16  0.005  0.000  0.000  0.005
   17  0.005  0.000  0.000  0.005
   18  0.005  0.000  0.000  0.005
   19  0.005  0.000  0.000  0.005
   20  0.005  0.000  0.000  0.005
tot    0.038  0.000  0.923  0.961

band     6 # energy  -16.56823888 # occ.  2.00000000

ion      s      p      d    tot
    1  0.000  0.000  0.000  0.000
    2  0.000  0.000  0.000  0.000
    3  0.000  0.000  0.000  0.000
    4  0.000  0.000  0.000  0.000
    5  0.000  0.000  0.231  0.231
    6  0.000  0.000  0.231  0.231
    7  0.000  0.000  0.231  0.231
    8  0.000  0.000  0.231  0.231
    9  0.000  0.000  0.000  0.000
   10  0.000  0.000  0.000  0.000
   11  0.000  0.000  0.000  0.000
   12  0.000  0.000  0.000  0.000
   13  0.005  0.000  0.000  0.005
   14  0.005  0.000  0.000  0.005
   15  0.005  0.000  0.000  0.005
   16  0.005  0.000  0.000  0.005
   17  0.005  0.000  0.000  0.005
   18  0.005  0.000  0.000  0.005
   19  0.005  0.000  0.000  0.005
   20  0.005  0.000  0.000  0.005
tot    0.038  0.000  0.923  0.961

band     7 # energy  -16.54559068 # occ.  2.00000000

ion      s      p      d    tot
    1  0.000  0.000  0.000  0.000
    2  0.000  0.000  0.000  0.000
    3  0.000  0.000  0.000  0.000
    4  0.000  0.000  0.000  0.000
    5  0.000  0.000  0.234  0.234
    6  0.000  0.000  0.234  0.234
    7  0.000  0.000  0.234  0.234
    8  0.000  0.000  0.234  0.234
    9  0.003  0.000  0.000  0.003
   10  0.003  0.000  0.000  0.003
   11  0.003  0.000  0.000  0.003
   12  0.003  0.000  0.000  0.003
   13  0.002  0.000  0.000  0.002
   14  0.002  0.000  0.000  0.002
   15  0.002  0.000  0.000  0.002
   16  0.002  0.000  0.000  0.002
   17  0.002  0.000  0.000  0.002
   18  0.002  0.000  0.000  0.002
   19  0.002  0.000  0.000  0.002
   20  0.002  0.000  0.000  0.002
tot    0.027  0.000  0.937  0.965

band     8 # energy  -16.51485275 # occ.  2.00000000

ion      s      p      d    tot
    1  0.000  0.000  0.000  0.000
    2  0.000  0.000  0.000  0.000
    3  0.000  0.000  0.000  0.000
    4  0.000  0.000  0.000  0.000
    5  0.000  0.000  0.238  0.238
    6  0.000  0.000  0.238  0.238
    7  0.000  0.000  0.238  0.238
    8  0.000  0.000  0.238  0.238
    9  0.000  0.000  0.000  0.000
   10  0.000  0.000  0.000  0.000
   11  0.000  0.000  0.000  0.000
   12  0.000  0.000  0.000  0.000
   13  0.002  0.000  0.000  0.002
   14  0.002  0.000  0.000  0.002
   15  0.002  0.000  0.000  0.002
   16  0.002  0.000  0.000  0.002
   17  0.002  0.000  0.000  0.002
   18  0.002  0.000  0.000  0.002
   19  0.002  0.000  0.000  0.002
   20  0.002  0.000  0.000  0.002
tot    0.016  0.001  0.952  0.969

band     9 # energy  -16.51382690 # occ.  2.00000000

ion      s      p      d    tot
    1  0.000  0.000  0.000  0.000
    2  0.000  0.000  0.000  0.000
    3  0.000  0.000  0.000  0.000
    4  0.000  0.000  0.000  0.000
    5  0.000  0.000  0.238  0.238
    6  0.000  0.000  0.238  0.238
    7  0.000  0.000  0.238  0.238
    8  0.000  0.000  0.238  0.238
    9  0.004  0.000  0.000  0.004
   10  0.004  0.000  0.000  0.004
   11  0.004  0.000  0.000  0.004
   12  0.004  0.000  0.000  0.004
   13  0.000  0.000  0.000  0.000
   14  0.000  0.000  0.000  0.000
   15  0.000  0.000  0.000  0.000
   16  0.000  0.000  0.000  0.000
   17  0.000  0.000  0.000  0.000
   18  0.000  0.000  0.000  0.000
   19  0.000  0.000  0.000  0.000
   20  0.000  0.000  0.000  0.000
tot    0.015  0.001  0.954  0.969

band    10 # energy  -16.47914202 # occ.  2.00000000

ion      s      p      d    tot
    1  0.000  0.000  0.000  0.000
    2  0.000  0.000  0.000  0.000
    3  0.000  0.000  0.000  0.000
    4  0.000  0.000  0.000  0.000
    5  0.000  0.000  0.243  0.243
    6  0.000  0.000  0.243  0.243
    7  0.000  0.000  0.243  0.243
    8  0.000  0.000  0.243  0.243
    9  0.000  0.000  0.000  0.000
   10  0.000  0.000  0.000  0.000
   11  0.000  0.000  0.000  0.000
   12  0.000  0.000  0.000  0.000
   13  0.000  0.000  0.000  0.000
   14  0.000  0.000  0.000  0.000
   15  0.000  0.000  0.000  0.000
   16  0.000  0.000  0.000  0.000
   17  0.000  0.000  0.000  0.000
   18  0.000  0.000  0.000  0.000
   19  0.000  0.000  0.000  0.000
   20  0.000  0.000  0.000  0.000
tot    0.000  0.002  0.973  0.975

band    11 # energy  -16.47394869 # occ.  2.00000000

ion      s      p      d    tot
    1  0.000  0.000  0.000  0.000
    2  0.000  0.000  0.000  0.000
    3  0.000  0.000  0.000  0.000
    4  0.000  0.000  0.000  0.000
    5  0.000  0.000  0.243  0.243
    6  0.000  0.000  0.243  0.243
    7  0.000  0.000  0.243  0.243
    8  0.000  0.000  0.243  0.243
    9  0.000  0.000  0.000  0.000
   10  0.000  0.000  0.000  0.000
   11  0.000  0.000  0.000  0.000
   12  0.000  0.000  0.000  0.000
   13  0.000  0.000  0.000  0.000
   14  0.000  0.000  0.000  0.000
   15  0.000  0.000  0.000  0.000
   16  0.000  0.000  0.000  0.000
   17  0.000  0.000  0.000  0.000
   18  0.000  0.000  0.000  0.000
   19  0.000  0.000  0.000  0.000
   20  0.000  0.000  0.000  0.000
tot    0.000  0.002  0.972  0.974

band    12 # energy  -16.47376949 # occ.  2.00000000

ion      s      p      d    tot
    1  0.000  0.000  0.000  0.000
    2  0.000  0.000  0.000  0.000
    3  0.000  0.000  0.000  0.000
    4  0.000  0.000  0.000  0.000
    5  0.000  0.000  0.243  0.243
    6  0.000  0.000  0.243  0.243
    7  0.000  0.000  0.243  0.243
    8  0.000  0.000  0.243  0.243
    9  0.000  0.000  0.000  0.000
   10  0.000  0.000  0.000  0.000
   11  0.000  0.000  0.000  0.000
   12  0.000  0.000  0.000  0.000
   13  0.000  0.000  0.000  0.000
   14  0.000  0.000  0.000  0.000
   15  0.000  0.000  0.000  0.000
   16  0.000  0.000  0.000  0.000
   17  0.000  0.000  0.000  0.000
   18  0.000  0.000  0.000  0.000
   19  0.000  0.000  0.000  0.000
   20  0.000  0.000  0.000  0.000
tot    0.000  0.002  0.972  0.974

band    13 # energy  -16.42886100 # occ.  2.00000000

ion      s      p      d    tot
    1  0.000  0.000  0.000  0.000
    2  0.000  0.000  0.000  0.000
    3  0.000  0.000  0.000  0.000
    4  0.000  0.000  0.000  0.000
    5  0.000  0.000  0.244  0.244
    6  0.000  0.000  0.244  0.244
    7  0.000  0.000  0.244  0.244
    8  0.000  0.000  0.244  0.244
    9  0.000  0.000  0.000  0.000
   10  0.000  0.000  0.000  0.000
   11  0.000  0.000  0.000  0.000
   12  0.000  0.000  0.000  0.000
   13  0.000  0.000  0.000  0.000
   14  0.000  0.000  0.000  0.000
   15  0.000  0.000  0.000  0.000
   16  0.000  0.000  0.000  0.000
   17  0.000  0.000  0.000  0.000
   18  0.000  0.000  0.000  0.000
   19  0.000  0.000  0.000  0.000
   20  0.000  0.000  0.000  0.000
tot    0.000  0.000  0.977  0.978

band    14 # energy  -16.42841491 # occ.  2.00000000

ion      s      p      d    tot
    1  0.000  0.000  0.000  0.000
    2  0.000  0.000  0.000  0.000
    3  0.000  0.000  0.000  0.000
    4  0.000  0.000  0.000  0.000
    5  0.000  0.000  0.245  0.245
    6  0.000  0.000  0.244  0.244
    7  0.000  0.000  0.245  0.245
    8  0.000  0.000  0.244  0.244
    9  0.000  0.000  0.000  0.000
   10  0.000  0.000  0.000  0.000
   11  0.000  0.000  0.000  0.000
   12  0.000  0.000  0.000  0.000
   13  0.000  0.000  0.000  0.000
   14  0.000  0.000  0.000  0.000
   15  0.000  0.000  0.000  0.000
   16  0.000  0.000  0.000  0.000
   17  0.000  0.000  0.000  0.000
   18  0.000  0.000  0.000  0.000
   19  0.000  0.000  0.000  0.000
   20  0.000  0.000  0.000  0.000
tot    0.000  0.000  0.978  0.978

band    15 # energy  -16.42824110 # occ.  2.00000000

ion      s      p      d    tot
    1  0.000  0.000  0.000  0.000
    2  0.000  0.000  0.000  0.000
    3  0.000  0.000  0.000  0.000
    4  0.000  0.000  0.000  0.000
    5  0.000  0.000  0.244  0.244
    6  0.000  0.000  0.245  0.245
    7  0.000  0.000  0.244  0.244
    8  0.000  0.000  0.245  0.245
    9  0.000  0.000  0.000  0.000
   10  0.000  0.000  0.000  0.000
   11  0.000  0.000  0.000  0.000
   12  0.000  0.000  0.000  0.000
   13  0.000  0.000  0.000  0.000
   14  0.000  0.000  0.000  0.000
   15  0.000  0.000  0.000  0.000
   16  0.000  0.000  0.000  0.000
   17  0.000  0.000  0.000  0.000
   18  0.000  0.000  0.000  0.000
   19  0.000  0.000  0.000  0.000
   20  0.000  0.000  0.000  0.000
tot    0.000  0.000  0.978  0.978

band    16 # energy  -16.42747417 # occ.  2.00000000

ion      s      p      d    tot
    1  0.000  0.000  0.000  0.000
    2  0.000  0.000  0.000  0.000
    3  0.000  0.000  0.000  0.000
    4  0.000  0.000  0.000  0.000
    5  0.000  0.000  0.244  0.244
    6  0.000  0.000  0.245  0.245
    7  0.000  0.000  0.244  0.244
    8  0.000  0.000  0.245  0.245
    9  0.000  0.000  0.000  0.000
   10  0.000  0.000  0.000  0.000
   11  0.000  0.000  0.000  0.000
   12  0.000  0.000  0.000  0.000
   13  0.000  0.000  0.000  0.000
   14  0.000  0.000  0.000  0.000
   15  0.000  0.000  0.000  0.000
   16  0.000  0.000  0.000  0.000
   17  0.000  0.000  0.000  0.000
   18  0.000  0.000  0.000  0.000
   19  0.000  0.000  0.000  0.000
   20  0.000  0.000  0.000  0.000
tot    0.000  0.000  0.978  0.978

band    17 # energy  -16.42062157 # occ.  2.00000000

ion      s      p      d    tot
    1  0.000  0.000  0.000  0.000
    2  0.000  0.000  0.000  0.000
    3  0.000  0.000  0.000  0.000
    4  0.000  0.000  0.000  0.000
    5  0.000  0.000  0.244  0.244
    6  0.000  0.000  0.244  0.244
    7  0.000  0.000  0.244  0.244
    8  0.000  0.000  0.244  0.244
    9  0.000  0.000  0.000  0.000
   10  0.000  0.000  0.000  0.000
   11  0.000  0.000  0.000  0.000
   12  0.000  0.000  0.000  0.000
   13  0.000  0.000  0.000  0.000
   14  0.000  0.000  0.000  0.000
   15  0.000  0.000  0.000  0.000
   16  0.000  0.000  0.000  0.000
   17  0.000  0.000  0.000  0.000
   18  0.000  0.000  0.000  0.000
   19  0.000  0.000  0.000  0.000
   20  0.000  0.000  0.000  0.000
tot    0.000  0.000  0.977  0.978

band    18 # energy  -16.42053251 # occ.  2.00000000

ion      s      p      d    tot
    1  0.000  0.000  0.000  0.000
    2  0.000  0.000  0.000  0.000
    3  0.000  0.000  0.000  0.000
    4  0.000  0.000  0.000  0.000
    5  0.000  0.000  0.244  0.244
    6  0.000  0.000  0.244  0.244
    7  0.000  0.000  0.244  0.244
    8  0.000  0.000  0.244  0.244
    9  0.000  0.000  0.000  0.000
   10  0.000  0.000  0.000  0.000
   11  0.000  0.000  0.000  0.000
   12  0.000  0.000  0.000  0.000
   13  0.000  0.000  0.000  0.000
   14  0.000  0.000  0.000  0.000
   15  0.000  0.000  0.000  0.000
   16  0.000  0.000  0.000  0.000
   17  0.000  0.000  0.000  0.000
   18  0.000  0.000  0.000  0.000
   19  0.000  0.000  0.000  0.000
   20  0.000  0.000  0.000  0.000
tot    0.000  0.000  0.978  0.978

band    19 # energy  -16.41989445 # occ.  2.00000000

ion      s      p      d    tot
    1  0.000  0.000  0.000  0.000
    2  0.000  0.000  0.000  0.000
    3  0.000  0.000  0.000  0.000
    4  0.000  0.000  0.000  0.000
    5  0.000  0.000  0.244  0.244
    6  0.000  0.000  0.244  0.244
    7  0.000  0.000  0.244  0.244
    8  0.000  0.000  0.244  0.244
    9  0.000  0.000  0.000  0.000
   10  0.000  0.000  0.000  0.000
   11  0.000  0.000  0.000  0.000
   12  0.000  0.000  0.000  0.000
   13  0.000  0.000  0.000  0.000
   14  0.000  0.000  0.000  0.000
   15  0.000  0.000  0.000  0.000
   16  0.000  0.000  0.000  0.000
   17  0.000  0.000  0.000  0.000
   18  0.000  0.000  0.000  0.000
   19  0.000  0.000  0.000  0.000
   20  0.000  0.000  0.000  0.000
tot    0.000  0.000  0.978  0.978

band    20 # energy  -16.41940312 # occ.  2.00000000

ion      s      p      d    tot
    1  0.000  0.000  0.000  0.000
    2  0.000  0.000  0.000  0.000
    3  0.000  0.000  0.000  0.000
    4  0.000  0.000  0.000  0.000
    5  0.000  0.000  0.244  0.244
    6  0.000  0.000  0.244  0.244
    7  0.000  0.000  0.244  0.244
    8  0.000  0.000  0.244  0.244
    9  0.000  0.000  0.000  0.000
   10  0.000  0.000  0.000  0.000
   11  0.000  0.000  0.000  0.000
   12  0.000  0.000  0.000  0.000
   13  0.000  0.000  0.000  0.000
   14  0.000  0.000  0.000  0.000
   15  0.000  0.000  0.000  0.000
   16  0.000  0.000  0.000  0.000
   17  0.000  0.000  0.000  0.000
   18  0.000  0.000  0.000  0.000
   19  0.000  0.000  0.000  0.000
   20  0.000  0.000  0.000  0.000
tot    0.000  0.000  0.978  0.978

band    21 # energy  -16.39999070 # occ.  2.00000000

ion      s      p      d    tot
    1  0.000  0.000  0.000  0.000
    2  0.000  0.000  0.000  0.000
    3  0.000  0.000  0.000  0.000
    4  0.000  0.000  0.000  0.000
    5  0.000  0.000  0.244  0.244
    6  0.000  0.000  0.244  0.244
    7  0.000  0.000  0.244  0.244
    8  0.000  0.000  0.244  0.244
    9  0.000  0.000  0.000  0.000
   10  0.000  0.000  0.000  0.000
   11  0.000  0.000  0.000  0.000
   12  0.000  0.000  0.000  0.000
   13  0.000  0.000  0.000  0.000
   14  0.000  0.000  0.000  0.000
   15  0.000  0.000  0.000  0.000
   16  0.000  0.000  0.000  0.000
   17  0.000  0.000  0.000  0.000
   18  0.000  0.000  0.000  0.000
   19  0.000  0.000  0.000  0.000
   20  0.000  0.000  0.000  0.000
tot    0.000  0.000  0.977  0.978

band    22 # energy  -16.39995254 # occ.  2.00000000

ion      s      p      d    tot
    1  0.000  0.000  0.000  0.000
    2  0.000  0.000  0.000  0.000
    3  0.000  0.000  0.000  0.000
    4  0.000  0.000  0.000  0.000
    5  0.000  0.000  0.244  0.244
    6  0.000  0.000  0.244  0.244
    7  0.000  0.000  0.244  0.244
    8  0.000  0.000  0.244  0.244
    9  0.000  0.000  0.000  0.000
   10  0.000  0.000  0.000  0.000
   11  0.000  0.000  0.000  0.000
   12  0.000  0.000  0.000  0.000
   13  0.000  0.000  0.000  0.000
   14  0.000  0.000  0.000  0.000
   15  0.000  0.000  0.000  0.000
   16  0.000  0.000  0.000  0.000
   17  0.000  0.000  0.000  0.000
   18  0.000  0.000  0.000  0.000
   19  0.000  0.000  0.000  0.000
   20  0.000  0.000  0.000  0.000
tot    0.000  0.000  0.977  0.978

band    23 # energy  -16.39816231 # occ.  2.00000000

ion      s      p      d    tot
    1  0.000  0.000  0.000  0.000
    2  0.000  0.000  0.000  0.000
    3  0.000  0.000  0.000  0.000
    4  0.000  0.000  0.000  0.000
    5  0.000  0.000  0.244  0.244
    6  0.000  0.000  0.244  0.244
    7  0.000  0.000  0.244  0.244
    8  0.000  0.000  0.244  0.244
    9  0.000  0.000  0.000  0.000
   10  0.000  0.000  0.000  0.000
   11  0.000  0.000  0.000  0.000
   12  0.000  0.000  0.000  0.000
   13  0.000  0.000  0.000  0.000
   14  0.000  0.000  0.000  0.000
   15  0.000  0.000  0.000  0.000
   16  0.000  0.000  0.000  0.000
   17  0.000  0.000  0.000  0.000
   18  0.000  0.000  0.000  0.000
   19  0.000  0.000  0.000  0.000
   20  0.000  0.000  0.000  0.000
tot    0.000  0.000  0.978  0.978

band    24 # energy  -16.39810825 # occ.  2.00000000

ion      s      p      d    tot
    1  0.000  0.000  0.000  0.000
    2  0.000  0.000  0.000  0.000
    3  0.000  0.000  0.000  0.000
    4  0.000  0.000  0.000  0.000
    5  0.000  0.000  0.244  0.244
    6  0.000  0.000  0.244  0.244
    7  0.000  0.000  0.244  0.244
    8  0.000  0.000  0.244  0.244
    9  0.000  0.000  0.000  0.000
   10  0.000  0.000  0.000  0.000
   11  0.000  0.000  0.000  0.000
   12  0.000  0.000  0.000  0.000
   13  0.000  0.000  0.000  0.000
   14  0.000  0.000  0.000  0.000
   15  0.000  0.000  0.000  0.000
   16  0.000  0.000  0.000  0.000
   17  0.000  0.000  0.000  0.000
   18  0.000  0.000  0.000  0.000
   19  0.000  0.000  0.000  0.000
   20  0.000  0.000  0.000  0.000
tot    0.000  0.000  0.978  0.978

band    25 # energy  -14.35508917 # occ.  2.00000000

ion      s      p      d    tot
    1  0.000  0.000  0.000  0.000
    2  0.000  0.000  0.000  0.000
    3  0.000  0.000  0.000  0.000
    4  0.000  0.000  0.000  0.000
    5  0.007  0.000  0.001  0.008
    6  0.007  0.000  0.001  0.008
    7  0.007  0.000  0.001  0.008
    8  0.007  0.000  0.001  0.008
    9  0.042  0.000  0.000  0.042
   10  0.042  0.000  0.000  0.042
   11  0.042  0.000  0.000  0.042
   12  0.042  0.000  0.000  0.042
   13  0.071  0.000  0.000  0.071
   14  0.071  0.000  0.000  0.071
   15  0.071  0.000  0.000  0.071
   16  0.071  0.000  0.000  0.071
   17  0.071  0.000  0.000  0.071
   18  0.071  0.000  0.000  0.071
   19  0.071  0.000  0.000  0.071
   20  0.071  0.000  0.000  0.071
tot    0.769  0.000  0.004  0.773

band    26 # energy  -14.24757124 # occ.  2.00000000

ion      s      p      d    tot
    1  0.000  0.000  0.000  0.000
    2  0.000  0.000  0.000  0.000
    3  0.000  0.000  0.000  0.000
    4  0.000  0.000  0.000  0.000
    5  0.006  0.000  0.006  0.012
    6  0.006  0.000  0.006  0.012
    7  0.006  0.000  0.006  0.012
    8  0.006  0.000  0.006  0.012
    9  0.000  0.000  0.000  0.000
   10  0.000  0.000  0.000  0.000
   11  0.000  0.000  0.000  0.000
   12  0.000  0.000  0.000  0.000
   13  0.092  0.000  0.000  0.092
   14  0.092  0.000  0.000  0.092
   15  0.092  0.000  0.000  0.092
   16  0.092  0.000  0.000  0.092
   17  0.092  0.000  0.000  0.092
   18  0.092  0.000  0.000  0.092
   19  0.092  0.000  0.000  0.092
   20  0.092  0.000  0.000  0.092
tot    0.760  0.002  0.024  0.786

band    27 # energy  -14.07725477 # occ.  2.00000000

ion      s      p      d    tot
    1  0.000  0.000  0.000  0.000
    2  0.000  0.000  0.000  0.000
    3  0.000  0.000  0.000  0.000
    4  0.000  0.000  0.000  0.000
    5  0.000  0.001  0.000  0.001
    6  0.000  0.001  0.000  0.001
    7  0.000  0.001  0.000  0.001
    8  0.000  0.001  0.000  0.001
    9  0.000  0.000  0.000  0.000
   10  0.000  0.000  0.000  0.000
   11  0.000  0.000  0.000  0.000
   12  0.000  0.000  0.000  0.000
   13  0.099  0.000  0.000  0.099
   14  0.099  0.000  0.000  0.099
   15  0.099  0.000  0.000  0.099
   16  0.099  0.000  0.000  0.099
   17  0.099  0.000  0.000  0.099
   18  0.099  0.000  0.000  0.099
   19  0.099  0.000  0.000  0.099
   20  0.099  0.000  0.000  0.099
tot    0.793  0.005  0.000  0.799

band    28 # energy  -14.07218243 # occ.  2.00000000

ion      s      p      d    tot
    1  0.000  0.000  0.000  0.000
    2  0.000  0.000  0.000  0.000
    3  0.000  0.000  0.000  0.000
    4  0.000  0.000  0.000  0.000
    5  0.000  0.001  0.000  0.001
    6  0.000  0.001  0.000  0.001
    7  0.000  0.001  0.000  0.001
    8  0.000  0.001  0.000  0.001
    9  0.000  0.000  0.000  0.000
   10  0.000  0.000  0.000  0.000
   11  0.000  0.000  0.000  0.000
   12  0.000  0.000  0.000  0.000
   13  0.099  0.000  0.000  0.099
   14  0.099  0.000  0.000  0.099
   15  0.099  0.000  0.000  0.099
   16  0.099  0.000  0.000  0.099
   17  0.099  0.000  0.000  0.099
   18  0.099  0.000  0.000  0.099
   19  0.099  0.000  0.000  0.099
   20  0.099  0.000  0.000  0.099
tot    0.795  0.005  0.000  0.799

band    29 # energy  -14.04791921 # occ.  2.00000000

ion      s      p      d    tot
    1  0.000  0.000  0.000  0.000
    2  0.000  0.000  0.000  0.000
    3  0.000  0.000  0.000  0.000
    4  0.000  0.000  0.000  0.000
    5  0.000  0.001  0.000  0.001
    6  0.000  0.001  0.000  0.001
    7  0.000  0.001  0.000  0.001
    8  0.000  0.001  0.000  0.001
    9  0.003  0.000  0.000  0.003
   10  0.003  0.000  0.000  0.003
   11  0.003  0.000  0.000  0.003
   12  0.003  0.000  0.000  0.003
   13  0.098  0.000  0.000  0.098
   14  0.098  0.000  0.000  0.098
   15  0.098  0.000  0.000  0.098
   16  0.098  0.000  0.000  0.098
   17  0.098  0.000  0.000  0.098
   18  0.098  0.000  0.000  0.098
   19  0.098  0.000  0.000  0.098
   20  0.098  0.000  0.000  0.098
tot    0.796  0.005  0.000  0.801

band    30 # energy  -14.04209325 # occ.  2.00000000

ion      s      p      d    tot
    1  0.000  0.000  0.000  0.000
    2  0.000  0.000  0.000  0.000
    3  0.000  0.000  0.000  0.000
    4  0.000  0.000  0.000  0.000
    5  0.000  0.001  0.000  0.001
    6  0.000  0.001  0.000  0.001
    7  0.000  0.001  0.000  0.001
    8  0.000  0.001  0.000  0.001
    9  0.000  0.000  0.000  0.000
   10  0.000  0.000  0.000  0.000
   11  0.000  0.000  0.000  0.000
   12  0.000  0.000  0.000  0.000
   13  0.100  0.000  0.000  0.100
   14  0.100  0.000  0.000  0.100
   15  0.100  0.000  0.000  0.100
   16  0.100  0.000  0.000  0.100
   17  0.100  0.000  0.000  0.100
   18  0.100  0.000  0.000  0.100
   19  0.100  0.000  0.000  0.100
   20  0.100  0.000  0.000  0.100
tot    0.797  0.004  0.000  0.802

band    31 # energy  -13.94302884 # occ.  2.00000000

ion      s      p      d    tot
    1  0.000  0.000  0.000  0.000
    2  0.000  0.000  0.000  0.000
    3  0.000  0.000  0.000  0.000
    4  0.000  0.000  0.000  0.000
    5  0.000  0.001  0.000  0.001
    6  0.000  0.001  0.000  0.001
    7  0.000  0.001  0.000  0.001
    8  0.000  0.001  0.000  0.001
    9  0.195  0.000  0.000  0.195
   10  0.195  0.000  0.000  0.195
   11  0.195  0.000  0.000  0.195
   12  0.195  0.000  0.000  0.195
   13  0.002  0.000  0.000  0.002
   14  0.002  0.000  0.000  0.002
   15  0.002  0.000  0.000  0.002
   16  0.002  0.000  0.000  0.002
   17  0.002  0.000  0.000  0.002
   18  0.002  0.000  0.000  0.002
   19  0.002  0.000  0.000  0.002
   20  0.002  0.000  0.000  0.002
tot    0.796  0.003  0.000  0.799

band    32 # energy  -13.94220975 # occ.  2.00000000

ion      s      p      d    tot
    1  0.000  0.000  0.000  0.000
    2  0.000  0.000  0.000  0.000
    3  0.000  0.000  0.000  0.000
    4  0.000  0.000  0.000  0.000
    5  0.000  0.001  0.000  0.001
    6  0.000  0.001  0.000  0.001
    7  0.000  0.001  0.000  0.001
    8  0.000  0.001  0.000  0.001
    9  0.199  0.000  0.000  0.199
   10  0.199  0.000  0.000  0.199
   11  0.199  0.000  0.000  0.199
   12  0.199  0.000  0.000  0.199
   13  0.000  0.000  0.000  0.000
   14  0.000  0.000  0.000  0.000
   15  0.000  0.000  0.000  0.000
   16  0.000  0.000  0.000  0.000
   17  0.000  0.000  0.000  0.000
   18  0.000  0.000  0.000  0.000
   19  0.000  0.000  0.000  0.000
   20  0.000  0.000  0.000  0.000
tot    0.796  0.003  0.000  0.799

band    33 # energy  -13.91174448 # occ.  2.00000000

ion      s      p      d    tot
    1  0.000  0.000  0.000  0.000
    2  0.000  0.000  0.000  0.000
    3  0.000  0.000  0.000  0.000
    4  0.000  0.000  0.000  0.000
    5  0.002  0.000  0.006  0.008
    6  0.002  0.000  0.006  0.008
    7  0.002  0.000  0.006  0.008
    8  0.002  0.000  0.006  0.008
    9  0.193  0.000  0.000  0.193
   10  0.193  0.000  0.000  0.193
   11  0.193  0.000  0.000  0.193
   12  0.193  0.000  0.000  0.193
   13  0.000  0.000  0.000  0.000
   14  0.000  0.000  0.000  0.000
   15  0.000  0.000  0.000  0.000
   16  0.000  0.000  0.000  0.000
   17  0.000  0.000  0.000  0.000
   18  0.000  0.000  0.000  0.000
   19  0.000  0.000  0.000  0.000
   20  0.000  0.000  0.000  0.000
tot    0.780  0.001  0.023  0.804

band    34 # energy  -13.80100993 # occ.  2.00000000

ion      s      p      d    tot
    1  0.000  0.000  0.000  0.000
    2  0.000  0.000  0.000  0.000
    3  0.000  0.000  0.000  0.000
    4  0.000  0.000  0.000  0.000
    5  0.000  0.000  0.014  0.014
    6  0.000  0.000  0.014  0.014
    7  0.000  0.000  0.014  0.014
    8  0.000  0.000  0.014  0.014
    9  0.000  0.000  0.000  0.000
   10  0.000  0.000  0.000  0.000
   11  0.000  0.000  0.000  0.000
   12  0.000  0.000  0.000  0.000
   13  0.096  0.000  0.000  0.096
   14  0.096  0.000  0.000  0.096
   15  0.096  0.000  0.000  0.096
   16  0.096  0.000  0.000  0.096
   17  0.096  0.000  0.000  0.096
   18  0.096  0.000  0.000  0.096
   19  0.096  0.000  0.000  0.096
   20  0.096  0.000  0.000  0.096
tot    0.770  0.001  0.057  0.828

band    35 # energy  -13.79507591 # occ.  2.00000000

ion      s      p      d    tot
    1  0.000  0.000  0.000  0.000
    2  0.000  0.000  0.000  0.000
    3  0.000  0.000  0.000  0.000
    4  0.000  0.000  0.000  0.000
    5  0.000  0.000  0.014  0.014
    6  0.000  0.000  0.014  0.014
    7  0.000  0.000  0.014  0.014
    8  0.000  0.000  0.014  0.014
    9  0.000  0.000  0.000  0.000
   10  0.000  0.000  0.000  0.000
   11  0.000  0.000  0.000  0.000
   12  0.000  0.000  0.000  0.000
   13  0.096  0.000  0.000  0.096
   14  0.096  0.000  0.000  0.096
   15  0.096  0.000  0.000  0.096
   16  0.096  0.000  0.000  0.096
   17  0.096  0.000  0.000  0.096
   18  0.096  0.000  0.000  0.096
   19  0.096  0.000  0.000  0.096
   20  0.096  0.000  0.000  0.096
tot    0.772  0.000  0.057  0.829

band    36 # energy  -13.77117102 # occ.  2.00000000

ion      s      p      d    tot
    1  0.000  0.000  0.000  0.000
    2  0.000  0.000  0.000  0.000
    3  0.000  0.000  0.000  0.000
    4  0.000  0.000  0.000  0.000
    5  0.000  0.000  0.010  0.010
    6  0.000  0.000  0.010  0.010
    7  0.000  0.000  0.010  0.010
    8  0.000  0.000  0.010  0.010
    9  0.153  0.000  0.000  0.153
   10  0.153  0.000  0.000  0.153
   11  0.153  0.000  0.000  0.153
   12  0.153  0.000  0.000  0.153
   13  0.022  0.000  0.000  0.022
   14  0.022  0.000  0.000  0.022
   15  0.022  0.000  0.000  0.022
   16  0.022  0.000  0.000  0.022
   17  0.022  0.000  0.000  0.022
   18  0.022  0.000  0.000  0.022
   19  0.022  0.000  0.000  0.022
   20  0.022  0.000  0.000  0.022
tot    0.783  0.000  0.039  0.822

band    37 # energy   -8.18424458 # occ.  2.00000000

ion      s      p      d    tot
    1  0.000  0.000  0.000  0.000
    2  0.000  0.000  0.000  0.000
    3  0.000  0.000  0.000  0.000
    4  0.000  0.000  0.000  0.000
    5  0.145  0.000  0.000  0.145
    6  0.145  0.000  0.000  0.145
    7  0.145  0.000  0.000  0.145
    8  0.145  0.000  0.000  0.145
    9  0.000  0.006  0.000  0.006
   10  0.000  0.006  0.000  0.006
   11  0.000  0.006  0.000  0.006
   12  0.000  0.006  0.000  0.006
   13  0.000  0.008  0.000  0.008
   14  0.000  0.008  0.000  0.008
   15  0.000  0.008  0.000  0.008
   16  0.000  0.008  0.000  0.008
   17  0.000  0.008  0.000  0.008
   18  0.000  0.008  0.000  0.008
   19  0.000  0.008  0.000  0.008
   20  0.000  0.008  0.000  0.008
tot    0.580  0.091  0.001  0.672

band    38 # energy   -7.81383756 # occ.  2.00000000

ion      s      p      d    tot
    1  0.000  0.002  0.000  0.002
    2  0.000  0.002  0.000  0.002
    3  0.000  0.002  0.000  0.002