 running on   64 total cores
 distrk:  each k-point on   64 cores,    1 groups
 distr:  one band on    8 cores,    8 groups
 using from now: INCAR     
 vasp.5.4.4.18Apr17-6-g9f103f2a35 (build Jun 29 2021 14:23:36) complex           
 POSCAR found type information on POSCAR  Cs Pb Br
 POSCAR found :  3 types and      20 ions
 scaLAPACK will be used
 LDA part: xc-table for Pade appr. of Perdew
 POSCAR found type information on POSCAR  Cs Pb Br
 POSCAR found :  3 types and      20 ions
 POSCAR, INCAR and KPOINTS ok, starting setup
 FFT: planning ...
 WAVECAR not read
 entering main loop
       N       E                     dE             d eps       ncg     rms          rms(c)
DAV:   1     0.651749163175E+03    0.65175E+03   -0.55893E+04  1856   0.918E+02
DAV:   2    -0.580100791641E+03   -0.12318E+04   -0.11869E+04  2216   0.283E+02
DAV:   3    -0.748982386173E+03   -0.16888E+03   -0.16784E+03  2424   0.124E+02
DAV:   4    -0.754476942895E+03   -0.54946E+01   -0.54747E+01  2152   0.298E+01
DAV:   5    -0.754735219839E+03   -0.25828E+00   -0.25813E+00  2392   0.510E+00    0.700E+00
DAV:   6    -0.714869282313E+03    0.39866E+02   -0.11841E+01  2368   0.287E+01    0.498E+00
DAV:   7    -0.714624047285E+03    0.24524E+00   -0.39411E+00  2176   0.489E+00    0.261E+00
DAV:   8    -0.714721960815E+03   -0.97914E-01   -0.18904E-01  2176   0.173E+00    0.149E+00
DAV:   9    -0.714764274064E+03   -0.42313E-01   -0.88865E-02  1944   0.121E+00    0.322E-01
DAV:  10    -0.714765294043E+03   -0.10200E-02   -0.55087E-03  2616   0.334E-01    0.192E-01
DAV:  11    -0.714766971310E+03   -0.16773E-02   -0.17124E-03  1944   0.167E-01    0.659E-02
DAV:  12    -0.714767153805E+03   -0.18249E-03   -0.46235E-04  1984   0.909E-02    0.242E-02
DAV:  13    -0.714767154496E+03   -0.69120E-06   -0.48050E-05  2288   0.272E-02    0.834E-03
DAV:  14    -0.714767163412E+03   -0.89155E-05   -0.47000E-06  1744   0.632E-03    0.226E-03
DAV:  15    -0.714767166696E+03   -0.32840E-05   -0.79633E-07  1336   0.364E-03    0.814E-04
DAV:  16    -0.714767164100E+03    0.25960E-05   -0.18044E-07  1176   0.220E-03    0.502E-04
DAV:  17    -0.714767164287E+03   -0.18748E-06   -0.39712E-08  1112   0.108E-03
   1 F= -.71476716E+03 E0= -.71476716E+03  d E =-.242423E-16
Application 1866167 resources: utime ~7566s, stime ~73s, Rss ~78400, inblocks ~1328, outblocks ~50896
