CsPbBr3 cubic bulk                      
           1
     8.308951    0.000000    0.000000
     0.000000   12.351998    0.000000
     0.000000    0.000000    7.940842
   Cs   Pb   Br
   4   4  12
Direct configuration=     1
   0.05230406  0.25000000  0.48451483
   0.44769594  0.75000000  0.98451483
   0.55230406  0.25000000  0.01548517
   0.94769594  0.75000000  0.51548517
   0.00000000  0.00000000  0.00000000
   0.50000000  0.00000000  0.50000000
   0.50000000  0.50000000  0.50000000
   0.00000000  0.50000000  0.00000000
   0.50076151  0.75000000  0.46755179
   0.99923849  0.25000000  0.96755179
   0.00076151  0.75000000  0.03244821
   0.49923849  0.25000000  0.53244821
   0.31334856  0.47874255  0.18140468
   0.18665144  0.52125745  0.68140468
   0.81334856  0.02125745  0.31859532
   0.68665144  0.97874255  0.81859532
   0.31334856  0.02125745  0.18140468
   0.18665144  0.97874255  0.68140468
   0.68665144  0.52125745  0.81859532
   0.81334856  0.47874255  0.31859532
