 vasp.5.4.4.18Apr17-6-g9f103f2a35 (build Jun 22 2020 09:27:21) complex           
 executed on tx2_gcc-7.3_libsci-1 date 2021.10.12  03:10:59
 running on   64 total cores
 distrk:  each k-point on   64 cores,    1 groups
 distr:  one band on NCORES_PER_BAND=   8 cores,    8 groups


--------------------------------------------------------------------------------------------------------


 INCAR:
 POTCAR:    PAW_PBE Cs_sv 08Apr2002               
 POTCAR:    PAW_PBE Pb_d 06Sep2000                
 POTCAR:    PAW_PBE Br 06Sep2000                  
 POTCAR:    PAW_PBE Cs_sv 08Apr2002               
   SHA256 =  c1463496f0f6037ed62c6012a8013a89ee9ad6ffb38599dcd6c079e7ed31779b Cs
   COPYR  = (c) Copyright 08Apr2002 Georg Kresse                                
   COPYR  = This file is part of the software VASP. Any use, copying, and all ot
   COPYR  = If you do not have a valid VASP license, you may not use, copy or di
   VRHFIN =Cs: 5s5p6s                                                           
   LEXCH  = PE                                                                  
   EATOM  =   555.6835 eV,   40.8416 Ry                                         
                                                                                
   TITEL  = PAW_PBE Cs_sv 08Apr2002                                             
   LULTRA =        F    use ultrasoft PP ?                                      
   IUNSCR =        1    unscreen: 0-lin 1-nonlin 2-no                           
   RPACOR =    2.200    partial core radius                                     
   POMASS =  132.900; ZVAL   =    9.000    mass and valenz                      
   RCORE  =    2.500    outmost cutoff radius                                   
   RWIGS  =    2.500; RWIGS  =    1.323    wigner-seitz radius (au A)           
   ENMAX  =  220.318; ENMIN  =  165.238 eV                                      
   RCLOC  =    2.207    cutoff for local pot                                    
   LCOR   =        T    correct aug charges                                     
   LPAW   =        T    paw PP                                                  
   EAUG   =  407.933                                                            
   DEXC   =    0.000                                                            
   RMAX   =    2.554    core radius for proj-oper                               
   RAUG   =    1.300    factor for augmentation sphere                          
   RDEP   =    2.590    radius for radial grids                                 
   RDEPT  =    2.117    core radius for aug-charge                              
                                                                                
   Atomic configuration                                                         
   13 entries                                                                   
     n  l   j            E        occ.                                          
     1  0  0.50    -35790.1377   2.0000                                         
     2  0  0.50     -5613.6201   2.0000                                         
     2  1  1.50     -5035.0101   6.0000                                         
     3  0  0.50     -1167.0767   2.0000                                         
     3  1  1.50      -980.9754   6.0000                                         
     3  2  2.50      -708.0703  10.0000                                         
     4  0  0.50      -220.2386   2.0000                                         
     4  1  1.50      -160.7596   6.0000                                         
     4  2  2.50       -74.2354  10.0000                                         
     5  0  0.50       -26.7287   2.0000                                         
     6  0  0.50        -2.0862   1.0000                                         
     5  1  1.50       -13.5159   6.0000                                         
     5  2  2.50        -0.4136   0.0000                                         
   Description                                                                  
     l       E           TYP  RCUT    TYP  RCUT                                 
     0    -26.7287425     23  1.900                                             
     0     -2.0862306     23  1.900                                             
     1    -13.5158719     23  2.500                                             
     1     -2.7211652     23  2.500                                             
     2     -0.4136171     23  2.500                                             
  local pseudopotential read in
  partial core-charges read in
  partial kinetic energy density read in
  atomic valenz-charges read in
  non local Contribution for L=           0  read in
    real space projection operators read in
  non local Contribution for L=           0  read in
    real space projection operators read in
  non local Contribution for L=           1  read in
    real space projection operators read in
  non local Contribution for L=           1  read in
    real space projection operators read in
  non local Contribution for L=           2  read in
    real space projection operators read in
    PAW grid and wavefunctions read in

   number of l-projection  operators is LMAX  =           5
   number of lm-projection operators is LMMAX =          13

 POTCAR:    PAW_PBE Pb_d 06Sep2000                
   SHA256 =  fb885b08f0fba73a15f6a6b0e39bd200c13ec96ef97cf3ecd8e63bade5137abd Pb
   COPYR  = (c) Copyright 06Sep2000 Georg Kresse                                
   COPYR  = This file is part of the software VASP. Any use, copying, and all ot
   COPYR  = If you do not have a valid VASP license, you may not use, copy or di
   VRHFIN =Pb:                                                                  
   LEXCH  = PE                                                                  
   EATOM  =  1661.6185 eV,  122.1255 Ry                                         
                                                                                
   TITEL  = PAW_PBE Pb_d 06Sep2000                                              
   LULTRA =        F    use ultrasoft PP ?                                      
   IUNSCR =        1    unscreen: 0-lin 1-nonlin 2-no                           
   RPACOR =    2.200    partial core radius                                     
   POMASS =  207.200; ZVAL   =   14.000    mass and valenz                      
   RCORE  =    2.500    outmost cutoff radius                                   
   RWIGS  =    3.260; RWIGS  =    1.725    wigner-seitz radius (au A)           
   ENMAX  =  237.835; ENMIN  =  178.376 eV                                      
   ICORE  =        3    local potential                                         
   LCOR   =        T    correct aug charges                                     
   LPAW   =        T    paw PP                                                  
   EAUG   =  391.914                                                            
   DEXC   =    0.000                                                            
   RMAX   =    2.565    core radius for proj-oper                               
   RAUG   =    1.300    factor for augmentation sphere                          
   RDEP   =    2.643    radius for radial grids                                 
   RDEPT  =    2.092    core radius for aug-charge                              
                                                                                
   Atomic configuration                                                         
   16 entries                                                                   
     n  l   j            E        occ.                                          
     1  0  0.50    -88091.8466   2.0000                                         
     2  0  0.50    -15753.4197   2.0000                                         
     2  1  1.50    -13508.1797   6.0000                                         
     3  0  0.50     -3781.7194   2.0000                                         
     3  1  1.50     -3138.2529   6.0000                                         
     3  2  2.50     -2483.2977  10.0000                                         
     4  0  0.50      -856.2895   2.0000                                         
     4  1  1.50      -645.4942   6.0000                                         
     4  2  2.50      -401.8768  10.0000                                         
     4  3  3.50      -132.9059  14.0000                                         
     5  0  0.50      -144.0950   2.0000                                         
     5  1  1.50       -85.7879   6.0000                                         
     5  2  2.50       -21.1769  10.0000                                         
     6  0  0.50       -12.0372   2.0000                                         
     6  1  1.50        -3.4971   2.0000                                         
     5  3  2.50        -2.7212   0.0000                                         
   Description                                                                  
     l       E           TYP  RCUT    TYP  RCUT                                 
     2    -21.1768523     23  2.500                                             
     2      1.3605826     23  2.500                                             
     0    -12.0371562     23  2.500                                             
     0     13.6058260     23  2.500                                             
     1     -3.4971339     23  2.500                                             
     1     13.6058260     23  2.500                                             
     3     -1.3605826      7  2.500                                             
  local pseudopotential read in
  partial core-charges read in
  partial kinetic energy density read in
  atomic valenz-charges read in
  non local Contribution for L=           2  read in
    real space projection operators read in
  non local Contribution for L=           2  read in
    real space projection operators read in
  non local Contribution for L=           0  read in
    real space projection operators read in
  non local Contribution for L=           0  read in
    real space projection operators read in
  non local Contribution for L=           1  read in
    real space projection operators read in
  non local Contribution for L=           1  read in
    real space projection operators read in
    PAW grid and wavefunctions read in

   number of l-projection  operators is LMAX  =           6
   number of lm-projection operators is LMMAX =          18

 POTCAR:    PAW_PBE Br 06Sep2000                  
   SHA256 =  96a73d2954943bbee26f4990d676cc6c3bf44b8dd2c75cd4b3b825d8403f0103 Br
   COPYR  = (c) Copyright 06Sep2000 Georg Kresse                                
   COPYR  = This file is part of the software VASP. Any use, copying, and all ot
   COPYR  = If you do not have a valid VASP license, you may not use, copy or di
   VRHFIN =Br: s2p5                                                             
   LEXCH  = PE                                                                  
   EATOM  =   368.4488 eV,   27.0802 Ry                                         
                                                                                
   TITEL  = PAW_PBE Br 06Sep2000                                                
   LULTRA =        F    use ultrasoft PP ?                                      
   IUNSCR =        1    unscreen: 0-lin 1-nonlin 2-no                           
   RPACOR =    1.900    partial core radius                                     
   POMASS =   79.904; ZVAL   =    7.000    mass and valenz                      
   RCORE  =    2.100    outmost cutoff radius                                   
   RWIGS  =    2.200; RWIGS  =    1.164    wigner-seitz radius (au A)           
   ENMAX  =  216.285; ENMIN  =  162.214 eV                                      
   ICORE  =        3    local potential                                         
   LCOR   =        T    correct aug charges                                     
   LPAW   =        T    paw PP                                                  
   EAUG   =  503.852                                                            
   DEXC   =    0.000                                                            
   RMAX   =    2.139    core radius for proj-oper                               
   RAUG   =    1.300    factor for augmentation sphere                          
   RDEP   =    2.186    radius for radial grids                                 
   RDEPT  =    1.890    core radius for aug-charge                              
                                                                                
   Atomic configuration                                                         
   10 entries                                                                   
     n  l   j            E        occ.                                          
     1  0  0.50    -13316.2796   2.0000                                         
     2  0  0.50     -1732.8239   2.0000                                         
     2  1  1.50     -1528.2193   6.0000                                         
     3  0  0.50      -238.0460   2.0000                                         
     3  1  1.50      -173.4609   6.0000                                         
     3  2  2.50       -66.7132  10.0000                                         
     4  0  0.50       -20.1334   2.0000                                         
     4  1  0.50        -7.8591   5.0000                                         
     4  2  2.50        -8.1635   0.0000                                         
     4  3  2.50        -8.1635   0.0000                                         
   Description                                                                  
     l       E           TYP  RCUT    TYP  RCUT                                 
     0    -20.1333652     23  2.100                                             
     0    -21.4939478     23  2.100                                             
     1     -7.8591052     23  2.100                                             
     1     -3.1608434     23  2.100                                             
     2     -8.1634956     23  2.100                                             
     3     -1.3605826      7  2.100                                             
  local pseudopotential read in
  partial core-charges read in
  partial kinetic energy density read in
  atomic valenz-charges read in
  non local Contribution for L=           0  read in
    real space projection operators read in
  non local Contribution for L=           0  read in
    real space projection operators read in
  non local Contribution for L=           1  read in
    real space projection operators read in
  non local Contribution for L=           1  read in
    real space projection operators read in
  non local Contribution for L=           2  read in
    real space projection operators read in
    PAW grid and wavefunctions read in

   number of l-projection  operators is LMAX  =           5
   number of lm-projection operators is LMMAX =          13

 Optimization of the real space projectors (new method)

 maximal supplied QI-value         = 15.12
 optimisation between [QCUT,QGAM] = [  8.77, 17.69] = [ 21.53, 87.61] Ry 
 Optimized for a Real-space Cutoff    1.85 Angstroem

   l    n(q)    QCUT    max X(q) W(low)/X(q) W(high)/X(q)  e(spline) 
   0     10     8.768    25.322    0.81E-04    0.51E-04    0.48E-06
   0     10     8.768    99.187    0.78E-04    0.50E-04    0.47E-06
   1      9     8.768    11.761    0.21E-03    0.20E-03    0.37E-06
   1      9     8.768     8.275    0.24E-03    0.22E-03    0.41E-06
   2      9     8.768     3.829    0.23E-04    0.15E-03    0.18E-06
 Optimization of the real space projectors (new method)

 maximal supplied QI-value         = 15.12
 optimisation between [QCUT,QGAM] = [  8.77, 17.69] = [ 21.53, 87.61] Ry 
 Optimized for a Real-space Cutoff    1.59 Angstroem

   l    n(q)    QCUT    max X(q) W(low)/X(q) W(high)/X(q)  e(spline) 
   2      7     8.768     3.846    0.48E-04    0.11E-03    0.11E-06
   2      7     8.768     8.593    0.20E-03    0.22E-04    0.24E-06
   0      8     8.768    20.082    0.68E-04    0.88E-04    0.41E-07
   0      8     8.768     8.597    0.89E-04    0.13E-03    0.59E-07
   1      8     8.768    33.223    0.15E-03    0.53E-04    0.87E-07
   1      8     8.768    15.899    0.14E-03    0.44E-04    0.78E-07
 Optimization of the real space projectors (new method)

 maximal supplied QI-value         = 17.95
 optimisation between [QCUT,QGAM] = [  8.80, 17.59] = [ 21.67, 86.68] Ry 
 Optimized for a Real-space Cutoff    1.59 Angstroem

   l    n(q)    QCUT    max X(q) W(low)/X(q) W(high)/X(q)  e(spline) 
   0      8     8.797   175.082    0.82E-04    0.14E-03    0.89E-07
   0      8     8.797   174.004    0.79E-04    0.14E-03    0.86E-07
   1      8     8.797    54.315    0.16E-03    0.14E-04    0.30E-06
   1      8     8.797    42.441    0.16E-03    0.14E-04    0.30E-06
   2      7     8.797     3.596    0.92E-04    0.15E-03    0.85E-07
  PAW_PBE Cs_sv 08Apr2002               :
 energy of atom  1       EATOM= -555.6835
 kinetic energy error for atom=    0.0069 (will be added to EATOM!!)
  PAW_PBE Pb_d 06Sep2000                :
 energy of atom  2       EATOM=-1661.6185
 kinetic energy error for atom=    0.0498 (will be added to EATOM!!)
  PAW_PBE Br 06Sep2000                  :
 energy of atom  3       EATOM= -368.4488
 kinetic energy error for atom=    0.0072 (will be added to EATOM!!)


 POSCAR: Cs8 Pb8 Br23                            
  positions in direct lattice
  No initial velocities read in

 METAGGA = SCAN     LMAXTAU =  6    LMIXTAU =  F

 exchange correlation table for  LEXCH =        8
   RHO(1)=    0.500       N(1)  =     2000
   RHO(2)=  100.500       N(2)  =     4000

 VTST: version 3.2, (02/03/18)

 CHAIN: initializing optimizer
 
 OPT: Using VASP Conjugate-Gradient optimizer
 CHAIN: Read ICHAIN            0

 POSCAR: Cs8 Pb8 Br23                            
  positions in direct lattice
  No initial velocities read in



--------------------------------------------------------------------------------------------------------


 ion  position               nearest neighbor table
   1  0.269  0.247  0.205-
   2  0.777  0.247  0.708-
   3  0.717  0.752  0.265-
   4  0.206  0.749  0.774-
   5  0.268  0.240  0.732-
   6  0.799  0.249  0.228-
   7  0.747  0.761  0.806-
   8  0.216  0.754  0.283-
   9  0.002  0.002  0.001-  19 2.97  21 2.97  29 2.98  32 2.98  30 3.01  35 3.01
  10  0.500  0.002  0.503-  20 2.93  31 2.98  34 2.98  28 3.00  33 3.00
  11  0.502  0.001  0.003-  30 2.99  32 2.99  17 3.00  28 3.01  22 3.01  34 3.05
  12  1.000  0.999  0.498-  18 2.97  35 2.97  23 2.98  29 3.01  33 3.01  31 3.04
  13  0.499  0.503  0.006-  26 2.96  17 2.96  24 2.97  22 2.97  36 2.98
  14  1.000  0.500  0.499-  18 2.97  23 2.97  27 3.00  38 3.01  37 3.02  25 3.05
  15  0.001  0.499  0.999-  19 2.96  21 2.98  38 2.99  36 3.01  27 3.01  24 3.03
  16  0.497  0.493  0.492-  39 2.35  20 2.93  26 2.94  25 2.96  37 3.00
  17  0.476  0.750  0.958-  13 2.96  11 3.00
  18  0.966  0.749  0.465-  14 2.97  12 2.97
  19  0.970  0.251  0.967-  15 2.96   9 2.97
  20  0.455  0.247  0.480-  10 2.93  16 2.93
  21  0.025  0.751  0.025-   9 2.97  15 2.98
  22  0.530  0.254  0.038-  13 2.97  11 3.01
  23  0.025  0.249  0.527-  14 2.97  12 2.98
  24  0.251  0.468  0.947-  13 2.97  15 3.03
  25  0.743  0.466  0.448-  16 2.96  14 3.05
  26  0.449  0.545  0.248-  16 2.94  13 2.96
  27  0.946  0.530  0.746-  14 3.00  15 3.01
  28  0.553  0.033  0.755-  10 3.00  11 3.01
  29  0.053  0.034  0.251-   9 2.98  12 3.01
  30  0.754  0.973  0.053-  11 2.99   9 3.01
  31  0.255  0.958  0.548-  10 2.98  12 3.04
  32  0.250  0.029  0.955-   9 2.98  11 2.99
  33  0.747  0.032  0.450-  10 3.00  12 3.01
  34  0.453  0.957  0.253-  10 2.98  11 3.05
  35  0.957  0.976  0.746-  12 2.97   9 3.01
  36  0.752  0.532  0.047-  13 2.98  15 3.01
  37  0.253  0.534  0.550-  16 3.00  14 3.02
  38  0.053  0.468  0.251-  15 2.99  14 3.01
  39  0.544  0.614  0.648-  16 2.35


IMPORTANT INFORMATION: All symmetrisations will be switched off!
NOSYMM: (Re-)initialisation of all symmetry stuff for point group C_1.



 KPOINTS: 1x1x1                                   

Automatic generation of k-mesh.
Space group operators:
 irot       det(A)        alpha          n_x          n_y          n_z        tau_x        tau_y        tau_z
    1     1.000000     0.000001     1.000000     0.000000     0.000000     0.000000     0.000000     0.000000
 
 Subroutine IBZKPT returns following result:
 ===========================================
 
 Found      8 irreducible k-points:
 
 Following reciprocal coordinates:
            Coordinates               Weight
  0.000000  0.000000  0.000000      1.000000
  0.500000  0.000000  0.000000      1.000000
  0.000000  0.500000  0.000000      1.000000
  0.500000  0.500000  0.000000      1.000000
  0.000000  0.000000  0.500000      1.000000
  0.500000  0.000000  0.500000      1.000000
  0.000000  0.500000  0.500000      1.000000
  0.500000  0.500000  0.500000      1.000000
 
 Following cartesian coordinates:
            Coordinates               Weight
 -0.000000  0.000000  0.000000      1.000000
  0.029563  0.000000  0.031093      1.000000
 -0.000000  0.042626  0.000000      1.000000
  0.029563  0.042626  0.031093      1.000000
 -0.029563  0.000000  0.031093      1.000000
  0.000000  0.000000  0.062187      1.000000
 -0.029563  0.042626  0.031093      1.000000
  0.000000  0.042626  0.062187      1.000000
 


--------------------------------------------------------------------------------------------------------




 Dimension of arrays:
   k-points           NKPTS =      8   k-points in BZ     NKDIM =      8   number of bands    NBANDS=    208
   number of dos      NEDOS =    301   number of ions     NIONS =     39
   non local maximal  LDIM  =      6   non local SUM 2l+1 LMDIM =     18
   total plane-waves  NPLWV = 343000
   max r-space proj   IRMAX =   5734   max aug-charges    IRDMAX=  91523
   dimension x,y,z NGX =    70 NGY =   70 NGZ =   70
   dimension x,y,z NGXF=   140 NGYF=  140 NGZF=  140
   support grid    NGXF=   280 NGYF=  280 NGZF=  280
   ions per type =               8   8  23
   NGX,Y,Z   is equivalent  to a cutoff of   9.97,  9.92,  9.97 a.u.
   NGXF,Y,Z  is equivalent  to a cutoff of  19.95, 19.84, 19.95 a.u.

 SYSTEM =  CsPbBr3 cubic bulk                      
 POSCAR =  Cs8 Pb8 Br23                            

 Startparameter for this run:
   NWRITE =      2    write-flag & timer
   PREC   = accura    normal or accurate (medium, high low for compatibility)
   ISTART =      0    job   : 0-new  1-cont  2-samecut
   ICHARG =      2    charge: 1-file 2-atom 10-const
   ISPIN  =      1    spin polarized calculation?
   LNONCOLLINEAR =      F non collinear calculations
   LSORBIT =      F    spin-orbit coupling
   INIWAV =      1    electr: 0-lowe 1-rand  2-diag
   LASPH  =      T    aspherical Exc in radial PAW
   METAGGA=      F    non-selfconsistent MetaGGA calc.

 Electronic Relaxation 1
   ENCUT  =  300.0 eV  22.05 Ry    4.70 a.u.  16.48 16.57 16.48*2*pi/ulx,y,z
   ENINI  =  300.0     initial cutoff
   ENAUG  =  503.9 eV  augmentation charge cutoff
   NELM   =    200;   NELMIN=  2; NELMDL= -5     # of ELM steps 
   EDIFF  = 0.1E-05   stopping-criterion for ELM
   LREAL  =      T    real-space projection
   NLSPLINE    = F    spline interpolate recip. space projectors
   LCOMPAT=      F    compatible to vasp.4.4
   GGA_COMPAT  = T    GGA compatible to vasp.4.4-vasp.4.6
   LMAXPAW     = -100 max onsite density
   LMAXMIX     =    2 max onsite mixed and CHGCAR
   VOSKOWN=      0    Vosko Wilk Nusair interpolation
   ROPT   =   -0.00025  -0.00025  -0.00025
 Ionic relaxation
   EDIFFG = -.1E-01   stopping-criterion for IOM
   NSW    =      0    number of steps for IOM
   NBLOCK =      1;   KBLOCK =      1    inner block; outer block 
   IBRION =     -1    ionic relax: 0-MD 1-quasi-New 2-CG
   NFREE  =      1    steps in history (QN), initial steepest desc. (CG)
   ISIF   =      2    stress and relaxation
   IWAVPR =     10    prediction:  0-non 1-charg 2-wave 3-comb
   ISYM   =      0    0-nonsym 1-usesym 2-fastsym
   LCORR  =      T    Harris-Foulkes like correction to forces

   POTIM  = 0.5000    time-step for ionic-motion
   TEIN   =    0.0    initial temperature
   TEBEG  =    0.0;   TEEND  =   0.0 temperature during run
   SMASS  =  -3.00    Nose mass-parameter (am)
   estimated Nose-frequenzy (Omega)   =  0.10E-29 period in steps =****** mass=  -0.311E-26a.u.
   SCALEE = 1.0000    scale energy and forces
   NPACO  =    256;   APACO  = 16.0  distance and # of slots for P.C.
   PSTRESS=    0.0 pullay stress

  Mass of Ions in am
   POMASS = 132.90207.20 79.90
  Ionic Valenz
   ZVAL   =   9.00 14.00  7.00
  Atomic Wigner-Seitz radii
   RWIGS  =  -1.00 -1.00 -1.00
  virtual crystal weights 
   VCA    =   1.00  1.00  1.00
   NELECT =     344.0000    total number of electrons
   NUPDOWN=       0.0000    fix difference up-down

 DOS related values:
   EMIN   =  10.00;   EMAX   =-10.00  energy-range for DOS
   EFERMI =   0.00
   ISMEAR =     0;   SIGMA  =   0.01  broadening in eV -4-tet -1-fermi 0-gaus

 Electronic relaxation 2 (details)
   IALGO  =     38    algorithm
   LDIAG  =      T    sub-space diagonalisation (order eigenvalues)
   LSUBROT=      F    optimize rotation matrix (better conditioning)
   TURBO    =      0    0=normal 1=particle mesh
   IRESTART =      0    0=no restart 2=restart with 2 vectors
   NREBOOT  =      0    no. of reboots
   NMIN     =      0    reboot dimension
   EREF     =   0.00    reference energy to select bands
   IMIX   =      4    mixing-type and parameters
     AMIX     =   0.40;   BMIX     =  1.00
     AMIX_MAG =   1.60;   BMIX_MAG =  1.00
     AMIN     =   0.10
     WC   =   100.;   INIMIX=   1;  MIXPRE=   1;  MAXMIX= -45

 Intra band minimization:
   WEIMIN = 0.0000     energy-eigenvalue tresh-hold
   EBREAK =  0.12E-08  absolut break condition
   DEPER  =   0.30     relativ break condition  

   TIME   =   0.40     timestep for ELM

  volume/ion in A,a.u.               =      40.90       276.00
  Fermi-wavevector in a.u.,A,eV,Ry     =   0.981747  1.855232 13.113654  0.963826
  Thomas-Fermi vector in A             =   2.112777

 Write flags
   LWAVE        =      F    write WAVECAR
   LDOWNSAMPLE  =      F    k-point downsampling of WAVECAR
   LCHARG       =      F    write CHGCAR
   LVTOT        =      F    write LOCPOT, total local potential
   LVHAR        =      T    write LOCPOT, Hartree potential only
   LELF         =      F    write electronic localiz. function (ELF)
   LORBIT       =     10    0 simple, 1 ext, 2 COOP (PROOUT), +10 PAW based schemes


 Dipole corrections
   LMONO  =      F    monopole corrections only (constant potential shift)
   LDIPOL =      F    correct potential (dipole corrections)
   IDIPOL =      0    1-x, 2-y, 3-z, 4-all directions 
   EPSILON=  1.0000000 bulk dielectric constant

 Exchange correlation treatment:
   GGA     =    --    GGA type
   LEXCH   =     8    internal setting for exchange type
   VOSKOWN=      0    Vosko Wilk Nusair interpolation
   LHFCALC =     F    Hartree Fock is set to
   LHFONE  =     F    Hartree Fock one center treatment
   AEXX    =    0.0000 exact exchange contribution

 Linear response parameters
   LEPSILON=     F    determine dielectric tensor
   LRPA    =     F    only Hartree local field effects (RPA)
   LNABLA  =     F    use nabla operator in PAW spheres
   LVEL    =     F    velocity operator in full k-point grid
   LINTERFAST=   F  fast interpolation
   KINTER  =     0    interpolate to denser k-point grid
   CSHIFT  =0.1000    complex shift for real part using Kramers Kronig
   OMEGAMAX=  -1.0    maximum frequency
   DEG_THRESHOLD= 0.2000000E-02 threshold for treating states as degnerate
   RTIME   =   -0.100 relaxation time in fs
  (WPLASMAI=    0.000 imaginary part of plasma frequency in eV, 0.658/RTIME)
   DFIELD  = 0.0000000 0.0000000 0.0000000 field for delta impulse in time

 Orbital magnetization related:
   ORBITALMAG=     F  switch on orbital magnetization
   LCHIMAG   =     F  perturbation theory with respect to B field
   DQ        =  0.001000  dq finite difference perturbation B field
   LLRAUG    =     F  two centre corrections for induced B field



--------------------------------------------------------------------------------------------------------


 Static calculation
 charge density and potential will be updated during run
 non-spin polarized calculation
 Variant of blocked Davidson
 Davidson routine will perform the subspace rotation
 perform sub-space diagonalisation
    after iterative eigenvector-optimisation
 modified Broyden-mixing scheme, WC =      100.0
 initial mixing is a Kerker type mixing with AMIX =  0.4000 and BMIX =      1.0000
 Hartree-type preconditioning will be used
 using additional bands           36
 real space projection scheme for non local part
 use partial core corrections
 calculate Harris-corrections to forces   (improved forces if not selfconsistent)
 use gradient corrections 
 use of overlap-Matrix (Vanderbilt PP)
 Gauss-broadening in eV      SIGMA  =   0.01


--------------------------------------------------------------------------------------------------------


  energy-cutoff  :      300.00
  volume of cell :     1595.09
      direct lattice vectors                 reciprocal lattice vectors
     8.456489000  0.000000000  8.040301000     0.059126193 -0.000000000  0.062186727
     0.000000000 11.729847000  0.000000000     0.000000000  0.085252604 -0.000000000
    -8.456489000  0.000000000  8.040301000    -0.059126193  0.000000000  0.062186727

  length of vectors
    11.668703715 11.729847000 11.668703715     0.085808482  0.085252604  0.085808482



 k-points in units of 2pi/SCALE and weight: 1x1x1                                   
  -0.00000000  0.00000000  0.00000000       0.125
   0.02956310  0.00000000  0.03109336       0.125
  -0.00000000  0.04262630  0.00000000       0.125
   0.02956310  0.04262630  0.03109336       0.125
  -0.02956310  0.00000000  0.03109336       0.125
   0.00000000  0.00000000  0.06218673       0.125
  -0.02956310  0.04262630  0.03109336       0.125
   0.00000000  0.04262630  0.06218673       0.125

 k-points in reciprocal lattice and weights: 1x1x1                                   
   0.00000000  0.00000000  0.00000000       0.125
   0.50000000  0.00000000  0.00000000       0.125
   0.00000000  0.50000000  0.00000000       0.125
   0.50000000  0.50000000  0.00000000       0.125
   0.00000000  0.00000000  0.50000000       0.125
   0.50000000  0.00000000  0.50000000       0.125
   0.00000000  0.50000000  0.50000000       0.125
   0.50000000  0.50000000  0.50000000       0.125

 position of ions in fractional coordinates (direct lattice) 
   0.26904300  0.24744900  0.20450200
   0.77659300  0.24661500  0.70834100
   0.71697900  0.75243800  0.26505100
   0.20603600  0.74888100  0.77412000
   0.26760900  0.23981900  0.73205400
   0.79906600  0.24947000  0.22771500
   0.74667700  0.76101000  0.80602400
   0.21586300  0.75393500  0.28315300
   0.00172700  0.00206400  0.00084700
   0.49962600  0.00184800  0.50260900
   0.50202000  0.00102800  0.00286400
   0.99999600  0.99851300  0.49810800
   0.49876100  0.50335300  0.00585700
   0.99954000  0.50020600  0.49867600
   0.00051500  0.49924200  0.99871100
   0.49689300  0.49272900  0.49222800
   0.47606800  0.75025100  0.95810500
   0.96614800  0.74926700  0.46511200
   0.96952600  0.25089100  0.96677600
   0.45546600  0.24662700  0.48035900
   0.02535300  0.75062000  0.02494600
   0.53003800  0.25363900  0.03848100
   0.02515600  0.24949400  0.52654000
   0.25057400  0.46763300  0.94665500
   0.74300100  0.46556500  0.44762500
   0.44874900  0.54457200  0.24833400
   0.94600400  0.52984300  0.74564400
   0.55259600  0.03302400  0.75475200
   0.05253300  0.03423500  0.25116300
   0.75374500  0.97269300  0.05340900
   0.25483500  0.95770700  0.54824100
   0.24956100  0.02870900  0.95478400
   0.74672800  0.03214500  0.45008200
   0.45309800  0.95724900  0.25334600
   0.95714400  0.97569700  0.74603900
   0.75169300  0.53177200  0.04655600
   0.25312000  0.53428600  0.55011500
   0.05256400  0.46752100  0.25060100
   0.54412700  0.61350000  0.64793800

 position of ions in cartesian coordinates  (Angst):
   0.54579026  2.90253891  3.80744434
   0.57717229  2.89275622 11.93931633
   3.82172416  8.82598262  7.89581679
  -4.80399610  8.78425955  7.88074927
  -3.92757403  2.81304018  8.03759142
   4.83162345  2.92624493  8.25562830
  -0.50186725  8.92653087 12.48418340
  -0.56903714  8.84354220  4.01223884
   0.00744171  0.02421040  0.02069573
  -0.02522571  0.02167676  8.05827107
   4.22110722  0.01205828  4.05941933
   4.24421035 11.71240472 12.04520709
   4.16823725  5.90425368  4.05728061
   4.23555091  5.86733985 12.04610760
  -8.44123349  5.85603228  8.03407781
   0.03944952  5.77963578  7.95283057
  -4.07634059  8.80032944 11.53118261
   4.23700542  8.78878727 11.50776121
   0.02325534  2.94291304 15.56845091
  -0.21050738  2.89289698  7.52431468
   0.00344179  8.80465776  0.40441910
   4.15684636  2.97514666  4.57106388
  -4.23994828  2.92652645  4.43580190
  -5.88640132  5.48526354  9.62608153
   2.49784389  5.46100622  9.57299142
   1.69480724  6.38774624  5.60475714
   1.69434214  6.21497732 13.60135911
  -1.70952999  0.38736647 10.51147143
  -1.67971241  0.40157131  2.44180725
   5.92238368 11.40954007  6.48976111
  -2.48118461 11.23375658  6.45697277
  -5.96371054  0.33675218  9.68329631
   2.50858364  0.37705593  9.62271264
   1.68920059 11.22838431  5.68002240
   1.78520711 11.44477653 13.69410398
   5.96298328  6.23760420  6.41816223
  -2.51153495  6.26709303  6.45825117
  -1.67469771  5.48394980  2.43753785
  -0.87787658  7.19626113  9.58456141



--------------------------------------------------------------------------------------------------------


 k-point  1 :   0.0000 0.0000 0.0000  plane waves:   18809
 k-point  2 :   0.5000 0.0000 0.0000  plane waves:   18808
 k-point  3 :   0.0000 0.5000 0.0000  plane waves:   18794
 k-point  4 :   0.5000 0.5000 0.0000  plane waves:   18804
 k-point  5 :   0.0000 0.0000 0.5000  plane waves:   18808
 k-point  6 :   0.5000 0.0000 0.5000  plane waves:   18790
 k-point  7 :   0.0000 0.5000 0.5000  plane waves:   18804
 k-point  8 :   0.5000 0.5000 0.5000  plane waves:   18800

 maximum and minimum number of plane-waves per node :      2389     2304

 maximum number of plane-waves:     18809
 maximum index in each direction: 
   IXMAX=   16   IYMAX=   16   IZMAX=   16
   IXMIN=  -16   IYMIN=  -17   IZMIN=  -16


 real space projection operators:
  total allocation   :      16739.85 KBytes
  max/ min on nodes  :       2188.04       1822.18


 parallel 3D FFT for wavefunctions:
    minimum data exchange during FFTs selected (reduces bandwidth)
 parallel 3D FFT for charge:
    minimum data exchange during FFTs selected (reduces bandwidth)


 total amount of memory used by VASP MPI-rank0    60650. kBytes
=======================================================================

   base      :      30000. kBytes
   nonlr-proj:       6485. kBytes
   fftplans  :       8423. kBytes
   grid      :       7465. kBytes
   one-center:         77. kBytes
   wavefun   :       8200. kBytes

     INWAV:  cpu time    0.0001: real time    0.0001
 Broyden mixing: mesh for mixing (old mesh)
   NGX = 33   NGY = 33   NGZ = 33
  (NGX  =140   NGY  =140   NGZ  =140)
  gives a total of  35937 points

 initial charge density was supplied:
 charge density of overlapping atoms calculated
 number of electron     345.0000000 magnetization 
 keeping initial charge density in first step


--------------------------------------------------------------------------------------------------------


 Maximum index for non-local projection operator          723
 Maximum index for augmentation-charges         3020 (set IRDMAX)


--------------------------------------------------------------------------------------------------------


 First call to EWALD:  gamma=   0.152
 Maximum number of real-space cells 3x 3x 3
 Maximum number of reciprocal cells 3x 3x 3

    FEWALD:  cpu time    0.0037: real time    0.0037


--------------------------------------- Iteration      1(   1)  ---------------------------------------


    POTLOK:  cpu time    0.2627: real time    0.2807
    SETDIJ:  cpu time    1.2109: real time    1.2110
     EDDAV:  cpu time   16.6963: real time   16.7021
       DOS:  cpu time    0.0007: real time    0.0007
    --------------------------------------------
      LOOP:  cpu time   18.1707: real time   18.1945

 eigenvalue-minimisations  :  3488
 total energy-change (2. order) : 0.1335269E+04  (-0.1105838E+05)
 number of electron     345.0000000 magnetization 
 augmentation part      345.0000000 magnetization 

 Free energy of the ion-electron system (eV)
  ---------------------------------------------------
  alpha Z        PSCENC =       872.70583573
  Ewald energy   TEWEN  =    -17898.21910199
  -Hartree energ DENC   =     -7454.20541931
  -exchange      EXHF   =         0.00000000
  -V(xc)+E(xc)   XCENC  =       908.56017915
  PAW double counting   =     21345.28103884   -22405.85761495
  entropy T*S    EENTRO =        -0.00007752
  eigenvalues    EBANDS =      -245.11411972
  atomic energy  EATOM  =     26212.11861568
  Solvation  Ediel_sol  =         0.00000000
  ---------------------------------------------------
  free energy    TOTEN  =      1335.26933591 eV

  energy without entropy =     1335.26941343  energy(sigma->0) =     1335.26937467


--------------------------------------------------------------------------------------------------------




--------------------------------------- Iteration      1(   2)  ---------------------------------------


     EDDAV:  cpu time   18.4746: real time   18.5272
       DOS:  cpu time    0.0004: real time    0.0004
    --------------------------------------------
      LOOP:  cpu time   18.4750: real time   18.5276

 eigenvalue-minimisations  :  4080
 total energy-change (2. order) :-0.2446909E+04  (-0.2363159E+04)
 number of electron     345.0000000 magnetization 
 augmentation part      345.0000000 magnetization 

 Free energy of the ion-electron system (eV)
  ---------------------------------------------------
  alpha Z        PSCENC =       872.70583573
  Ewald energy   TEWEN  =    -17898.21910199
  -Hartree energ DENC   =     -7454.20541931
  -exchange      EXHF   =         0.00000000
  -V(xc)+E(xc)   XCENC  =       908.56017915
  PAW double counting   =     21345.28103884   -22405.85761495
  entropy T*S    EENTRO =        -0.00000000
  eigenvalues    EBANDS =     -2692.02367070
  atomic energy  EATOM  =     26212.11861568
  Solvation  Ediel_sol  =         0.00000000
  ---------------------------------------------------
  free energy    TOTEN  =     -1111.64013755 eV

  energy without entropy =    -1111.64013755  energy(sigma->0) =    -1111.64013755


--------------------------------------------------------------------------------------------------------




--------------------------------------- Iteration      1(   3)  ---------------------------------------


     EDDAV:  cpu time   19.3961: real time   19.4308
       DOS:  cpu time    0.0004: real time    0.0004
    --------------------------------------------
      LOOP:  cpu time   19.3965: real time   19.4312

 eigenvalue-minimisations  :  4400
 total energy-change (2. order) :-0.3615729E+03  (-0.3595616E+03)
 number of electron     345.0000000 magnetization 
 augmentation part      345.0000000 magnetization 

 Free energy of the ion-electron system (eV)
  ---------------------------------------------------
  alpha Z        PSCENC =       872.70583573
  Ewald energy   TEWEN  =    -17898.21910199
  -Hartree energ DENC   =     -7454.20541931
  -exchange      EXHF   =         0.00000000
  -V(xc)+E(xc)   XCENC  =       908.56017915
  PAW double counting   =     21345.28103884   -22405.85761495
  entropy T*S    EENTRO =        -0.00000000
  eigenvalues    EBANDS =     -3053.59653060
  atomic energy  EATOM  =     26212.11861568
  Solvation  Ediel_sol  =         0.00000000
  ---------------------------------------------------
  free energy    TOTEN  =     -1473.21299745 eV

  energy without entropy =    -1473.21299745  energy(sigma->0) =    -1473.21299745


--------------------------------------------------------------------------------------------------------




--------------------------------------- Iteration      1(   4)  ---------------------------------------


     EDDAV:  cpu time   17.9328: real time   17.9769
       DOS:  cpu time    0.0004: real time    0.0004
    --------------------------------------------
      LOOP:  cpu time   17.9332: real time   17.9773

 eigenvalue-minimisations  :  3896
 total energy-change (2. order) :-0.1246747E+02  (-0.1243055E+02)
 number of electron     345.0000000 magnetization 
 augmentation part      345.0000000 magnetization 

 Free energy of the ion-electron system (eV)
  ---------------------------------------------------
  alpha Z        PSCENC =       872.70583573
  Ewald energy   TEWEN  =    -17898.21910199
  -Hartree energ DENC   =     -7454.20541931
  -exchange      EXHF   =         0.00000000
  -V(xc)+E(xc)   XCENC  =       908.56017915
  PAW double counting   =     21345.28103884   -22405.85761495
  entropy T*S    EENTRO =        -0.00000000
  eigenvalues    EBANDS =     -3066.06399718
  atomic energy  EATOM  =     26212.11861568
  Solvation  Ediel_sol  =         0.00000000
  ---------------------------------------------------
  free energy    TOTEN  =     -1485.68046403 eV

  energy without entropy =    -1485.68046403  energy(sigma->0) =    -1485.68046403


--------------------------------------------------------------------------------------------------------




--------------------------------------- Iteration      1(   5)  ---------------------------------------


     EDDAV:  cpu time   19.4811: real time   19.5334
       DOS:  cpu time    0.0004: real time    0.0004
    CHARGE:  cpu time    2.7080: real time    2.7081
    MIXING:  cpu time    0.0014: real time    0.0014
    --------------------------------------------
      LOOP:  cpu time   22.1909: real time   22.2434

 eigenvalue-minimisations  :  4440
 total energy-change (2. order) :-0.5882918E+00  (-0.5880169E+00)
 number of electron     343.9999999 magnetization 
 augmentation part       -5.0746051 magnetization 

 Broyden mixing:
  rms(total) = 0.11044E+01    rms(broyden)= 0.11038E+01
  rms(prec ) = 0.14640E+01
  weight for this iteration     100.00

 Free energy of the ion-electron system (eV)
  ---------------------------------------------------
  alpha Z        PSCENC =       872.70583573
  Ewald energy   TEWEN  =    -17898.21910199
  -Hartree energ DENC   =     -7454.20541931
  -exchange      EXHF   =         0.00000000
  -V(xc)+E(xc)   XCENC  =       908.56017915
  PAW double counting   =     21345.28103884   -22405.85761495
  entropy T*S    EENTRO =        -0.00000000
  eigenvalues    EBANDS =     -3066.65228901
  atomic energy  EATOM  =     26212.11861568
  Solvation  Ediel_sol  =         0.00000000
  ---------------------------------------------------
  free energy    TOTEN  =     -1486.26875586 eV

  energy without entropy =    -1486.26875586  energy(sigma->0) =    -1486.26875586


--------------------------------------------------------------------------------------------------------




--------------------------------------- Iteration      1(   6)  ---------------------------------------


    POTLOK:  cpu time    0.2541: real time    0.3095
    SETDIJ:  cpu time    1.2060: real time    1.2060
     EDDAV:  cpu time   19.1122: real time   19.1130
       DOS:  cpu time    0.0006: real time    0.0006
    CHARGE:  cpu time    2.6856: real time    2.6857
    MIXING:  cpu time    0.0015: real time    0.0016
    --------------------------------------------
      LOOP:  cpu time   23.2600: real time   23.3164

 eigenvalue-minimisations  :  4312
 total energy-change (2. order) : 0.7765140E+02  (-0.2347753E+01)
 number of electron     343.9999999 magnetization 
 augmentation part       -3.6930553 magnetization 

 Broyden mixing:
  rms(total) = 0.77392E+00    rms(broyden)= 0.77384E+00
  rms(prec ) = 0.94342E+00
  weight for this iteration     100.00

 eigenvalues of (default mixing * dielectric matrix)
  average eigenvalue GAMMA=   1.3205
  1.3205

 Free energy of the ion-electron system (eV)
  ---------------------------------------------------
  alpha Z        PSCENC =       872.70583573
  Ewald energy   TEWEN  =    -17898.21910199
  -Hartree energ DENC   =     -7436.06667545
  -exchange      EXHF   =         0.00000000
  -V(xc)+E(xc)   XCENC  =       936.59487897
  PAW double counting   =     21682.16389260   -22741.54760842
  entropy T*S    EENTRO =        -0.00000000
  eigenvalues    EBANDS =     -3036.36719229
  atomic energy  EATOM  =     26212.11861568
  Solvation  Ediel_sol  =         0.00000000
  ---------------------------------------------------
  free energy    TOTEN  =     -1408.61735517 eV

  energy without entropy =    -1408.61735517  energy(sigma->0) =    -1408.61735517


--------------------------------------------------------------------------------------------------------




--------------------------------------- Iteration      1(   7)  ---------------------------------------


    POTLOK:  cpu time    0.2793: real time    0.3092
    SETDIJ:  cpu time    1.2056: real time    1.2057
     EDDAV:  cpu time   18.6030: real time   18.6038
       DOS:  cpu time    0.0004: real time    0.0004
    CHARGE:  cpu time    2.6984: real time    2.6985
    MIXING:  cpu time    0.0016: real time    0.0016
    --------------------------------------------
      LOOP:  cpu time   22.7883: real time   22.8192

 eigenvalue-minimisations  :  4136
 total energy-change (2. order) : 0.5108496E+00  (-0.8838351E+00)
 number of electron     343.9999999 magnetization 
 augmentation part       -3.1211808 magnetization 

 Broyden mixing:
  rms(total) = 0.38035E+00    rms(broyden)= 0.38033E+00
  rms(prec ) = 0.42029E+00
  weight for this iteration     100.00

 eigenvalues of (default mixing * dielectric matrix)
  average eigenvalue GAMMA=   1.3321
  1.2495  1.4146

 Free energy of the ion-electron system (eV)
  ---------------------------------------------------
  alpha Z        PSCENC =       872.70583573
  Ewald energy   TEWEN  =    -17898.21910199
  -Hartree energ DENC   =     -7480.91707372
  -exchange      EXHF   =         0.00000000
  -V(xc)+E(xc)   XCENC  =       941.89902091
  PAW double counting   =     22369.56137937   -23427.52808304
  entropy T*S    EENTRO =        -0.00000000
  eigenvalues    EBANDS =     -2997.72709851
  atomic energy  EATOM  =     26212.11861568
  Solvation  Ediel_sol  =         0.00000000
  ---------------------------------------------------
  free energy    TOTEN  =     -1408.10650556 eV

  energy without entropy =    -1408.10650556  energy(sigma->0) =    -1408.10650556


--------------------------------------------------------------------------------------------------------




--------------------------------------- Iteration      1(   8)  ---------------------------------------


    POTLOK:  cpu time    0.2877: real time    0.3176
    SETDIJ:  cpu time    1.2037: real time    1.2038
     EDDAV:  cpu time   18.4856: real time   18.4865
       DOS:  cpu time    0.0004: real time    0.0004
    CHARGE:  cpu time    2.6902: real time    2.6903
    MIXING:  cpu time    0.0015: real time    0.0015
    --------------------------------------------
      LOOP:  cpu time   22.6692: real time   22.7002

 eigenvalue-minimisations  :  4104
 total energy-change (2. order) :-0.1671310E+00  (-0.4627452E-01)
 number of electron     343.9999999 magnetization 
 augmentation part       -3.2143627 magnetization 

 Broyden mixing:
  rms(total) = 0.21836E+00    rms(broyden)= 0.21836E+00
  rms(prec ) = 0.24606E+00
  weight for this iteration     100.00

 eigenvalues of (default mixing * dielectric matrix)
  average eigenvalue GAMMA=   1.6879
  1.1023  1.3517  2.6096

 Free energy of the ion-electron system (eV)
  ---------------------------------------------------
  alpha Z        PSCENC =       872.70583573
  Ewald energy   TEWEN  =    -17898.21910199
  -Hartree energ DENC   =     -7486.63800449
  -exchange      EXHF   =         0.00000000
  -V(xc)+E(xc)   XCENC  =       942.56753358
  PAW double counting   =     22621.09608736   -23679.60373460
  entropy T*S    EENTRO =        -0.00000000
  eigenvalues    EBANDS =     -2992.30086781
  atomic energy  EATOM  =     26212.11861568
  Solvation  Ediel_sol  =         0.00000000
  ---------------------------------------------------
  free energy    TOTEN  =     -1408.27363654 eV

  energy without entropy =    -1408.27363654  energy(sigma->0) =    -1408.27363654


--------------------------------------------------------------------------------------------------------




--------------------------------------- Iteration      1(   9)  ---------------------------------------


    POTLOK:  cpu time    0.2943: real time    0.3175
    SETDIJ:  cpu time    1.2050: real time    1.2050
     EDDAV:  cpu time   17.8214: real time   17.8222
       DOS:  cpu time    0.0006: real time    0.0006
    CHARGE:  cpu time    2.6952: real time    2.6953
    MIXING:  cpu time    0.0018: real time    0.0018
    --------------------------------------------
      LOOP:  cpu time   22.0183: real time   22.0425

 eigenvalue-minimisations  :  3872
 total energy-change (2. order) :-0.6025521E-01  (-0.1527815E-01)
 number of electron     343.9999999 magnetization 
 augmentation part       -3.2584034 magnetization 

 Broyden mixing:
  rms(total) = 0.43545E-01    rms(broyden)= 0.43542E-01
  rms(prec ) = 0.54620E-01
  weight for this iteration     100.00

 eigenvalues of (default mixing * dielectric matrix)
  average eigenvalue GAMMA=   1.4770
  2.5112  1.2672  1.2672  0.8623

 Free energy of the ion-electron system (eV)
  ---------------------------------------------------
  alpha Z        PSCENC =       872.70583573
  Ewald energy   TEWEN  =    -17898.21910199
  -Hartree energ DENC   =     -7493.16724474
  -exchange      EXHF   =         0.00000000
  -V(xc)+E(xc)   XCENC  =       944.31057927
  PAW double counting   =     22956.33015797   -24015.89095374
  entropy T*S    EENTRO =        -0.00000000
  eigenvalues    EBANDS =     -2986.52177993
  atomic energy  EATOM  =     26212.11861568
  Solvation  Ediel_sol  =         0.00000000
  ---------------------------------------------------
  free energy    TOTEN  =     -1408.33389175 eV

  energy without entropy =    -1408.33389175  energy(sigma->0) =    -1408.33389175


--------------------------------------------------------------------------------------------------------




--------------------------------------- Iteration      1(  10)  ---------------------------------------


    POTLOK:  cpu time    0.2862: real time    0.4350
    SETDIJ:  cpu time    1.2058: real time    1.2059
     EDDAV:  cpu time   20.1849: real time   20.1859
       DOS:  cpu time    0.0004: real time    0.0004
    CHARGE:  cpu time    2.6994: real time    2.6995
    MIXING:  cpu time    0.0019: real time    0.0019
    --------------------------------------------
      LOOP:  cpu time   24.3787: real time   24.5286

 eigenvalue-minimisations  :  4688
 total energy-change (2. order) :-0.3049494E-02  (-0.2012859E-02)
 number of electron     343.9999999 magnetization 
 augmentation part       -3.2447434 magnetization 

 Broyden mixing:
  rms(total) = 0.31519E-01    rms(broyden)= 0.31517E-01
  rms(prec ) = 0.40814E-01
  weight for this iteration     100.00

 eigenvalues of (default mixing * dielectric matrix)
  average eigenvalue GAMMA=   1.3356
  2.4050  1.3565  1.3565  0.8333  0.7265

 Free energy of the ion-electron system (eV)
  ---------------------------------------------------
  alpha Z        PSCENC =       872.70583573
  Ewald energy   TEWEN  =    -17898.21910199
  -Hartree energ DENC   =     -7491.61682244
  -exchange      EXHF   =         0.00000000
  -V(xc)+E(xc)   XCENC  =       944.20415642
  PAW double counting   =     22927.28513380   -23986.88018686
  entropy T*S    EENTRO =        -0.00000000
  eigenvalues    EBANDS =     -2987.93457157
  atomic energy  EATOM  =     26212.11861568
  Solvation  Ediel_sol  =         0.00000000
  ---------------------------------------------------
  free energy    TOTEN  =     -1408.33694124 eV

  energy without entropy =    -1408.33694124  energy(sigma->0) =    -1408.33694124


--------------------------------------------------------------------------------------------------------




--------------------------------------- Iteration      1(  11)  ---------------------------------------


    POTLOK:  cpu time    0.2915: real time    0.3175
    SETDIJ:  cpu time    1.2052: real time    1.2052
     EDDAV:  cpu time   18.0255: real time   18.0264
       DOS:  cpu time    0.0006: real time    0.0006
    CHARGE:  cpu time    2.7020: real time    2.7020
    MIXING:  cpu time    0.0017: real time    0.0017
    --------------------------------------------
      LOOP:  cpu time   22.2265: real time   22.2535

 eigenvalue-minimisations  :  3936
 total energy-change (2. order) :-0.2433967E-02  (-0.3322978E-03)
 number of electron     343.9999999 magnetization 
 augmentation part       -3.2430368 magnetization 

 Broyden mixing:
  rms(total) = 0.12748E-01    rms(broyden)= 0.12748E-01
  rms(prec ) = 0.21249E-01
  weight for this iteration     100.00

 eigenvalues of (default mixing * dielectric matrix)
  average eigenvalue GAMMA=   1.6192
  2.7891  2.7891  1.2190  1.2190  0.8496  0.8496

 Free energy of the ion-electron system (eV)
  ---------------------------------------------------
  alpha Z        PSCENC =       872.70583573
  Ewald energy   TEWEN  =    -17898.21910199
  -Hartree energ DENC   =     -7490.29735536
  -exchange      EXHF   =         0.00000000
  -V(xc)+E(xc)   XCENC  =       944.15801608
  PAW double counting   =     22907.65067086   -23967.40644584
  entropy T*S    EENTRO =        -0.00000000
  eigenvalues    EBANDS =     -2989.04961037
  atomic energy  EATOM  =     26212.11861568
  Solvation  Ediel_sol  =         0.00000000
  ---------------------------------------------------
  free energy    TOTEN  =     -1408.33937521 eV

  energy without entropy =    -1408.33937521  energy(sigma->0) =    -1408.33937521


--------------------------------------------------------------------------------------------------------




--------------------------------------- Iteration      1(  12)  ---------------------------------------


    POTLOK:  cpu time    0.2594: real time    0.3042
    SETDIJ:  cpu time    1.2047: real time    1.2047
     EDDAV:  cpu time   17.3854: real time   17.3863
       DOS:  cpu time    0.0004: real time    0.0004
    CHARGE:  cpu time    2.6991: real time    2.6992
    MIXING:  cpu time    0.0017: real time    0.0017
    --------------------------------------------
      LOOP:  cpu time   21.5507: real time   21.5964

 eigenvalue-minimisations  :  3720
 total energy-change (2. order) :-0.2191875E-02  (-0.4407946E-03)
 number of electron     343.9999999 magnetization 
 augmentation part       -3.2460661 magnetization 

 Broyden mixing:
  rms(total) = 0.10640E-01    rms(broyden)= 0.10639E-01
  rms(prec ) = 0.13373E-01
  weight for this iteration     100.00

 eigenvalues of (default mixing * dielectric matrix)
  average eigenvalue GAMMA=   1.6105
  3.0738  2.5759  1.3623  1.3623  0.9375  0.9809  0.9809

 Free energy of the ion-electron system (eV)
  ---------------------------------------------------
  alpha Z        PSCENC =       872.70583573
  Ewald energy   TEWEN  =    -17898.21910199
  -Hartree energ DENC   =     -7489.90000440
  -exchange      EXHF   =         0.00000000
  -V(xc)+E(xc)   XCENC  =       944.21367816
  PAW double counting   =     22901.75882634   -23961.72782155
  entropy T*S    EENTRO =        -0.00000000
  eigenvalues    EBANDS =     -2989.29159507
  atomic energy  EATOM  =     26212.11861568
  Solvation  Ediel_sol  =         0.00000000
  ---------------------------------------------------
  free energy    TOTEN  =     -1408.34156708 eV

  energy without entropy =    -1408.34156708  energy(sigma->0) =    -1408.34156708


--------------------------------------------------------------------------------------------------------




--------------------------------------- Iteration      1(  13)  ---------------------------------------


    POTLOK:  cpu time    0.2541: real time    0.3121
    SETDIJ:  cpu time    1.2049: real time    1.2049
     EDDAV:  cpu time   19.8924: real time   19.8931
       DOS:  cpu time    0.0004: real time    0.0004
    CHARGE:  cpu time    2.7033: real time    2.7034
    MIXING:  cpu time    0.0020: real time    0.0020
    --------------------------------------------
      LOOP:  cpu time   24.0571: real time   24.1159

 eigenvalue-minimisations  :  4576
 total energy-change (2. order) : 0.4864027E-03  (-0.1727278E-03)
 number of electron     343.9999999 magnetization 
 augmentation part       -3.2471027 magnetization 

 Broyden mixing:
  rms(total) = 0.45594E-02    rms(broyden)= 0.45586E-02
  rms(prec ) = 0.53851E-02
  weight for this iteration     100.00

 eigenvalues of (default mixing * dielectric matrix)
  average eigenvalue GAMMA=   1.5535
  3.2483  2.3415  1.7527  1.0674  1.0674  1.1526  1.0201  0.7781

 Free energy of the ion-electron system (eV)
  ---------------------------------------------------
  alpha Z        PSCENC =       872.70583573
  Ewald energy   TEWEN  =    -17898.21910199
  -Hartree energ DENC   =     -7491.04792334
  -exchange      EXHF   =         0.00000000
  -V(xc)+E(xc)   XCENC  =       944.28455458
  PAW double counting   =     22905.12534890   -23965.05241954
  entropy T*S    EENTRO =        -0.00000000
  eigenvalues    EBANDS =     -2988.25599071
  atomic energy  EATOM  =     26212.11861568
  Solvation  Ediel_sol  =         0.00000000
  ---------------------------------------------------
  free energy    TOTEN  =     -1408.34108068 eV

  energy without entropy =    -1408.34108068  energy(sigma->0) =    -1408.34108068


--------------------------------------------------------------------------------------------------------




--------------------------------------- Iteration      1(  14)  ---------------------------------------


    POTLOK:  cpu time    0.3008: real time    0.3222
    SETDIJ:  cpu time    1.2036: real time    1.2038
     EDDAV:  cpu time   17.8552: real time   17.8559
       DOS:  cpu time    0.0004: real time    0.0004
    CHARGE:  cpu time    2.6941: real time    2.6942
    MIXING:  cpu time    0.0018: real time    0.0018
    --------------------------------------------
      LOOP:  cpu time   22.0560: real time   22.0782

 eigenvalue-minimisations  :  3880
 total energy-change (2. order) :-0.7356609E-05  (-0.3886304E-04)
 number of electron     343.9999999 magnetization 
 augmentation part       -3.2466357 magnetization 

 Broyden mixing:
  rms(total) = 0.28240E-02    rms(broyden)= 0.28229E-02
  rms(prec ) = 0.36149E-02
  weight for this iteration     100.00

 eigenvalues of (default mixing * dielectric matrix)
  average eigenvalue GAMMA=   1.5787
  3.3042  2.3013  2.3013  1.0959  1.0959  1.1719  1.1719  0.8829  0.8829

 Free energy of the ion-electron system (eV)
  ---------------------------------------------------
  alpha Z        PSCENC =       872.70583573
  Ewald energy   TEWEN  =    -17898.21910199
  -Hartree energ DENC   =     -7491.24244086
  -exchange      EXHF   =         0.00000000
  -V(xc)+E(xc)   XCENC  =       944.28886554
  PAW double counting   =     22905.72532606   -23965.63457686
  entropy T*S    EENTRO =        -0.00000000
  eigenvalues    EBANDS =     -2988.08361133
  atomic energy  EATOM  =     26212.11861568
  Solvation  Ediel_sol  =         0.00000000
  ---------------------------------------------------
  free energy    TOTEN  =     -1408.34108804 eV

  energy without entropy =    -1408.34108804  energy(sigma->0) =    -1408.34108804


--------------------------------------------------------------------------------------------------------




--------------------------------------- Iteration      1(  15)  ---------------------------------------


    POTLOK:  cpu time    0.2642: real time    0.3031
    SETDIJ:  cpu time    1.2049: real time    1.2049
     EDDAV:  cpu time   17.3276: real time   17.3283
       DOS:  cpu time    0.0004: real time    0.0004
    CHARGE:  cpu time    2.7062: real time    2.7063
    MIXING:  cpu time    0.0019: real time    0.0019
    --------------------------------------------
      LOOP:  cpu time   21.5051: real time   21.5449

 eigenvalue-minimisations  :  3696
 total energy-change (2. order) : 0.6405758E-05  (-0.4018365E-05)
 number of electron     343.9999999 magnetization 
 augmentation part       -3.2464139 magnetization 

 Broyden mixing:
  rms(total) = 0.15525E-02    rms(broyden)= 0.15510E-02
  rms(prec ) = 0.20922E-02
  weight for this iteration     100.00

 eigenvalues of (default mixing * dielectric matrix)
  average eigenvalue GAMMA=   1.6524
  3.8715  2.4350  2.4350  1.6280  1.2532  1.0343  1.0343  1.0074  0.9762  0.8488

 Free energy of the ion-electron system (eV)
  ---------------------------------------------------
  alpha Z        PSCENC =       872.70583573
  Ewald energy   TEWEN  =    -17898.21910199
  -Hartree energ DENC   =     -7491.37989437
  -exchange      EXHF   =         0.00000000
  -V(xc)+E(xc)   XCENC  =       944.29248613
  PAW double counting   =     22905.85667862   -23965.76017031
  entropy T*S    EENTRO =        -0.00000000
  eigenvalues    EBANDS =     -2987.95553114
  atomic energy  EATOM  =     26212.11861568
  Solvation  Ediel_sol  =         0.00000000
  ---------------------------------------------------
  free energy    TOTEN  =     -1408.34108163 eV

  energy without entropy =    -1408.34108163  energy(sigma->0) =    -1408.34108163


--------------------------------------------------------------------------------------------------------




--------------------------------------- Iteration      1(  16)  ---------------------------------------


    POTLOK:  cpu time    0.2924: real time    0.3111
    SETDIJ:  cpu time    1.2069: real time    1.2069
     EDDAV:  cpu time   18.1577: real time   18.1586
       DOS:  cpu time    0.0004: real time    0.0004
    CHARGE:  cpu time    2.7060: real time    2.7062
    MIXING:  cpu time    0.0019: real time    0.0019
    --------------------------------------------
      LOOP:  cpu time   22.3653: real time   22.3851

 eigenvalue-minimisations  :  3976
 total energy-change (2. order) :-0.6642724E-04  (-0.3570418E-05)
 number of electron     343.9999999 magnetization 
 augmentation part       -3.2460249 magnetization 

 Broyden mixing:
  rms(total) = 0.71613E-03    rms(broyden)= 0.71294E-03
  rms(prec ) = 0.83673E-03
  weight for this iteration     100.00

 eigenvalues of (default mixing * dielectric matrix)
  average eigenvalue GAMMA=   1.6756
  4.0962  2.8698  2.3529  1.7998  1.0806  1.0806  1.1007  1.1007  0.8265  1.1119
  1.0117

 Free energy of the ion-electron system (eV)
  ---------------------------------------------------
  alpha Z        PSCENC =       872.70583573
  Ewald energy   TEWEN  =    -17898.21910199
  -Hartree energ DENC   =     -7491.34150658
  -exchange      EXHF   =         0.00000000
  -V(xc)+E(xc)   XCENC  =       944.27995380
  PAW double counting   =     22904.79400591   -23964.69387609
  entropy T*S    EENTRO =        -0.00000000
  eigenvalues    EBANDS =     -2987.98507453
  atomic energy  EATOM  =     26212.11861568
  Solvation  Ediel_sol  =         0.00000000
  ---------------------------------------------------
  free energy    TOTEN  =     -1408.34114806 eV

  energy without entropy =    -1408.34114806  energy(sigma->0) =    -1408.34114806


--------------------------------------------------------------------------------------------------------




--------------------------------------- Iteration      1(  17)  ---------------------------------------


    POTLOK:  cpu time    0.2645: real time    0.3048
    SETDIJ:  cpu time    1.2068: real time    1.2070
     EDDAV:  cpu time   18.0179: real time   18.0186
       DOS:  cpu time    0.0004: real time    0.0004
    CHARGE:  cpu time    2.7074: real time    2.7075
    MIXING:  cpu time    0.0020: real time    0.0020
    --------------------------------------------
      LOOP:  cpu time   22.1990: real time   22.2404

 eigenvalue-minimisations  :  3920
 total energy-change (2. order) : 0.7083102E-05  (-0.7119080E-06)
 number of electron     343.9999999 magnetization 
 augmentation part       -3.2460369 magnetization 

 Broyden mixing:
  rms(total) = 0.42051E-03    rms(broyden)= 0.41510E-03
  rms(prec ) = 0.46476E-03
  weight for this iteration     100.00

 eigenvalues of (default mixing * dielectric matrix)
  average eigenvalue GAMMA=   1.6264
  4.2197  2.9001  2.2940  1.9736  1.1727  1.1727  1.1341  1.1341  1.0018  1.0018
  0.7593  0.7525

 Free energy of the ion-electron system (eV)
  ---------------------------------------------------
  alpha Z        PSCENC =       872.70583573
  Ewald energy   TEWEN  =    -17898.21910199
  -Hartree energ DENC   =     -7491.34944803
  -exchange      EXHF   =         0.00000000
  -V(xc)+E(xc)   XCENC  =       944.27832838
  PAW double counting   =     22904.91671063   -23964.81346032
  entropy T*S    EENTRO =        -0.00000000
  eigenvalues    EBANDS =     -2987.97862106
  atomic energy  EATOM  =     26212.11861568
  Solvation  Ediel_sol  =         0.00000000
  ---------------------------------------------------
  free energy    TOTEN  =     -1408.34114097 eV

  energy without entropy =    -1408.34114097  energy(sigma->0) =    -1408.34114097


--------------------------------------------------------------------------------------------------------




--------------------------------------- Iteration      1(  18)  ---------------------------------------


    POTLOK:  cpu time    0.2899: real time    0.3134
    SETDIJ:  cpu time    1.2044: real time    1.2044
     EDDAV:  cpu time   14.3924: real time   14.3930
       DOS:  cpu time    0.0006: real time    0.0006
    CHARGE:  cpu time    2.7005: real time    2.7006
    MIXING:  cpu time    0.0020: real time    0.0020
    --------------------------------------------
      LOOP:  cpu time   18.5899: real time   18.6141

 eigenvalue-minimisations  :  2656
 total energy-change (2. order) : 0.2852870E-05  (-0.1684145E-06)
 number of electron     343.9999999 magnetization 
 augmentation part       -3.2460625 magnetization 

 Broyden mixing:
  rms(total) = 0.20008E-03    rms(broyden)= 0.18848E-03
  rms(prec ) = 0.22249E-03
  weight for this iteration     100.00

 eigenvalues of (default mixing * dielectric matrix)
  average eigenvalue GAMMA=   1.6718
  4.6267  2.9993  2.3756  2.1006  1.3183  1.3183  1.1782  1.1782  0.9698  0.9698
  0.8061  0.9459  0.9459

 Free energy of the ion-electron system (eV)
  ---------------------------------------------------
  alpha Z        PSCENC =       872.70583573
  Ewald energy   TEWEN  =    -17898.21910199
  -Hartree energ DENC   =     -7491.34531440
  -exchange      EXHF   =         0.00000000
  -V(xc)+E(xc)   XCENC  =       944.27802797
  PAW double counting   =     22905.01648884   -23964.91306007
  entropy T*S    EENTRO =        -0.00000000
  eigenvalues    EBANDS =     -2987.98262989
  atomic energy  EATOM  =     26212.11861568
  Solvation  Ediel_sol  =         0.00000000
  ---------------------------------------------------
  free energy    TOTEN  =     -1408.34113812 eV

  energy without entropy =    -1408.34113812  energy(sigma->0) =    -1408.34113812


--------------------------------------------------------------------------------------------------------




--------------------------------------- Iteration      1(  19)  ---------------------------------------


    POTLOK:  cpu time    0.2602: real time    0.3193
    SETDIJ:  cpu time    1.2068: real time    1.2069
     EDDAV:  cpu time   13.0755: real time   13.0762
       DOS:  cpu time    0.0009: real time    0.0009
    CHARGE:  cpu time    2.7065: real time    2.7066
    MIXING:  cpu time    0.0021: real time    0.0021
    --------------------------------------------
      LOOP:  cpu time   17.2520: real time   17.3119

 eigenvalue-minimisations  :  2192
 total energy-change (2. order) : 0.3707988E-05  (-0.3108969E-07)
 number of electron     343.9999999 magnetization 
 augmentation part       -3.2460887 magnetization 

 Broyden mixing:
  rms(total) = 0.11721E-03    rms(broyden)= 0.96116E-04
  rms(prec ) = 0.11301E-03
  weight for this iteration     100.00
  WARNING: grid for Broyden might be to small

 eigenvalues of (default mixing * dielectric matrix)
  average eigenvalue GAMMA=   1.6524
  4.6770  2.9952  2.2386  2.2386  1.5449  1.2023  1.2023  1.1429  1.1429  1.1034
  0.9948  0.9948  0.8282  0.8282

 Free energy of the ion-electron system (eV)
  ---------------------------------------------------
  alpha Z        PSCENC =       872.70583573
  Ewald energy   TEWEN  =    -17898.21910199
  -Hartree energ DENC   =     -7491.34917315
  -exchange      EXHF   =         0.00000000
  -V(xc)+E(xc)   XCENC  =       944.27798269
  PAW double counting   =     22905.10696930   -23965.00294770
  entropy T*S    EENTRO =        -0.00000000
  eigenvalues    EBANDS =     -2987.97931497
  atomic energy  EATOM  =     26212.11861568
  Solvation  Ediel_sol  =         0.00000000
  ---------------------------------------------------
  free energy    TOTEN  =     -1408.34113441 eV

  energy without entropy =    -1408.34113441  energy(sigma->0) =    -1408.34113441


--------------------------------------------------------------------------------------------------------




--------------------------------------- Iteration      1(  20)  ---------------------------------------


    POTLOK:  cpu time    0.2778: real time    0.3124
    SETDIJ:  cpu time    1.2071: real time    1.2071
     EDDAV:  cpu time   12.6766: real time   12.6773
       DOS:  cpu time    0.0004: real time    0.0004
    CHARGE:  cpu time    2.7025: real time    2.7026
    MIXING:  cpu time    0.0022: real time    0.0022
    --------------------------------------------
      LOOP:  cpu time   16.8666: real time   16.9020

 eigenvalue-minimisations  :  2048
 total energy-change (2. order) : 0.1180586E-05  (-0.1637655E-07)
 number of electron     343.9999999 magnetization 
 augmentation part       -3.2460952 magnetization 

 Broyden mixing:
  rms(total) = 0.90754E-04    rms(broyden)= 0.61131E-04
  rms(prec ) = 0.70502E-04
  weight for this iteration     100.00
  WARNING: grid for Broyden might be to small

 eigenvalues of (default mixing * dielectric matrix)
  average eigenvalue GAMMA=   1.6313
  4.7275  3.0328  2.2674  2.2674  1.2389  1.2389  1.4437  1.3053  1.3053  1.1862
  0.9559  0.9559  0.7948  0.8748  0.8748

 Free energy of the ion-electron system (eV)
  ---------------------------------------------------
  alpha Z        PSCENC =       872.70583573
  Ewald energy   TEWEN  =    -17898.21910199
  -Hartree energ DENC   =     -7491.35213716
  -exchange      EXHF   =         0.00000000
  -V(xc)+E(xc)   XCENC  =       944.27817838
  PAW double counting   =     22905.09719232   -23964.99271732
  entropy T*S    EENTRO =        -0.00000000
  eigenvalues    EBANDS =     -2987.97699888
  atomic energy  EATOM  =     26212.11861568
  Solvation  Ediel_sol  =         0.00000000
  ---------------------------------------------------
  free energy    TOTEN  =     -1408.34113323 eV

  energy without entropy =    -1408.34113323  energy(sigma->0) =    -1408.34113323


--------------------------------------------------------------------------------------------------------




--------------------------------------- Iteration      1(  21)  ---------------------------------------


    POTLOK:  cpu time    0.2833: real time    0.3207
    SETDIJ:  cpu time    1.2041: real time    1.2041
     EDDAV:  cpu time   12.5805: real time   12.5811
       DOS:  cpu time    0.0004: real time    0.0004
    --------------------------------------------
      LOOP:  cpu time   14.0682: real time   14.1062

 eigenvalue-minimisations  :  2024
 total energy-change (2. order) :-0.3668220E-06  (-0.7008460E-08)
 number of electron     343.9999999 magnetization 
 augmentation part       -3.2460952 magnetization 

 Free energy of the ion-electron system (eV)
  ---------------------------------------------------
  alpha Z        PSCENC =       872.70583573
  Ewald energy   TEWEN  =    -17898.21910199
  -Hartree energ DENC   =     -7491.35197125
  -exchange      EXHF   =         0.00000000
  -V(xc)+E(xc)   XCENC  =       944.27819991
  PAW double counting   =     22905.09480987   -23964.99049088
  entropy T*S    EENTRO =        -0.00000000
  eigenvalues    EBANDS =     -2987.97703068
  atomic energy  EATOM  =     26212.11861568
  Solvation  Ediel_sol  =         0.00000000
  ---------------------------------------------------
  free energy    TOTEN  =     -1408.34113360 eV

  energy without entropy =    -1408.34113360  energy(sigma->0) =    -1408.34113360


--------------------------------------------------------------------------------------------------------




 average (electrostatic) potential at core
  the test charge radii are     1.1312  1.1541  1.0178
  (the norm of the test charge is              1.0000)
       1 -55.2305       2 -55.3965       3 -55.3736       4 -55.1484       5 -55.3375
       6 -55.1272       7 -55.1965       8 -55.1782       9-101.5974      10-101.9151
      11-101.6891      12-101.6214      13-101.9297      14-101.5462      15-101.6194
      16-101.4676      17 -69.0346      18 -68.9752      19 -69.0288      20 -69.3266
      21 -69.0172      22 -69.0635      23 -68.9686      24 -69.0536      25 -68.8447
      26 -69.2548      27 -68.9217      28 -69.0504      29 -68.9789      30 -68.9904
      31 -69.0273      32 -69.0033      33 -69.0335      34 -69.0373      35 -68.9915
      36 -69.0580      37 -68.8379      38 -68.8999      39 -69.6666



 E-fermi :   0.4900     XC(G=0):  -7.9520     alpha+bet : -6.9586


 k-point     1 :       0.0000    0.0000    0.0000
  band No.  band energies     occupation 
      1     -20.9195      2.00000
      2     -20.8982      2.00000
      3     -20.8643      2.00000
      4     -20.7579      2.00000
      5     -20.7465      2.00000
      6     -20.7114      2.00000
      7     -20.6786      2.00000
      8     -20.6571      2.00000
      9     -17.0295      2.00000
     10     -16.6868      2.00000
     11     -16.6747      2.00000
     12     -16.6707      2.00000
     13     -16.6570      2.00000
     14     -16.5958      2.00000
     15     -16.5922      2.00000
     16     -16.5783      2.00000
     17     -16.5715      2.00000
     18     -16.5482      2.00000
     19     -16.5381      2.00000
     20     -16.4655      2.00000
     21     -16.4525      2.00000
     22     -16.4378      2.00000
     23     -16.4177      2.00000
     24     -16.4068      2.00000
     25     -16.3938      2.00000
     26     -16.3601      2.00000
     27     -16.3545      2.00000
     28     -16.3536      2.00000
     29     -16.3447      2.00000
     30     -16.3376      2.00000
     31     -16.3347      2.00000
     32     -16.3212      2.00000
     33     -16.3107      2.00000
     34     -16.2878      2.00000
     35     -16.2871      2.00000
     36     -16.2838      2.00000
     37     -16.2825      2.00000
     38     -16.2814      2.00000
     39     -16.2742      2.00000
     40     -16.2683      2.00000
     41     -16.2668      2.00000
     42     -16.2632      2.00000
     43     -16.2535      2.00000
     44     -16.2299      2.00000
     45     -16.2093      2.00000
     46     -16.2055      2.00000
     47     -16.1955      2.00000
     48     -16.1489      2.00000
     49     -14.6004      2.00000
     50     -14.3829      2.00000
     51     -14.2926      2.00000
     52     -14.2517      2.00000
     53     -14.1482      2.00000
     54     -14.1026      2.00000
     55     -14.0862      2.00000
     56     -14.0803      2.00000
     57     -14.0694      2.00000
     58     -14.0576      2.00000
     59     -14.0488      2.00000
     60     -14.0412      2.00000
     61     -14.0289      2.00000
     62     -14.0210      2.00000
     63     -14.0170      2.00000
     64     -13.9363      2.00000
     65     -13.9247      2.00000
     66     -13.9019      2.00000
     67     -13.8675      2.00000
     68     -13.7791      2.00000
     69     -13.7676      2.00000
     70     -13.7085      2.00000
     71     -13.6477      2.00000
     72      -8.1963      2.00000
     73      -7.8165      2.00000
     74      -7.7740      2.00000
     75      -7.7041      2.00000
     76      -7.3886      2.00000
     77      -7.3501      2.00000
     78      -7.3346      2.00000
     79      -7.3118      2.00000
     80      -7.2933      2.00000
     81      -7.2878      2.00000
     82      -7.2735      2.00000
     83      -7.2597      2.00000
     84      -7.2527      2.00000
     85      -7.2389      2.00000
     86      -7.2076      2.00000
     87      -7.1757      2.00000
     88      -7.1717      2.00000
     89      -7.1612      2.00000
     90      -7.1478      2.00000
     91      -7.1458      2.00000
     92      -7.1419      2.00000
     93      -7.1182      2.00000
     94      -7.1043      2.00000
     95      -7.0947      2.00000
     96      -7.0898      2.00000
     97      -7.0782      2.00000
     98      -7.0756      2.00000
     99      -7.0703      2.00000
    100      -7.0610      2.00000
    101      -7.0499      2.00000
    102      -7.0242      2.00000
    103      -6.5794      2.00000
    104      -3.3712      2.00000
    105      -3.3468      2.00000
    106      -3.3075      2.00000
    107      -3.2858      2.00000
    108      -3.2485      2.00000
    109      -3.2170      2.00000
    110      -3.2050      2.00000
    111      -3.1848      2.00000
    112      -3.1592      2.00000
    113      -3.0814      2.00000
    114      -3.0442      2.00000
    115      -2.9121      2.00000
    116      -2.3809      2.00000
    117      -2.2138      2.00000
    118      -2.1336      2.00000
    119      -2.1240      2.00000
    120      -2.0621      2.00000
    121      -1.9823      2.00000
    122      -1.9627      2.00000
    123      -1.9219      2.00000
    124      -1.8754      2.00000
    125      -1.8498      2.00000
    126      -1.8043      2.00000
    127      -1.7380      2.00000
    128      -1.7051      2.00000
    129      -1.6791      2.00000
    130      -1.6663      2.00000
    131      -1.6122      2.00000
    132      -1.5811      2.00000
    133      -1.5590      2.00000
    134      -1.5405      2.00000
    135      -1.5133      2.00000
    136      -1.5032      2.00000
    137      -1.4944      2.00000
    138      -1.4774      2.00000
    139      -1.4611      2.00000
    140      -1.4543      2.00000
    141      -1.4232      2.00000
    142      -1.4122      2.00000
    143      -1.4047      2.00000
    144      -1.3812      2.00000
    145      -1.3618      2.00000
    146      -1.3533      2.00000
    147      -1.3487      2.00000
    148      -1.3396      2.00000
    149      -1.3306      2.00000
    150      -1.3257      2.00000
    151      -1.3139      2.00000
    152      -1.2947      2.00000
    153      -1.2735      2.00000
[...]


--------------------------------------------------------------------------------------------------------


 soft charge-density along one line, spin component           1
         0         1         2         3         4         5         6         7         8         9
 total charge-density along one line

 pseudopotential strength for first ion, spin component:           1
 17.949  -4.699   0.000   0.001   0.000  -0.000  -0.001  -0.000
 -4.699   1.239  -0.000  -0.000  -0.000   0.000   0.000   0.000
  0.000  -0.000   2.255  -0.000   0.000  -2.695  -0.000  -0.000
  0.001  -0.000  -0.000   2.256  -0.001  -0.000  -2.696   0.001
  0.000  -0.000   0.000  -0.001   2.254  -0.000   0.001  -2.694
 -0.000   0.000  -2.695  -0.000  -0.000   3.188   0.000   0.000
 -0.001   0.000  -0.000  -2.696   0.001   0.000   3.190  -0.001
 -0.000   0.000  -0.000   0.001  -2.694   0.000  -0.001   3.187
  0.000  -0.000   0.001  -0.000   0.000  -0.002   0.000  -0.001
 -0.000   0.000   0.002   0.000  -0.000  -0.002  -0.001   0.000
  0.001  -0.000   0.000  -0.001  -0.000  -0.000   0.001   0.000
 -0.001   0.000  -0.000   0.000   0.001   0.000  -0.000  -0.001
 -0.000   0.000   0.000  -0.001  -0.001  -0.000   0.001   0.001
 total augmentation occupancy for first ion, spin component:           1
  1.911  -0.139  -0.000   0.000   0.000   0.000   0.001   0.000   0.000  -0.000   0.001  -0.001  -0.000
 -0.139   0.114   0.001   0.002   0.002  -0.002  -0.003   0.001   0.000   0.001  -0.004   0.005   0.001
 -0.000   0.001   2.016  -0.000   0.000   0.003  -0.000   0.000   0.003   0.004  -0.000  -0.000  -0.000
  0.000   0.002  -0.000   2.020  -0.003  -0.000   0.006  -0.002  -0.000   0.001  -0.002   0.001  -0.001
  0.000   0.002   0.000  -0.003   2.016   0.000  -0.002   0.003   0.000  -0.000  -0.000   0.002  -0.002
  0.000  -0.002   0.003  -0.000   0.000   0.008   0.000   0.000  -0.002  -0.003   0.000  -0.000   0.000
  0.001  -0.003  -0.000   0.006  -0.002   0.000   0.007   0.001  -0.000  -0.000   0.002  -0.000   0.001
  0.000   0.001   0.000  -0.002   0.003   0.000   0.001   0.009  -0.000  -0.000  -0.001  -0.001   0.003
  0.000   0.000   0.003  -0.000   0.000  -0.002  -0.000  -0.000   0.006   0.002  -0.000   0.000   0.000
 -0.000   0.001   0.004   0.001  -0.000  -0.003  -0.000  -0.000   0.002   0.004  -0.000  -0.000   0.000
  0.001  -0.004  -0.000  -0.002  -0.000   0.000   0.002  -0.001  -0.000  -0.000   0.004  -0.002  -0.001
 -0.001   0.005  -0.000   0.001   0.002  -0.000  -0.000  -0.001   0.000  -0.000  -0.002   0.004   0.001
 -0.000   0.001  -0.000  -0.001  -0.002   0.000   0.001   0.003   0.000   0.000  -0.001   0.001   0.004


------------------------ aborting loop because EDIFF is reached ----------------------------------------





 total charge     

# of ion       s       p       d       tot
------------------------------------------
    1        1.785   4.716   0.017   6.519
    2        1.785   4.716   0.017   6.518
    3        1.785   4.716   0.017   6.518
    4        1.786   4.717   0.018   6.520
    5        1.785   4.716   0.017   6.519
    6        1.786   4.717   0.018   6.520
    7        1.788   4.718   0.023   6.528
    8        1.786   4.717   0.019   6.522
    9        1.554   0.422   9.835  11.811
   10        1.531   0.436   9.829  11.796
   11        1.554   0.411   9.833  11.797
   12        1.554   0.417   9.834  11.805
   13        1.535   0.430   9.830  11.795
   14        1.554   0.414   9.833  11.800
   15        1.554   0.417   9.834  11.804
   16        1.527   0.615   9.862  12.003
   17        1.615   3.280   0.006   4.902
   18        1.614   3.285   0.007   4.906
   19        1.615   3.285   0.007   4.906
   20        1.620   3.262   0.009   4.891
   21        1.614   3.286   0.007   4.907
   22        1.614   3.280   0.006   4.900
   23        1.614   3.286   0.007   4.907
   24        1.614   3.279   0.006   4.899
   25        1.614   3.281   0.006   4.902
   26        1.618   3.266   0.008   4.892
   27        1.614   3.280   0.006   4.900
   28        1.614   3.278   0.006   4.897
   29        1.614   3.284   0.006   4.904
   30        1.614   3.284   0.006   4.905
   31        1.614   3.279   0.006   4.898
   32        1.614   3.284   0.006   4.904
   33        1.614   3.278   0.006   4.898
   34        1.614   3.276   0.006   4.896
   35        1.614   3.285   0.006   4.905
   36        1.614   3.280   0.006   4.900
   37        1.615   3.280   0.006   4.901
   38        1.614   3.280   0.006   4.900
   39        1.626   3.342   0.025   4.992
--------------------------------------------------
tot         63.795 116.793  78.999 259.588

    CHARGE:  cpu time    0.3916: real time    0.3916
    FORLOC:  cpu time    0.0111: real time    0.0111
    FORNL :  cpu time    1.9167: real time    1.9168
    STRESS:  cpu time   49.7945: real time   49.7966
    FORCOR:  cpu time    0.2416: real time    0.2416
    FORHAR:  cpu time    0.0276: real time    0.0276
    MIXING:  cpu time    0.0020: real time    0.0020
    OFIELD:  cpu time    0.0000: real time    0.0000

  FORCE on cell =-STRESS in cart. coord.  units (eV):
  Direction    XX          YY          ZZ          XY          YZ          ZX
  --------------------------------------------------------------------------------------
  Alpha Z   872.70584   872.70584   872.70584
  Ewald   -5970.67060 -5968.64730 -5958.98059   -89.21742   196.95853   121.46330
  Hartree  2521.79202  2466.15176  2503.40836   -47.62860   101.43695    95.94563
  E(xc)   -1450.00188 -1449.80224 -1449.79364    -0.03063     0.23831     0.01695
  Local   -2945.51421 -2888.22896 -2938.27018   135.58478  -296.04572  -220.21919
  n-local  1750.57904  1753.10096  1753.47649    -2.85062     5.12349    -1.53383
  augment   818.16387   816.65474   817.10449    -0.03912    -0.03285     0.70416
  Kinetic  4398.07420  4398.19736  4402.00722     2.17956    -1.68075     0.87365
  Fock        0.00000     0.00000     0.00000     0.00000     0.00000     0.00000
  -------------------------------------------------------------------------------------
  Total      -4.87173     0.13216     1.65798    -2.00206     5.99796    -2.74934
  in kB      -4.89338     0.13274     1.66535    -2.01095     6.02461    -2.76155
  external pressure =       -1.03 kB  Pullay stress =        0.00 kB


 VOLUME and BASIS-vectors are now :
 -----------------------------------------------------------------------------
  energy-cutoff  :      300.00
  volume of cell :     1595.09
      direct lattice vectors                 reciprocal lattice vectors
     8.456489000  0.000000000  8.040301000     0.059126193 -0.000000000  0.062186727
     0.000000000 11.729847000  0.000000000     0.000000000  0.085252604 -0.000000000
    -8.456489000  0.000000000  8.040301000    -0.059126193  0.000000000  0.062186727

  length of vectors
    11.668703715 11.729847000 11.668703715     0.085808482  0.085252604  0.085808482


 FORCES acting on ions
    electron-ion (+dipol)            ewald-force                    non-local-force                 convergence-correction
 -----------------------------------------------------------------------------------------------
   0.149E+02 -.704E+01 -.326E+02   -.149E+02 0.699E+01 0.325E+02   0.199E-01 0.715E-01 0.129E+00   -.517E-04 0.143E-03 0.151E-03
   0.674E+02 -.311E+02 0.225E+02   -.668E+02 0.307E+02 -.221E+02   -.545E+00 0.394E+00 -.376E+00   0.142E-03 0.117E-03 -.169E-03
   0.283E+02 0.614E+01 -.145E+02   -.278E+02 -.608E+01 0.145E+02   -.425E+00 -.885E-01 -.226E-01   -.218E-04 -.150E-03 -.997E-05
   -.490E+02 0.684E+01 -.170E+02   0.489E+02 -.688E+01 0.171E+02   0.477E-01 0.230E-01 -.569E-01   0.172E-03 -.123E-03 -.560E-04
   -.134E+02 -.260E+02 -.247E+02   0.132E+02 0.258E+02 0.244E+02   0.166E+00 0.187E+00 0.294E+00   0.174E-03 0.915E-04 -.952E-04
   0.436E+02 -.739E+01 0.260E+02   -.436E+02 0.741E+01 -.260E+02   -.928E-01 0.302E-03 0.768E-02   -.217E-03 0.166E-03 0.633E-04
   -.263E+02 0.136E+02 0.560E+02   0.262E+02 -.135E+02 -.557E+02   0.126E+00 0.877E-01 -.780E-01   0.822E-05 -.117E-03 -.790E-04
   -.372E+02 0.699E+01 -.269E+02   0.370E+02 -.696E+01 0.267E+02   0.159E+00 -.601E-01 0.219E+00   -.488E-04 -.162E-03 0.127E-03
   -.126E+01 -.595E+00 0.507E+01   0.126E+01 0.390E+00 -.558E+01   -.337E-01 0.197E+00 0.475E+00   0.173E-04 0.271E-04 -.520E-04
   -.403E+01 0.983E+02 -.294E+02   0.427E+01 -.103E+03 0.307E+02   -.278E+00 0.529E+01 -.142E+01   -.656E-04 0.637E-03 -.733E-04
   -.215E+01 -.131E+02 0.431E+01   0.164E+01 0.132E+02 -.413E+01   0.490E+00 -.195E+00 -.196E+00   0.411E-04 0.186E-04 -.204E-04
   0.421E+01 0.120E+02 0.744E+00   -.370E+01 -.120E+02 -.616E+00   -.513E+00 0.300E-01 -.101E+00   -.252E-04 0.802E-04 0.360E-04
   -.844E+02 0.299E+02 0.517E+02   0.881E+02 -.307E+02 -.541E+02   -.413E+01 0.875E+00 0.262E+01   -.413E-03 0.815E-04 0.316E-03
   0.106E+02 -.829E+01 -.189E+01   -.107E+02 0.820E+01 0.153E+01   0.105E+00 0.848E-01 0.391E+00   -.518E-04 -.819E-04 -.770E-05
   -.414E+01 0.204E+01 0.800E+01   0.441E+01 -.179E+01 -.783E+01   -.301E+00 -.250E+00 -.131E+00   0.434E-05 -.205E-04 -.282E-04
   -.739E+01 0.197E+02 0.968E+01   0.120E+02 -.280E+02 -.192E+02   -.288E+01 0.551E+01 0.638E+01   0.145E-03 -.318E-03 -.138E-03
   -.514E+01 0.881E+01 0.425E+02   0.518E+01 -.877E+01 -.429E+02   -.543E-01 -.466E-03 0.373E+00   0.230E-04 -.589E-04 -.147E-04
   0.253E+02 0.325E+01 0.365E+02   -.254E+02 -.324E+01 -.368E+02   0.111E+00 0.354E-01 0.238E+00   -.546E-04 -.115E-03 0.467E-04
   -.764E+01 -.664E+01 0.446E+02   0.777E+01 0.662E+01 -.449E+02   -.105E+00 0.171E-01 0.279E+00   0.137E-05 0.732E-04 -.432E-04
   0.674E+01 -.717E+01 0.167E+02   -.665E+01 0.744E+01 -.171E+02   -.137E+00 -.122E+01 0.440E+00   0.236E-04 0.120E-03 0.999E-04
   0.803E+01 0.658E+01 -.318E+02   -.816E+01 -.660E+01 0.320E+02   0.111E+00 0.197E-01 -.196E+00   0.195E-04 -.760E-04 -.120E-04
   -.259E+02 -.112E+02 -.203E+02   0.260E+02 0.112E+02 0.206E+02   -.843E-01 0.653E-02 -.289E+00   0.929E-06 0.664E-04 0.125E-04
   -.120E+02 -.541E+01 -.305E+02   0.121E+02 0.542E+01 0.306E+02   -.130E+00 -.387E-01 -.155E+00   -.436E-05 0.108E-03 -.112E-04
   -.470E+02 0.172E+02 0.209E+02   0.471E+02 -.174E+02 -.212E+02   -.149E+00 0.166E+00 0.276E+00   0.690E-04 0.279E-04 0.913E-05
   -.722E+01 0.968E+01 0.225E+02   0.746E+01 -.980E+01 -.226E+02   -.344E-01 0.616E-01 0.195E+00   -.798E-04 -.509E-04 -.171E-04
   0.244E+02 -.367E+02 0.145E+02   -.248E+02 0.367E+02 -.146E+02   0.103E+01 0.146E+00 -.503E+00   -.220E-04 -.929E-04 0.119E-03
   0.284E+02 -.130E+02 0.394E+02   -.287E+02 0.131E+02 -.397E+02   0.175E+00 -.157E+00 0.257E+00   0.627E-04 -.604E-04 -.119E-03
   -.281E+02 -.201E+02 -.100E+02   0.283E+02 0.202E+02 0.103E+02   -.185E+00 -.139E+00 -.244E+00   0.210E-05 0.788E-04 -.909E-04
   -.161E+02 -.168E+02 -.349E+02   0.163E+02 0.170E+02 0.352E+02   -.167E+00 -.208E+00 -.285E+00   -.673E-04 0.425E-04 0.603E-04
   0.295E+02 0.830E+01 -.166E+02   -.297E+02 -.842E+01 0.169E+02   0.170E+00 0.118E+00 -.283E+00   -.540E-04 0.289E-04 -.512E-04
   0.269E+01 0.356E+02 -.393E+02   -.293E+01 -.358E+02 0.394E+02   0.226E+00 0.199E+00 -.145E+00   0.217E-04 0.127E-04 0.386E-04
   -.341E+02 -.117E+02 0.132E+02   0.343E+02 0.118E+02 -.134E+02   -.200E+00 -.103E+00 0.213E+00   0.816E-04 0.578E-05 0.210E-04
   0.323E+01 -.286E+01 0.358E+02   -.301E+01 0.304E+01 -.361E+02   -.224E+00 -.172E+00 0.254E+00   -.611E-04 0.119E-03 -.207E-05
   0.228E+02 0.340E+02 0.825E+01   -.229E+02 -.343E+02 -.855E+01   0.147E+00 0.218E+00 0.279E+00   0.451E-05 0.344E-04 0.718E-04
   0.186E+02 0.153E+02 0.301E+02   -.188E+02 -.155E+02 -.302E+02   0.177E+00 0.113E+00 0.139E+00   0.581E-04 0.399E-04 -.659E-04
   0.210E+02 -.300E+01 0.224E+01   -.211E+02 0.315E+01 -.201E+01   0.168E+00 -.147E+00 -.238E+00   -.711E-04 -.611E-04 -.244E-04
   0.138E+02 -.218E+02 -.420E+02   -.139E+02 0.220E+02 0.423E+02   -.544E-01 -.204E+00 -.490E+00   0.586E-04 -.682E-04 0.267E-04
   -.190E+02 0.134E+02 -.318E+02   0.191E+02 -.136E+02 0.321E+02   -.160E+00 0.176E+00 -.287E+00   -.849E-04 -.665E-07 0.945E-04
   0.655E+02 -.110E+03 -.116E+03   -.672E+02 0.112E+03 0.119E+03   -.554E+00 0.902E+00 0.108E+01   0.300E-04 -.148E-03 -.676E-04
 -----------------------------------------------------------------------------------------------
   0.792E+01 -.119E+02 -.899E+01   -.711E-13 0.142E-13 0.853E-13   -.801E+01 0.119E+02 0.904E+01   -.233E-03 0.415E-03 0.457E-04


 POSITION                                       TOTAL-FORCE (eV/Angst)
 -----------------------------------------------------------------------------------
      0.54579      2.90254      3.80744        -0.015592      0.037014      0.039356
      0.57717      2.89276     11.93932         0.048036      0.014624     -0.009842
      3.82172      8.82598      7.89582         0.012766     -0.043320     -0.012726
     -4.80400      8.78426      7.88075         0.016053     -0.009591     -0.012636
     -3.92757      2.81304      8.03759        -0.002797     -0.017817     -0.056644
      4.83162      2.92624      8.25563        -0.016188      0.023788      0.021861
     -0.50187      8.92653     12.48418         0.041626      0.164355      0.282208
     -0.56904      8.84354      4.01224        -0.014643     -0.026703     -0.018199
      0.00744      0.02421      0.02070        -0.022981     -0.003937     -0.017311
     -0.02523      0.02168      8.05827        -0.042187      0.380484     -0.104617
      4.22111      0.01206      4.05942        -0.008966     -0.043392     -0.007660
      4.24421     11.71240     12.04521         0.003072      0.005890      0.013977
      4.16824      5.90425      4.05728        -0.342909      0.141673      0.191780
      4.23555      5.86734     12.04611         0.015162     -0.003025      0.019362
     -8.44123      5.85603      8.03408        -0.014106      0.000601      0.031731
      0.03945      5.77964      7.95283         1.822259     -2.846785     -3.258281
     -4.07634      8.80033     11.53118        -0.005148      0.033040      0.013822
      4.23701      8.78879     11.50776        -0.003339      0.032295     -0.010789
      0.02326      2.94291     15.56845         0.007811     -0.001012     -0.010154
     -0.21051      2.89290      7.52431        -0.055926     -0.995287      0.134033
      0.00344      8.80466      0.40442        -0.000994      0.006094     -0.006498
      4.15685      2.97515      4.57106         0.015332     -0.005392     -0.009937
     -4.23995      2.92653      4.43580        -0.008540     -0.033640      0.006180
     -5.88640      5.48526      9.62608         0.028261     -0.004323      0.006220
      2.49784      5.46101      9.57299         0.197411     -0.052822      0.093714
      1.69481      6.38775      5.60476         0.708045      0.131714     -0.627482
      1.69434      6.21498     13.60136        -0.038702     -0.001074      0.026338
     -1.70953      0.38737     10.51147         0.022534      0.014502     -0.018865
     -1.67971      0.40157      2.44181        -0.003213     -0.007128     -0.003654
      5.92238     11.40954      6.48976        -0.016803      0.001115     -0.017876
     -2.48118     11.23376      6.45697         0.003731     -0.013509      0.009142
     -5.96371      0.33675      9.68330        -0.000619     -0.003998      0.012027
      2.50858      0.37706      9.62271        -0.015721     -0.004776     -0.008926
      1.68920     11.22838      5.68002         0.001795     -0.002830      0.007644
      1.78521     11.44478     13.69410        -0.005873      0.005751      0.006705
      5.96298      6.23760      6.41816         0.003959     -0.001335     -0.026063
     -2.51153      6.26709      6.45825        -0.210961      0.008090     -0.190583
     -1.67470      5.48395      2.43754         0.021061      0.002782     -0.017981
     -0.87788      7.19626      9.58456        -2.122708      3.117885      3.530624
 -----------------------------------------------------------------------------------
    total drift:                               -0.087674      0.019696      0.053800


--------------------------------------------------------------------------------------------------------



  FREE ENERGIE OF THE ION-ELECTRON SYSTEM (eV)
  ---------------------------------------------------
  free  energy   TOTEN  =     -1408.34113360 eV

  energy  without entropy=    -1408.34113360  energy(sigma->0) =    -1408.34113360



--------------------------------------------------------------------------------------------------------


    POTLOK:  cpu time    1.4406: real time    1.4406


--------------------------------------------------------------------------------------------------------


 stress matrix after NEB project (eV)
     -4.87173     -2.00192     -2.74934
     -2.00206      0.13216      5.99784
     -2.74947      5.99796      1.65798
  FORCES: max atom, RMS     5.166469    1.146461
  FORCE total and by dimension    7.159647    3.530624
  Stress total and by dimension   11.026514    5.997955
     LOOP+:  cpu time  489.1532: real time  490.1177
    4ORBIT:  cpu time    0.0000: real time    0.0000



 total charge     

# of ion       s       p       d       tot
------------------------------------------
    1        1.785   4.716   0.017   6.519
    2        1.785   4.716   0.017   6.518
    3        1.785   4.716   0.017   6.518
    4        1.786   4.717   0.018   6.520
    5        1.785   4.716   0.017   6.519
    6        1.786   4.717   0.018   6.520
    7        1.788   4.718   0.023   6.528
    8        1.786   4.717   0.019   6.522
    9        1.554   0.422   9.835  11.811
   10        1.531   0.436   9.829  11.796
   11        1.554   0.411   9.833  11.797
   12        1.554   0.417   9.834  11.805
   13        1.535   0.430   9.830  11.795
   14        1.554   0.414   9.833  11.800
   15        1.554   0.417   9.834  11.804
   16        1.527   0.615   9.862  12.003
   17        1.615   3.280   0.006   4.902
   18        1.614   3.285   0.007   4.906
   19        1.615   3.285   0.007   4.906
   20        1.620   3.262   0.009   4.891
   21        1.614   3.286   0.007   4.907
   22        1.614   3.280   0.006   4.900
   23        1.614   3.286   0.007   4.907
   24        1.614   3.279   0.006   4.899
   25        1.614   3.281   0.006   4.902
   26        1.618   3.266   0.008   4.892
   27        1.614   3.280   0.006   4.900
   28        1.614   3.278   0.006   4.897
   29        1.614   3.284   0.006   4.904
   30        1.614   3.284   0.006   4.905
   31        1.614   3.279   0.006   4.898
   32        1.614   3.284   0.006   4.904
   33        1.614   3.278   0.006   4.898
   34        1.614   3.276   0.006   4.896
   35        1.614   3.285   0.006   4.905
   36        1.614   3.280   0.006   4.900
   37        1.615   3.280   0.006   4.901
   38        1.614   3.280   0.006   4.900
   39        1.626   3.342   0.025   4.992
--------------------------------------------------
tot         63.795 116.793  78.999 259.588


 total amount of memory used by VASP MPI-rank0    60650. kBytes
=======================================================================

   base      :      30000. kBytes
   nonlr-proj:       6485. kBytes
   fftplans  :       8423. kBytes
   grid      :       7465. kBytes
   one-center:         77. kBytes
   wavefun   :       8200. kBytes

  
  
 General timing and accounting informations for this job:
 ========================================================
  
                  Total CPU time used (sec):      501.531
                            User time (sec):      499.927
                          System time (sec):        1.604
                         Elapsed time (sec):      502.875
  
                   Maximum memory used (kb):       78044.
                   Average memory used (kb):           0.
  
                          Minor page faults:        20858
                          Major page faults:            1
                 Voluntary context switches:         2048
