<?xml version="1.0" encoding="ISO-8859-1"?>
<modeling>
 <generator>
  <i name="program" type="string">vasp </i>
  <i name="version" type="string">5.4.4.18Apr17-6-g9f103f2a35  </i>
  <i name="subversion" type="string">(build Jun 22 2020 09:27:21) complex            parallel </i>
  <i name="platform" type="string">tx2_gcc-7.3_libsci-18.07_cray-fftw-3.3.8 </i>
  <i name="date" type="string">2021 10 12 </i>
  <i name="time" type="string">03:10:59 </i>
 </generator>
 <incar>
  <i type="string" name="SYSTEM"> CsPbBr3 cubic bulk</i>
  <i type="string" name="PREC">accurate</i>
  <i type="string" name="ALGO"> NORMAL   ! Electronic minimisation algo</i>
  <i type="logical" name="ADDGRID"> T  </i>
  <i type="int" name="ISPIN">     1</i>
  <i type="int" name="NELM">   200</i>
  <i type="int" name="IBRION">     2</i>
  <i name="EDIFF">      0.00000100</i>
  <i name="EDIFFG">     -0.01000000</i>
  <i type="int" name="NSW">     0</i>
  <i type="int" name="ISIF">     2</i>
  <i type="int" name="ISYM">     0</i>
  <i name="ENCUT">    300.00000000</i>
  <i name="POTIM">      0.50000000</i>
  <i name="NUPDOWN">      0.00000000</i>
  <i name="NELECT">    344.00000000</i>
  <i type="string" name="LREAL"> AUTO</i>
  <i type="int" name="ISMEAR">     0</i>
  <i name="SIGMA">      0.01000000</i>
  <i type="logical" name="LWAVE"> F  </i>
  <i type="logical" name="LCHARG"> F  </i>
  <i type="logical" name="LVHAR"> T  </i>
  <i type="int" name="LORBIT">    10</i>
  <i type="logical" name="LASPH"> T  </i>
  <v type="int" name="KPOINT_BSE">    -1     0     0     0</v>
  <i type="int" name="NELM">   200</i>
  <i type="string" name="METAGGA"> SCAN       ! PBE exchange-correlation</i>
  <i type="logical" name="LASPH"> T  </i>
 </incar>
 <structure name="primitive_cell" >
  <crystal>
   <varray name="basis" >
    <v>       8.45648900       0.00000000       8.04030100 </v>
    <v>       0.00000000      11.72984700       0.00000000 </v>
    <v>      -8.45648900       0.00000000       8.04030100 </v>
   </varray>
   <i name="volume">   1595.08833419 </i>
   <varray name="rec_basis" >
    <v>       0.05912619      -0.00000000       0.06218673 </v>
    <v>       0.00000000       0.08525260      -0.00000000 </v>
    <v>      -0.05912619       0.00000000       0.06218673 </v>
   </varray>
  </crystal>
  <varray name="positions" >
   <v>       0.26904300       0.24744900       0.20450200 </v>
   <v>       0.05253300       0.03423500       0.25116300 </v>
   <v>       0.05256400       0.46752100       0.25060100 </v>
   <v>      -0.46996200       0.25363900       0.03848100 </v>
   <v>       0.45546600       0.24662700       0.48035900 </v>
   <v>       0.24956100       0.02870900      -0.04521600 </v>
   <v>       0.25057400       0.46763300      -0.05334500 </v>
   <v>       0.45309800      -0.04275100       0.25334600 </v>
   <v>       0.44874900      -0.45542800       0.24833400 </v>
   <v>      -0.03047400       0.25089100      -0.03322400 </v>
   <v>      -0.49798000       0.00102800       0.00286400 </v>
   <v>       0.49876100      -0.49664700       0.00585700 </v>
   <v>       0.00172700       0.00206400       0.00084700 </v>
   <v>       0.02515600       0.24949400      -0.47346000 </v>
   <v>       0.00051500       0.49924200      -0.00128900 </v>
   <v>       0.49689300       0.49272900       0.49222800 </v>
   <v>       0.49962600       0.00184800      -0.49739100 </v>
   <v>       0.25312000      -0.46571400      -0.44988500 </v>
   <v>       0.25483500      -0.04229300      -0.45175900 </v>
   <v>      -0.20093400       0.24947000       0.22771500 </v>
   <v>       0.26760900       0.23981900      -0.26794600 </v>
   <v>      -0.00000400      -0.00148700       0.49810800 </v>
   <v>      -0.00046000      -0.49979400       0.49867600 </v>
   <v>       0.21586300      -0.24606500       0.28315300 </v>
   <v>      -0.25699900       0.46556500       0.44762500 </v>
   <v>      -0.25327200       0.03214500       0.45008200 </v>
   <v>       0.02535300      -0.24938000       0.02494600 </v>
   <v>      -0.24625500      -0.02730700       0.05340900 </v>
   <v>      -0.44740400       0.03302400      -0.24524800 </v>
   <v>      -0.24830700      -0.46822800       0.04655600 </v>
   <v>       0.47606800      -0.24974900      -0.04189500 </v>
   <v>      -0.04285600      -0.02430300      -0.25396100 </v>
   <v>      -0.05399600      -0.47015700      -0.25435600 </v>
   <v>      -0.45587300      -0.38650000      -0.35206200 </v>
   <v>      -0.03385200      -0.25073300       0.46511200 </v>
   <v>       0.20603600      -0.25111900      -0.22588000 </v>
   <v>      -0.28302100      -0.24756200       0.26505100 </v>
   <v>      -0.22340700       0.24661500      -0.29165900 </v>
   <v>      -0.25332300      -0.23899000      -0.19397600 </v>
  </varray>
 </structure>
 <varray name="primitive_index" >
  <v type="int" >        1 </v>
  <v type="int" >       29 </v>
  <v type="int" >       38 </v>
  <v type="int" >       22 </v>
  <v type="int" >       20 </v>
  <v type="int" >       32 </v>
  <v type="int" >       24 </v>
  <v type="int" >       34 </v>
  <v type="int" >       26 </v>
  <v type="int" >       19 </v>
  <v type="int" >       11 </v>
  <v type="int" >       13 </v>
  <v type="int" >        9 </v>
  <v type="int" >       23 </v>
  <v type="int" >       15 </v>
  <v type="int" >       16 </v>
  <v type="int" >       10 </v>
  <v type="int" >       37 </v>
  <v type="int" >       31 </v>
  <v type="int" >        6 </v>
  <v type="int" >        5 </v>
  <v type="int" >       12 </v>
  <v type="int" >       14 </v>
  <v type="int" >        8 </v>
  <v type="int" >       25 </v>
  <v type="int" >       33 </v>
  <v type="int" >       21 </v>
  <v type="int" >       30 </v>
  <v type="int" >       28 </v>
  <v type="int" >       36 </v>
  <v type="int" >       17 </v>
  <v type="int" >       35 </v>
  <v type="int" >       27 </v>
  <v type="int" >       39 </v>
  <v type="int" >       18 </v>
  <v type="int" >        4 </v>
  <v type="int" >        3 </v>
  <v type="int" >        2 </v>
  <v type="int" >        7 </v>
 </varray>
 <kpoints>
  <generation param="Gamma">
   <v type="int" name="divisions">       2        2        2 </v>
   <v name="usershift">      0.00000000       0.00000000       0.00000000 </v>
   <v name="genvec1">      0.50000000       0.00000000       0.00000000 </v>
   <v name="genvec2">      0.00000000       0.50000000       0.00000000 </v>
   <v name="genvec3">      0.00000000       0.00000000       0.50000000 </v>
   <v name="shift">      0.00000000       0.00000000       0.00000000 </v>
  </generation>
  <varray name="kpointlist" >
   <v>       0.00000000       0.00000000       0.00000000 </v>
   <v>       0.50000000       0.00000000       0.00000000 </v>
   <v>       0.00000000       0.50000000       0.00000000 </v>
   <v>       0.50000000       0.50000000       0.00000000 </v>
   <v>       0.00000000       0.00000000       0.50000000 </v>
   <v>       0.50000000       0.00000000       0.50000000 </v>
   <v>       0.00000000       0.50000000       0.50000000 </v>
   <v>       0.50000000       0.50000000       0.50000000 </v>
  </varray>
  <varray name="weights" >
   <v>       0.12500000 </v>
   <v>       0.12500000 </v>
   <v>       0.12500000 </v>
   <v>       0.12500000 </v>
   <v>       0.12500000 </v>
   <v>       0.12500000 </v>
   <v>       0.12500000 </v>
   <v>       0.12500000 </v>
  </varray>
 </kpoints>
 <parameters>
  <separator name="general" >
   <i type="string" name="SYSTEM">CsPbBr3 cubic bulk</i>
   <i type="logical" name="LCOMPAT"> F  </i>
  </separator>
  <separator name="electronic" >
   <i type="string" name="PREC">accura</i>
   <i name="ENMAX">    300.00000000</i>
   <i name="ENAUG">    503.85200000</i>
   <i name="EDIFF">      0.00000100</i>
   <i type="int" name="IALGO">    38</i>
   <i type="int" name="IWAVPR">    10</i>
   <i type="int" name="NBANDS">   208</i>
   <i name="NELECT">    344.00000000</i>
   <i type="int" name="TURBO">     0</i>
   <i type="int" name="IRESTART">     0</i>
   <i type="int" name="NREBOOT">     0</i>
   <i type="int" name="NMIN">     0</i>
   <i name="EREF">      0.00000000</i>
   <separator name="electronic smearing" >
    <i type="int" name="ISMEAR">     0</i>
    <i name="SIGMA">      0.01000000</i>
    <i name="KSPACING">      0.50000000</i>
    <i type="logical" name="KGAMMA"> T  </i>
   </separator>
   <separator name="electronic projectors" >
    <i type="logical" name="LREAL"> T  </i>
    <v name="ROPT">     -0.00025000     -0.00025000     -0.00025000</v>
    <i type="int" name="LMAXPAW">  -100</i>
    <i type="int" name="LMAXMIX">     2</i>
    <i type="logical" name="NLSPLINE"> F  </i>
   </separator>
   <separator name="electronic startup" >
    <i type="int" name="ISTART">     0</i>
    <i type="int" name="ICHARG">     2</i>
    <i type="int" name="INIWAV">     1</i>
   </separator>
   <separator name="electronic spin" >
    <i type="int" name="ISPIN">     1</i>
    <i type="logical" name="LNONCOLLINEAR"> F  </i>
    <v name="MAGMOM">      0.00000000      0.00000000      0.00000000      0.00000000      0.00000000      0.00000000      0.00000000      0.00000000      0.00000000      0.00000000      0.00000000      0.00000000      0.00000000      0.00000000      0.00000000      0.00000000      0.00000000      0.00000000      0.00000000      0.00000000
      0.00000000      0.00000000      0.00000000      0.00000000      0.00000000      0.00000000      0.00000000      0.00000000      0.00000000      0.00000000      0.00000000      0.00000000      0.00000000      0.00000000      0.00000000      0.00000000      0.00000000      0.00000000      0.00000000</v>
    <i name="NUPDOWN">      0.00000000</i>
    <i type="logical" name="LSORBIT"> F  </i>
    <v name="SAXIS">      0.00000000      0.00000000      1.00000000</v>
    <i type="logical" name="LSPIRAL"> F  </i>
    <v name="QSPIRAL">      0.00000000      0.00000000      0.00000000</v>
    <i type="logical" name="LZEROZ"> F  </i>
   </separator>
   <separator name="electronic exchange-correlation" >
    <i type="logical" name="LASPH"> T  </i>
    <i type="logical" name="LMETAGGA"> F  </i>
   </separator>
   <separator name="electronic convergence" >
    <i type="int" name="NELM">   200</i>
    <i type="int" name="NELMDL">    -5</i>
    <i type="int" name="NELMIN">     2</i>
    <i name="ENINI">    300.00000000</i>
    <separator name="electronic convergence detail" >
     <i type="logical" name="LDIAG"> T  </i>
     <i type="logical" name="LSUBROT"> F  </i>
     <i name="WEIMIN">      0.00000000</i>
     <i name="EBREAK">      0.00000000</i>
     <i name="DEPER">      0.30000000</i>
     <i type="int" name="NRMM">     4</i>
     <i name="TIME">      0.40000000</i>
    </separator>
   </separator>
   <separator name="electronic mixer" >
    <i name="AMIX">      0.40000000</i>
    <i name="BMIX">      1.00000000</i>
    <i name="AMIN">      0.10000000</i>
    <i name="AMIX_MAG">      1.60000000</i>
    <i name="BMIX_MAG">      1.00000000</i>
    <separator name="electronic mixer details" >
     <i type="int" name="IMIX">     4</i>
     <i type="logical" name="MIXFIRST"> F  </i>
     <i type="int" name="MAXMIX">   -45</i>
     <i name="WC">    100.00000000</i>
     <i type="int" name="INIMIX">     1</i>
     <i type="int" name="MIXPRE">     1</i>
     <i type="int" name="MREMOVE">     5</i>
    </separator>
   </separator>
   <separator name="electronic dipolcorrection" >
    <i type="logical" name="LDIPOL"> F  </i>
    <i type="logical" name="LMONO"> F  </i>
    <i type="int" name="IDIPOL">     0</i>
    <i name="EPSILON">      1.00000000</i>
    <v name="DIPOL">   -100.00000000   -100.00000000   -100.00000000</v>
    <i name="EFIELD">      0.00000000</i>
   </separator>
  </separator>
  <separator name="grids" >
   <i type="int" name="NGX">    70</i>
   <i type="int" name="NGY">    70</i>
   <i type="int" name="NGZ">    70</i>
   <i type="int" name="NGXF">   140</i>
   <i type="int" name="NGYF">   140</i>
   <i type="int" name="NGZF">   140</i>
   <i type="logical" name="ADDGRID"> T  </i>
  </separator>
  <separator name="ionic" >
   <i type="int" name="NSW">     0</i>
   <i type="int" name="IBRION">    -1</i>
   <i type="int" name="MDALGO">     0</i>
   <i type="int" name="ISIF">     2</i>
   <i name="PSTRESS">      0.00000000</i>
   <i name="EDIFFG">     -0.01000000</i>
   <i type="int" name="NFREE">     1</i>
   <i name="POTIM">      0.50000000</i>
   <i name="SMASS">     -3.00000000</i>
   <i name="SCALEE">      1.00000000</i>
  </separator>
  <separator name="ionic md" >
   <i name="TEBEG">      0.00010000</i>
   <i name="TEEND">      0.00010000</i>
   <i type="int" name="NBLOCK">     1</i>
   <i type="int" name="KBLOCK">     1</i>
   <i type="int" name="NPACO">   256</i>
   <i name="APACO">     16.00000000</i>
  </separator>
  <separator name="symmetry" >
   <i type="int" name="ISYM">     0</i>
   <i name="SYMPREC">      0.00001000</i>
  </separator>
  <separator name="dos" >
   <i type="int" name="LORBIT">    10</i>
   <v name="RWIGS">     -1.00000000     -1.00000000     -1.00000000</v>
   <i type="int" name="NEDOS">   301</i>
   <i name="EMIN">     10.00000000</i>
   <i name="EMAX">    -10.00000000</i>
   <i name="EFERMI">      0.00000000</i>
  </separator>
  <separator name="writing" >
   <i type="int" name="NWRITE">     2</i>
   <i type="logical" name="LWAVE"> F  </i>
   <i type="logical" name="LDOWNSAMPLE"> F  </i>
   <i type="logical" name="LCHARG"> F  </i>
   <i type="logical" name="LPARD"> F  </i>
   <i type="logical" name="LVTOT"> F  </i>
   <i type="logical" name="LVHAR"> T  </i>
   <i type="logical" name="LELF"> F  </i>
   <i type="logical" name="LOPTICS"> F  </i>
   <v name="STM">      0.00000000      0.00000000      0.00000000      0.00000000      0.00000000      0.00000000      0.00000000</v>
  </separator>
  <separator name="performance" >
   <i type="int" name="NPAR">     8</i>
   <i type="int" name="NSIM">     4</i>
   <i type="int" name="NBLK">    -1</i>
   <i type="logical" name="LPLANE"> T  </i>
   <i type="logical" name="LSCALAPACK"> T  </i>
   <i type="logical" name="LSCAAWARE"> F  </i>
   <i type="logical" name="LSCALU"> F  </i>
   <i type="logical" name="LASYNC"> F  </i>
   <i type="logical" name="LORBITALREAL"> F  </i>
  </separator>
  <separator name="miscellaneous" >
   <i type="int" name="IDIOT">     3</i>
   <i type="int" name="ISPECIAL">     0</i>
   <i type="logical" name="LMUSIC"> F  </i>
   <v name="POMASS">    132.90000000    207.20000000     79.90400000</v>
   <v name="DARWINR">      0.00000000      0.00000000      0.00000000</v>
   <v name="DARWINV">      1.00000000      1.00000000      1.00000000</v>
   <i type="logical" name="LCORR"> T  </i>
  </separator>
  <i type="logical" name="GGA_COMPAT"> T  </i>
  <i type="logical" name="LBERRY"> F  </i>
  <i type="int" name="ICORELEVEL">     0</i>
  <i type="logical" name="LDAU"> F  </i>
  <i type="int" name="I_CONSTRAINED_M">     0</i>
  <separator name="electronic exchange-correlation" >
   <i type="string" name="GGA">--</i>
   <i type="int" name="VOSKOWN">     0</i>
   <i type="logical" name="LHFCALC"> F  </i>
   <i type="string" name="PRECFOCK"></i>
   <i type="logical" name="LSYMGRAD"> F  </i>
   <i type="logical" name="LHFONE"> F  </i>
   <i type="logical" name="LRHFCALC"> F  </i>
   <i type="logical" name="LTHOMAS"> F  </i>
   <i type="logical" name="LMODELHF"> F  </i>
   <i name="ENCUT4O">     -1.00000000</i>
   <i type="int" name="EXXOEP">     0</i>
   <i type="int" name="FOURORBIT">     0</i>
   <i name="AEXX">      0.00000000</i>
   <i name="HFALPHA">      0.00000000</i>
   <i name="MCALPHA">      0.00000000</i>
   <i name="ALDAX">      1.00000000</i>
   <i name="AGGAX">      1.00000000</i>
   <i name="ALDAC">      1.00000000</i>
   <i name="AGGAC">      1.00000000</i>
   <i type="int" name="NKREDX">     1</i>
   <i type="int" name="NKREDY">     1</i>
   <i type="int" name="NKREDZ">     1</i>
   <i type="logical" name="SHIFTRED"> F  </i>
   <i type="logical" name="ODDONLY"> F  </i>
   <i type="logical" name="EVENONLY"> F  </i>
   <i type="int" name="LMAXFOCK">     0</i>
   <i type="int" name="NMAXFOCKAE">     0</i>
   <i type="logical" name="LFOCKAEDFT"> F  </i>
   <i name="HFSCREEN">      0.00000000</i>
   <i name="HFSCREENC">      0.00000000</i>
   <i type="int" name="NBANDSGWLOW">     0</i>
  </separator>
  <separator name="vdW DFT" >
   <i type="logical" name="LUSE_VDW"> F  </i>
   <i name="Zab_VDW">     -0.84910000</i>
   <i name="PARAM1">      0.12340000</i>
   <i name="PARAM2">      1.00000000</i>
   <i name="PARAM3">      0.00000000</i>
  </separator>
  <separator name="model GW" >
   <i type="int" name="MODEL_GW">     0</i>
   <i name="MODEL_EPS0">     24.53982053</i>
   <i name="MODEL_ALPHA">      1.00000000</i>
  </separator>
  <separator name="linear response parameters" >
   <i type="logical" name="LEPSILON"> F  </i>
   <i type="logical" name="LRPA"> F  </i>
   <i type="logical" name="LNABLA"> F  </i>
   <i type="logical" name="LVEL"> F  </i>
   <i type="int" name="KINTER">     0</i>
   <i name="CSHIFT">      0.10000000</i>
   <i name="OMEGAMAX">     -1.00000000</i>
   <i name="DEG_THRESHOLD">      0.00200000</i>
   <i name="RTIME">     -0.10000000</i>
   <i name="WPLASMAI">      0.00000000</i>
   <v name="DFIELD">      0.00000000      0.00000000      0.00000000</v>
   <v name="WPLASMA">      0.00000000      0.00000000      0.00000000      0.00000000      0.00000000      0.00000000      0.00000000      0.00000000      0.00000000</v>
  </separator>
  <separator name="orbital magnetization" >
   <i type="logical" name="NUCIND"> F  </i>
   <v name="MAGPOS">      0.00000000      0.00000000      0.00000000</v>
   <i type="logical" name="LNICSALL"> T  </i>
   <i type="logical" name="ORBITALMAG"> F  </i>
   <i type="logical" name="LMAGBLOCH"> F  </i>
   <i type="logical" name="LCHIMAG"> F  </i>
   <i type="logical" name="LGAUGE"> T  </i>
   <i type="int" name="MAGATOM">     0</i>
   <v name="MAGDIPOL">      0.00000000      0.00000000      0.00000000</v>
   <v name="AVECCONST">      0.00000000      0.00000000      0.00000000</v>
  </separator>
  <separator name="response functions" >
   <i type="logical" name="LADDER"> F  </i>
   <i type="logical" name="LRPAFORCE"> F  </i>
   <i type="logical" name="LFXC"> F  </i>
   <i type="logical" name="LHARTREE"> T  </i>
   <i type="int" name="IBSE">     0</i>
   <v type="int" name="KPOINT">    -1     0     0     0</v>
   <i type="logical" name="LTCTE"> F  </i>
   <i type="logical" name="LTETE"> F  </i>
   <i type="logical" name="LTRIPLET"> F  </i>
   <i type="logical" name="LFXCEPS"> F  </i>
   <i type="logical" name="LFXHEG"> F  </i>
   <i type="int" name="NATURALO">     2</i>
   <i type="logical" name="L2ORDER"> F  </i>
   <i type="logical" name="LMP2LT"> F  </i>
   <i type="logical" name="LUSEW"> F  </i>
   <i name="ENCUTGW">     -2.00000000</i>
   <i name="ENCUTGWSOFT">     -2.00000000</i>
   <i name="ENCUTLF">     -1.00000000</i>
   <i type="int" name="LMAXMP2">    -1</i>
   <i name="SCISSOR">      0.00000000</i>
   <i type="int" name="NOMEGA">     0</i>
   <i type="int" name="NOMEGAR">     0</i>
   <i type="int" name="NBANDSGW">    -1</i>
   <i type="int" name="NBANDSO">    -1</i>
   <i type="int" name="NBANDSV">    -1</i>
   <i type="int" name="NELM">   200</i>
   <i type="int" name="NELMHF">     1</i>
   <i type="int" name="DIM">     3</i>
   <i type="int" name="ANTIRES">     0</i>
   <i name="OMEGAMAX">    -30.00000000</i>
   <i name="OMEGAMIN">    -30.00000000</i>
   <i name="OMEGATL">   -200.00000000</i>
   <i type="int" name="OMEGAGRID">   140</i>
   <i name="CSHIFT">     -0.10000000</i>
   <i type="logical" name="SELFENERGY"> F  </i>
   <i type="logical" name="LSPECTRAL"> F  </i>
   <i type="logical" name="LSPECTRALGW"> F  </i>
   <i type="logical" name="LSINGLES"> F  </i>
   <i type="logical" name="LFERMIGW"> F  </i>
   <i type="logical" name="ODDONLYGW"> F  </i>
   <i type="logical" name="EVENONLYGW"> F  </i>
   <i type="int" name="NKREDLFX">     1</i>
   <i type="int" name="NKREDLFY">     1</i>
   <i type="int" name="NKREDLFZ">     1</i>
   <i type="int" name="MAXMEM">  2800</i>
   <i type="int" name="TELESCOPE">     0</i>
   <i type="int" name="TAUPAR">     1</i>
   <i type="int" name="OMEGAPAR">    -1</i>
   <i name="LAMBDA">      1.00000000</i>
  </separator>
  <separator name="External order field" >
   <i name="OFIELD_KAPPA">      0.00000000</i>
   <v name="OFIELD_K">      0.00000000      0.00000000      0.00000000</v>
   <i name="OFIELD_Q6_NEAR">      0.00000000</i>
   <i name="OFIELD_Q6_FAR">      0.00000000</i>
   <i name="OFIELD_A">      0.00000000</i>
  </separator>
 </parameters>
 <atominfo>
  <atoms>      39 </atoms>
  <types>       3 </types>
  <array name="atoms" >
   <dimension dim="1">ion</dimension>
   <field type="string">element</field>
   <field type="int">atomtype</field>
   <set>
    <rc><c>Cs</c><c>   1</c></rc>
    <rc><c>Cs</c><c>   1</c></rc>
    <rc><c>Cs</c><c>   1</c></rc>
    <rc><c>Cs</c><c>   1</c></rc>
    <rc><c>Cs</c><c>   1</c></rc>
    <rc><c>Cs</c><c>   1</c></rc>
    <rc><c>Cs</c><c>   1</c></rc>
    <rc><c>Cs</c><c>   1</c></rc>
    <rc><c>Pb</c><c>   2</c></rc>
    <rc><c>Pb</c><c>   2</c></rc>
    <rc><c>Pb</c><c>   2</c></rc>
    <rc><c>Pb</c><c>   2</c></rc>
    <rc><c>Pb</c><c>   2</c></rc>
    <rc><c>Pb</c><c>   2</c></rc>
    <rc><c>Pb</c><c>   2</c></rc>
    <rc><c>Pb</c><c>   2</c></rc>
    <rc><c>Br</c><c>   3</c></rc>
    <rc><c>Br</c><c>   3</c></rc>
    <rc><c>Br</c><c>   3</c></rc>
    <rc><c>Br</c><c>   3</c></rc>
    <rc><c>Br</c><c>   3</c></rc>
    <rc><c>Br</c><c>   3</c></rc>
    <rc><c>Br</c><c>   3</c></rc>
    <rc><c>Br</c><c>   3</c></rc>
    <rc><c>Br</c><c>   3</c></rc>
    <rc><c>Br</c><c>   3</c></rc>
    <rc><c>Br</c><c>   3</c></rc>
    <rc><c>Br</c><c>   3</c></rc>
    <rc><c>Br</c><c>   3</c></rc>
    <rc><c>Br</c><c>   3</c></rc>
    <rc><c>Br</c><c>   3</c></rc>
    <rc><c>Br</c><c>   3</c></rc>
    <rc><c>Br</c><c>   3</c></rc>
    <rc><c>Br</c><c>   3</c></rc>
    <rc><c>Br</c><c>   3</c></rc>
    <rc><c>Br</c><c>   3</c></rc>
    <rc><c>Br</c><c>   3</c></rc>
    <rc><c>Br</c><c>   3</c></rc>
    <rc><c>Br</c><c>   3</c></rc>
   </set>
  </array>
  <array name="atomtypes" >
   <dimension dim="1">type</dimension>
   <field type="int">atomspertype</field>
   <field type="string">element</field>
   <field>mass</field>
   <field>valence</field>
   <field type="string">pseudopotential</field>
   <set>
    <rc><c>   8</c><c>Cs</c><c>    132.90000000</c><c>      9.00000000</c><c>  PAW_PBE Cs_sv 08Apr2002               </c></rc>
    <rc><c>   8</c><c>Pb</c><c>    207.20000000</c><c>     14.00000000</c><c>  PAW_PBE Pb_d 06Sep2000                </c></rc>
    <rc><c>  23</c><c>Br</c><c>     79.90400000</c><c>      7.00000000</c><c>  PAW_PBE Br 06Sep2000                  </c></rc>
   </set>
  </array>
 </atominfo>
 <structure name="initialpos" >
  <crystal>
   <varray name="basis" >
    <v>       8.45648900       0.00000000       8.04030100 </v>
    <v>       0.00000000      11.72984700       0.00000000 </v>
    <v>      -8.45648900       0.00000000       8.04030100 </v>
   </varray>
   <i name="volume">   1595.08833419 </i>
   <varray name="rec_basis" >
    <v>       0.05912619      -0.00000000       0.06218673 </v>
    <v>       0.00000000       0.08525260      -0.00000000 </v>
    <v>      -0.05912619       0.00000000       0.06218673 </v>
   </varray>
  </crystal>
  <varray name="positions" >
   <v>       0.26904300       0.24744900       0.20450200 </v>
   <v>       0.77659300       0.24661500       0.70834100 </v>
   <v>       0.71697900       0.75243800       0.26505100 </v>
   <v>       0.20603600       0.74888100       0.77412000 </v>
   <v>       0.26760900       0.23981900       0.73205400 </v>
   <v>       0.79906600       0.24947000       0.22771500 </v>
   <v>       0.74667700       0.76101000       0.80602400 </v>
   <v>       0.21586300       0.75393500       0.28315300 </v>
   <v>       0.00172700       0.00206400       0.00084700 </v>
   <v>       0.49962600       0.00184800       0.50260900 </v>
   <v>       0.50202000       0.00102800       0.00286400 </v>
   <v>       0.99999600       0.99851300       0.49810800 </v>
   <v>       0.49876100       0.50335300       0.00585700 </v>
   <v>       0.99954000       0.50020600       0.49867600 </v>
   <v>       0.00051500       0.49924200       0.99871100 </v>
   <v>       0.49689300       0.49272900       0.49222800 </v>
   <v>       0.47606800       0.75025100       0.95810500 </v>
   <v>       0.96614800       0.74926700       0.46511200 </v>
   <v>       0.96952600       0.25089100       0.96677600 </v>
   <v>       0.45546600       0.24662700       0.48035900 </v>
   <v>       0.02535300       0.75062000       0.02494600 </v>
   <v>       0.53003800       0.25363900       0.03848100 </v>
   <v>       0.02515600       0.24949400       0.52654000 </v>
   <v>       0.25057400       0.46763300       0.94665500 </v>
   <v>       0.74300100       0.46556500       0.44762500 </v>
   <v>       0.44874900       0.54457200       0.24833400 </v>
   <v>       0.94600400       0.52984300       0.74564400 </v>
   <v>       0.55259600       0.03302400       0.75475200 </v>
   <v>       0.05253300       0.03423500       0.25116300 </v>
   <v>       0.75374500       0.97269300       0.05340900 </v>
   <v>       0.25483500       0.95770700       0.54824100 </v>
   <v>       0.24956100       0.02870900       0.95478400 </v>
   <v>       0.74672800       0.03214500       0.45008200 </v>
   <v>       0.45309800       0.95724900       0.25334600 </v>
   <v>       0.95714400       0.97569700       0.74603900 </v>
   <v>       0.75169300       0.53177200       0.04655600 </v>
   <v>       0.25312000       0.53428600       0.55011500 </v>
   <v>       0.05256400       0.46752100       0.25060100 </v>
   <v>       0.54412700       0.61350000       0.64793800 </v>
  </varray>
 </structure>
 <calculation>
  <scstep>
   <time name="dav">   16.70   16.70</time>
   <time name="total">   18.17   18.19</time>
   <energy>
    <i name="alphaZ">    872.70583573 </i>
    <i name="ewald"> -17898.21910199 </i>
    <i name="hartreedc">  -7454.20541931 </i>
    <i name="XCdc">    908.56017915 </i>
    <i name="pawpsdc">  21345.28103884 </i>
    <i name="pawaedc"> -22405.85761495 </i>
    <i name="eentropy">     -0.00007752 </i>
    <i name="bandstr">   -245.11411972 </i>
    <i name="atom">  26212.11861568 </i>
    <i name="e_fr_energy">   1335.26933591 </i>
    <i name="e_wo_entrp">   1335.26941343 </i>
    <i name="e_0_energy">   1335.26937467 </i>
   </energy>
  </scstep>
  <scstep>
   <time name="dav">   18.47   18.53</time>
   <time name="total">   18.48   18.53</time>
   <energy>
    <i name="e_fr_energy">  -1111.64013755 </i>
    <i name="e_wo_entrp">  -1111.64013755 </i>
    <i name="e_0_energy">  -1111.64013755 </i>
   </energy>
  </scstep>
  <scstep>
   <time name="dav">   19.40   19.43</time>
   <time name="total">   19.40   19.43</time>
   <energy>
    <i name="e_fr_energy">  -1473.21299745 </i>
    <i name="e_wo_entrp">  -1473.21299745 </i>
    <i name="e_0_energy">  -1473.21299745 </i>
   </energy>
  </scstep>
  <scstep>
   <time name="dav">   17.93   17.98</time>
   <time name="total">   17.93   17.98</time>
   <energy>
    <i name="e_fr_energy">  -1485.68046403 </i>
    <i name="e_wo_entrp">  -1485.68046403 </i>
    <i name="e_0_energy">  -1485.68046403 </i>
   </energy>
  </scstep>
  <scstep>
   <time name="dav">   19.48   19.53</time>
   <time name="total">   22.19   22.24</time>
   <energy>
    <i name="e_fr_energy">  -1486.26875586 </i>
    <i name="e_wo_entrp">  -1486.26875586 </i>
    <i name="e_0_energy">  -1486.26875586 </i>
   </energy>
  </scstep>
  <scstep>
   <time name="dav">   19.11   19.11</time>
   <time name="total">   23.26   23.32</time>
   <energy>
    <i name="e_fr_energy">  -1408.61735517 </i>
    <i name="e_wo_entrp">  -1408.61735517 </i>
    <i name="e_0_energy">  -1408.61735517 </i>
   </energy>
  </scstep>
  <scstep>
   <time name="dav">   18.60   18.60</time>
   <time name="total">   22.79   22.82</time>
   <energy>
    <i name="e_fr_energy">  -1408.10650556 </i>
    <i name="e_wo_entrp">  -1408.10650556 </i>
    <i name="e_0_energy">  -1408.10650556 </i>
   </energy>
  </scstep>
  <scstep>
   <time name="dav">   18.49   18.49</time>
   <time name="total">   22.67   22.70</time>
   <energy>
    <i name="e_fr_energy">  -1408.27363654 </i>
    <i name="e_wo_entrp">  -1408.27363654 </i>
    <i name="e_0_energy">  -1408.27363654 </i>
   </energy>
  </scstep>
  <scstep>
   <time name="dav">   17.82   17.82</time>
   <time name="total">   22.02   22.04</time>
   <energy>
    <i name="e_fr_energy">  -1408.33389175 </i>
    <i name="e_wo_entrp">  -1408.33389175 </i>
    <i name="e_0_energy">  -1408.33389175 </i>
   </energy>
  </scstep>
  <scstep>
   <time name="dav">   20.18   20.19</time>
   <time name="total">   24.38   24.53</time>
   <energy>
    <i name="e_fr_energy">  -1408.33694124 </i>
    <i name="e_wo_entrp">  -1408.33694124 </i>
    <i name="e_0_energy">  -1408.33694124 </i>
   </energy>
  </scstep>
  <scstep>
   <time name="dav">   18.03   18.03</time>
   <time name="total">   22.23   22.25</time>
   <energy>
    <i name="e_fr_energy">  -1408.33937521 </i>
    <i name="e_wo_entrp">  -1408.33937521 </i>
    <i name="e_0_energy">  -1408.33937521 </i>
   </energy>
  </scstep>
  <scstep>
   <time name="dav">   17.39   17.39</time>
   <time name="total">   21.55   21.60</time>
   <energy>
    <i name="e_fr_energy">  -1408.34156708 </i>
    <i name="e_wo_entrp">  -1408.34156708 </i>
    <i name="e_0_energy">  -1408.34156708 </i>
   </energy>
  </scstep>
  <scstep>
   <time name="dav">   19.89   19.89</time>
   <time name="total">   24.06   24.12</time>
   <energy>
    <i name="e_fr_energy">  -1408.34108068 </i>
    <i name="e_wo_entrp">  -1408.34108068 </i>
    <i name="e_0_energy">  -1408.34108068 </i>
   </energy>
  </scstep>
  <scstep>
   <time name="dav">   17.86   17.86</time>
   <time name="total">   22.06   22.08</time>
   <energy>
    <i name="e_fr_energy">  -1408.34108804 </i>
    <i name="e_wo_entrp">  -1408.34108804 </i>
    <i name="e_0_energy">  -1408.34108804 </i>
   </energy>
  </scstep>
  <scstep>
   <time name="dav">   17.33   17.33</time>
   <time name="total">   21.51   21.54</time>
   <energy>
    <i name="e_fr_energy">  -1408.34108163 </i>
    <i name="e_wo_entrp">  -1408.34108163 </i>
    <i name="e_0_energy">  -1408.34108163 </i>
   </energy>
  </scstep>
  <scstep>
   <time name="dav">   18.16   18.16</time>
   <time name="total">   22.37   22.39</time>
   <energy>
    <i name="e_fr_energy">  -1408.34114806 </i>
    <i name="e_wo_entrp">  -1408.34114806 </i>
    <i name="e_0_energy">  -1408.34114806 </i>
   </energy>
  </scstep>
  <scstep>
   <time name="dav">   18.02   18.02</time>
   <time name="total">   22.20   22.24</time>
   <energy>
    <i name="e_fr_energy">  -1408.34114097 </i>
    <i name="e_wo_entrp">  -1408.34114097 </i>
    <i name="e_0_energy">  -1408.34114097 </i>
   </energy>
  </scstep>
  <scstep>
   <time name="dav">   14.39   14.39</time>
   <time name="total">   18.59   18.61</time>
   <energy>
    <i name="e_fr_energy">  -1408.34113812 </i>
    <i name="e_wo_entrp">  -1408.34113812 </i>
    <i name="e_0_energy">  -1408.34113812 </i>
   </energy>
  </scstep>
  <scstep>
   <time name="dav">   13.08   13.08</time>
   <time name="total">   17.25   17.31</time>
   <energy>
    <i name="e_fr_energy">  -1408.34113441 </i>
    <i name="e_wo_entrp">  -1408.34113441 </i>
    <i name="e_0_energy">  -1408.34113441 </i>
   </energy>
  </scstep>
  <scstep>
   <time name="dav">   12.68   12.68</time>
   <time name="total">   16.87   16.90</time>
   <energy>
    <i name="e_fr_energy">  -1408.34113323 </i>
    <i name="e_wo_entrp">  -1408.34113323 </i>
    <i name="e_0_energy">  -1408.34113323 </i>
   </energy>
  </scstep>
  <scstep>
   <time name="dav">   12.58   12.58</time>
   <time name="total">   14.07   14.11</time>
   <energy>
    <i name="alphaZ">    872.70583573 </i>
    <i name="ewald"> -17898.21910199 </i>
    <i name="hartreedc">  -7491.35197125 </i>
    <i name="XCdc">    944.27819991 </i>
    <i name="pawpsdc">  22905.09480987 </i>
    <i name="pawaedc"> -23964.99049088 </i>
    <i name="eentropy">     -0.00000000 </i>
    <i name="bandstr">  -2987.97703068 </i>
    <i name="atom">  26212.11861568 </i>
    <i name="e_fr_energy">  -1408.34113360 </i>
    <i name="e_wo_entrp">  -1408.34113360 </i>
    <i name="e_0_energy">  -1408.34113360 </i>
   </energy>
  </scstep>
  <structure>
   <crystal>
    <varray name="basis" >
     <v>       8.45648900       0.00000000       8.04030100 </v>
     <v>       0.00000000      11.72984700       0.00000000 </v>
     <v>      -8.45648900       0.00000000       8.04030100 </v>
    </varray>
    <i name="volume">   1595.08833419 </i>
    <varray name="rec_basis" >
     <v>       0.05912619      -0.00000000       0.06218673 </v>
     <v>       0.00000000       0.08525260      -0.00000000 </v>
     <v>      -0.05912619       0.00000000       0.06218673 </v>
    </varray>
   </crystal>
   <varray name="positions" >
    <v>       0.26904300       0.24744900       0.20450200 </v>
    <v>       0.77659300       0.24661500       0.70834100 </v>
    <v>       0.71697900       0.75243800       0.26505100 </v>
    <v>       0.20603600       0.74888100       0.77412000 </v>
    <v>       0.26760900       0.23981900       0.73205400 </v>
    <v>       0.79906600       0.24947000       0.22771500 </v>
    <v>       0.74667700       0.76101000       0.80602400 </v>
    <v>       0.21586300       0.75393500       0.28315300 </v>
    <v>       0.00172700       0.00206400       0.00084700 </v>
    <v>       0.49962600       0.00184800       0.50260900 </v>
    <v>       0.50202000       0.00102800       0.00286400 </v>
    <v>       0.99999600       0.99851300       0.49810800 </v>
    <v>       0.49876100       0.50335300       0.00585700 </v>
    <v>       0.99954000       0.50020600       0.49867600 </v>
    <v>       0.00051500       0.49924200       0.99871100 </v>
    <v>       0.49689300       0.49272900       0.49222800 </v>
    <v>       0.47606800       0.75025100       0.95810500 </v>
    <v>       0.96614800       0.74926700       0.46511200 </v>
    <v>       0.96952600       0.25089100       0.96677600 </v>
    <v>       0.45546600       0.24662700       0.48035900 </v>
    <v>       0.02535300       0.75062000       0.02494600 </v>
    <v>       0.53003800       0.25363900       0.03848100 </v>
    <v>       0.02515600       0.24949400       0.52654000 </v>
    <v>       0.25057400       0.46763300       0.94665500 </v>
    <v>       0.74300100       0.46556500       0.44762500 </v>
    <v>       0.44874900       0.54457200       0.24833400 </v>
    <v>       0.94600400       0.52984300       0.74564400 </v>
    <v>       0.55259600       0.03302400       0.75475200 </v>
    <v>       0.05253300       0.03423500       0.25116300 </v>
    <v>       0.75374500       0.97269300       0.05340900 </v>
    <v>       0.25483500       0.95770700       0.54824100 </v>
    <v>       0.24956100       0.02870900       0.95478400 </v>
    <v>       0.74672800       0.03214500       0.45008200 </v>
    <v>       0.45309800       0.95724900       0.25334600 </v>
    <v>       0.95714400       0.97569700       0.74603900 </v>
    <v>       0.75169300       0.53177200       0.04655600 </v>
    <v>       0.25312000       0.53428600       0.55011500 </v>
    <v>       0.05256400       0.46752100       0.25060100 </v>
    <v>       0.54412700       0.61350000       0.64793800 </v>
   </varray>
  </structure>
  <varray name="forces" >
   <v>      -0.01559214       0.03701405       0.03935649 </v>
   <v>       0.04803607       0.01462404      -0.00984164 </v>
   <v>       0.01276613      -0.04331979      -0.01272634 </v>
   <v>       0.01605257      -0.00959119      -0.01263556 </v>
   <v>      -0.00279664      -0.01781739      -0.05664390 </v>
   <v>      -0.01618812       0.02378782       0.02186103 </v>
   <v>       0.04162620       0.16435457       0.28220840 </v>
   <v>      -0.01464343      -0.02670324      -0.01819944 </v>
   <v>      -0.02298114      -0.00393678      -0.01731118 </v>
   <v>      -0.04218702       0.38048368      -0.10461694 </v>
   <v>      -0.00896624      -0.04339157      -0.00765962 </v>
   <v>       0.00307242       0.00588975       0.01397715 </v>
   <v>      -0.34290850       0.14167337       0.19178026 </v>
   <v>       0.01516186      -0.00302525       0.01936151 </v>
   <v>      -0.01410576       0.00060107       0.03173142 </v>
   <v>       1.82225867      -2.84678549      -3.25828069 </v>
   <v>      -0.00514819       0.03303976       0.01382191 </v>
   <v>      -0.00333928       0.03229503      -0.01078896 </v>
   <v>       0.00781122      -0.00101166      -0.01015357 </v>
   <v>      -0.05592593      -0.99528741       0.13403320 </v>
   <v>      -0.00099402       0.00609427      -0.00649843 </v>
   <v>       0.01533250      -0.00539246      -0.00993667 </v>
   <v>      -0.00853960      -0.03364015       0.00617953 </v>
   <v>       0.02826061      -0.00432340       0.00622027 </v>
   <v>       0.19741058      -0.05282206       0.09371365 </v>
   <v>       0.70804468       0.13171390      -0.62748233 </v>
   <v>      -0.03870184      -0.00107364       0.02633754 </v>
   <v>       0.02253388       0.01450229      -0.01886533 </v>
   <v>      -0.00321295      -0.00712787      -0.00365441 </v>
   <v>      -0.01680279       0.00111499      -0.01787590 </v>
   <v>       0.00373150      -0.01350921       0.00914168 </v>
   <v>      -0.00061857      -0.00399789       0.01202693 </v>
   <v>      -0.01572068      -0.00477599      -0.00892586 </v>
   <v>       0.00179540      -0.00282994       0.00764447 </v>
   <v>      -0.00587271       0.00575137       0.00670511 </v>
   <v>       0.00395935      -0.00133466      -0.02606292 </v>
   <v>      -0.21096109       0.00809015      -0.19058327 </v>
   <v>       0.02106106       0.00278177      -0.01798131 </v>
   <v>      -2.12270803       3.11788520       3.53062372 </v>
  </varray>
  <varray name="stress" >
   <v>      -4.89337867      -2.01082034      -2.76155405 </v>
   <v>      -2.01095344       0.13274309       6.02449685 </v>
   <v>      -2.76168805       6.02461172       1.66535184 </v>
  </varray>
  <energy>
   <i name="e_fr_energy">  -1408.34113360 </i>
   <i name="e_wo_entrp">  -1408.34113360 </i>
   <i name="e_0_energy">     -0.00000000 </i>
  </energy>
  <time name="totalsc">  489.15  490.12</time>
  <eigenvalues>
   <array>
    <dimension dim="1">band</dimension>
    <dimension dim="2">kpoint</dimension>
    <dimension dim="3">spin</dimension>
    <field>eigene</field>
    <field>occ</field>
    <set>
     <set comment="spin 1">
      <set comment="kpoint 1">
       <r>  -20.9195    1.0000 </r>
       <r>  -20.8982    1.0000 </r>
       <r>  -20.8643    1.0000 </r>
       <r>  -20.7579    1.0000 </r>
       <r>  -20.7465    1.0000 </r>
       <r>  -20.7114    1.0000 </r>
       <r>  -20.6786    1.0000 </r>
       <r>  -20.6571    1.0000 </r>
       <r>  -17.0295    1.0000 </r>
       <r>  -16.6868    1.0000 </r>
       <r>  -16.6747    1.0000 </r>
       <r>  -16.6707    1.0000 </r>
       <r>  -16.6570    1.0000 </r>
       <r>  -16.5958    1.0000 </r>
       <r>  -16.5922    1.0000 </r>
       <r>  -16.5783    1.0000 </r>
       <r>  -16.5715    1.0000 </r>
       <r>  -16.5482    1.0000 </r>
       <r>  -16.5381    1.0000 </r>
       <r>  -16.4655    1.0000 </r>
       <r>  -16.4525    1.0000 </r>
       <r>  -16.4378    1.0000 </r>
       <r>  -16.4177    1.0000 </r>
       <r>  -16.4068    1.0000 </r>
       <r>  -16.3938    1.0000 </r>
       <r>  -16.3601    1.0000 </r>
       <r>  -16.3545    1.0000 </r>
       <r>  -16.3536    1.0000 </r>
       <r>  -16.3447    1.0000 </r>
       <r>  -16.3376    1.0000 </r>
       <r>  -16.3347    1.0000 </r>
       <r>  -16.3212    1.0000 </r>
       <r>  -16.3107    1.0000 </r>
       <r>  -16.2878    1.0000 </r>
       <r>  -16.2871    1.0000 </r>
       <r>  -16.2838    1.0000 </r>
       <r>  -16.2825    1.0000 </r>
       <r>  -16.2814    1.0000 </r>
       <r>  -16.2742    1.0000 </r>
       <r>  -16.2683    1.0000 </r>
       <r>  -16.2668    1.0000 </r>
       <r>  -16.2632    1.0000 </r>
       <r>  -16.2535    1.0000 </r>
       <r>  -16.2299    1.0000 </r>
       <r>  -16.2093    1.0000 </r>
       <r>  -16.2055    1.0000 </r>
       <r>  -16.1955    1.0000 </r>
       <r>  -16.1489    1.0000 </r>
       <r>  -14.6004    1.0000 </r>
       <r>  -14.3829    1.0000 </r>
       <r>  -14.2926    1.0000 </r>
       <r>  -14.2517    1.0000 </r>
       <r>  -14.1482    1.0000 </r>
       <r>  -14.1026    1.0000 </r>
       <r>  -14.0862    1.0000 </r>
       <r>  -14.0803    1.0000 </r>
       <r>  -14.0694    1.0000 </r>
       <r>  -14.0576    1.0000 </r>
       <r>  -14.0488    1.0000 </r>
       <r>  -14.0412    1.0000 </r>
       <r>  -14.0289    1.0000 </r>
       <r>  -14.0210    1.0000 </r>
       <r>  -14.0170    1.0000 </r>
       <r>  -13.9363    1.0000 </r>
       <r>  -13.9247    1.0000 </r>
       <r>  -13.9019    1.0000 </r>
       <r>  -13.8675    1.0000 </r>
       <r>  -13.7791    1.0000 </r>
       <r>  -13.7676    1.0000 </r>
       <r>  -13.7085    1.0000 </r>
       <r>  -13.6477    1.0000 </r>
       <r>   -8.1963    1.0000 </r>
       <r>   -7.8165    1.0000 </r>
       <r>   -7.7740    1.0000 </r>
       <r>   -7.7041    1.0000 </r>
       <r>   -7.3886    1.0000 </r>
       <r>   -7.3501    1.0000 </r>
       <r>   -7.3346    1.0000 </r>
       <r>   -7.3118    1.0000 </r>
       <r>   -7.2933    1.0000 </r>
       <r>   -7.2878    1.0000 </r>
       <r>   -7.2735    1.0000 </r>
       <r>   -7.2597    1.0000 </r>
       <r>   -7.2527    1.0000 </r>
       <r>   -7.2389    1.0000 </r>
       <r>   -7.2076    1.0000 </r>
       <r>   -7.1757    1.0000 </r>
       <r>   -7.1717    1.0000 </r>
       <r>   -7.1612    1.0000 </r>
       <r>   -7.1478    1.0000 </r>
       <r>   -7.1458    1.0000 </r>
       <r>   -7.1419    1.0000 </r>
       <r>   -7.1182    1.0000 </r>
       <r>   -7.1043    1.0000 </r>
       <r>   -7.0947    1.0000 </r>
       <r>   -7.0898    1.0000 </r>
       <r>   -7.0782    1.0000 </r>
       <r>   -7.0756    1.0000 </r>
       <r>   -7.0703    1.0000 </r>
       <r>   -7.0610    1.0000 </r>
       <r>   -7.0499    1.0000 </r>
       <r>   -7.0242    1.0000 </r>
       <r>   -6.5794    1.0000 </r>
       <r>   -3.3712    1.0000 </r>
       <r>   -3.3468    1.0000 </r>
       <r>   -3.3075    1.0000 </r>
       <r>   -3.2858    1.0000 </r>
       <r>   -3.2485    1.0000 </r>
       <r>   -3.2170    1.0000 </r>
       <r>   -3.2050    1.0000 </r>
       <r>   -3.1848    1.0000 </r>
       <r>   -3.1592    1.0000 </r>
       <r>   -3.0814    1.0000 </r>
       <r>   -3.0442    1.0000 </r>
       <r>   -2.9121    1.0000 </r>
       <r>   -2.3809    1.0000 </r>
       <r>   -2.2138    1.0000 </r>
       <r>   -2.1336    1.0000 </r>
       <r>   -2.1240    1.0000 </r>
       <r>   -2.0621    1.0000 </r>
       <r>   -1.9823    1.0000 </r>
       <r>   -1.9627    1.0000 </r>
       <r>   -1.9219    1.0000 </r>
       <r>   -1.8754    1.0000 </r>
       <r>   -1.8498    1.0000 </r>
       <r>   -1.8043    1.0000 </r>
       <r>   -1.7380    1.0000 </r>
       <r>   -1.7051    1.0000 </r>
       <r>   -1.6791    1.0000 </r>
       <r>   -1.6663    1.0000 </r>
       <r>   -1.6122    1.0000 </r>
       <r>   -1.5811    1.0000 </r>
       <r>   -1.5590    1.0000 </r>
       <r>   -1.5405    1.0000 </r>
       <r>   -1.5133    1.0000 </r>
       <r>   -1.5032    1.0000 </r>
       <r>   -1.4944    1.0000 </r>
       <r>   -1.4774    1.0000 </r>
       <r>   -1.4611    1.0000 </r>
       <r>   -1.4543    1.0000 </r>
       <r>   -1.4232    1.0000 </r>
       <r>   -1.4122    1.0000 </r>
       <r>   -1.4047    1.0000 </r>
       <r>   -1.3812    1.0000 </r>
       <r>   -1.3618    1.0000 </r>
       <r>   -1.3533    1.0000 </r>
       <r>   -1.3487    1.0000 </r>
       <r>   -1.3396    1.0000 </r>
       <r>   -1.3306    1.0000 </r>
       <r>   -1.3257    1.0000 </r>
       <r>   -1.3139    1.0000 </r>
       <r>   -1.2947    1.0000 </r>
       <r>   -1.2735    1.0000 </r>
       <r>   -1.2523    1.0000 </r>
       <r>   -1.2281    1.0000 </r>
       <r>   -1.2021    1.0000 </r>
       <r>   -1.1691    1.0000 </r>
       <r>   -1.1480    1.0000 </r>
       <r>   -1.1384    1.0000 </r>
       <r>   -1.0952    1.0000 </r>
       <r>   -1.0789    1.0000 </r>
       <r>   -1.0358    1.0000 </r>
       <r>   -1.0046    1.0000 </r>
       <r>   -0.9381    1.0000 </r>
       <r>   -0.8347    1.0000 </r>
       <r>   -0.8027    1.0000 </r>
       <r>   -0.7298    1.0000 </r>
       <r>   -0.5460    1.0000 </r>
       <r>   -0.2409    1.0000 </r>
       <r>   -0.1959    1.0000 </r>
       <r>    0.0107    1.0000 </r>
       <r>    0.4328    1.0000 </r>
       <r>    2.6154    0.0000 </r>
       <r>    2.7156    0.0000 </r>
       <r>    2.9169    0.0000 </r>
       <r>    2.9544    0.0000 </r>
       <r>    3.0436    0.0000 </r>
       <r>    3.1360    0.0000 </r>
       <r>    3.1621    0.0000 </r>
       <r>    3.1781    0.0000 </r>
       <r>    3.3900    0.0000 </r>
       <r>    3.4807    0.0000 </r>
       <r>    3.5327    0.0000 </r>
       <r>    3.5727    0.0000 </r>
       <r>    4.1916    0.0000 </r>
       <r>    4.8018    0.0000 </r>
       <r>    5.4870    0.0000 </r>
       <r>    5.5451    0.0000 </r>
       <r>    5.7458    0.0000 </r>
       <r>    5.7711    0.0000 </r>
       <r>    5.8307    0.0000 </r>
       <r>    5.8462    0.0000 </r>
       <r>    5.9049    0.0000 </r>
       <r>    6.0005    0.0000 </r>
       <r>    6.0554    0.0000 </r>
       <r>    6.0895    0.0000 </r>
       <r>    6.1340    0.0000 </r>
       <r>    6.1845    0.0000 </r>
       <r>    6.2184    0.0000 </r>
       <r>    6.2252    0.0000 </r>
       <r>    6.3052    0.0000 </r>
       <r>    6.3365    0.0000 </r>
       <r>    6.3991    0.0000 </r>
       <r>    6.4579    0.0000 </r>
       <r>    6.5011    0.0000 </r>
       <r>    6.5693    0.0000 </r>
       <r>    6.5924    0.0000 </r>
       <r>    6.6348    0.0000 </r>
      </set>
      <set comment="kpoint 2">
       <r>  -20.9195    1.0000 </r>
       <r>  -20.8982    1.0000 </r>
       <r>  -20.8643    1.0000 </r>
       <r>  -20.7579    1.0000 </r>
       <r>  -20.7465    1.0000 </r>
       <r>  -20.7114    1.0000 </r>
       <r>  -20.6786    1.0000 </r>
       <r>  -20.6571    1.0000 </r>
       <r>  -17.0295    1.0000 </r>
       <r>  -16.6864    1.0000 </r>
       <r>  -16.6725    1.0000 </r>
       <r>  -16.6699    1.0000 </r>
       <r>  -16.6551    1.0000 </r>
       <r>  -16.5958    1.0000 </r>
       <r>  -16.5922    1.0000 </r>
       <r>  -16.5783    1.0000 </r>
       <r>  -16.5715    1.0000 </r>
       <r>  -16.5482    1.0000 </r>
       <r>  -16.5381    1.0000 </r>
       <r>  -16.4559    1.0000 </r>
       <r>  -16.4496    1.0000 </r>
       <r>  -16.4387    1.0000 </r>
       <r>  -16.4209    1.0000 </r>
       <r>  -16.4104    1.0000 </r>
       <r>  -16.3960    1.0000 </r>
       <r>  -16.3680    1.0000 </r>
       <r>  -16.3554    1.0000 </r>
       <r>  -16.3540    1.0000 </r>
       <r>  -16.3448    1.0000 </r>
       <r>  -16.3377    1.0000 </r>
       <r>  -16.3220    1.0000 </r>
       <r>  -16.3166    1.0000 </r>
       <r>  -16.3134    1.0000 </r>
       <r>  -16.2993    1.0000 </r>
       <r>  -16.2878    1.0000 </r>
       <r>  -16.2869    1.0000 </r>
       <r>  -16.2826    1.0000 </r>
       <r>  -16.2815    1.0000 </r>
       <r>  -16.2742    1.0000 </r>
       <r>  -16.2683    1.0000 </r>
       <r>  -16.2668    1.0000 </r>
       <r>  -16.2632    1.0000 </r>
       <r>  -16.2535    1.0000 </r>
       <r>  -16.2299    1.0000 </r>
       <r>  -16.2093    1.0000 </r>
       <r>  -16.2056    1.0000 </r>
       <r>  -16.1955    1.0000 </r>
       <r>  -16.1489    1.0000 </r>
       <r>  -14.6005    1.0000 </r>
       <r>  -14.3669    1.0000 </r>
       <r>  -14.2988    1.0000 </r>
       <r>  -14.2731    1.0000 </r>
       <r>  -14.1822    1.0000 </r>
       <r>  -14.1525    1.0000 </r>
       <r>  -14.0980    1.0000 </r>
       <r>  -14.0800    1.0000 </r>
       <r>  -14.0770    1.0000 </r>
       <r>  -14.0552    1.0000 </r>
       <r>  -14.0316    1.0000 </r>
       <r>  -14.0298    1.0000 </r>
       <r>  -14.0231    1.0000 </r>
       <r>  -13.9982    1.0000 </r>
       <r>  -13.9724    1.0000 </r>
       <r>  -13.9337    1.0000 </r>
       <r>  -13.8688    1.0000 </r>
       <r>  -13.8631    1.0000 </r>
       <r>  -13.8361    1.0000 </r>
       <r>  -13.8331    1.0000 </r>
       <r>  -13.7484    1.0000 </r>
       <r>  -13.7289    1.0000 </r>
       <r>  -13.7064    1.0000 </r>
       <r>   -8.0126    1.0000 </r>
       <r>   -7.9498    1.0000 </r>
       <r>   -7.6965    1.0000 </r>
       <r>   -7.6087    1.0000 </r>
       <r>   -7.4562    1.0000 </r>
       <r>   -7.4065    1.0000 </r>
       <r>   -7.3434    1.0000 </r>
       <r>   -7.3312    1.0000 </r>
       <r>   -7.3076    1.0000 </r>
       <r>   -7.2990    1.0000 </r>
       <r>   -7.2880    1.0000 </r>
       <r>   -7.2710    1.0000 </r>
       <r>   -7.2579    1.0000 </r>
       <r>   -7.2450    1.0000 </r>
       <r>   -7.2286    1.0000 </r>
       <r>   -7.1836    1.0000 </r>
       <r>   -7.1691    1.0000 </r>
       <r>   -7.1630    1.0000 </r>
       <r>   -7.1531    1.0000 </r>
       <r>   -7.1499    1.0000 </r>
       <r>   -7.1423    1.0000 </r>
       <r>   -7.1251    1.0000 </r>
       <r>   -7.1149    1.0000 </r>
       <r>   -7.0958    1.0000 </r>
       <r>   -7.0946    1.0000 </r>
       <r>   -7.0734    1.0000 </r>
       <r>   -7.0707    1.0000 </r>
       <r>   -7.0635    1.0000 </r>
       <r>   -7.0527    1.0000 </r>
       <r>   -7.0407    1.0000 </r>
       <r>   -7.0094    1.0000 </r>
       <r>   -6.7983    1.0000 </r>
       <r>   -3.3549    1.0000 </r>
       <r>   -3.3143    1.0000 </r>
       <r>   -3.2849    1.0000 </r>
       <r>   -3.2187    1.0000 </r>
       <r>   -3.2079    1.0000 </r>
       <r>   -3.1834    1.0000 </r>
       <r>   -3.0549    1.0000 </r>
       <r>   -2.9643    1.0000 </r>
       <r>   -2.8067    1.0000 </r>
       <r>   -2.5572    1.0000 </r>
       <r>   -2.5249    1.0000 </r>
       <r>   -2.5001    1.0000 </r>
       <r>   -2.4608    1.0000 </r>
       <r>   -2.4300    1.0000 </r>
       <r>   -2.3909    1.0000 </r>
       <r>   -2.3388    1.0000 </r>
       <r>   -2.3071    1.0000 </r>
       <r>   -2.0989    1.0000 </r>
       <r>   -2.0526    1.0000 </r>
       <r>   -2.0195    1.0000 </r>
       <r>   -1.9844    1.0000 </r>
       <r>   -1.9765    1.0000 </r>
       <r>   -1.8926    1.0000 </r>
       <r>   -1.8566    1.0000 </r>
       <r>   -1.8205    1.0000 </r>
       <r>   -1.7750    1.0000 </r>
       <r>   -1.7364    1.0000 </r>
       <r>   -1.6885    1.0000 </r>
       <r>   -1.6610    1.0000 </r>
       <r>   -1.5959    1.0000 </r>
       <r>   -1.5499    1.0000 </r>
       <r>   -1.5230    1.0000 </r>
       <r>   -1.4985    1.0000 </r>
       <r>   -1.4807    1.0000 </r>
       <r>   -1.4785    1.0000 </r>
       <r>   -1.4499    1.0000 </r>
       <r>   -1.4444    1.0000 </r>
       <r>   -1.4241    1.0000 </r>
       <r>   -1.4007    1.0000 </r>
       <r>   -1.3868    1.0000 </r>
       <r>   -1.3819    1.0000 </r>
       <r>   -1.3733    1.0000 </r>
       <r>   -1.3631    1.0000 </r>
       <r>   -1.3485    1.0000 </r>
       <r>   -1.3258    1.0000 </r>
       <r>   -1.2939    1.0000 </r>
       <r>   -1.2888    1.0000 </r>
       <r>   -1.2767    1.0000 </r>
       <r>   -1.2616    1.0000 </r>
       <r>   -1.2508    1.0000 </r>
       <r>   -1.2325    1.0000 </r>
       <r>   -1.2235    1.0000 </r>
       <r>   -1.2131    1.0000 </r>
       <r>   -1.1732    1.0000 </r>
       <r>   -1.1490    1.0000 </r>
       <r>   -1.1345    1.0000 </r>
       <r>   -1.1253    1.0000 </r>
       <r>   -1.1186    1.0000 </r>
       <r>   -1.0837    1.0000 </r>
       <r>   -1.0273    1.0000 </r>
       <r>   -0.9962    1.0000 </r>
       <r>   -0.9405    1.0000 </r>
       <r>   -0.8445    1.0000 </r>
       <r>   -0.7874    1.0000 </r>
       <r>   -0.5462    1.0000 </r>
       <r>   -0.4469    1.0000 </r>
       <r>   -0.3631    1.0000 </r>
       <r>   -0.0947    1.0000 </r>
       <r>    0.0894    1.0000 </r>
       <r>    2.7462    0.0000 </r>
       <r>    2.9453    0.0000 </r>
       <r>    2.9899    0.0000 </r>
       <r>    3.0036    0.0000 </r>
       <r>    3.0878    0.0000 </r>
       <r>    3.2936    0.0000 </r>
       <r>    3.3484    0.0000 </r>
       <r>    3.4372    0.0000 </r>
       <r>    4.1363    0.0000 </r>
       <r>    4.1840    0.0000 </r>
       <r>    4.2917    0.0000 </r>
       <r>    4.4872    0.0000 </r>
       <r>    4.5259    0.0000 </r>
       <r>    4.6188    0.0000 </r>
       <r>    4.7133    0.0000 </r>
       <r>    4.7856    0.0000 </r>
       <r>    4.8725    0.0000 </r>
       <r>    5.2476    0.0000 </r>
       <r>    5.5703    0.0000 </r>
       <r>    5.6701    0.0000 </r>
       <r>    5.7161    0.0000 </r>
       <r>    5.8550    0.0000 </r>
       <r>    5.9651    0.0000 </r>
       <r>    6.0014    0.0000 </r>
       <r>    6.0746    0.0000 </r>
       <r>    6.1101    0.0000 </r>
       <r>    6.1771    0.0000 </r>
       <r>    6.1943    0.0000 </r>
       <r>    6.2358    0.0000 </r>
       <r>    6.3285    0.0000 </r>
       <r>    6.3615    0.0000 </r>
       <r>    6.4045    0.0000 </r>
       <r>    6.4742    0.0000 </r>
       <r>    6.5448    0.0000 </r>
       <r>    6.5626    0.0000 </r>
       <r>    6.6178    0.0000 </r>
      </set>
      <set comment="kpoint 3">
       <r>  -20.9195    1.0000 </r>
       <r>  -20.8982    1.0000 </r>
       <r>  -20.8643    1.0000 </r>
       <r>  -20.7578    1.0000 </r>
       <r>  -20.7465    1.0000 </r>
       <r>  -20.7114    1.0000 </r>
       <r>  -20.6786    1.0000 </r>
       <r>  -20.6571    1.0000 </r>
       <r>  -17.0295    1.0000 </r>
       <r>  -16.6857    1.0000 </r>
       <r>  -16.6718    1.0000 </r>
       <r>  -16.6707    1.0000 </r>
       <r>  -16.6571    1.0000 </r>
       <r>  -16.5957    1.0000 </r>
       <r>  -16.5922    1.0000 </r>
       <r>  -16.5783    1.0000 </r>
       <r>  -16.5715    1.0000 </r>
       <r>  -16.5482    1.0000 </r>
       <r>  -16.5381    1.0000 </r>
       <r>  -16.4674    1.0000 </r>
       <r>  -16.4543    1.0000 </r>
       <r>  -16.4217    1.0000 </r>
       <r>  -16.4080    1.0000 </r>
       <r>  -16.3990    1.0000 </r>
       <r>  -16.3954    1.0000 </r>
       <r>  -16.3793    1.0000 </r>
       <r>  -16.3548    1.0000 </r>
       <r>  -16.3532    1.0000 </r>
       <r>  -16.3447    1.0000 </r>
       <r>  -16.3397    1.0000 </r>
       <r>  -16.3376    1.0000 </r>
       <r>  -16.3217    1.0000 </r>
       <r>  -16.3205    1.0000 </r>
       <r>  -16.2878    1.0000 </r>
       <r>  -16.2872    1.0000 </r>
       <r>  -16.2843    1.0000 </r>
       <r>  -16.2826    1.0000 </r>
       <r>  -16.2814    1.0000 </r>
       <r>  -16.2742    1.0000 </r>
       <r>  -16.2682    1.0000 </r>
       <r>  -16.2668    1.0000 </r>
       <r>  -16.2632    1.0000 </r>
       <r>  -16.2535    1.0000 </r>
       <r>  -16.2299    1.0000 </r>
       <r>  -16.2092    1.0000 </r>
       <r>  -16.2055    1.0000 </r>
       <r>  -16.1955    1.0000 </r>
       <r>  -16.1489    1.0000 </r>
       <r>  -14.5993    1.0000 </r>
       <r>  -14.3700    1.0000 </r>
       <r>  -14.3080    1.0000 </r>
       <r>  -14.2570    1.0000 </r>
       <r>  -14.1726    1.0000 </r>
       <r>  -14.1519    1.0000 </r>
       <r>  -14.0940    1.0000 </r>
       <r>  -14.0756    1.0000 </r>
       <r>  -14.0664    1.0000 </r>
       <r>  -14.0569    1.0000 </r>
       <r>  -14.0484    1.0000 </r>
       <r>  -14.0410    1.0000 </r>
       <r>  -14.0183    1.0000 </r>
       <r>  -14.0131    1.0000 </r>
       <r>  -13.9421    1.0000 </r>
       <r>  -13.9352    1.0000 </r>
       <r>  -13.8711    1.0000 </r>
       <r>  -13.8673    1.0000 </r>
       <r>  -13.8559    1.0000 </r>
       <r>  -13.8299    1.0000 </r>
       <r>  -13.7687    1.0000 </r>
       <r>  -13.7631    1.0000 </r>
       <r>  -13.6514    1.0000 </r>
       <r>   -8.0473    1.0000 </r>
       <r>   -7.9450    1.0000 </r>
       <r>   -7.6886    1.0000 </r>
       <r>   -7.5067    1.0000 </r>
       <r>   -7.4748    1.0000 </r>
       <r>   -7.4645    1.0000 </r>
       <r>   -7.3476    1.0000 </r>
       <r>   -7.3309    1.0000 </r>
       <r>   -7.3141    1.0000 </r>
       <r>   -7.2903    1.0000 </r>
       <r>   -7.2814    1.0000 </r>
       <r>   -7.2782    1.0000 </r>
       <r>   -7.2580    1.0000 </r>
       <r>   -7.2418    1.0000 </r>
       <r>   -7.2321    1.0000 </r>
       <r>   -7.1764    1.0000 </r>
       <r>   -7.1698    1.0000 </r>
       <r>   -7.1598    1.0000 </r>
       <r>   -7.1486    1.0000 </r>
       <r>   -7.1448    1.0000 </r>
       <r>   -7.1410    1.0000 </r>
       <r>   -7.1226    1.0000 </r>
       <r>   -7.1156    1.0000 </r>
       <r>   -7.1018    1.0000 </r>
       <r>   -7.0958    1.0000 </r>
       <r>   -7.0765    1.0000 </r>
       <r>   -7.0686    1.0000 </r>
       <r>   -7.0582    1.0000 </r>
       <r>   -7.0523    1.0000 </r>
       <r>   -7.0456    1.0000 </r>
       <r>   -6.9482    1.0000 </r>
       <r>   -6.8739    1.0000 </r>
       <r>   -3.3515    1.0000 </r>
       <r>   -3.2768    1.0000 </r>
       <r>   -3.2694    1.0000 </r>
       <r>   -3.2340    1.0000 </r>
       <r>   -3.1916    1.0000 </r>
       <r>   -3.1442    1.0000 </r>
       <r>   -3.1394    1.0000 </r>
       <r>   -3.0851    1.0000 </r>
       <r>   -2.9870    1.0000 </r>
       <r>   -2.5228    1.0000 </r>
       <r>   -2.4752    1.0000 </r>
       <r>   -2.4502    1.0000 </r>
       <r>   -2.4384    1.0000 </r>
       <r>   -2.3760    1.0000 </r>
       <r>   -2.3579    1.0000 </r>
       <r>   -2.2856    1.0000 </r>
       <r>   -2.1621    1.0000 </r>
       <r>   -2.0681    1.0000 </r>
       <r>   -2.0370    1.0000 </r>
       <r>   -2.0278    1.0000 </r>
       <r>   -2.0142    1.0000 </r>
       <r>   -1.9448    1.0000 </r>
       <r>   -1.9261    1.0000 </r>
       <r>   -1.8430    1.0000 </r>
       <r>   -1.8378    1.0000 </r>
       <r>   -1.8136    1.0000 </r>
       <r>   -1.7149    1.0000 </r>
       <r>   -1.6957    1.0000 </r>
       <r>   -1.6370    1.0000 </r>
       <r>   -1.6350    1.0000 </r>
       <r>   -1.5823    1.0000 </r>
       <r>   -1.5614    1.0000 </r>
       <r>   -1.5213    1.0000 </r>
       <r>   -1.4994    1.0000 </r>
       <r>   -1.4786    1.0000 </r>
       <r>   -1.4635    1.0000 </r>
       <r>   -1.4375    1.0000 </r>
       <r>   -1.4131    1.0000 </r>
       <r>   -1.3963    1.0000 </r>
       <r>   -1.3842    1.0000 </r>
       <r>   -1.3820    1.0000 </r>
       <r>   -1.3760    1.0000 </r>
       <r>   -1.3560    1.0000 </r>
       <r>   -1.3469    1.0000 </r>
       <r>   -1.3395    1.0000 </r>
       <r>   -1.3245    1.0000 </r>
       <r>   -1.2951    1.0000 </r>
       <r>   -1.2721    1.0000 </r>
       <r>   -1.2547    1.0000 </r>
       <r>   -1.2408    1.0000 </r>
       <r>   -1.2289    1.0000 </r>
       <r>   -1.2165    1.0000 </r>
       <r>   -1.1820    1.0000 </r>
       <r>   -1.1711    1.0000 </r>
       <r>   -1.1624    1.0000 </r>
       <r>   -1.1359    1.0000 </r>
       <r>   -1.1119    1.0000 </r>
       <r>   -1.0979    1.0000 </r>
       <r>   -1.0788    1.0000 </r>
       <r>   -1.0612    1.0000 </r>
       <r>   -1.0186    1.0000 </r>
       <r>   -0.8692    1.0000 </r>
       <r>   -0.8362    1.0000 </r>
       <r>   -0.6736    1.0000 </r>
       <r>   -0.6391    1.0000 </r>
       <r>   -0.6242    1.0000 </r>
       <r>   -0.3614    1.0000 </r>
       <r>   -0.0466    1.0000 </r>
       <r>    0.1657    1.0000 </r>
       <r>    2.6903    0.0000 </r>
       <r>    2.8470    0.0000 </r>
       <r>    2.9559    0.0000 </r>
       <r>    3.0661    0.0000 </r>
       <r>    3.2279    0.0000 </r>
       <r>    3.3035    0.0000 </r>
       <r>    3.3254    0.0000 </r>
       <r>    3.4189    0.0000 </r>
       <r>    3.4610    0.0000 </r>
       <r>    4.0753    0.0000 </r>
       <r>    4.4400    0.0000 </r>
       <r>    4.4612    0.0000 </r>
       <r>    4.6325    0.0000 </r>
       <r>    4.7098    0.0000 </r>
       <r>    4.8760    0.0000 </r>
       <r>    4.8933    0.0000 </r>
       <r>    5.2692    0.0000 </r>
       <r>    5.3561    0.0000 </r>
       <r>    5.6597    0.0000 </r>
       <r>    5.6665    0.0000 </r>
       <r>    5.7268    0.0000 </r>
       <r>    5.8155    0.0000 </r>
       <r>    5.9163    0.0000 </r>
       <r>    5.9920    0.0000 </r>
       <r>    6.0404    0.0000 </r>
       <r>    6.1241    0.0000 </r>
       <r>    6.1460    0.0000 </r>
       <r>    6.2195    0.0000 </r>
       <r>    6.2816    0.0000 </r>
       <r>    6.3330    0.0000 </r>
       <r>    6.4158    0.0000 </r>
       <r>    6.4661    0.0000 </r>
       <r>    6.4903    0.0000 </r>
       <r>    6.5284    0.0000 </r>
       <r>    6.6165    0.0000 </r>
       <r>    6.6659    0.0000 </r>
      </set>
      <set comment="kpoint 4">
       <r>  -20.9195    1.0000 </r>
       <r>  -20.8982    1.0000 </r>
       <r>  -20.8643    1.0000 </r>
       <r>  -20.7578    1.0000 </r>
       <r>  -20.7465    1.0000 </r>
       <r>  -20.7114    1.0000 </r>
       <r>  -20.6786    1.0000 </r>
       <r>  -20.6571    1.0000 </r>
       <r>  -17.0294    1.0000 </r>
       <r>  -16.6851    1.0000 </r>
       <r>  -16.6700    1.0000 </r>
       <r>  -16.6698    1.0000 </r>
       <r>  -16.6552    1.0000 </r>
       <r>  -16.5957    1.0000 </r>
       <r>  -16.5922    1.0000 </r>
       <r>  -16.5783    1.0000 </r>
       <r>  -16.5715    1.0000 </r>
       <r>  -16.5482    1.0000 </r>
       <r>  -16.5381    1.0000 </r>
       <r>  -16.4603    1.0000 </r>
       <r>  -16.4498    1.0000 </r>
       <r>  -16.4229    1.0000 </r>
       <r>  -16.4094    1.0000 </r>
       <r>  -16.4015    1.0000 </r>
       <r>  -16.3972    1.0000 </r>
       <r>  -16.3873    1.0000 </r>
       <r>  -16.3577    1.0000 </r>
       <r>  -16.3539    1.0000 </r>
       <r>  -16.3448    1.0000 </r>
       <r>  -16.3377    1.0000 </r>
       <r>  -16.3286    1.0000 </r>
       <r>  -16.3220    1.0000 </r>
       <r>  -16.3167    1.0000 </r>
       <r>  -16.2997    1.0000 </r>
       <r>  -16.2878    1.0000 </r>
       <r>  -16.2870    1.0000 </r>
       <r>  -16.2827    1.0000 </r>
       <r>  -16.2815    1.0000 </r>
       <r>  -16.2742    1.0000 </r>
       <r>  -16.2683    1.0000 </r>
       <r>  -16.2668    1.0000 </r>
       <r>  -16.2632    1.0000 </r>
       <r>  -16.2535    1.0000 </r>
       <r>  -16.2299    1.0000 </r>
       <r>  -16.2093    1.0000 </r>
       <r>  -16.2056    1.0000 </r>
       <r>  -16.1955    1.0000 </r>
       <r>  -16.1489    1.0000 </r>
       <r>  -14.5997    1.0000 </r>
       <r>  -14.3597    1.0000 </r>
       <r>  -14.2890    1.0000 </r>
       <r>  -14.2667    1.0000 </r>
       <r>  -14.2305    1.0000 </r>
       <r>  -14.2007    1.0000 </r>
       <r>  -14.1236    1.0000 </r>
       <r>  -14.0808    1.0000 </r>
       <r>  -14.0718    1.0000 </r>
       <r>  -14.0558    1.0000 </r>
       <r>  -14.0313    1.0000 </r>
       <r>  -14.0142    1.0000 </r>
       <r>  -13.9363    1.0000 </r>
       <r>  -13.9344    1.0000 </r>
       <r>  -13.9305    1.0000 </r>
       <r>  -13.9153    1.0000 </r>
       <r>  -13.9063    1.0000 </r>
       <r>  -13.8934    1.0000 </r>
       <r>  -13.8495    1.0000 </r>
       <r>  -13.8064    1.0000 </r>
       <r>  -13.7982    1.0000 </r>
       <r>  -13.7352    1.0000 </r>
       <r>  -13.7239    1.0000 </r>
       <r>   -7.9249    1.0000 </r>
       <r>   -7.7559    1.0000 </r>
       <r>   -7.7281    1.0000 </r>
       <r>   -7.6674    1.0000 </r>
       <r>   -7.5523    1.0000 </r>
       <r>   -7.3481    1.0000 </r>
       <r>   -7.3400    1.0000 </r>
       <r>   -7.3122    1.0000 </r>
       <r>   -7.3073    1.0000 </r>
       <r>   -7.2925    1.0000 </r>
       <r>   -7.2815    1.0000 </r>
       <r>   -7.2612    1.0000 </r>
       <r>   -7.2562    1.0000 </r>
       <r>   -7.2416    1.0000 </r>
       <r>   -7.2356    1.0000 </r>
       <r>   -7.2103    1.0000 </r>
       <r>   -7.1894    1.0000 </r>
       <r>   -7.1697    1.0000 </r>
       <r>   -7.1679    1.0000 </r>
       <r>   -7.1538    1.0000 </r>
       <r>   -7.1411    1.0000 </r>
       <r>   -7.1342    1.0000 </r>
       <r>   -7.1182    1.0000 </r>
       <r>   -7.1113    1.0000 </r>
       <r>   -7.1027    1.0000 </r>
       <r>   -7.0895    1.0000 </r>
       <r>   -7.0771    1.0000 </r>
       <r>   -7.0670    1.0000 </r>
       <r>   -7.0634    1.0000 </r>
       <r>   -7.0494    1.0000 </r>
       <r>   -7.0368    1.0000 </r>
       <r>   -7.0255    1.0000 </r>
       <r>   -3.3425    1.0000 </r>
       <r>   -3.2007    1.0000 </r>
       <r>   -3.1975    1.0000 </r>
       <r>   -3.0921    1.0000 </r>
       <r>   -3.0185    1.0000 </r>
       <r>   -2.8466    1.0000 </r>
       <r>   -2.6626    1.0000 </r>
       <r>   -2.6581    1.0000 </r>
       <r>   -2.6030    1.0000 </r>
       <r>   -2.5997    1.0000 </r>
       <r>   -2.5227    1.0000 </r>
       <r>   -2.4374    1.0000 </r>
       <r>   -2.4035    1.0000 </r>
       <r>   -2.3896    1.0000 </r>
       <r>   -2.3559    1.0000 </r>
       <r>   -2.3345    1.0000 </r>
       <r>   -2.3281    1.0000 </r>
       <r>   -2.3181    1.0000 </r>
       <r>   -2.2680    1.0000 </r>
       <r>   -2.2080    1.0000 </r>
       <r>   -2.0363    1.0000 </r>
       <r>   -2.0091    1.0000 </r>
       <r>   -1.9881    1.0000 </r>
       <r>   -1.8772    1.0000 </r>
       <r>   -1.8712    1.0000 </r>
       <r>   -1.7804    1.0000 </r>
       <r>   -1.7392    1.0000 </r>
       <r>   -1.7345    1.0000 </r>
       <r>   -1.7106    1.0000 </r>
       <r>   -1.6852    1.0000 </r>
       <r>   -1.6466    1.0000 </r>
       <r>   -1.6290    1.0000 </r>
       <r>   -1.6082    1.0000 </r>
       <r>   -1.5846    1.0000 </r>
       <r>   -1.5652    1.0000 </r>
       <r>   -1.5282    1.0000 </r>
       <r>   -1.4841    1.0000 </r>
       <r>   -1.4759    1.0000 </r>
       <r>   -1.4570    1.0000 </r>
       <r>   -1.4155    1.0000 </r>
       <r>   -1.3901    1.0000 </r>
       <r>   -1.3730    1.0000 </r>
       <r>   -1.3585    1.0000 </r>
       <r>   -1.3102    1.0000 </r>
       <r>   -1.3080    1.0000 </r>
       <r>   -1.2734    1.0000 </r>
       <r>   -1.2587    1.0000 </r>
       <r>   -1.2489    1.0000 </r>
       <r>   -1.2341    1.0000 </r>
       <r>   -1.2303    1.0000 </r>
       <r>   -1.1821    1.0000 </r>
       <r>   -1.1808    1.0000 </r>
       <r>   -1.1667    1.0000 </r>
       <r>   -1.1541    1.0000 </r>
       <r>   -1.1388    1.0000 </r>
       <r>   -1.1285    1.0000 </r>
       <r>   -1.1271    1.0000 </r>
       <r>   -1.1070    1.0000 </r>
       <r>   -1.0896    1.0000 </r>
       <r>   -1.0546    1.0000 </r>
       <r>   -1.0062    1.0000 </r>
       <r>   -0.9531    1.0000 </r>
       <r>   -0.9194    1.0000 </r>
       <r>   -0.8718    1.0000 </r>
       <r>   -0.8180    1.0000 </r>
       <r>   -0.5821    1.0000 </r>
       <r>   -0.4344    1.0000 </r>
       <r>   -0.3949    1.0000 </r>
       <r>   -0.1329    1.0000 </r>
       <r>    2.7534    0.0000 </r>
       <r>    3.0422    0.0000 </r>
       <r>    3.1836    0.0000 </r>
       <r>    3.2420    0.0000 </r>
       <r>    3.2792    0.0000 </r>
       <r>    4.0647    0.0000 </r>
       <r>    4.2919    0.0000 </r>
       <r>    4.3279    0.0000 </r>
       <r>    4.3459    0.0000 </r>
       <r>    4.4298    0.0000 </r>
       <r>    4.5141    0.0000 </r>
       <r>    4.5451    0.0000 </r>
       <r>    4.5685    0.0000 </r>
       <r>    4.6125    0.0000 </r>
       <r>    4.6523    0.0000 </r>
       <r>    4.6916    0.0000 </r>
       <r>    4.7188    0.0000 </r>
       <r>    4.7992    0.0000 </r>
       <r>    4.8861    0.0000 </r>
       <r>    4.9435    0.0000 </r>
       <r>    5.3997    0.0000 </r>
       <r>    5.6076    0.0000 </r>
       <r>    5.7820    0.0000 </r>
       <r>    5.8890    0.0000 </r>
       <r>    5.9369    0.0000 </r>
       <r>    5.9753    0.0000 </r>
       <r>    6.0544    0.0000 </r>
       <r>    6.1428    0.0000 </r>
       <r>    6.2075    0.0000 </r>
       <r>    6.2670    0.0000 </r>
       <r>    6.3552    0.0000 </r>
       <r>    6.4024    0.0000 </r>
       <r>    6.4519    0.0000 </r>
       <r>    6.4836    0.0000 </r>
       <r>    6.5495    0.0000 </r>
       <r>    6.5918    0.0000 </r>
      </set>
      <set comment="kpoint 5">
       <r>  -20.9195    1.0000 </r>
       <r>  -20.8982    1.0000 </r>
       <r>  -20.8643    1.0000 </r>
       <r>  -20.7579    1.0000 </r>
       <r>  -20.7465    1.0000 </r>
       <r>  -20.7113    1.0000 </r>
       <r>  -20.6786    1.0000 </r>
       <r>  -20.6571    1.0000 </r>
       <r>  -17.0294    1.0000 </r>
       <r>  -16.6867    1.0000 </r>
       <r>  -16.6746    1.0000 </r>
       <r>  -16.6703    1.0000 </r>
       <r>  -16.6543    1.0000 </r>
       <r>  -16.5958    1.0000 </r>
       <r>  -16.5922    1.0000 </r>
       <r>  -16.5783    1.0000 </r>
       <r>  -16.5715    1.0000 </r>
       <r>  -16.5482    1.0000 </r>
       <r>  -16.5381    1.0000 </r>
       <r>  -16.4657    1.0000 </r>
       <r>  -16.4557    1.0000 </r>
       <r>  -16.4317    1.0000 </r>
       <r>  -16.4155    1.0000 </r>
       <r>  -16.3959    1.0000 </r>
       <r>  -16.3874    1.0000 </r>
       <r>  -16.3725    1.0000 </r>
       <r>  -16.3576    1.0000 </r>
       <r>  -16.3537    1.0000 </r>
       <r>  -16.3447    1.0000 </r>
       <r>  -16.3376    1.0000 </r>
       <r>  -16.3356    1.0000 </r>
       <r>  -16.3213    1.0000 </r>
       <r>  -16.3193    1.0000 </r>
       <r>  -16.2878    1.0000 </r>
       <r>  -16.2870    1.0000 </r>
       <r>  -16.2861    1.0000 </r>
       <r>  -16.2825    1.0000 </r>
       <r>  -16.2816    1.0000 </r>
       <r>  -16.2742    1.0000 </r>
       <r>  -16.2683    1.0000 </r>
       <r>  -16.2668    1.0000 </r>
       <r>  -16.2632    1.0000 </r>
       <r>  -16.2535    1.0000 </r>
       <r>  -16.2299    1.0000 </r>
       <r>  -16.2093    1.0000 </r>
       <r>  -16.2055    1.0000 </r>
       <r>  -16.1955    1.0000 </r>
       <r>  -16.1489    1.0000 </r>
       <r>  -14.5977    1.0000 </r>
       <r>  -14.3654    1.0000 </r>
       <r>  -14.3308    1.0000 </r>
       <r>  -14.2232    1.0000 </r>
       <r>  -14.1853    1.0000 </r>
       <r>  -14.1388    1.0000 </r>
       <r>  -14.0876    1.0000 </r>
       <r>  -14.0827    1.0000 </r>
       <r>  -14.0694    1.0000 </r>
       <r>  -14.0612    1.0000 </r>
       <r>  -14.0479    1.0000 </r>
       <r>  -14.0402    1.0000 </r>
       <r>  -14.0341    1.0000 </r>
       <r>  -14.0239    1.0000 </r>
       <r>  -13.9704    1.0000 </r>
       <r>  -13.9259    1.0000 </r>
       <r>  -13.8708    1.0000 </r>
       <r>  -13.8541    1.0000 </r>
       <r>  -13.8472    1.0000 </r>
       <r>  -13.8039    1.0000 </r>
       <r>  -13.7720    1.0000 </r>
       <r>  -13.7713    1.0000 </r>
       <r>  -13.6547    1.0000 </r>
       <r>   -8.0479    1.0000 </r>
       <r>   -7.9693    1.0000 </r>
       <r>   -7.6899    1.0000 </r>
       <r>   -7.5226    1.0000 </r>
       <r>   -7.4868    1.0000 </r>
       <r>   -7.4598    1.0000 </r>
       <r>   -7.3454    1.0000 </r>
       <r>   -7.3293    1.0000 </r>
       <r>   -7.3119    1.0000 </r>
       <r>   -7.2899    1.0000 </r>
       <r>   -7.2820    1.0000 </r>
       <r>   -7.2730    1.0000 </r>
       <r>   -7.2576    1.0000 </r>
       <r>   -7.2450    1.0000 </r>
       <r>   -7.2372    1.0000 </r>
       <r>   -7.1757    1.0000 </r>
       <r>   -7.1710    1.0000 </r>
       <r>   -7.1643    1.0000 </r>
       <r>   -7.1481    1.0000 </r>
       <r>   -7.1444    1.0000 </r>
       <r>   -7.1302    1.0000 </r>
       <r>   -7.1153    1.0000 </r>
       <r>   -7.1054    1.0000 </r>
       <r>   -7.1018    1.0000 </r>
       <r>   -7.0924    1.0000 </r>
       <r>   -7.0755    1.0000 </r>
       <r>   -7.0719    1.0000 </r>
       <r>   -7.0540    1.0000 </r>
       <r>   -7.0522    1.0000 </r>
       <r>   -7.0421    1.0000 </r>
       <r>   -6.9103    1.0000 </r>
       <r>   -6.8555    1.0000 </r>
       <r>   -3.3582    1.0000 </r>
       <r>   -3.3203    1.0000 </r>
       <r>   -3.2840    1.0000 </r>
       <r>   -3.2563    1.0000 </r>
       <r>   -3.2366    1.0000 </r>
       <r>   -3.2031    1.0000 </r>
       <r>   -3.1558    1.0000 </r>
       <r>   -3.1383    1.0000 </r>
       <r>   -2.9985    1.0000 </r>
       <r>   -2.5454    1.0000 </r>
       <r>   -2.4985    1.0000 </r>
       <r>   -2.4658    1.0000 </r>
       <r>   -2.4388    1.0000 </r>
       <r>   -2.3583    1.0000 </r>
       <r>   -2.3180    1.0000 </r>
       <r>   -2.2210    1.0000 </r>
       <r>   -2.1561    1.0000 </r>
       <r>   -2.0736    1.0000 </r>
       <r>   -2.0525    1.0000 </r>
       <r>   -2.0382    1.0000 </r>
       <r>   -1.9931    1.0000 </r>
       <r>   -1.9477    1.0000 </r>
       <r>   -1.9178    1.0000 </r>
       <r>   -1.8467    1.0000 </r>
       <r>   -1.7960    1.0000 </r>
       <r>   -1.7840    1.0000 </r>
       <r>   -1.7175    1.0000 </r>
       <r>   -1.6882    1.0000 </r>
       <r>   -1.6426    1.0000 </r>
       <r>   -1.5920    1.0000 </r>
       <r>   -1.5537    1.0000 </r>
       <r>   -1.5349    1.0000 </r>
       <r>   -1.5162    1.0000 </r>
       <r>   -1.5017    1.0000 </r>
       <r>   -1.4774    1.0000 </r>
       <r>   -1.4524    1.0000 </r>
       <r>   -1.4468    1.0000 </r>
       <r>   -1.4324    1.0000 </r>
       <r>   -1.4151    1.0000 </r>
       <r>   -1.4006    1.0000 </r>
       <r>   -1.3937    1.0000 </r>
       <r>   -1.3594    1.0000 </r>
       <r>   -1.3490    1.0000 </r>
       <r>   -1.3471    1.0000 </r>
       <r>   -1.3284    1.0000 </r>
       <r>   -1.3191    1.0000 </r>
       <r>   -1.3013    1.0000 </r>
       <r>   -1.2906    1.0000 </r>
       <r>   -1.2731    1.0000 </r>
       <r>   -1.2645    1.0000 </r>
       <r>   -1.2341    1.0000 </r>
       <r>   -1.2220    1.0000 </r>
       <r>   -1.2020    1.0000 </r>
       <r>   -1.1930    1.0000 </r>
       <r>   -1.1859    1.0000 </r>
       <r>   -1.1365    1.0000 </r>
       <r>   -1.0958    1.0000 </r>
       <r>   -1.0789    1.0000 </r>
       <r>   -1.0435    1.0000 </r>
       <r>   -1.0193    1.0000 </r>
       <r>   -1.0067    1.0000 </r>
       <r>   -0.8886    1.0000 </r>
       <r>   -0.8626    1.0000 </r>
       <r>   -0.6468    1.0000 </r>
       <r>   -0.6038    1.0000 </r>
       <r>   -0.5252    1.0000 </r>
       <r>   -0.2895    1.0000 </r>
       <r>   -0.0028    1.0000 </r>
       <r>    0.1900    1.0000 </r>
       <r>    2.5517    0.0000 </r>
       <r>    2.8846    0.0000 </r>
       <r>    2.9229    0.0000 </r>
       <r>    3.0020    0.0000 </r>
       <r>    3.1887    0.0000 </r>
       <r>    3.3034    0.0000 </r>
       <r>    3.3143    0.0000 </r>
       <r>    3.4085    0.0000 </r>
       <r>    3.4780    0.0000 </r>
       <r>    4.0457    0.0000 </r>
       <r>    4.3296    0.0000 </r>
       <r>    4.3714    0.0000 </r>
       <r>    4.5305    0.0000 </r>
       <r>    4.5677    0.0000 </r>
       <r>    4.8070    0.0000 </r>
       <r>    4.8571    0.0000 </r>
       <r>    5.4022    0.0000 </r>
       <r>    5.4340    0.0000 </r>
       <r>    5.6309    0.0000 </r>
       <r>    5.6727    0.0000 </r>
       <r>    5.8065    0.0000 </r>
       <r>    5.8964    0.0000 </r>
       <r>    5.9766    0.0000 </r>
       <r>    6.1032    0.0000 </r>
       <r>    6.1631    0.0000 </r>
       <r>    6.1706    0.0000 </r>
       <r>    6.2174    0.0000 </r>
       <r>    6.2402    0.0000 </r>
       <r>    6.2605    0.0000 </r>
       <r>    6.2905    0.0000 </r>
       <r>    6.3971    0.0000 </r>
       <r>    6.4285    0.0000 </r>
       <r>    6.4369    0.0000 </r>
       <r>    6.5110    0.0000 </r>
       <r>    6.5784    0.0000 </r>
       <r>    6.6730    0.0000 </r>
      </set>
      <set comment="kpoint 6">
       <r>  -20.9195    1.0000 </r>
       <r>  -20.8982    1.0000 </r>
       <r>  -20.8643    1.0000 </r>
       <r>  -20.7579    1.0000 </r>
       <r>  -20.7465    1.0000 </r>
       <r>  -20.7113    1.0000 </r>
       <r>  -20.6786    1.0000 </r>
       <r>  -20.6571    1.0000 </r>
       <r>  -17.0294    1.0000 </r>
       <r>  -16.6863    1.0000 </r>
       <r>  -16.6724    1.0000 </r>
       <r>  -16.6694    1.0000 </r>
       <r>  -16.6525    1.0000 </r>
       <r>  -16.5958    1.0000 </r>
       <r>  -16.5922    1.0000 </r>
       <r>  -16.5783    1.0000 </r>
       <r>  -16.5715    1.0000 </r>
       <r>  -16.5482    1.0000 </r>
       <r>  -16.5381    1.0000 </r>
       <r>  -16.4565    1.0000 </r>
       <r>  -16.4529    1.0000 </r>
       <r>  -16.4343    1.0000 </r>
       <r>  -16.4160    1.0000 </r>
       <r>  -16.3984    1.0000 </r>
       <r>  -16.3900    1.0000 </r>
       <r>  -16.3806    1.0000 </r>
       <r>  -16.3600    1.0000 </r>
       <r>  -16.3539    1.0000 </r>
       <r>  -16.3448    1.0000 </r>
       <r>  -16.3377    1.0000 </r>
       <r>  -16.3220    1.0000 </r>
       <r>  -16.3196    1.0000 </r>
       <r>  -16.3166    1.0000 </r>
       <r>  -16.3046    1.0000 </r>
       <r>  -16.2878    1.0000 </r>
       <r>  -16.2870    1.0000 </r>
       <r>  -16.2826    1.0000 </r>
       <r>  -16.2816    1.0000 </r>
       <r>  -16.2742    1.0000 </r>
       <r>  -16.2684    1.0000 </r>
       <r>  -16.2668    1.0000 </r>
       <r>  -16.2632    1.0000 </r>
       <r>  -16.2535    1.0000 </r>
       <r>  -16.2299    1.0000 </r>
       <r>  -16.2093    1.0000 </r>
       <r>  -16.2056    1.0000 </r>
       <r>  -16.1955    1.0000 </r>
       <r>  -16.1489    1.0000 </r>
       <r>  -14.5982    1.0000 </r>
       <r>  -14.3586    1.0000 </r>
       <r>  -14.3028    1.0000 </r>
       <r>  -14.2674    1.0000 </r>
       <r>  -14.2235    1.0000 </r>
       <r>  -14.1752    1.0000 </r>
       <r>  -14.1074    1.0000 </r>
       <r>  -14.0806    1.0000 </r>
       <r>  -14.0775    1.0000 </r>
       <r>  -14.0684    1.0000 </r>
       <r>  -14.0374    1.0000 </r>
       <r>  -14.0264    1.0000 </r>
       <r>  -14.0242    1.0000 </r>
       <r>  -13.9191    1.0000 </r>
       <r>  -13.9096    1.0000 </r>
       <r>  -13.8988    1.0000 </r>
       <r>  -13.8871    1.0000 </r>
       <r>  -13.8776    1.0000 </r>
       <r>  -13.8537    1.0000 </r>
       <r>  -13.7964    1.0000 </r>
       <r>  -13.7815    1.0000 </r>
       <r>  -13.7541    1.0000 </r>
       <r>  -13.7289    1.0000 </r>
       <r>   -7.9157    1.0000 </r>
       <r>   -7.7881    1.0000 </r>
       <r>   -7.7455    1.0000 </r>
       <r>   -7.6983    1.0000 </r>
       <r>   -7.5421    1.0000 </r>
       <r>   -7.3521    1.0000 </r>
       <r>   -7.3355    1.0000 </r>
       <r>   -7.3299    1.0000 </r>
       <r>   -7.3002    1.0000 </r>
       <r>   -7.2977    1.0000 </r>
       <r>   -7.2876    1.0000 </r>
       <r>   -7.2616    1.0000 </r>
       <r>   -7.2513    1.0000 </r>
       <r>   -7.2436    1.0000 </r>
       <r>   -7.2397    1.0000 </r>
       <r>   -7.1904    1.0000 </r>
       <r>   -7.1757    1.0000 </r>
       <r>   -7.1647    1.0000 </r>
       <r>   -7.1585    1.0000 </r>
       <r>   -7.1491    1.0000 </r>
[...]
        <r>  0.0001  0.0006  0.0008 </r>
        <r>  0.0000  0.0007  0.0004 </r>
        <r>  0.0005  0.0008  0.0011 </r>
        <r>  0.0006  0.0020  0.0010 </r>
        <r>  0.0000  0.0009  0.0000 </r>
        <r>  0.0020  0.0002  0.0024 </r>
        <r>  0.0007  0.0018  0.0011 </r>
        <r>  0.0000  0.0017  0.0006 </r>
        <r>  0.0000  0.0006  0.0031 </r>
       </set>
       <set comment="band 199">
        <r>  0.0001  0.0000  0.0029 </r>
        <r>  0.0020  0.0004  0.0023 </r>
        <r>  0.0006  0.0017  0.0072 </r>
        <r>  0.0002  0.0008  0.0075 </r>
        <r>  0.0000  0.0002  0.0050 </r>
        <r>  0.0000  0.0002  0.0046 </r>
        <r>  0.0055  0.0020  0.0234 </r>
        <r>  0.0065  0.0005  0.0083 </r>
        <r>  0.0001  0.0013  0.0005 </r>
        <r>  0.0001  0.0068  0.0009 </r>
        <r>  0.0001  0.0005  0.0001 </r>
        <r>  0.0001  0.0027  0.0001 </r>
        <r>  0.0001  0.0019  0.0002 </r>
        <r>  0.0000  0.0024  0.0002 </r>
        <r>  0.0000  0.0047  0.0001 </r>
        <r>  0.0000  0.0083  0.0008 </r>
        <r>  0.0007  0.0011  0.0018 </r>
        <r>  0.0028  0.0030  0.0038 </r>
        <r>  0.0001  0.0010  0.0004 </r>
        <r>  0.0005  0.0018  0.0005 </r>
        <r>  0.0000  0.0033  0.0009 </r>
        <r>  0.0000  0.0007  0.0005 </r>
        <r>  0.0002  0.0036  0.0002 </r>
        <r>  0.0002  0.0008  0.0002 </r>
        <r>  0.0017  0.0005  0.0012 </r>
        <r>  0.0000  0.0049  0.0008 </r>
        <r>  0.0010  0.0020  0.0011 </r>
        <r>  0.0001  0.0006  0.0007 </r>
        <r>  0.0001  0.0004  0.0003 </r>
        <r>  0.0000  0.0002  0.0010 </r>
        <r>  0.0002  0.0030  0.0020 </r>
        <r>  0.0006  0.0007  0.0005 </r>
        <r>  0.0002  0.0068  0.0014 </r>
        <r>  0.0006  0.0010  0.0010 </r>
        <r>  0.0005  0.0037  0.0011 </r>
        <r>  0.0009  0.0002  0.0005 </r>
        <r>  0.0008  0.0020  0.0015 </r>
        <r>  0.0000  0.0014  0.0004 </r>
        <r>  0.0001  0.0055  0.0034 </r>
       </set>
       <set comment="band 200">
        <r>  0.0004  0.0002  0.0042 </r>
        <r>  0.0034  0.0006  0.0098 </r>
        <r>  0.0013  0.0005  0.0020 </r>
        <r>  0.0007  0.0014  0.0059 </r>
        <r>  0.0105  0.0003  0.0100 </r>
        <r>  0.0000  0.0006  0.0052 </r>
        <r>  0.0021  0.0001  0.0171 </r>
        <r>  0.0035  0.0003  0.0055 </r>
        <r>  0.0000  0.0114  0.0000 </r>
        <r>  0.0000  0.0072  0.0003 </r>
        <r>  0.0000  0.0013  0.0001 </r>
        <r>  0.0000  0.0032  0.0004 </r>
        <r>  0.0000  0.0112  0.0002 </r>
        <r>  0.0000  0.0019  0.0001 </r>
        <r>  0.0000  0.0005  0.0002 </r>
        <r>  0.0001  0.0028  0.0005 </r>
        <r>  0.0000  0.0015  0.0011 </r>
        <r>  0.0003  0.0027  0.0001 </r>
        <r>  0.0015  0.0029  0.0016 </r>
        <r>  0.0002  0.0030  0.0011 </r>
        <r>  0.0005  0.0043  0.0015 </r>
        <r>  0.0000  0.0004  0.0005 </r>
        <r>  0.0005  0.0035  0.0017 </r>
        <r>  0.0012  0.0026  0.0020 </r>
        <r>  0.0002  0.0005  0.0004 </r>
        <r>  0.0007  0.0015  0.0008 </r>
        <r>  0.0011  0.0042  0.0010 </r>
        <r>  0.0014  0.0001  0.0013 </r>
        <r>  0.0002  0.0006  0.0005 </r>
        <r>  0.0005  0.0022  0.0008 </r>
        <r>  0.0009  0.0007  0.0019 </r>
        <r>  0.0002  0.0035  0.0010 </r>
        <r>  0.0000  0.0024  0.0008 </r>
        <r>  0.0001  0.0005  0.0007 </r>
        <r>  0.0015  0.0013  0.0018 </r>
        <r>  0.0015  0.0057  0.0017 </r>
        <r>  0.0005  0.0032  0.0005 </r>
        <r>  0.0002  0.0019  0.0004 </r>
        <r>  0.0008  0.0011  0.0026 </r>
       </set>
       <set comment="band 201">
        <r>  0.0046  0.0000  0.0105 </r>
        <r>  0.0020  0.0002  0.0093 </r>
        <r>  0.0005  0.0004  0.0032 </r>
        <r>  0.0023  0.0008  0.0112 </r>
        <r>  0.0047  0.0013  0.0068 </r>
        <r>  0.0001  0.0005  0.0050 </r>
        <r>  0.0001  0.0004  0.0173 </r>
        <r>  0.0010  0.0008  0.0141 </r>
        <r>  0.0000  0.0012  0.0002 </r>
        <r>  0.0000  0.0013  0.0006 </r>
        <r>  0.0000  0.0025  0.0003 </r>
        <r>  0.0000  0.0025  0.0002 </r>
        <r>  0.0001  0.0052  0.0003 </r>
        <r>  0.0000  0.0004  0.0002 </r>
        <r>  0.0000  0.0080  0.0001 </r>
        <r>  0.0000  0.0091  0.0015 </r>
        <r>  0.0001  0.0019  0.0021 </r>
        <r>  0.0001  0.0008  0.0002 </r>
        <r>  0.0013  0.0019  0.0013 </r>
        <r>  0.0003  0.0015  0.0026 </r>
        <r>  0.0001  0.0025  0.0021 </r>
        <r>  0.0006  0.0007  0.0012 </r>
        <r>  0.0000  0.0025  0.0016 </r>
        <r>  0.0006  0.0043  0.0019 </r>
        <r>  0.0001  0.0019  0.0007 </r>
        <r>  0.0000  0.0012  0.0017 </r>
        <r>  0.0021  0.0002  0.0013 </r>
        <r>  0.0001  0.0029  0.0012 </r>
        <r>  0.0004  0.0023  0.0007 </r>
        <r>  0.0001  0.0021  0.0006 </r>
        <r>  0.0012  0.0012  0.0011 </r>
        <r>  0.0013  0.0015  0.0017 </r>
        <r>  0.0002  0.0002  0.0009 </r>
        <r>  0.0002  0.0024  0.0012 </r>
        <r>  0.0002  0.0023  0.0008 </r>
        <r>  0.0005  0.0033  0.0012 </r>
        <r>  0.0001  0.0014  0.0009 </r>
        <r>  0.0000  0.0006  0.0005 </r>
        <r>  0.0000  0.0024  0.0020 </r>
       </set>
       <set comment="band 202">
        <r>  0.0004  0.0015  0.0043 </r>
        <r>  0.0006  0.0012  0.0097 </r>
        <r>  0.0013  0.0005  0.0042 </r>
        <r>  0.0007  0.0005  0.0014 </r>
        <r>  0.0000  0.0012  0.0161 </r>
        <r>  0.0127  0.0012  0.0104 </r>
        <r>  0.0013  0.0003  0.0035 </r>
        <r>  0.0001  0.0003  0.0077 </r>
        <r>  0.0000  0.0023  0.0001 </r>
        <r>  0.0000  0.0121  0.0003 </r>
        <r>  0.0001  0.0024  0.0003 </r>
        <r>  0.0000  0.0005  0.0001 </r>
        <r>  0.0000  0.0231  0.0003 </r>
        <r>  0.0000  0.0046  0.0000 </r>
        <r>  0.0000  0.0032  0.0002 </r>
        <r>  0.0000  0.0122  0.0005 </r>
        <r>  0.0005  0.0067  0.0013 </r>
        <r>  0.0001  0.0009  0.0004 </r>
        <r>  0.0011  0.0004  0.0021 </r>
        <r>  0.0010  0.0013  0.0033 </r>
        <r>  0.0004  0.0031  0.0008 </r>
        <r>  0.0023  0.0042  0.0059 </r>
        <r>  0.0001  0.0021  0.0008 </r>
        <r>  0.0001  0.0013  0.0003 </r>
        <r>  0.0010  0.0036  0.0015 </r>
        <r>  0.0001  0.0018  0.0011 </r>
        <r>  0.0001  0.0008  0.0001 </r>
        <r>  0.0006  0.0025  0.0020 </r>
        <r>  0.0010  0.0004  0.0007 </r>
        <r>  0.0004  0.0010  0.0005 </r>
        <r>  0.0001  0.0014  0.0007 </r>
        <r>  0.0000  0.0030  0.0001 </r>
        <r>  0.0011  0.0033  0.0011 </r>
        <r>  0.0013  0.0022  0.0013 </r>
        <r>  0.0001  0.0007  0.0004 </r>
        <r>  0.0000  0.0011  0.0007 </r>
        <r>  0.0001  0.0027  0.0003 </r>
        <r>  0.0001  0.0004  0.0009 </r>
        <r>  0.0029  0.0005  0.0013 </r>
       </set>
       <set comment="band 203">
        <r>  0.0105  0.0011  0.0093 </r>
        <r>  0.0011  0.0007  0.0191 </r>
        <r>  0.0048  0.0004  0.0058 </r>
        <r>  0.0013  0.0002  0.0073 </r>
        <r>  0.0033  0.0008  0.0012 </r>
        <r>  0.0010  0.0006  0.0098 </r>
        <r>  0.0001  0.0002  0.0044 </r>
        <r>  0.0000  0.0008  0.0041 </r>
        <r>  0.0000  0.0022  0.0001 </r>
        <r>  0.0000  0.0018  0.0003 </r>
        <r>  0.0000  0.0028  0.0000 </r>
        <r>  0.0000  0.0071  0.0002 </r>
        <r>  0.0000  0.0030  0.0002 </r>
        <r>  0.0000  0.0012  0.0002 </r>
        <r>  0.0000  0.0069  0.0001 </r>
        <r>  0.0001  0.0121  0.0003 </r>
        <r>  0.0010  0.0003  0.0009 </r>
        <r>  0.0003  0.0047  0.0012 </r>
        <r>  0.0001  0.0030  0.0010 </r>
        <r>  0.0025  0.0039  0.0025 </r>
        <r>  0.0001  0.0015  0.0005 </r>
        <r>  0.0005  0.0016  0.0025 </r>
        <r>  0.0019  0.0016  0.0022 </r>
        <r>  0.0000  0.0028  0.0008 </r>
        <r>  0.0003  0.0026  0.0008 </r>
        <r>  0.0003  0.0040  0.0006 </r>
        <r>  0.0004  0.0022  0.0006 </r>
        <r>  0.0001  0.0043  0.0009 </r>
        <r>  0.0006  0.0036  0.0013 </r>
        <r>  0.0008  0.0005  0.0012 </r>
        <r>  0.0009  0.0009  0.0004 </r>
        <r>  0.0003  0.0011  0.0009 </r>
        <r>  0.0002  0.0004  0.0005 </r>
        <r>  0.0004  0.0005  0.0022 </r>
        <r>  0.0000  0.0029  0.0004 </r>
        <r>  0.0002  0.0051  0.0006 </r>
        <r>  0.0011  0.0008  0.0011 </r>
        <r>  0.0025  0.0029  0.0020 </r>
        <r>  0.0001  0.0003  0.0009 </r>
       </set>
       <set comment="band 204">
        <r>  0.0007  0.0005  0.0022 </r>
        <r>  0.0003  0.0003  0.0153 </r>
        <r>  0.0001  0.0008  0.0210 </r>
        <r>  0.0034  0.0004  0.0080 </r>
        <r>  0.0000  0.0001  0.0075 </r>
        <r>  0.0021  0.0001  0.0064 </r>
        <r>  0.0005  0.0008  0.0311 </r>
        <r>  0.0056  0.0006  0.0064 </r>
        <r>  0.0000  0.0070  0.0003 </r>
        <r>  0.0000  0.0015  0.0006 </r>
        <r>  0.0000  0.0015  0.0001 </r>
        <r>  0.0000  0.0041  0.0001 </r>
        <r>  0.0001  0.0022  0.0002 </r>
        <r>  0.0001  0.0026  0.0005 </r>
        <r>  0.0000  0.0083  0.0002 </r>
        <r>  0.0000  0.0060  0.0002 </r>
        <r>  0.0000  0.0029  0.0001 </r>
        <r>  0.0000  0.0029  0.0002 </r>
        <r>  0.0002  0.0053  0.0009 </r>
        <r>  0.0002  0.0003  0.0003 </r>
        <r>  0.0050  0.0010  0.0052 </r>
        <r>  0.0003  0.0020  0.0004 </r>
        <r>  0.0001  0.0006  0.0009 </r>
        <r>  0.0007  0.0005  0.0007 </r>
        <r>  0.0002  0.0007  0.0007 </r>
        <r>  0.0010  0.0013  0.0013 </r>
        <r>  0.0000  0.0042  0.0021 </r>
        <r>  0.0009  0.0029  0.0009 </r>
        <r>  0.0000  0.0006  0.0002 </r>
        <r>  0.0004  0.0025  0.0028 </r>
        <r>  0.0000  0.0013  0.0010 </r>
        <r>  0.0000  0.0015  0.0001 </r>
        <r>  0.0002  0.0014  0.0017 </r>
        <r>  0.0002  0.0000  0.0013 </r>
        <r>  0.0006  0.0020  0.0021 </r>
        <r>  0.0008  0.0033  0.0017 </r>
        <r>  0.0001  0.0005  0.0006 </r>
        <r>  0.0013  0.0001  0.0020 </r>
        <r>  0.0000  0.0010  0.0027 </r>
       </set>
       <set comment="band 205">
        <r>  0.0000  0.0002  0.0138 </r>
        <r>  0.0001  0.0007  0.0174 </r>
        <r>  0.0006  0.0000  0.0073 </r>
        <r>  0.0167  0.0002  0.0022 </r>
        <r>  0.0008  0.0005  0.0059 </r>
        <r>  0.0004  0.0003  0.0043 </r>
        <r>  0.0030  0.0010  0.0020 </r>
        <r>  0.0004  0.0016  0.0097 </r>
        <r>  0.0000  0.0054  0.0004 </r>
        <r>  0.0000  0.0029  0.0003 </r>
        <r>  0.0001  0.0160  0.0002 </r>
        <r>  0.0000  0.0106  0.0001 </r>
        <r>  0.0000  0.0062  0.0001 </r>
        <r>  0.0000  0.0045  0.0005 </r>
        <r>  0.0001  0.0062  0.0002 </r>
        <r>  0.0000  0.0024  0.0006 </r>
        <r>  0.0016  0.0036  0.0021 </r>
        <r>  0.0004  0.0010  0.0010 </r>
        <r>  0.0001  0.0055  0.0003 </r>
        <r>  0.0005  0.0020  0.0006 </r>
        <r>  0.0016  0.0024  0.0017 </r>
        <r>  0.0002  0.0011  0.0005 </r>
        <r>  0.0000  0.0011  0.0003 </r>
        <r>  0.0008  0.0014  0.0012 </r>
        <r>  0.0002  0.0011  0.0010 </r>
        <r>  0.0001  0.0012  0.0004 </r>
        <r>  0.0011  0.0014  0.0023 </r>
        <r>  0.0000  0.0021  0.0010 </r>
        <r>  0.0000  0.0066  0.0001 </r>
        <r>  0.0010  0.0026  0.0017 </r>
        <r>  0.0008  0.0017  0.0019 </r>
        <r>  0.0034  0.0028  0.0034 </r>
        <r>  0.0001  0.0047  0.0005 </r>
        <r>  0.0000  0.0019  0.0003 </r>
        <r>  0.0027  0.0009  0.0031 </r>
        <r>  0.0005  0.0012  0.0011 </r>
        <r>  0.0004  0.0009  0.0017 </r>
        <r>  0.0003  0.0040  0.0005 </r>
        <r>  0.0000  0.0016  0.0014 </r>
       </set>
       <set comment="band 206">
        <r>  0.0028  0.0005  0.0088 </r>
        <r>  0.0004  0.0001  0.0202 </r>
        <r>  0.0000  0.0019  0.0151 </r>
        <r>  0.0005  0.0003  0.0164 </r>
        <r>  0.0015  0.0005  0.0078 </r>
        <r>  0.0005  0.0002  0.0103 </r>
        <r>  0.0001  0.0004  0.0084 </r>
        <r>  0.0026  0.0001  0.0132 </r>
        <r>  0.0000  0.0097  0.0001 </r>
        <r>  0.0000  0.0119  0.0000 </r>
        <r>  0.0001  0.0054  0.0009 </r>
        <r>  0.0000  0.0008  0.0006 </r>
        <r>  0.0001  0.0080  0.0002 </r>
        <r>  0.0000  0.0033  0.0001 </r>
        <r>  0.0000  0.0030  0.0006 </r>
        <r>  0.0000  0.0046  0.0007 </r>
        <r>  0.0003  0.0010  0.0007 </r>
        <r>  0.0000  0.0035  0.0014 </r>
        <r>  0.0001  0.0013  0.0017 </r>
        <r>  0.0000  0.0010  0.0005 </r>
        <r>  0.0010  0.0019  0.0020 </r>
        <r>  0.0000  0.0017  0.0003 </r>
        <r>  0.0000  0.0007  0.0008 </r>
        <r>  0.0014  0.0010  0.0023 </r>
        <r>  0.0002  0.0008  0.0013 </r>
        <r>  0.0001  0.0024  0.0011 </r>
        <r>  0.0007  0.0008  0.0010 </r>
        <r>  0.0009  0.0008  0.0021 </r>
        <r>  0.0018  0.0007  0.0026 </r>
        <r>  0.0009  0.0058  0.0010 </r>
        <r>  0.0001  0.0014  0.0007 </r>
        <r>  0.0007  0.0005  0.0020 </r>
        <r>  0.0001  0.0011  0.0011 </r>
        <r>  0.0008  0.0016  0.0022 </r>
        <r>  0.0007  0.0035  0.0015 </r>
        <r>  0.0004  0.0005  0.0012 </r>
        <r>  0.0001  0.0010  0.0014 </r>
        <r>  0.0002  0.0012  0.0008 </r>
        <r>  0.0000  0.0012  0.0019 </r>
       </set>
       <set comment="band 207">
        <r>  0.0005  0.0011  0.0216 </r>
        <r>  0.0021  0.0002  0.0077 </r>
        <r>  0.0000  0.0015  0.0286 </r>
        <r>  0.0002  0.0000  0.0054 </r>
        <r>  0.0001  0.0005  0.0276 </r>
        <r>  0.0006  0.0002  0.0051 </r>
        <r>  0.0000  0.0001  0.0049 </r>
        <r>  0.0002  0.0002  0.0211 </r>
        <r>  0.0000  0.0035  0.0002 </r>
        <r>  0.0000  0.0045  0.0003 </r>
        <r>  0.0000  0.0005  0.0001 </r>
        <r>  0.0001  0.0024  0.0005 </r>
        <r>  0.0000  0.0018  0.0001 </r>
        <r>  0.0000  0.0092  0.0002 </r>
        <r>  0.0000  0.0041  0.0003 </r>
        <r>  0.0003  0.0042  0.0003 </r>
        <r>  0.0006  0.0010  0.0007 </r>
        <r>  0.0000  0.0024  0.0013 </r>
        <r>  0.0011  0.0002  0.0017 </r>
        <r>  0.0000  0.0023  0.0007 </r>
        <r>  0.0001  0.0015  0.0011 </r>
        <r>  0.0003  0.0018  0.0010 </r>
        <r>  0.0003  0.0002  0.0008 </r>
        <r>  0.0000  0.0015  0.0024 </r>
        <r>  0.0002  0.0008  0.0017 </r>
        <r>  0.0012  0.0005  0.0019 </r>
        <r>  0.0000  0.0015  0.0004 </r>
        <r>  0.0003  0.0006  0.0012 </r>
        <r>  0.0000  0.0015  0.0022 </r>
        <r>  0.0000  0.0007  0.0010 </r>
        <r>  0.0002  0.0017  0.0010 </r>
        <r>  0.0001  0.0022  0.0036 </r>
        <r>  0.0001  0.0006  0.0010 </r>
        <r>  0.0004  0.0038  0.0028 </r>
        <r>  0.0001  0.0005  0.0007 </r>
        <r>  0.0001  0.0022  0.0016 </r>
        <r>  0.0002  0.0016  0.0013 </r>
        <r>  0.0008  0.0006  0.0017 </r>
        <r>  0.0000  0.0003  0.0007 </r>
       </set>
       <set comment="band 208">
        <r>  0.0002  0.0013  0.0148 </r>
        <r>  0.0001  0.0004  0.0436 </r>
        <r>  0.0008  0.0003  0.0114 </r>
        <r>  0.0001  0.0007  0.0126 </r>
        <r>  0.0014  0.0019  0.0128 </r>
        <r>  0.0003  0.0003  0.0078 </r>
        <r>  0.0008  0.0003  0.0028 </r>
        <r>  0.0004  0.0004  0.0072 </r>
        <r>  0.0000  0.0034  0.0003 </r>
        <r>  0.0000  0.0004  0.0003 </r>
        <r>  0.0000  0.0008  0.0005 </r>
        <r>  0.0000  0.0021  0.0003 </r>
        <r>  0.0001  0.0005  0.0007 </r>
        <r>  0.0000  0.0128  0.0005 </r>
        <r>  0.0000  0.0011  0.0005 </r>
        <r>  0.0000  0.0030  0.0003 </r>
        <r>  0.0001  0.0015  0.0008 </r>
        <r>  0.0008  0.0024  0.0030 </r>
        <r>  0.0006  0.0026  0.0017 </r>
        <r>  0.0001  0.0032  0.0016 </r>
        <r>  0.0003  0.0005  0.0011 </r>
        <r>  0.0000  0.0022  0.0005 </r>
        <r>  0.0024  0.0018  0.0038 </r>
        <r>  0.0003  0.0008  0.0011 </r>
        <r>  0.0001  0.0013  0.0004 </r>
        <r>  0.0001  0.0003  0.0013 </r>
        <r>  0.0003  0.0043  0.0020 </r>
        <r>  0.0000  0.0004  0.0021 </r>
        <r>  0.0011  0.0009  0.0019 </r>
        <r>  0.0000  0.0007  0.0004 </r>
        <r>  0.0000  0.0004  0.0004 </r>
        <r>  0.0001  0.0007  0.0010 </r>
        <r>  0.0003  0.0009  0.0005 </r>
        <r>  0.0002  0.0003  0.0007 </r>
        <r>  0.0001  0.0010  0.0021 </r>
        <r>  0.0006  0.0016  0.0011 </r>
        <r>  0.0008  0.0004  0.0008 </r>
        <r>  0.0004  0.0016  0.0007 </r>
        <r>  0.0011  0.0013  0.0007 </r>
       </set>
      </set>
     </set>
    </set>
   </array>
  </projected>
 </calculation>
 <structure name="finalpos" >
  <crystal>
   <varray name="basis" >
    <v>       8.45648900       0.00000000       8.04030100 </v>
    <v>       0.00000000      11.72984700       0.00000000 </v>
    <v>      -8.45648900       0.00000000       8.04030100 </v>
   </varray>
   <i name="volume">   1595.08833419 </i>
   <varray name="rec_basis" >
    <v>       0.05912619      -0.00000000       0.06218673 </v>
    <v>       0.00000000       0.08525260      -0.00000000 </v>
    <v>      -0.05912619       0.00000000       0.06218673 </v>
   </varray>
  </crystal>
  <varray name="positions" >
   <v>       0.26904300       0.24744900       0.20450200 </v>
   <v>       0.77659300       0.24661500       0.70834100 </v>
   <v>       0.71697900       0.75243800       0.26505100 </v>
   <v>       0.20603600       0.74888100       0.77412000 </v>
   <v>       0.26760900       0.23981900       0.73205400 </v>
   <v>       0.79906600       0.24947000       0.22771500 </v>
   <v>       0.74667700       0.76101000       0.80602400 </v>
   <v>       0.21586300       0.75393500       0.28315300 </v>
   <v>       0.00172700       0.00206400       0.00084700 </v>
   <v>       0.49962600       0.00184800       0.50260900 </v>
   <v>       0.50202000       0.00102800       0.00286400 </v>
   <v>       0.99999600       0.99851300       0.49810800 </v>
   <v>       0.49876100       0.50335300       0.00585700 </v>
   <v>       0.99954000       0.50020600       0.49867600 </v>
   <v>       0.00051500       0.49924200       0.99871100 </v>
   <v>       0.49689300       0.49272900       0.49222800 </v>
   <v>       0.47606800       0.75025100       0.95810500 </v>
   <v>       0.96614800       0.74926700       0.46511200 </v>
   <v>       0.96952600       0.25089100       0.96677600 </v>
   <v>       0.45546600       0.24662700       0.48035900 </v>
   <v>       0.02535300       0.75062000       0.02494600 </v>
   <v>       0.53003800       0.25363900       0.03848100 </v>
   <v>       0.02515600       0.24949400       0.52654000 </v>
   <v>       0.25057400       0.46763300       0.94665500 </v>
   <v>       0.74300100       0.46556500       0.44762500 </v>
   <v>       0.44874900       0.54457200       0.24833400 </v>
   <v>       0.94600400       0.52984300       0.74564400 </v>
   <v>       0.55259600       0.03302400       0.75475200 </v>
   <v>       0.05253300       0.03423500       0.25116300 </v>
   <v>       0.75374500       0.97269300       0.05340900 </v>
   <v>       0.25483500       0.95770700       0.54824100 </v>
   <v>       0.24956100       0.02870900       0.95478400 </v>
   <v>       0.74672800       0.03214500       0.45008200 </v>
   <v>       0.45309800       0.95724900       0.25334600 </v>
   <v>       0.95714400       0.97569700       0.74603900 </v>
   <v>       0.75169300       0.53177200       0.04655600 </v>
   <v>       0.25312000       0.53428600       0.55011500 </v>
   <v>       0.05256400       0.46752100       0.25060100 </v>
   <v>       0.54412700       0.61350000       0.64793800 </v>
  </varray>
 </structure>
</modeling>
