CsPbBr3 cubic bulk                      
           1
     8.456489    0.000000    8.040301
     0.000000   11.729847    0.000000
    -8.456489    0.000000    8.040301
   Cs   Pb   Br
   8   8  23
Direct configuration=     1
   0.26904300  0.24744900  0.20450200
   0.77659300  0.24661500  0.70834100
   0.71697900  0.75243800  0.26505100
   0.20603600  0.74888100  0.77412000
   0.26760900  0.23981900  0.73205400
   0.79906600  0.24947000  0.22771500
   0.74667700  0.76101000  0.80602400
   0.21586300  0.75393500  0.28315300
   0.00172700  0.00206400  0.00084700
   0.49962600  0.00184800  0.50260900
   0.50202000  0.00102800  0.00286400
   0.99999600  0.99851300  0.49810800
   0.49876100  0.50335300  0.00585700
   0.99954000  0.50020600  0.49867600
   0.00051500  0.49924200  0.99871100
   0.49689300  0.49272900  0.49222800
   0.47606800  0.75025100  0.95810500
   0.96614800  0.74926700  0.46511200
   0.96952600  0.25089100  0.96677600
   0.45546600  0.24662700  0.48035900
   0.02535300  0.75062000  0.02494600
   0.53003800  0.25363900  0.03848100
   0.02515600  0.24949400  0.52654000
   0.25057400  0.46763300  0.94665500
   0.74300100  0.46556500  0.44762500
   0.44874900  0.54457200  0.24833400
   0.94600400  0.52984300  0.74564400
   0.55259600  0.03302400  0.75475200
   0.05253300  0.03423500  0.25116300
   0.75374500  0.97269300  0.05340900
   0.25483500  0.95770700  0.54824100
   0.24956100  0.02870900  0.95478400
   0.74672800  0.03214500  0.45008200
   0.45309800  0.95724900  0.25334600
   0.95714400  0.97569700  0.74603900
   0.75169300  0.53177200  0.04655600
   0.25312000  0.53428600  0.55011500
   0.05256400  0.46752100  0.25060100
   0.54412700  0.61350000  0.64793800
