  20  20   1   0
  0.4008162E+02  0.8433034E-09  0.1188145E-08  0.8000593E-09  0.5000000E-15
   1.0000000000000000E-004
  CAR 
 CsPbBr3 cubic bulk                      
      8.61898167    -22.16352777  301      0.53857294      1.00000000
    -22.164  0.0000E+00  0.0000E+00
    -22.061  0.0000E+00  0.0000E+00
    -21.958  0.0000E+00  0.0000E+00
    -21.856  0.0000E+00  0.0000E+00
    -21.753  0.0000E+00  0.0000E+00
    -21.650  0.0000E+00  0.0000E+00
    -21.548  0.0000E+00  0.0000E+00
    -21.445  0.0000E+00  0.0000E+00
    -21.343  0.0000E+00  0.0000E+00
    -21.240  0.0000E+00  0.0000E+00
    -21.137  0.0000E+00  0.0000E+00
    -21.035  0.0000E+00  0.0000E+00
    -20.932  0.0000E+00  0.0000E+00
    -20.830  0.0000E+00  0.0000E+00
    -20.727  0.7797E+02  0.8000E+01
    -20.624  0.0000E+00  0.8000E+01
    -20.522  0.0000E+00  0.8000E+01
    -20.419  0.0000E+00  0.8000E+01
    -20.317  0.0000E+00  0.8000E+01
    -20.214  0.0000E+00  0.8000E+01
    -20.111  0.0000E+00  0.8000E+01
    -20.009  0.0000E+00  0.8000E+01
    -19.906  0.0000E+00  0.8000E+01
    -19.804  0.0000E+00  0.8000E+01
    -19.701  0.0000E+00  0.8000E+01
    -19.598  0.0000E+00  0.8000E+01
    -19.496  0.0000E+00  0.8000E+01
    -19.393  0.0000E+00  0.8000E+01
    -19.290  0.0000E+00  0.8000E+01
    -19.188  0.0000E+00  0.8000E+01
    -19.085  0.0000E+00  0.8000E+01
    -18.983  0.0000E+00  0.8000E+01
    -18.880  0.0000E+00  0.8000E+01
    -18.777  0.0000E+00  0.8000E+01
    -18.675  0.0000E+00  0.8000E+01
    -18.572  0.0000E+00  0.8000E+01
    -18.470  0.0000E+00  0.8000E+01
    -18.367  0.0000E+00  0.8000E+01
    -18.264  0.0000E+00  0.8000E+01
    -18.162  0.0000E+00  0.8000E+01
    -18.059  0.0000E+00  0.8000E+01
    -17.957  0.0000E+00  0.8000E+01
    -17.854  0.0000E+00  0.8000E+01
    -17.751  0.0000E+00  0.8000E+01
    -17.649  0.0000E+00  0.8000E+01
    -17.546  0.0000E+00  0.8000E+01
    -17.444  0.0000E+00  0.8000E+01
    -17.341  0.0000E+00  0.8000E+01
    -17.238  0.0000E+00  0.8000E+01
    -17.136  0.0000E+00  0.8000E+01
    -17.033  0.0000E+00  0.8000E+01
    -16.931  0.0000E+00  0.8000E+01
    -16.828  0.0000E+00  0.8000E+01
    -16.725  0.0000E+00  0.8000E+01
    -16.623  0.0000E+00  0.8000E+01
    -16.520  0.0000E+00  0.8000E+01
    -16.417  0.7226E+02  0.1541E+02
    -16.315  0.5540E+02  0.2468E+02
    -16.212  0.7794E+02  0.4800E+02
    -16.110  0.0000E+00  0.4800E+02
    -16.007  0.0000E+00  0.4800E+02
    -15.904  0.0000E+00  0.4800E+02
    -15.802  0.0000E+00  0.4800E+02
    -15.699  0.0000E+00  0.4800E+02
    -15.597  0.0000E+00  0.4800E+02
    -15.494  0.0000E+00  0.4800E+02
    -15.391  0.0000E+00  0.4800E+02
    -15.289  0.0000E+00  0.4800E+02
    -15.186  0.0000E+00  0.4800E+02
    -15.084  0.0000E+00  0.4800E+02
    -14.981  0.0000E+00  0.4800E+02
    -14.878  0.0000E+00  0.4800E+02
    -14.776  0.0000E+00  0.4800E+02
    -14.673  0.0000E+00  0.4800E+02
    -14.571  0.0000E+00  0.4800E+02
    -14.468  0.0000E+00  0.4800E+02
    -14.365  0.5050E-11  0.4800E+02
    -14.263  0.5088E+01  0.4852E+02
    -14.160  0.2086E+02  0.5092E+02
    -14.057  0.3222E+02  0.5464E+02
    -13.955  0.4859E+02  0.5987E+02
    -13.852  0.3856E+02  0.6462E+02
    -13.750  0.4411E+02  0.7042E+02
    -13.647  0.9745E+01  0.7200E+02
    -13.544  0.0000E+00  0.7200E+02
    -13.442  0.0000E+00  0.7200E+02
    -13.339  0.0000E+00  0.7200E+02
    -13.237  0.0000E+00  0.7200E+02
    -13.134  0.0000E+00  0.7200E+02
    -13.031  0.0000E+00  0.7200E+02
    -12.929  0.0000E+00  0.7200E+02
    -12.826  0.0000E+00  0.7200E+02
    -12.724  0.0000E+00  0.7200E+02
    -12.621  0.0000E+00  0.7200E+02
    -12.518  0.0000E+00  0.7200E+02
    -12.416  0.0000E+00  0.7200E+02
    -12.313  0.0000E+00  0.7200E+02
    -12.211  0.0000E+00  0.7200E+02
    -12.108  0.0000E+00  0.7200E+02
    -12.005  0.0000E+00  0.7200E+02
    -11.903  0.0000E+00  0.7200E+02
    -11.800  0.0000E+00  0.7200E+02
    -11.697  0.0000E+00  0.7200E+02
    -11.595  0.0000E+00  0.7200E+02
    -11.492  0.0000E+00  0.7200E+02
    -11.390  0.0000E+00  0.7200E+02
    -11.287  0.0000E+00  0.7200E+02
    -11.184  0.0000E+00  0.7200E+02
    -11.082  0.0000E+00  0.7200E+02
    -10.979  0.0000E+00  0.7200E+02
    -10.877  0.0000E+00  0.7200E+02
    -10.774  0.0000E+00  0.7200E+02
    -10.671  0.0000E+00  0.7200E+02
    -10.569  0.0000E+00  0.7200E+02
    -10.466  0.0000E+00  0.7200E+02
    -10.364  0.0000E+00  0.7200E+02
    -10.261  0.0000E+00  0.7200E+02
    -10.158  0.0000E+00  0.7200E+02
    -10.056  0.0000E+00  0.7200E+02
     -9.953  0.0000E+00  0.7200E+02
     -9.851  0.0000E+00  0.7200E+02
     -9.748  0.0000E+00  0.7200E+02
     -9.645  0.0000E+00  0.7200E+02
     -9.543  0.0000E+00  0.7200E+02
     -9.440  0.0000E+00  0.7200E+02
     -9.337  0.0000E+00  0.7200E+02
     -9.235  0.0000E+00  0.7200E+02
     -9.132  0.0000E+00  0.7200E+02
     -9.030  0.0000E+00  0.7200E+02
     -8.927  0.0000E+00  0.7200E+02
     -8.824  0.0000E+00  0.7200E+02
     -8.722  0.0000E+00  0.7200E+02
     -8.619  0.0000E+00  0.7200E+02
     -8.517  0.0000E+00  0.7200E+02
     -8.414  0.0000E+00  0.7200E+02
     -8.311  0.0000E+00  0.7200E+02
     -8.209  0.0000E+00  0.7200E+02
     -8.106  0.1083E+01  0.7211E+02
     -8.004  0.0000E+00  0.7211E+02
     -7.901  0.6495E+01  0.7278E+02
     -7.798  0.3159E+01  0.7310E+02
     -7.696  0.8353E+01  0.7408E+02
     -7.593  0.1151E+01  0.7423E+02
     -7.491  0.4331E+01  0.7556E+02
     -7.388  0.8663E+01  0.7644E+02
     -7.285  0.1299E+02  0.7778E+02
     -7.183  0.4440E+02  0.8233E+02
     -7.080  0.1384E+03  0.1028E+03
     -6.977  0.4140E+01  0.1032E+03
     -6.875  0.2325E+01  0.1035E+03
     -6.772  0.0000E+00  0.1039E+03
     -6.670  0.0000E+00  0.1039E+03
     -6.567  0.1376E-07  0.1039E+03
     -6.464  0.1083E+01  0.1040E+03
     -6.362  0.0000E+00  0.1040E+03
     -6.259  0.0000E+00  0.1040E+03
     -6.157  0.0000E+00  0.1040E+03
     -6.054  0.0000E+00  0.1040E+03
     -5.951  0.0000E+00  0.1040E+03
     -5.849  0.0000E+00  0.1040E+03
     -5.746  0.0000E+00  0.1040E+03
     -5.644  0.0000E+00  0.1040E+03
     -5.541  0.0000E+00  0.1040E+03
     -5.438  0.0000E+00  0.1040E+03
     -5.336  0.0000E+00  0.1040E+03
     -5.233  0.0000E+00  0.1040E+03
     -5.131  0.0000E+00  0.1040E+03
     -5.028  0.0000E+00  0.1040E+03
     -4.925  0.0000E+00  0.1040E+03
     -4.823  0.0000E+00  0.1040E+03
     -4.720  0.0000E+00  0.1040E+03
     -4.617  0.0000E+00  0.1040E+03
     -4.515  0.0000E+00  0.1040E+03
     -4.412  0.0000E+00  0.1040E+03
     -4.310  0.0000E+00  0.1040E+03
     -4.207  0.0000E+00  0.1040E+03
     -4.104  0.0000E+00  0.1040E+03
     -4.002  0.0000E+00  0.1040E+03
     -3.899  0.0000E+00  0.1040E+03
     -3.797  0.0000E+00  0.1040E+03
     -3.694  0.0000E+00  0.1040E+03
     -3.591  0.0000E+00  0.1040E+03
     -3.489  0.0000E+00  0.1040E+03
     -3.386  0.0000E+00  0.1040E+03
     -3.284  0.4332E-01  0.1040E+03
     -3.181  0.1456E+02  0.1056E+03
     -3.078  0.1516E+02  0.1081E+03
     -2.976  0.6365E+01  0.1088E+03
     -2.873  0.1077E+02  0.1100E+03
     -2.771  0.1102E+02  0.1114E+03
     -2.668  0.6506E+01  0.1133E+03
     -2.565  0.2166E+01  0.1140E+03
     -2.463  0.7991E+01  0.1148E+03
     -2.360  0.1174E+02  0.1163E+03
     -2.258  0.4315E+01  0.1182E+03
     -2.155  0.1103E+02  0.1194E+03
     -2.052  0.2340E+02  0.1222E+03
     -1.950  0.2807E+02  0.1259E+03
     -1.847  0.5279E+01  0.1269E+03
     -1.744  0.8099E+01  0.1281E+03
     -1.642  0.3668E+02  0.1319E+03
     -1.539  0.7873E+01  0.1346E+03
     -1.437  0.3596E+02  0.1387E+03
     -1.334  0.5561E+02  0.1455E+03
     -1.231  0.5199E+02  0.1527E+03
     -1.129  0.4648E+02  0.1589E+03
     -1.026  0.5993E+02  0.1663E+03
     -0.924  0.1299E+02  0.1680E+03
     -0.821  0.7645E+01  0.1688E+03
     -0.718  0.1624E+02  0.1710E+03
     -0.616  0.8792E+01  0.1719E+03
     -0.513  0.1475E+02  0.1740E+03
     -0.411  0.2165E+01  0.1742E+03
     -0.308  0.4331E+01  0.1747E+03
     -0.205  0.0000E+00  0.1747E+03
     -0.103  0.3262E+01  0.1750E+03
     -0.000  0.2692E+01  0.1757E+03
      0.102  0.0000E+00  0.1759E+03
      0.205  0.0000E+00  0.1759E+03
      0.308  0.0000E+00  0.1759E+03
      0.410  0.1692E-07  0.1759E+03
      0.513  0.1083E+01  0.1760E+03
      0.616  0.0000E+00  0.1760E+03
      0.718  0.0000E+00  0.1760E+03
      0.821  0.0000E+00  0.1760E+03
      0.923  0.0000E+00  0.1760E+03
      1.026  0.0000E+00  0.1760E+03
      1.129  0.0000E+00  0.1760E+03
      1.231  0.0000E+00  0.1760E+03
      1.334  0.0000E+00  0.1760E+03
      1.436  0.0000E+00  0.1760E+03
      1.539  0.0000E+00  0.1760E+03
      1.642  0.0000E+00  0.1760E+03
      1.744  0.0000E+00  0.1760E+03
      1.847  0.0000E+00  0.1760E+03
      1.949  0.0000E+00  0.1760E+03
      2.052  0.0000E+00  0.1760E+03
      2.155  0.0000E+00  0.1760E+03
      2.257  0.0000E+00  0.1760E+03
      2.360  0.0000E+00  0.1760E+03
      2.462  0.0000E+00  0.1760E+03
      2.565  0.0000E+00  0.1760E+03
      2.668  0.0000E+00  0.1760E+03
      2.770  0.2119E+01  0.1762E+03
      2.873  0.4181E-05  0.1762E+03
      2.976  0.7582E+01  0.1770E+03
      3.078  0.3158E-06  0.1774E+03
      3.181  0.1191E+02  0.1787E+03
      3.283  0.4452E+01  0.1791E+03
      3.386  0.1052E+01  0.1801E+03
      3.489  0.1257E+01  0.1802E+03
      3.591  0.2166E+01  0.1809E+03
      3.694  0.4323E+01  0.1813E+03
      3.796  0.2365E-01  0.1818E+03
      3.899  0.1023E+02  0.1831E+03
      4.002  0.8663E+01  0.1840E+03
      4.104  0.1299E+02  0.1853E+03
      4.207  0.2165E+01  0.1856E+03
      4.309  0.6497E+01  0.1862E+03
      4.412  0.5628E+01  0.1868E+03
      4.515  0.8663E+01  0.1880E+03
      4.617  0.8647E+01  0.1889E+03
      4.720  0.8663E+01  0.1898E+03
      4.822  0.2522E-01  0.1898E+03
      4.925  0.4958E+01  0.1905E+03
      5.028  0.1784E-04  0.1906E+03
      5.130  0.1515E+02  0.1921E+03
      5.233  0.1088E+02  0.1932E+03
      5.336  0.1507E+02  0.1950E+03
      5.438  0.2166E+01  0.1952E+03
      5.541  0.3431E+01  0.1956E+03
      5.643  0.1076E+01  0.1962E+03
      5.746  0.1135E+01  0.1963E+03
      5.849  0.1512E+02  0.1980E+03
      5.951  0.3169E+01  0.1983E+03
      6.054  0.1270E+02  0.2000E+03
      6.156  0.1090E+02  0.2020E+03
      6.259  0.6461E+01  0.2031E+03
      6.362  0.1884E+02  0.2050E+03
      6.464  0.2235E+02  0.2077E+03
      6.567  0.1297E+02  0.2093E+03
      6.669  0.2404E+02  0.2122E+03
      6.772  0.2038E+02  0.2149E+03
      6.875  0.2618E+02  0.2176E+03
      6.977  0.1401E+02  0.2195E+03
      7.080  0.1459E+02  0.2219E+03
      7.182  0.8637E+01  0.2236E+03
      7.285  0.4331E+01  0.2240E+03
      7.388  0.0000E+00  0.2240E+03
      7.490  0.0000E+00  0.2240E+03
      7.593  0.0000E+00  0.2240E+03
      7.696  0.0000E+00  0.2240E+03
      7.798  0.0000E+00  0.2240E+03
      7.901  0.0000E+00  0.2240E+03
      8.003  0.0000E+00  0.2240E+03
      8.106  0.0000E+00  0.2240E+03
      8.209  0.0000E+00  0.2240E+03
      8.311  0.0000E+00  0.2240E+03
      8.414  0.0000E+00  0.2240E+03
      8.516  0.0000E+00  0.2240E+03
      8.619  0.0000E+00  0.2240E+03
      8.61898167    -22.16352777  301      0.53857294      1.00000000
    -22.164  0.0000E+00  0.0000E+00  0.0000E+00
    -22.061  0.0000E+00  0.0000E+00  0.0000E+00
    -21.958  0.0000E+00  0.0000E+00  0.0000E+00
    -21.856  0.0000E+00  0.0000E+00  0.0000E+00
    -21.753  0.0000E+00  0.0000E+00  0.0000E+00
    -21.650  0.0000E+00  0.0000E+00  0.0000E+00
    -21.548  0.0000E+00  0.0000E+00  0.0000E+00
    -21.445  0.0000E+00  0.0000E+00  0.0000E+00
    -21.343  0.0000E+00  0.0000E+00  0.0000E+00
    -21.240  0.0000E+00  0.0000E+00  0.0000E+00
    -21.137  0.0000E+00  0.0000E+00  0.0000E+00
    -21.035  0.0000E+00  0.0000E+00  0.0000E+00
    -20.932  0.0000E+00  0.0000E+00  0.0000E+00
    -20.830  0.0000E+00  0.0000E+00  0.0000E+00
    -20.727  0.1730E+02  0.7518E-05  0.3257E-05
    -20.624  0.0000E+00  0.0000E+00  0.0000E+00
    -20.522  0.0000E+00  0.0000E+00  0.0000E+00
    -20.419  0.0000E+00  0.0000E+00  0.0000E+00
    -20.317  0.0000E+00  0.0000E+00  0.0000E+00
    -20.214  0.0000E+00  0.0000E+00  0.0000E+00
    -20.111  0.0000E+00  0.0000E+00  0.0000E+00
    -20.009  0.0000E+00  0.0000E+00  0.0000E+00
    -19.906  0.0000E+00  0.0000E+00  0.0000E+00
    -19.804  0.0000E+00  0.0000E+00  0.0000E+00
    -19.701  0.0000E+00  0.0000E+00  0.0000E+00
    -19.598  0.0000E+00  0.0000E+00  0.0000E+00
    -19.496  0.0000E+00  0.0000E+00  0.0000E+00
    -19.393  0.0000E+00  0.0000E+00  0.0000E+00
    -19.290  0.0000E+00  0.0000E+00  0.0000E+00
    -19.188  0.0000E+00  0.0000E+00  0.0000E+00
    -19.085  0.0000E+00  0.0000E+00  0.0000E+00
    -18.983  0.0000E+00  0.0000E+00  0.0000E+00
    -18.880  0.0000E+00  0.0000E+00  0.0000E+00
    -18.777  0.0000E+00  0.0000E+00  0.0000E+00
    -18.675  0.0000E+00  0.0000E+00  0.0000E+00
    -18.572  0.0000E+00  0.0000E+00  0.0000E+00
    -18.470  0.0000E+00  0.0000E+00  0.0000E+00
    -18.367  0.0000E+00  0.0000E+00  0.0000E+00
    -18.264  0.0000E+00  0.0000E+00  0.0000E+00
    -18.162  0.0000E+00  0.0000E+00  0.0000E+00
    -18.059  0.0000E+00  0.0000E+00  0.0000E+00
    -17.957  0.0000E+00  0.0000E+00  0.0000E+00
    -17.854  0.0000E+00  0.0000E+00  0.0000E+00
    -17.751  0.0000E+00  0.0000E+00  0.0000E+00
    -17.649  0.0000E+00  0.0000E+00  0.0000E+00
    -17.546  0.0000E+00  0.0000E+00  0.0000E+00
    -17.444  0.0000E+00  0.0000E+00  0.0000E+00
    -17.341  0.0000E+00  0.0000E+00  0.0000E+00
    -17.238  0.0000E+00  0.0000E+00  0.0000E+00
    -17.136  0.0000E+00  0.0000E+00  0.0000E+00
    -17.033  0.0000E+00  0.0000E+00  0.0000E+00
    -16.931  0.0000E+00  0.0000E+00  0.0000E+00
    -16.828  0.0000E+00  0.0000E+00  0.0000E+00
    -16.725  0.0000E+00  0.0000E+00  0.0000E+00
    -16.623  0.0000E+00  0.0000E+00  0.0000E+00
    -16.520  0.0000E+00  0.0000E+00  0.0000E+00
    -16.417  0.9179E-04  0.6859E-04  0.1637E-04
    -16.315  0.1080E-04  0.1680E-04  0.2347E-05
    -16.212  0.9729E-05  0.6658E-05  0.9639E-06
    -16.110  0.0000E+00  0.0000E+00  0.0000E+00
    -16.007  0.0000E+00  0.0000E+00  0.0000E+00
    -15.904  0.0000E+00  0.0000E+00  0.0000E+00
    -15.802  0.0000E+00  0.0000E+00  0.0000E+00
    -15.699  0.0000E+00  0.0000E+00  0.0000E+00
    -15.597  0.0000E+00  0.0000E+00  0.0000E+00
    -15.494  0.0000E+00  0.0000E+00  0.0000E+00
    -15.391  0.0000E+00  0.0000E+00  0.0000E+00
    -15.289  0.0000E+00  0.0000E+00  0.0000E+00
    -15.186  0.0000E+00  0.0000E+00  0.0000E+00
    -15.084  0.0000E+00  0.0000E+00  0.0000E+00
    -14.981  0.0000E+00  0.0000E+00  0.0000E+00
    -14.878  0.0000E+00  0.0000E+00  0.0000E+00
    -14.776  0.0000E+00  0.0000E+00  0.0000E+00
    -14.673  0.0000E+00  0.0000E+00  0.0000E+00
    -14.571  0.0000E+00  0.0000E+00  0.0000E+00
    -14.468  0.0000E+00  0.0000E+00  0.0000E+00
    -14.365  0.2197E-14  0.1318E-16  0.3632E-17
    -14.263  0.1667E-02  0.3367E-03  0.6699E-05
    -14.160  0.3206E-02  0.3455E-02  0.7453E-04
    -14.057  0.8073E-03  0.5190E-02  0.2322E-03
    -13.955  0.3435E-02  0.6883E-02  0.5445E-03
    -13.852  0.6149E-03  0.3365E-02  0.3697E-03
    -13.750  0.1143E-02  0.2982E-02  0.4641E-03
    -13.647  0.4661E-03  0.7133E-03  0.8213E-04
    -13.544  0.0000E+00  0.0000E+00  0.0000E+00
    -13.442  0.0000E+00  0.0000E+00  0.0000E+00
    -13.339  0.0000E+00  0.0000E+00  0.0000E+00
    -13.237  0.0000E+00  0.0000E+00  0.0000E+00
    -13.134  0.0000E+00  0.0000E+00  0.0000E+00
    -13.031  0.0000E+00  0.0000E+00  0.0000E+00
    -12.929  0.0000E+00  0.0000E+00  0.0000E+00
    -12.826  0.0000E+00  0.0000E+00  0.0000E+00
    -12.724  0.0000E+00  0.0000E+00  0.0000E+00
    -12.621  0.0000E+00  0.0000E+00  0.0000E+00
    -12.518  0.0000E+00  0.0000E+00  0.0000E+00
    -12.416  0.0000E+00  0.0000E+00  0.0000E+00
    -12.313  0.0000E+00  0.0000E+00  0.0000E+00
    -12.211  0.0000E+00  0.0000E+00  0.0000E+00
    -12.108  0.0000E+00  0.0000E+00  0.0000E+00
    -12.005  0.0000E+00  0.0000E+00  0.0000E+00
    -11.903  0.0000E+00  0.0000E+00  0.0000E+00
    -11.800  0.0000E+00  0.0000E+00  0.0000E+00
    -11.697  0.0000E+00  0.0000E+00  0.0000E+00
    -11.595  0.0000E+00  0.0000E+00  0.0000E+00
    -11.492  0.0000E+00  0.0000E+00  0.0000E+00
    -11.390  0.0000E+00  0.0000E+00  0.0000E+00
    -11.287  0.0000E+00  0.0000E+00  0.0000E+00
    -11.184  0.0000E+00  0.0000E+00  0.0000E+00
    -11.082  0.0000E+00  0.0000E+00  0.0000E+00
    -10.979  0.0000E+00  0.0000E+00  0.0000E+00
    -10.877  0.0000E+00  0.0000E+00  0.0000E+00
    -10.774  0.0000E+00  0.0000E+00  0.0000E+00
    -10.671  0.0000E+00  0.0000E+00  0.0000E+00
    -10.569  0.0000E+00  0.0000E+00  0.0000E+00
    -10.466  0.0000E+00  0.0000E+00  0.0000E+00
    -10.364  0.0000E+00  0.0000E+00  0.0000E+00
    -10.261  0.0000E+00  0.0000E+00  0.0000E+00
    -10.158  0.0000E+00  0.0000E+00  0.0000E+00
    -10.056  0.0000E+00  0.0000E+00  0.0000E+00
     -9.953  0.0000E+00  0.0000E+00  0.0000E+00
     -9.851  0.0000E+00  0.0000E+00  0.0000E+00
     -9.748  0.0000E+00  0.0000E+00  0.0000E+00
     -9.645  0.0000E+00  0.0000E+00  0.0000E+00
     -9.543  0.0000E+00  0.0000E+00  0.0000E+00
     -9.440  0.0000E+00  0.0000E+00  0.0000E+00
     -9.337  0.0000E+00  0.0000E+00  0.0000E+00
     -9.235  0.0000E+00  0.0000E+00  0.0000E+00
     -9.132  0.0000E+00  0.0000E+00  0.0000E+00
     -9.030  0.0000E+00  0.0000E+00  0.0000E+00
     -8.927  0.0000E+00  0.0000E+00  0.0000E+00
     -8.824  0.0000E+00  0.0000E+00  0.0000E+00
     -8.722  0.0000E+00  0.0000E+00  0.0000E+00
     -8.619  0.0000E+00  0.0000E+00  0.0000E+00
     -8.517  0.0000E+00  0.0000E+00  0.0000E+00
     -8.414  0.0000E+00  0.0000E+00  0.0000E+00
     -8.311  0.0000E+00  0.0000E+00  0.0000E+00
     -8.209  0.0000E+00  0.0000E+00  0.0000E+00
     -8.106  0.7637E-19  0.7784E-05  0.6955E-05
     -8.004  0.0000E+00  0.0000E+00  0.0000E+00
     -7.901  0.3091E-08  0.4977E-02  0.3589E-04
     -7.798  0.2545E-18  0.3901E-02  0.2216E-04
     -7.696  0.1029E-04  0.2073E-01  0.4200E-04
     -7.593  0.1230E-06  0.6833E-02  0.2894E-05
     -7.491  0.8352E-13  0.3211E-01  0.8667E-05
     -7.388  0.1048E-04  0.9543E-01  0.4500E-04
     -7.285  0.5040E-04  0.3647E+00  0.4027E-04
     -7.183  0.5389E-04  0.7319E+01  0.5328E-04
     -7.080  0.3965E-04  0.2569E+02  0.6947E-04
     -6.977  0.2146E-04  0.1206E+00  0.2485E-04
     -6.875  0.2183E-04  0.1986E-01  0.8027E-05
     -6.772  0.0000E+00  0.0000E+00  0.0000E+00
     -6.670  0.0000E+00  0.0000E+00  0.0000E+00
     -6.567  0.1519E-12  0.3875E-10  0.1001E-13
     -6.464  0.1195E-04  0.3050E-02  0.7881E-06
     -6.362  0.0000E+00  0.0000E+00  0.0000E+00
     -6.259  0.0000E+00  0.0000E+00  0.0000E+00
     -6.157  0.0000E+00  0.0000E+00  0.0000E+00
     -6.054  0.0000E+00  0.0000E+00  0.0000E+00
     -5.951  0.0000E+00  0.0000E+00  0.0000E+00
     -5.849  0.0000E+00  0.0000E+00  0.0000E+00
     -5.746  0.0000E+00  0.0000E+00  0.0000E+00
     -5.644  0.0000E+00  0.0000E+00  0.0000E+00
     -5.541  0.0000E+00  0.0000E+00  0.0000E+00
     -5.438  0.0000E+00  0.0000E+00  0.0000E+00
     -5.336  0.0000E+00  0.0000E+00  0.0000E+00
     -5.233  0.0000E+00  0.0000E+00  0.0000E+00
     -5.131  0.0000E+00  0.0000E+00  0.0000E+00
     -5.028  0.0000E+00  0.0000E+00  0.0000E+00
     -4.925  0.0000E+00  0.0000E+00  0.0000E+00
     -4.823  0.0000E+00  0.0000E+00  0.0000E+00
     -4.720  0.0000E+00  0.0000E+00  0.0000E+00
     -4.617  0.0000E+00  0.0000E+00  0.0000E+00
     -4.515  0.0000E+00  0.0000E+00  0.0000E+00
     -4.412  0.0000E+00  0.0000E+00  0.0000E+00
     -4.310  0.0000E+00  0.0000E+00  0.0000E+00
     -4.207  0.0000E+00  0.0000E+00  0.0000E+00
     -4.104  0.0000E+00  0.0000E+00  0.0000E+00
     -4.002  0.0000E+00  0.0000E+00  0.0000E+00
     -3.899  0.0000E+00  0.0000E+00  0.0000E+00
     -3.797  0.0000E+00  0.0000E+00  0.0000E+00
     -3.694  0.0000E+00  0.0000E+00  0.0000E+00
     -3.591  0.0000E+00  0.0000E+00  0.0000E+00
     -3.489  0.0000E+00  0.0000E+00  0.0000E+00
     -3.386  0.0000E+00  0.0000E+00  0.0000E+00
     -3.284  0.1882E-07  0.5367E-04  0.8430E-06
     -3.181  0.1764E-03  0.2152E-01  0.1297E-02
     -3.078  0.1805E-03  0.1268E-01  0.1762E-02
     -2.976  0.8834E-04  0.3537E-02  0.7408E-03
     -2.873  0.3956E-03  0.1824E-01  0.8763E-03
     -2.771  0.1334E-03  0.1214E-01  0.8630E-03
     -2.668  0.4680E-03  0.8370E-02  0.7551E-03
     -2.565  0.2603E-18  0.2789E-02  0.2485E-03
     -2.463  0.1155E-03  0.1484E-01  0.1049E-02
     -2.360  0.1025E-02  0.1083E-01  0.1222E-02
     -2.258  0.7180E-03  0.2332E-02  0.3771E-03
     -2.155  0.4088E-02  0.9515E-02  0.1122E-02
     -2.052  0.1350E-01  0.2792E-01  0.3017E-02
     -1.950  0.1900E-01  0.4464E-01  0.6141E-02
     -1.847  0.1115E-02  0.2046E-01  0.6308E-03
     -1.744  0.5158E-03  0.5333E-01  0.2138E-02
     -1.642  0.4293E-02  0.1310E+00  0.1251E-01
     -1.539  0.4629E-03  0.2808E-01  0.2104E-02
     -1.437  0.4448E-02  0.7725E-01  0.1482E-01
     -1.334  0.3607E-02  0.8186E-01  0.2476E-01
     -1.231  0.5202E-02  0.7277E-01  0.1367E-01
     -1.129  0.2532E-02  0.8855E-01  0.1254E-01
     -1.026  0.2436E-02  0.8716E-01  0.1556E-01
     -0.924  0.7818E-03  0.1055E-01  0.3612E-02
     -0.821  0.1396E-03  0.9698E-02  0.2780E-02
     -0.718  0.1068E-02  0.1916E-01  0.3543E-02
     -0.616  0.6825E-03  0.5201E-02  0.7558E-03
     -0.513  0.5894E-03  0.5254E-02  0.1691E-02
     -0.411  0.8122E-16  0.7312E-03  0.2651E-03
     -0.308  0.3316E-16  0.3117E-02  0.3993E-04
     -0.205  0.0000E+00  0.0000E+00  0.0000E+00
     -0.103  0.3420E-05  0.4269E-03  0.4622E-03
     -0.000  0.2945E-06  0.8236E-03  0.1803E-03
      0.102  0.0000E+00  0.0000E+00  0.0000E+00
      0.205  0.0000E+00  0.0000E+00  0.0000E+00
      0.308  0.0000E+00  0.0000E+00  0.0000E+00
      0.410  0.1850E-23  0.4846E-12  0.1604E-11
      0.513  0.1184E-15  0.3102E-04  0.1027E-03
      0.616  0.0000E+00  0.0000E+00  0.0000E+00
      0.718  0.0000E+00  0.0000E+00  0.0000E+00
      0.821  0.0000E+00  0.0000E+00  0.0000E+00
      0.923  0.0000E+00  0.0000E+00  0.0000E+00
      1.026  0.0000E+00  0.0000E+00  0.0000E+00
      1.129  0.0000E+00  0.0000E+00  0.0000E+00
      1.231  0.0000E+00  0.0000E+00  0.0000E+00
      1.334  0.0000E+00  0.0000E+00  0.0000E+00
      1.436  0.0000E+00  0.0000E+00  0.0000E+00
      1.539  0.0000E+00  0.0000E+00  0.0000E+00
      1.642  0.0000E+00  0.0000E+00  0.0000E+00
      1.744  0.0000E+00  0.0000E+00  0.0000E+00
      1.847  0.0000E+00  0.0000E+00  0.0000E+00
      1.949  0.0000E+00  0.0000E+00  0.0000E+00
      2.052  0.0000E+00  0.0000E+00  0.0000E+00
      2.155  0.0000E+00  0.0000E+00  0.0000E+00
      2.257  0.0000E+00  0.0000E+00  0.0000E+00
      2.360  0.0000E+00  0.0000E+00  0.0000E+00
      2.462  0.0000E+00  0.0000E+00  0.0000E+00
      2.565  0.0000E+00  0.0000E+00  0.0000E+00
      2.668  0.0000E+00  0.0000E+00  0.0000E+00
      2.770  0.2507E-04  0.2183E-03  0.1452E-02
      2.873  0.2435E-09  0.9763E-09  0.1470E-08
      2.976  0.4955E-03  0.1067E-02  0.3896E-02
      3.078  0.1409E-22  0.2588E-09  0.9806E-10
      3.181  0.6843E-03  0.4583E-02  0.3559E-02
      3.283  0.2491E-03  0.1329E-02  0.8104E-03
      3.386  0.5492E-04  0.1652E-03  0.2288E-03
      3.489  0.3627E-04  0.2899E-03  0.1984E-03
      3.591  0.9583E-16  0.5712E-03  0.1685E-02
      3.694  0.6109E-05  0.7086E-03  0.4843E-02
      3.796  0.1492E-06  0.5599E-05  0.2773E-04
      3.899  0.1174E-02  0.2249E-02  0.7521E-02
      4.002  0.2514E-03  0.1686E-02  0.5281E-02
      4.104  0.7407E-03  0.2662E-02  0.5048E-02
      4.207  0.1642E-03  0.8488E-03  0.5208E-03
      4.309  0.1390E-03  0.1481E-02  0.3875E-02
      4.412  0.5396E-03  0.2175E-02  0.5839E-02
      4.515  0.5514E-05  0.3907E-02  0.7840E-02
      4.617  0.1221E-02  0.1608E-02  0.3150E-02
      4.720  0.1849E-02  0.3229E-02  0.4427E-02
      4.822  0.1649E-04  0.9685E-05  0.1395E-04
      4.925  0.6826E-02  0.3870E-03  0.6369E-02
      5.028  0.2399E-20  0.5622E-08  0.1497E-07
      5.130  0.1205E-02  0.4433E-02  0.1710E-01
      5.233  0.4456E-02  0.5085E-02  0.1405E-01
      5.336  0.1479E-01  0.1059E-01  0.1067E-01
      5.438  0.1268E-02  0.2198E-03  0.4193E-02
      5.541  0.7696E-03  0.3600E-03  0.6000E-02
      5.643  0.1281E-10  0.1627E-05  0.2634E-02
      5.746  0.5909E-02  0.1002E-02  0.4633E-02
      5.849  0.8179E-02  0.2659E-02  0.3225E-01
      5.951  0.6750E-06  0.2948E-03  0.4018E-02
      6.054  0.4164E-01  0.1972E-01  0.7621E-01
      6.156  0.4477E-03  0.1529E-02  0.3387E-01
      6.259  0.8487E-02  0.3558E-02  0.1806E+00
      6.362  0.6587E-01  0.3372E-01  0.3152E+00
      6.464  0.5661E-01  0.3269E-01  0.5243E+00
      6.567  0.5853E-02  0.5668E-02  0.3633E+00
      6.669  0.2896E-01  0.4146E-01  0.6767E+00
      6.772  0.4159E-01  0.2607E-01  0.5097E+00
      6.875  0.1153E-01  0.5926E-01  0.8204E+00
      6.977  0.5373E-02  0.1102E-01  0.5795E+00
      7.080  0.2795E-01  0.3192E-01  0.4993E+00
      7.182  0.6907E-02  0.3539E-01  0.1500E+00
      7.285  0.3078E-03  0.6418E-02  0.2032E+00
      7.388  0.0000E+00  0.0000E+00  0.0000E+00
      7.490  0.0000E+00  0.0000E+00  0.0000E+00
      7.593  0.0000E+00  0.0000E+00  0.0000E+00
      7.696  0.0000E+00  0.0000E+00  0.0000E+00
      7.798  0.0000E+00  0.0000E+00  0.0000E+00
      7.901  0.0000E+00  0.0000E+00  0.0000E+00
      8.003  0.0000E+00  0.0000E+00  0.0000E+00
      8.106  0.0000E+00  0.0000E+00  0.0000E+00
      8.209  0.0000E+00  0.0000E+00  0.0000E+00
      8.311  0.0000E+00  0.0000E+00  0.0000E+00
      8.414  0.0000E+00  0.0000E+00  0.0000E+00
      8.516  0.0000E+00  0.0000E+00  0.0000E+00
      8.619  0.0000E+00  0.0000E+00  0.0000E+00
      8.61898167    -22.16352777  301      0.53857294      1.00000000
    -22.164  0.0000E+00  0.0000E+00  0.0000E+00
    -22.061  0.0000E+00  0.0000E+00  0.0000E+00
    -21.958  0.0000E+00  0.0000E+00  0.0000E+00
    -21.856  0.0000E+00  0.0000E+00  0.0000E+00
    -21.753  0.0000E+00  0.0000E+00  0.0000E+00
    -21.650  0.0000E+00  0.0000E+00  0.0000E+00
    -21.548  0.0000E+00  0.0000E+00  0.0000E+00
    -21.445  0.0000E+00  0.0000E+00  0.0000E+00
    -21.343  0.0000E+00  0.0000E+00  0.0000E+00
    -21.240  0.0000E+00  0.0000E+00  0.0000E+00
    -21.137  0.0000E+00  0.0000E+00  0.0000E+00
    -21.035  0.0000E+00  0.0000E+00  0.0000E+00
    -20.932  0.0000E+00  0.0000E+00  0.0000E+00
    -20.830  0.0000E+00  0.0000E+00  0.0000E+00
    -20.727  0.1730E+02  0.7511E-05  0.3270E-05
    -20.624  0.0000E+00  0.0000E+00  0.0000E+00
    -20.522  0.0000E+00  0.0000E+00  0.0000E+00
    -20.419  0.0000E+00  0.0000E+00  0.0000E+00
    -20.317  0.0000E+00  0.0000E+00  0.0000E+00
    -20.214  0.0000E+00  0.0000E+00  0.0000E+00
    -20.111  0.0000E+00  0.0000E+00  0.0000E+00
    -20.009  0.0000E+00  0.0000E+00  0.0000E+00
    -19.906  0.0000E+00  0.0000E+00  0.0000E+00
    -19.804  0.0000E+00  0.0000E+00  0.0000E+00
    -19.701  0.0000E+00  0.0000E+00  0.0000E+00
    -19.598  0.0000E+00  0.0000E+00  0.0000E+00
    -19.496  0.0000E+00  0.0000E+00  0.0000E+00
    -19.393  0.0000E+00  0.0000E+00  0.0000E+00
    -19.290  0.0000E+00  0.0000E+00  0.0000E+00
    -19.188  0.0000E+00  0.0000E+00  0.0000E+00
    -19.085  0.0000E+00  0.0000E+00  0.0000E+00
    -18.983  0.0000E+00  0.0000E+00  0.0000E+00
    -18.880  0.0000E+00  0.0000E+00  0.0000E+00
    -18.777  0.0000E+00  0.0000E+00  0.0000E+00
    -18.675  0.0000E+00  0.0000E+00  0.0000E+00
    -18.572  0.0000E+00  0.0000E+00  0.0000E+00
    -18.470  0.0000E+00  0.0000E+00  0.0000E+00
    -18.367  0.0000E+00  0.0000E+00  0.0000E+00
    -18.264  0.0000E+00  0.0000E+00  0.0000E+00
    -18.162  0.0000E+00  0.0000E+00  0.0000E+00
    -18.059  0.0000E+00  0.0000E+00  0.0000E+00
    -17.957  0.0000E+00  0.0000E+00  0.0000E+00
    -17.854  0.0000E+00  0.0000E+00  0.0000E+00
    -17.751  0.0000E+00  0.0000E+00  0.0000E+00
    -17.649  0.0000E+00  0.0000E+00  0.0000E+00
    -17.546  0.0000E+00  0.0000E+00  0.0000E+00
    -17.444  0.0000E+00  0.0000E+00  0.0000E+00
    -17.341  0.0000E+00  0.0000E+00  0.0000E+00
    -17.238  0.0000E+00  0.0000E+00  0.0000E+00
    -17.136  0.0000E+00  0.0000E+00  0.0000E+00
    -17.033  0.0000E+00  0.0000E+00  0.0000E+00
    -16.931  0.0000E+00  0.0000E+00  0.0000E+00
    -16.828  0.0000E+00  0.0000E+00  0.0000E+00
    -16.725  0.0000E+00  0.0000E+00  0.0000E+00
    -16.623  0.0000E+00  0.0000E+00  0.0000E+00
    -16.520  0.0000E+00  0.0000E+00  0.0000E+00
    -16.417  0.9415E-04  0.5759E-04  0.1396E-04
    -16.315  0.1036E-04  0.3154E-04  0.2586E-05
    -16.212  0.9619E-05  0.6599E-05  0.9644E-06
    -16.110  0.0000E+00  0.0000E+00  0.0000E+00
    -16.007  0.0000E+00  0.0000E+00  0.0000E+00
    -15.904  0.0000E+00  0.0000E+00  0.0000E+00
    -15.802  0.0000E+00  0.0000E+00  0.0000E+00
    -15.699  0.0000E+00  0.0000E+00  0.0000E+00
    -15.597  0.0000E+00  0.0000E+00  0.0000E+00
    -15.494  0.0000E+00  0.0000E+00  0.0000E+00
    -15.391  0.0000E+00  0.0000E+00  0.0000E+00
    -15.289  0.0000E+00  0.0000E+00  0.0000E+00
    -15.186  0.0000E+00  0.0000E+00  0.0000E+00
    -15.084  0.0000E+00  0.0000E+00  0.0000E+00
    -14.981  0.0000E+00  0.0000E+00  0.0000E+00
    -14.878  0.0000E+00  0.0000E+00  0.0000E+00
    -14.776  0.0000E+00  0.0000E+00  0.0000E+00
    -14.673  0.0000E+00  0.0000E+00  0.0000E+00
    -14.571  0.0000E+00  0.0000E+00  0.0000E+00
    -14.468  0.0000E+00  0.0000E+00  0.0000E+00
    -14.365  0.2197E-14  0.1318E-16  0.3632E-17
    -14.263  0.1667E-02  0.3367E-03  0.6699E-05
    -14.160  0.3840E-02  0.2697E-02  0.7440E-04
    -14.057  0.7348E-03  0.7569E-02  0.2489E-03
    -13.955  0.1588E-02  0.4405E-02  0.3797E-03
    -13.852  0.1530E-02  0.4295E-02  0.4730E-03
    -13.750  0.1574E-02  0.2678E-02  0.4446E-03
    -13.647  0.1834E-03  0.6508E-03  0.8333E-04
    -13.544  0.0000E+00  0.0000E+00  0.0000E+00
    -13.442  0.0000E+00  0.0000E+00  0.0000E+00
    -13.339  0.0000E+00  0.0000E+00  0.0000E+00
    -13.237  0.0000E+00  0.0000E+00  0.0000E+00
    -13.134  0.0000E+00  0.0000E+00  0.0000E+00
    -13.031  0.0000E+00  0.0000E+00  0.0000E+00