       N       E                     dE             d eps       ncg     rms          rms(c)
DAV:   1     0.665311472575E+03    0.66531E+03   -0.56100E+04  1832   0.923E+02
DAV:   2    -0.574173352419E+03   -0.12395E+04   -0.11857E+04  2168   0.285E+02
DAV:   3    -0.748811128588E+03   -0.17464E+03   -0.17350E+03  2424   0.128E+02
DAV:   4    -0.754551774889E+03   -0.57406E+01   -0.57226E+01  2160   0.303E+01
DAV:   5    -0.754818265150E+03   -0.26649E+00   -0.26629E+00  2376   0.520E+00    0.704E+00
DAV:   6    -0.715012854418E+03    0.39805E+02   -0.11823E+01  2392   0.284E+01    0.502E+00
DAV:   7    -0.714779842255E+03    0.23301E+00   -0.38107E+00  2248   0.483E+00    0.258E+00
DAV:   8    -0.714874711233E+03   -0.94869E-01   -0.18061E-01  2176   0.170E+00    0.148E+00
DAV:   9    -0.714914692337E+03   -0.39981E-01   -0.81199E-02  1992   0.118E+00    0.322E-01
DAV:  10    -0.714915522188E+03   -0.82985E-03   -0.48262E-03  2600   0.320E-01    0.183E-01
DAV:  11    -0.714917013320E+03   -0.14911E-02   -0.16610E-03  1984   0.165E-01    0.657E-02
DAV:  12    -0.714917098061E+03   -0.84741E-04   -0.43958E-04  2192   0.907E-02    0.223E-02
DAV:  13    -0.714917092901E+03    0.51604E-05   -0.42748E-05  2192   0.258E-02    0.727E-03
DAV:  14    -0.714917106531E+03   -0.13630E-04   -0.32504E-06  1824   0.599E-03    0.207E-03
DAV:  15    -0.714917111576E+03   -0.50447E-05   -0.63325E-07  1240   0.343E-03    0.939E-04
DAV:  16    -0.714917107794E+03    0.37811E-05   -0.15229E-07  1240   0.217E-03    0.517E-04
DAV:  17    -0.714917106723E+03    0.10715E-05   -0.41139E-08  1144   0.989E-04    0.425E-04
DAV:  18    -0.714917106727E+03   -0.46120E-08   -0.17021E-08  1120   0.712E-04
   1 F= -.71491711E+03 E0= -.71491711E+03  d E =-.994399E-38
