<?xml version="1.0" encoding="ISO-8859-1"?>
<modeling>
 <generator>
  <i name="program" type="string">vasp </i>
  <i name="version" type="string">5.4.4.18Apr17-6-g9f103f2a35  </i>
  <i name="subversion" type="string">(build Jun 29 2021 14:23:36) complex            parallel </i>
  <i name="platform" type="string">tx2_gcc-7.3_libsci-18.07_cray-fftw-3.3.8 </i>
  <i name="date" type="string">2021 09 21 </i>
  <i name="time" type="string">08:28:56 </i>
 </generator>
 <incar>
  <i type="string" name="SYSTEM"> CsPbBr3 cubic bulk</i>
  <i type="string" name="PREC">accurate</i>
  <i type="string" name="ALGO"> Normal   ! Electronic minimisation algo</i>
  <i type="logical" name="ADDGRID"> T  </i>
  <i type="int" name="NELM">   200</i>
  <i type="int" name="IBRION">     2</i>
  <i name="EDIFF">      0.00000100</i>
  <i name="EDIFFG">     -0.01000000</i>
  <i type="int" name="NSW">     0</i>
  <i type="int" name="ISIF">     3</i>
  <i type="int" name="ISYM">     2</i>
  <i name="ENCUT">    300.00000000</i>
  <i name="POTIM">      0.50000000</i>
  <i type="string" name="LREAL"> AUTO</i>
  <i type="int" name="ISMEAR">     0</i>
  <i name="SIGMA">      0.01000000</i>
  <i name="PSTRESS">      0.00000000</i>
  <i type="logical" name="LWAVE"> F  </i>
  <i type="logical" name="LCHARG"> F  </i>
  <i type="logical" name="LVHAR"> T  </i>
  <i type="int" name="LORBIT">    10</i>
  <i type="logical" name="LASPH"> T  </i>
  <v type="int" name="KPOINT_BSE">    -1     0     0     0</v>
  <i type="int" name="NELM">   200</i>
  <i type="string" name="METAGGA"> SCAN       ! PBE exchange-correlation</i>
  <i type="logical" name="LASPH"> T  </i>
 </incar>
 <structure name="primitive_cell" >
  <crystal>
   <varray name="basis" >
    <v>       8.43303355       0.00000000       0.00000000 </v>
    <v>       0.00000000      11.88144586       0.00000000 </v>
    <v>       0.00000000       0.00000000       8.00059315 </v>
   </varray>
   <i name="volume">    801.63248445 </i>
   <varray name="rec_basis" >
    <v>       0.11858129       0.00000000       0.00000000 </v>
    <v>       0.00000000       0.08416484       0.00000000 </v>
    <v>       0.00000000       0.00000000       0.12499073 </v>
   </varray>
  </crystal>
  <varray name="positions" >
   <v>       0.06566404       0.25000000       0.47910671 </v>
   <v>      -0.19814970       0.03301978       0.30717695 </v>
   <v>      -0.19814970       0.46698022       0.30717695 </v>
   <v>       0.49659881       0.25000000      -0.43987340 </v>
   <v>      -0.00340119       0.25000000      -0.06012660 </v>
   <v>       0.19814970      -0.46698022      -0.30717695 </v>
   <v>       0.19814970      -0.03301978      -0.30717695 </v>
   <v>       0.30185030       0.46698022       0.19282305 </v>
   <v>       0.30185030       0.03301978       0.19282305 </v>
   <v>      -0.50000000       0.00000000      -0.50000000 </v>
   <v>      -0.50000000      -0.50000000      -0.50000000 </v>
   <v>       0.00000000       0.00000000       0.00000000 </v>
   <v>       0.00000000      -0.50000000       0.00000000 </v>
   <v>      -0.30185030      -0.03301978      -0.19282305 </v>
   <v>      -0.30185030      -0.46698022      -0.19282305 </v>
   <v>      -0.43433596       0.25000000       0.02089329 </v>
   <v>      -0.06566404      -0.25000000      -0.47910671 </v>
   <v>       0.00340119      -0.25000000       0.06012660 </v>
   <v>      -0.49659881      -0.25000000       0.43987340 </v>
   <v>       0.43433596      -0.25000000      -0.02089329 </v>
  </varray>
 </structure>
 <varray name="primitive_index" >
  <v type="int" >        1 </v>
  <v type="int" >       15 </v>
  <v type="int" >       20 </v>
  <v type="int" >       12 </v>
  <v type="int" >       10 </v>
  <v type="int" >       14 </v>
  <v type="int" >       18 </v>
  <v type="int" >       13 </v>
  <v type="int" >       17 </v>
  <v type="int" >        6 </v>
  <v type="int" >        7 </v>
  <v type="int" >        5 </v>
  <v type="int" >        8 </v>
  <v type="int" >       16 </v>
  <v type="int" >       19 </v>
  <v type="int" >        3 </v>
  <v type="int" >        4 </v>
  <v type="int" >       11 </v>
  <v type="int" >        9 </v>
  <v type="int" >        2 </v>
 </varray>
 <kpoints>
  <generation param="Gamma">
   <v type="int" name="divisions">       3        2        3 </v>
   <v name="usershift">      0.00000000       0.00000000       0.00000000 </v>
   <v name="genvec1">      0.33333333       0.00000000       0.00000000 </v>
   <v name="genvec2">      0.00000000       0.50000000       0.00000000 </v>
   <v name="genvec3">      0.00000000       0.00000000       0.33333333 </v>
   <v name="shift">      0.00000000       0.00000000       0.00000000 </v>
  </generation>
  <varray name="kpointlist" >
   <v>       0.00000000       0.00000000       0.00000000 </v>
   <v>       0.33333333       0.00000000       0.00000000 </v>
   <v>       0.00000000       0.50000000       0.00000000 </v>
   <v>       0.33333333       0.50000000       0.00000000 </v>
   <v>       0.00000000       0.00000000       0.33333333 </v>
   <v>       0.33333333       0.00000000       0.33333333 </v>
   <v>       0.00000000       0.50000000       0.33333333 </v>
   <v>       0.33333333       0.50000000       0.33333333 </v>
  </varray>
  <varray name="weights" >
   <v>       0.05555556 </v>
   <v>       0.11111111 </v>
   <v>       0.05555556 </v>
   <v>       0.11111111 </v>
   <v>       0.11111111 </v>
   <v>       0.22222222 </v>
   <v>       0.11111111 </v>
   <v>       0.22222222 </v>
  </varray>
 </kpoints>
 <parameters>
  <separator name="general" >
   <i type="string" name="SYSTEM">CsPbBr3 cubic bulk</i>
   <i type="logical" name="LCOMPAT"> F  </i>
  </separator>
  <separator name="electronic" >
   <i type="string" name="PREC">accura</i>
   <i name="ENMAX">    300.00000000</i>
   <i name="ENAUG">    503.85200000</i>
   <i name="EDIFF">      0.00000100</i>
   <i type="int" name="IALGO">    38</i>
   <i type="int" name="IWAVPR">    10</i>
   <i type="int" name="NBANDS">   112</i>
   <i name="NELECT">    176.00000000</i>
   <i type="int" name="TURBO">     0</i>
   <i type="int" name="IRESTART">     0</i>
   <i type="int" name="NREBOOT">     0</i>
   <i type="int" name="NMIN">     0</i>
   <i name="EREF">      0.00000000</i>
   <separator name="electronic smearing" >
    <i type="int" name="ISMEAR">     0</i>
    <i name="SIGMA">      0.01000000</i>
    <i name="KSPACING">      0.50000000</i>
    <i type="logical" name="KGAMMA"> T  </i>
   </separator>
   <separator name="electronic projectors" >
    <i type="logical" name="LREAL"> T  </i>
    <v name="ROPT">     -0.00025000     -0.00025000     -0.00025000</v>
    <i type="int" name="LMAXPAW">  -100</i>
    <i type="int" name="LMAXMIX">     2</i>
    <i type="logical" name="NLSPLINE"> F  </i>
   </separator>
   <separator name="electronic startup" >
    <i type="int" name="ISTART">     0</i>
    <i type="int" name="ICHARG">     2</i>
    <i type="int" name="INIWAV">     1</i>
   </separator>
   <separator name="electronic spin" >
    <i type="int" name="ISPIN">     1</i>
    <i type="logical" name="LNONCOLLINEAR"> F  </i>
    <v name="MAGMOM">      1.00000000      1.00000000      1.00000000      1.00000000      1.00000000      1.00000000      1.00000000      1.00000000      1.00000000      1.00000000      1.00000000      1.00000000      1.00000000      1.00000000      1.00000000      1.00000000      1.00000000      1.00000000      1.00000000      1.00000000
</v>
    <i name="NUPDOWN">     -1.00000000</i>
    <i type="logical" name="LSORBIT"> F  </i>
    <v name="SAXIS">      0.00000000      0.00000000      1.00000000</v>
    <i type="logical" name="LSPIRAL"> F  </i>
    <v name="QSPIRAL">      0.00000000      0.00000000      0.00000000</v>
    <i type="logical" name="LZEROZ"> F  </i>
   </separator>
   <separator name="electronic exchange-correlation" >
    <i type="logical" name="LASPH"> T  </i>
    <i type="logical" name="LMETAGGA"> F  </i>
   </separator>
   <separator name="electronic convergence" >
    <i type="int" name="NELM">   200</i>
    <i type="int" name="NELMDL">    -5</i>
    <i type="int" name="NELMIN">     2</i>
    <i name="ENINI">    300.00000000</i>
    <separator name="electronic convergence detail" >
     <i type="logical" name="LDIAG"> T  </i>
     <i type="logical" name="LSUBROT"> F  </i>
     <i name="WEIMIN">      0.00000000</i>
     <i name="EBREAK">      0.00000000</i>
     <i name="DEPER">      0.30000000</i>
     <i type="int" name="NRMM">     4</i>
     <i name="TIME">      0.40000000</i>
    </separator>
   </separator>
   <separator name="electronic mixer" >
    <i name="AMIX">      0.40000000</i>
    <i name="BMIX">      1.00000000</i>
    <i name="AMIN">      0.10000000</i>
    <i name="AMIX_MAG">      1.60000000</i>
    <i name="BMIX_MAG">      1.00000000</i>
    <separator name="electronic mixer details" >
     <i type="int" name="IMIX">     4</i>
     <i type="logical" name="MIXFIRST"> F  </i>
     <i type="int" name="MAXMIX">   -45</i>
     <i name="WC">    100.00000000</i>
     <i type="int" name="INIMIX">     1</i>
     <i type="int" name="MIXPRE">     1</i>
     <i type="int" name="MREMOVE">     5</i>
    </separator>
   </separator>
   <separator name="electronic dipolcorrection" >
    <i type="logical" name="LDIPOL"> F  </i>
    <i type="logical" name="LMONO"> F  </i>
    <i type="int" name="IDIPOL">     0</i>
    <i name="EPSILON">      1.00000000</i>
    <v name="DIPOL">   -100.00000000   -100.00000000   -100.00000000</v>
    <i name="EFIELD">      0.00000000</i>
   </separator>
  </separator>
  <separator name="grids" >
   <i type="int" name="NGX">    48</i>
   <i type="int" name="NGY">    70</i>
   <i type="int" name="NGZ">    48</i>
   <i type="int" name="NGXF">    96</i>
   <i type="int" name="NGYF">   140</i>
   <i type="int" name="NGZF">    96</i>
   <i type="logical" name="ADDGRID"> T  </i>
  </separator>
  <separator name="ionic" >
   <i type="int" name="NSW">     0</i>
   <i type="int" name="IBRION">    -1</i>
   <i type="int" name="MDALGO">     0</i>
   <i type="int" name="ISIF">     3</i>
   <i name="PSTRESS">      0.00000000</i>
   <i name="EDIFFG">     -0.01000000</i>
   <i type="int" name="NFREE">     1</i>
   <i name="POTIM">      0.50000000</i>
   <i name="SMASS">     -3.00000000</i>
   <i name="SCALEE">      1.00000000</i>
  </separator>
  <separator name="ionic md" >
   <i name="TEBEG">      0.00010000</i>
   <i name="TEEND">      0.00010000</i>
   <i type="int" name="NBLOCK">     1</i>
   <i type="int" name="KBLOCK">     1</i>
   <i type="int" name="NPACO">   256</i>
   <i name="APACO">     16.00000000</i>
  </separator>
  <separator name="symmetry" >
   <i type="int" name="ISYM">     2</i>
   <i name="SYMPREC">      0.00001000</i>
  </separator>
  <separator name="dos" >
   <i type="int" name="LORBIT">    10</i>
   <v name="RWIGS">     -1.00000000     -1.00000000     -1.00000000</v>
   <i type="int" name="NEDOS">   301</i>
   <i name="EMIN">     10.00000000</i>
   <i name="EMAX">    -10.00000000</i>
   <i name="EFERMI">      0.00000000</i>
  </separator>
  <separator name="writing" >
   <i type="int" name="NWRITE">     2</i>
   <i type="logical" name="LWAVE"> F  </i>
   <i type="logical" name="LDOWNSAMPLE"> F  </i>
   <i type="logical" name="LCHARG"> F  </i>
   <i type="logical" name="LPARD"> F  </i>
   <i type="logical" name="LVTOT"> F  </i>
   <i type="logical" name="LVHAR"> T  </i>
   <i type="logical" name="LELF"> F  </i>
   <i type="logical" name="LOPTICS"> F  </i>
   <v name="STM">      0.00000000      0.00000000      0.00000000      0.00000000      0.00000000      0.00000000      0.00000000</v>
  </separator>
  <separator name="performance" >
   <i type="int" name="NPAR">     8</i>
   <i type="int" name="NSIM">     4</i>
   <i type="int" name="NBLK">    -1</i>
   <i type="logical" name="LPLANE"> T  </i>
   <i type="logical" name="LSCALAPACK"> T  </i>
   <i type="logical" name="LSCAAWARE"> F  </i>
   <i type="logical" name="LSCALU"> F  </i>
   <i type="logical" name="LASYNC"> F  </i>
   <i type="logical" name="LORBITALREAL"> F  </i>
  </separator>
  <separator name="miscellaneous" >
   <i type="int" name="IDIOT">     3</i>
   <i type="int" name="ISPECIAL">     0</i>
   <i type="logical" name="LMUSIC"> F  </i>
   <v name="POMASS">    132.90000000    207.20000000     79.90400000</v>
   <v name="DARWINR">      0.00000000      0.00000000      0.00000000</v>
   <v name="DARWINV">      1.00000000      1.00000000      1.00000000</v>
   <i type="logical" name="LCORR"> T  </i>
  </separator>
  <i type="logical" name="GGA_COMPAT"> T  </i>
  <i type="logical" name="LBERRY"> F  </i>
  <i type="int" name="ICORELEVEL">     0</i>
  <i type="logical" name="LDAU"> F  </i>
  <i type="int" name="I_CONSTRAINED_M">     0</i>
  <separator name="electronic exchange-correlation" >
   <i type="string" name="GGA">--</i>
   <i type="int" name="VOSKOWN">     0</i>
   <i type="logical" name="LHFCALC"> F  </i>
   <i type="string" name="PRECFOCK"></i>
   <i type="logical" name="LSYMGRAD"> F  </i>
   <i type="logical" name="LHFONE"> F  </i>
   <i type="logical" name="LRHFCALC"> F  </i>
   <i type="logical" name="LTHOMAS"> F  </i>
   <i type="logical" name="LMODELHF"> F  </i>
   <i name="ENCUT4O">     -1.00000000</i>
   <i type="int" name="EXXOEP">     0</i>
   <i type="int" name="FOURORBIT">     0</i>
   <i name="AEXX">      0.00000000</i>
   <i name="HFALPHA">      0.00000000</i>
   <i name="MCALPHA">      0.00000000</i>
   <i name="ALDAX">      1.00000000</i>
   <i name="AGGAX">      1.00000000</i>
   <i name="ALDAC">      1.00000000</i>
   <i name="AGGAC">      1.00000000</i>
   <i type="int" name="NKREDX">     1</i>
   <i type="int" name="NKREDY">     1</i>
   <i type="int" name="NKREDZ">     1</i>
   <i type="logical" name="SHIFTRED"> F  </i>
   <i type="logical" name="ODDONLY"> F  </i>
   <i type="logical" name="EVENONLY"> F  </i>
   <i type="int" name="LMAXFOCK">     0</i>
   <i type="int" name="NMAXFOCKAE">     0</i>
   <i type="logical" name="LFOCKAEDFT"> F  </i>
   <i name="HFSCREEN">      0.00000000</i>
   <i name="HFSCREENC">      0.00000000</i>
   <i type="int" name="NBANDSGWLOW">     0</i>
  </separator>
  <separator name="vdW DFT" >
   <i type="logical" name="LUSE_VDW"> F  </i>
   <i name="Zab_VDW">     -0.84910000</i>
   <i name="PARAM1">      0.12340000</i>
   <i name="PARAM2">      1.00000000</i>
   <i name="PARAM3">      0.00000000</i>
  </separator>
  <separator name="model GW" >
   <i type="int" name="MODEL_GW">     0</i>
   <i name="MODEL_EPS0">     24.04897453</i>
   <i name="MODEL_ALPHA">      1.00000000</i>
  </separator>
  <separator name="linear response parameters" >
   <i type="logical" name="LEPSILON"> F  </i>
   <i type="logical" name="LRPA"> F  </i>
   <i type="logical" name="LNABLA"> F  </i>
   <i type="logical" name="LVEL"> F  </i>
   <i type="int" name="KINTER">     0</i>
   <i name="CSHIFT">      0.10000000</i>
   <i name="OMEGAMAX">     -1.00000000</i>
   <i name="DEG_THRESHOLD">      0.00200000</i>
   <i name="RTIME">     -0.10000000</i>
   <i name="WPLASMAI">      0.00000000</i>
   <v name="DFIELD">      0.00000000      0.00000000      0.00000000</v>
   <v name="WPLASMA">      0.00000000      0.00000000      0.00000000      0.00000000      0.00000000      0.00000000      0.00000000      0.00000000      0.00000000</v>
  </separator>
  <separator name="orbital magnetization" >
   <i type="logical" name="NUCIND"> F  </i>
   <v name="MAGPOS">      0.00000000      0.00000000      0.00000000</v>
   <i type="logical" name="LNICSALL"> T  </i>
   <i type="logical" name="ORBITALMAG"> F  </i>
   <i type="logical" name="LMAGBLOCH"> F  </i>
   <i type="logical" name="LCHIMAG"> F  </i>
   <i type="logical" name="LGAUGE"> T  </i>
   <i type="int" name="MAGATOM">     0</i>
   <v name="MAGDIPOL">      0.00000000      0.00000000      0.00000000</v>
   <v name="AVECCONST">      0.00000000      0.00000000      0.00000000</v>
  </separator>
  <separator name="response functions" >
   <i type="logical" name="LADDER"> F  </i>
   <i type="logical" name="LRPAFORCE"> F  </i>
   <i type="logical" name="LFXC"> F  </i>
   <i type="logical" name="LHARTREE"> T  </i>
   <i type="int" name="IBSE">     0</i>
   <v type="int" name="KPOINT">    -1     0     0     0</v>
   <i type="logical" name="LTCTE"> F  </i>
   <i type="logical" name="LTETE"> F  </i>
   <i type="logical" name="LTRIPLET"> F  </i>
   <i type="logical" name="LFXCEPS"> F  </i>
   <i type="logical" name="LFXHEG"> F  </i>
   <i type="int" name="NATURALO">     2</i>
   <i type="logical" name="L2ORDER"> F  </i>
   <i type="logical" name="LMP2LT"> F  </i>
   <i type="logical" name="LUSEW"> F  </i>
   <i name="ENCUTGW">     -2.00000000</i>
   <i name="ENCUTGWSOFT">     -2.00000000</i>
   <i name="ENCUTLF">     -1.00000000</i>
   <i type="int" name="LMAXMP2">    -1</i>
   <i name="SCISSOR">      0.00000000</i>
   <i type="int" name="NOMEGA">     0</i>
   <i type="int" name="NOMEGAR">     0</i>
   <i type="int" name="NBANDSGW">    -1</i>
   <i type="int" name="NBANDSO">    -1</i>
   <i type="int" name="NBANDSV">    -1</i>
   <i type="int" name="NELM">   200</i>
   <i type="int" name="NELMHF">     1</i>
   <i type="int" name="DIM">     3</i>
   <i type="int" name="ANTIRES">     0</i>
   <i name="OMEGAMAX">    -30.00000000</i>
   <i name="OMEGAMIN">    -30.00000000</i>
   <i name="OMEGATL">   -200.00000000</i>
   <i type="int" name="OMEGAGRID">   140</i>
   <i name="CSHIFT">     -0.10000000</i>
   <i type="logical" name="SELFENERGY"> F  </i>
   <i type="logical" name="LSPECTRAL"> F  </i>
   <i type="logical" name="LSPECTRALGW"> F  </i>
   <i type="logical" name="LSINGLES"> F  </i>
   <i type="logical" name="LFERMIGW"> F  </i>
   <i type="logical" name="ODDONLYGW"> F  </i>
   <i type="logical" name="EVENONLYGW"> F  </i>
   <i type="int" name="NKREDLFX">     1</i>
   <i type="int" name="NKREDLFY">     1</i>
   <i type="int" name="NKREDLFZ">     1</i>
   <i type="int" name="MAXMEM">  2800</i>
   <i type="int" name="TELESCOPE">     0</i>
   <i type="int" name="TAUPAR">     1</i>
   <i type="int" name="OMEGAPAR">    -1</i>
   <i name="LAMBDA">      1.00000000</i>
  </separator>
  <separator name="External order field" >
   <i name="OFIELD_KAPPA">      0.00000000</i>
   <v name="OFIELD_K">      0.00000000      0.00000000      0.00000000</v>
   <i name="OFIELD_Q6_NEAR">      0.00000000</i>
   <i name="OFIELD_Q6_FAR">      0.00000000</i>
   <i name="OFIELD_A">      0.00000000</i>
  </separator>
 </parameters>
 <atominfo>
  <atoms>      20 </atoms>
  <types>       3 </types>
  <array name="atoms" >
   <dimension dim="1">ion</dimension>
   <field type="string">element</field>
   <field type="int">atomtype</field>
   <set>
    <rc><c>Cs</c><c>   1</c></rc>
    <rc><c>Cs</c><c>   1</c></rc>
    <rc><c>Cs</c><c>   1</c></rc>
    <rc><c>Cs</c><c>   1</c></rc>
    <rc><c>Pb</c><c>   2</c></rc>
    <rc><c>Pb</c><c>   2</c></rc>
    <rc><c>Pb</c><c>   2</c></rc>
    <rc><c>Pb</c><c>   2</c></rc>
    <rc><c>Br</c><c>   3</c></rc>
    <rc><c>Br</c><c>   3</c></rc>
    <rc><c>Br</c><c>   3</c></rc>
    <rc><c>Br</c><c>   3</c></rc>
    <rc><c>Br</c><c>   3</c></rc>
    <rc><c>Br</c><c>   3</c></rc>
    <rc><c>Br</c><c>   3</c></rc>
    <rc><c>Br</c><c>   3</c></rc>
    <rc><c>Br</c><c>   3</c></rc>
    <rc><c>Br</c><c>   3</c></rc>
    <rc><c>Br</c><c>   3</c></rc>
    <rc><c>Br</c><c>   3</c></rc>
   </set>
  </array>
  <array name="atomtypes" >
   <dimension dim="1">type</dimension>
   <field type="int">atomspertype</field>
   <field type="string">element</field>
   <field>mass</field>
   <field>valence</field>
   <field type="string">pseudopotential</field>
   <set>
    <rc><c>   4</c><c>Cs</c><c>    132.90000000</c><c>      9.00000000</c><c>  PAW_PBE Cs_sv 08Apr2002               </c></rc>
    <rc><c>   4</c><c>Pb</c><c>    207.20000000</c><c>     14.00000000</c><c>  PAW_PBE Pb_d 06Sep2000                </c></rc>
    <rc><c>  12</c><c>Br</c><c>     79.90400000</c><c>      7.00000000</c><c>  PAW_PBE Br 06Sep2000                  </c></rc>
   </set>
  </array>
 </atominfo>
 <structure name="initialpos" >
  <crystal>
   <varray name="basis" >
    <v>       8.43303355       0.00000000       0.00000000 </v>
    <v>       0.00000000      11.88144586       0.00000000 </v>
    <v>       0.00000000       0.00000000       8.00059315 </v>
   </varray>
   <i name="volume">    801.63248445 </i>
   <varray name="rec_basis" >
    <v>       0.11858129       0.00000000       0.00000000 </v>
    <v>       0.00000000       0.08416484       0.00000000 </v>
    <v>       0.00000000       0.00000000       0.12499073 </v>
   </varray>
  </crystal>
  <varray name="positions" >
   <v>       0.06566404       0.25000000       0.47910671 </v>
   <v>       0.43433596       0.75000000       0.97910671 </v>
   <v>       0.56566404       0.25000000       0.02089329 </v>
   <v>       0.93433596       0.75000000       0.52089329 </v>
   <v>       0.00000000       0.00000000       0.00000000 </v>
   <v>       0.50000000       0.00000000       0.50000000 </v>
   <v>       0.50000000       0.50000000       0.50000000 </v>
   <v>       0.00000000       0.50000000       0.00000000 </v>
   <v>       0.50340119       0.75000000       0.43987340 </v>
   <v>       0.99659881       0.25000000       0.93987340 </v>
   <v>       0.00340119       0.75000000       0.06012660 </v>
   <v>       0.49659881       0.25000000       0.56012660 </v>
   <v>       0.30185030       0.46698022       0.19282305 </v>
   <v>       0.19814970       0.53301978       0.69282305 </v>
   <v>       0.80185030       0.03301978       0.30717695 </v>
   <v>       0.69814970       0.96698022       0.80717695 </v>
   <v>       0.30185030       0.03301978       0.19282305 </v>
   <v>       0.19814970       0.96698022       0.69282305 </v>
   <v>       0.69814970       0.53301978       0.80717695 </v>
   <v>       0.80185030       0.46698022       0.30717695 </v>
  </varray>
 </structure>
 <calculation>
  <scstep>
   <time name="dav">    3.93    3.93</time>
   <time name="total">    5.14    5.16</time>
   <energy>
    <i name="alphaZ">    450.09270552 </i>
    <i name="ewald">  -9235.03797130 </i>
    <i name="hartreedc">  -3650.62273787 </i>
    <i name="XCdc">    461.95442721 </i>
    <i name="pawpsdc">  10816.98087266 </i>
    <i name="pawaedc"> -11353.96092700 </i>
    <i name="eentropy">     -0.00000000 </i>
    <i name="bandstr">   -114.37499593 </i>
    <i name="atom">  13290.28009929 </i>
    <i name="e_fr_energy">    665.31147258 </i>
    <i name="e_wo_entrp">    665.31147258 </i>
    <i name="e_0_energy">    665.31147258 </i>
   </energy>
  </scstep>
  <scstep>
   <time name="dav">    4.41    4.43</time>
   <time name="total">    4.41    4.43</time>
   <energy>
    <i name="e_fr_energy">   -574.17335242 </i>
    <i name="e_wo_entrp">   -574.17335242 </i>
    <i name="e_0_energy">   -574.17335242 </i>
   </energy>
  </scstep>
  <scstep>
   <time name="dav">    4.74    4.76</time>
   <time name="total">    4.74    4.76</time>
   <energy>
    <i name="e_fr_energy">   -748.81112859 </i>
    <i name="e_wo_entrp">   -748.81112859 </i>
    <i name="e_0_energy">   -748.81112859 </i>
   </energy>
  </scstep>
  <scstep>
   <time name="dav">    4.38    4.40</time>
   <time name="total">    4.38    4.41</time>
   <energy>
    <i name="e_fr_energy">   -754.55177489 </i>
    <i name="e_wo_entrp">   -754.55177489 </i>
    <i name="e_0_energy">   -754.55177489 </i>
   </energy>
  </scstep>
  <scstep>
   <time name="dav">    4.67    4.70</time>
   <time name="total">    5.53    5.55</time>
   <energy>
    <i name="e_fr_energy">   -754.81826515 </i>
    <i name="e_wo_entrp">   -754.81826515 </i>
    <i name="e_0_energy">   -754.81826515 </i>
   </energy>
  </scstep>
  <scstep>
   <time name="dav">    4.66    4.66</time>
   <time name="total">    6.72    6.76</time>
   <energy>
    <i name="e_fr_energy">   -715.01285442 </i>
    <i name="e_wo_entrp">   -715.01285442 </i>
    <i name="e_0_energy">   -715.01285442 </i>
   </energy>
  </scstep>
  <scstep>
   <time name="dav">    4.46    4.46</time>
   <time name="total">    6.52    6.56</time>
   <energy>
    <i name="e_fr_energy">   -714.77984225 </i>
    <i name="e_wo_entrp">   -714.77984225 </i>
    <i name="e_0_energy">   -714.77984225 </i>
   </energy>
  </scstep>
  <scstep>
   <time name="dav">    4.37    4.37</time>
   <time name="total">    6.43    6.46</time>
   <energy>
    <i name="e_fr_energy">   -714.87471123 </i>
    <i name="e_wo_entrp">   -714.87471123 </i>
    <i name="e_0_energy">   -714.87471123 </i>
   </energy>
  </scstep>
  <scstep>
   <time name="dav">    4.12    4.12</time>
   <time name="total">    6.18    6.21</time>
   <energy>
    <i name="e_fr_energy">   -714.91469234 </i>
    <i name="e_wo_entrp">   -714.91469234 </i>
    <i name="e_0_energy">   -714.91469234 </i>
   </energy>
  </scstep>
  <scstep>
   <time name="dav">    4.93    4.93</time>
   <time name="total">    6.99    7.04</time>
   <energy>
    <i name="e_fr_energy">   -714.91552219 </i>
    <i name="e_wo_entrp">   -714.91552219 </i>
    <i name="e_0_energy">   -714.91552219 </i>
   </energy>
  </scstep>
  <scstep>
   <time name="dav">    4.11    4.11</time>
   <time name="total">    6.18    6.20</time>
   <energy>
    <i name="e_fr_energy">   -714.91701332 </i>
    <i name="e_wo_entrp">   -714.91701332 </i>
    <i name="e_0_energy">   -714.91701332 </i>
   </energy>
  </scstep>
  <scstep>
   <time name="dav">    4.39    4.39</time>
   <time name="total">    6.44    6.49</time>
   <energy>
    <i name="e_fr_energy">   -714.91709806 </i>
    <i name="e_wo_entrp">   -714.91709806 </i>
    <i name="e_0_energy">   -714.91709806 </i>
   </energy>
  </scstep>
  <scstep>
   <time name="dav">    4.38    4.38</time>
   <time name="total">    6.46    6.46</time>
   <energy>
    <i name="e_fr_energy">   -714.91709290 </i>
    <i name="e_wo_entrp">   -714.91709290 </i>
    <i name="e_0_energy">   -714.91709290 </i>
   </energy>
  </scstep>
  <scstep>
   <time name="dav">    3.94    3.94</time>
   <time name="total">    5.99    6.03</time>
   <energy>
    <i name="e_fr_energy">   -714.91710653 </i>
    <i name="e_wo_entrp">   -714.91710653 </i>
    <i name="e_0_energy">   -714.91710653 </i>
   </energy>
  </scstep>
  <scstep>
   <time name="dav">    3.20    3.20</time>
   <time name="total">    5.25    5.27</time>
   <energy>
    <i name="e_fr_energy">   -714.91711158 </i>
    <i name="e_wo_entrp">   -714.91711158 </i>
    <i name="e_0_energy">   -714.91711158 </i>
   </energy>
  </scstep>
  <scstep>
   <time name="dav">    3.21    3.21</time>
   <time name="total">    5.26    5.30</time>
   <energy>
    <i name="e_fr_energy">   -714.91710779 </i>
    <i name="e_wo_entrp">   -714.91710779 </i>
    <i name="e_0_energy">   -714.91710779 </i>
   </energy>
  </scstep>
  <scstep>
   <time name="dav">    3.08    3.08</time>
   <time name="total">    5.13    5.17</time>
   <energy>
    <i name="e_fr_energy">   -714.91710672 </i>
    <i name="e_wo_entrp">   -714.91710672 </i>
    <i name="e_0_energy">   -714.91710672 </i>
   </energy>
  </scstep>
  <scstep>
   <time name="dav">    3.04    3.04</time>
   <time name="total">    4.29    4.30</time>
   <energy>
    <i name="alphaZ">    450.09270552 </i>
    <i name="ewald">  -9235.03797130 </i>
    <i name="hartreedc">  -3663.04205833 </i>
    <i name="XCdc">    481.38748680 </i>
    <i name="pawpsdc">  11538.85182047 </i>
    <i name="pawaedc"> -12074.85493505 </i>
    <i name="eentropy">     -0.00000000 </i>
    <i name="bandstr">  -1502.59425413 </i>
    <i name="atom">  13290.28009929 </i>
    <i name="e_fr_energy">   -714.91710673 </i>
    <i name="e_wo_entrp">   -714.91710673 </i>
    <i name="e_0_energy">   -714.91710673 </i>
   </energy>
  </scstep>
  <structure>
   <crystal>
    <varray name="basis" >
     <v>       8.43303355       0.00000000       0.00000000 </v>
     <v>       0.00000000      11.88144586       0.00000000 </v>
     <v>       0.00000000       0.00000000       8.00059315 </v>
    </varray>
    <i name="volume">    801.63248445 </i>
    <varray name="rec_basis" >
     <v>       0.11858129       0.00000000       0.00000000 </v>
     <v>       0.00000000       0.08416484       0.00000000 </v>
     <v>       0.00000000       0.00000000       0.12499073 </v>
    </varray>
   </crystal>
   <varray name="positions" >
    <v>       0.06566404       0.25000000       0.47910671 </v>
    <v>       0.43433596       0.75000000       0.97910671 </v>
    <v>       0.56566404       0.25000000       0.02089329 </v>
    <v>       0.93433596       0.75000000       0.52089329 </v>
    <v>       0.00000000       0.00000000       0.00000000 </v>
    <v>       0.50000000       0.00000000       0.50000000 </v>
    <v>       0.50000000       0.50000000       0.50000000 </v>
    <v>       0.00000000       0.50000000       0.00000000 </v>
    <v>       0.50340119       0.75000000       0.43987340 </v>
    <v>       0.99659881       0.25000000       0.93987340 </v>
    <v>       0.00340119       0.75000000       0.06012660 </v>
    <v>       0.49659881       0.25000000       0.56012660 </v>
    <v>       0.30185030       0.46698022       0.19282305 </v>
    <v>       0.19814970       0.53301978       0.69282305 </v>
    <v>       0.80185030       0.03301978       0.30717695 </v>
    <v>       0.69814970       0.96698022       0.80717695 </v>
    <v>       0.30185030       0.03301978       0.19282305 </v>
    <v>       0.19814970       0.96698022       0.69282305 </v>
    <v>       0.69814970       0.53301978       0.80717695 </v>
    <v>       0.80185030       0.46698022       0.30717695 </v>
   </varray>
  </structure>
  <varray name="forces" >
   <v>       0.00925625       0.00000000      -0.00012692 </v>
   <v>      -0.00925625       0.00000000      -0.00012692 </v>
   <v>       0.00925625      -0.00000000       0.00012692 </v>
   <v>      -0.00925625       0.00000000       0.00012692 </v>
   <v>       0.00000000       0.00000000       0.00000000 </v>
   <v>       0.00000000       0.00000000       0.00000000 </v>
   <v>       0.00000000       0.00000000      -0.00000000 </v>
   <v>       0.00000000       0.00000000      -0.00000000 </v>
   <v>       0.00682207       0.00000000      -0.01638829 </v>
   <v>      -0.00682207       0.00000000      -0.01638829 </v>
   <v>       0.00682207      -0.00000000       0.01638829 </v>
   <v>      -0.00682207       0.00000000       0.01638829 </v>
   <v>       0.00498708       0.00011296       0.00550515 </v>
   <v>      -0.00498708      -0.00011296       0.00550515 </v>
   <v>       0.00498708      -0.00011296      -0.00550515 </v>
   <v>      -0.00498708       0.00011296      -0.00550515 </v>
   <v>       0.00498708      -0.00011296       0.00550515 </v>
   <v>      -0.00498708       0.00011296       0.00550515 </v>
   <v>      -0.00498708      -0.00011296      -0.00550515 </v>
   <v>       0.00498708       0.00011296      -0.00550515 </v>
  </varray>
  <varray name="stress" >
   <v>      -1.43577784       0.00000000      -0.00000000 </v>
   <v>       0.00000000      -3.63452064       0.00000000 </v>
   <v>      -0.00000000       0.00000000      -1.52750628 </v>
  </varray>
  <energy>
   <i name="e_fr_energy">   -714.91710673 </i>
   <i name="e_wo_entrp">   -714.91710673 </i>
   <i name="e_0_energy">     -0.00000000 </i>
  </energy>
  <time name="totalsc">  117.36  117.95</time>
  <eigenvalues>
   <array>
    <dimension dim="1">band</dimension>
    <dimension dim="2">kpoint</dimension>
    <dimension dim="3">spin</dimension>
    <field>eigene</field>
    <field>occ</field>
    <set>
     <set comment="spin 1">
      <set comment="kpoint 1">
       <r>  -20.7643    1.0000 </r>
       <r>  -20.7626    1.0000 </r>
       <r>  -20.7603    1.0000 </r>
       <r>  -20.7592    1.0000 </r>
       <r>  -16.4562    1.0000 </r>
       <r>  -16.4522    1.0000 </r>
       <r>  -16.4521    1.0000 </r>
       <r>  -16.4292    1.0000 </r>
       <r>  -16.4037    1.0000 </r>
       <r>  -16.3711    1.0000 </r>
       <r>  -16.3635    1.0000 </r>
       <r>  -16.3635    1.0000 </r>
       <r>  -16.3048    1.0000 </r>
       <r>  -16.3043    1.0000 </r>
       <r>  -16.3038    1.0000 </r>
       <r>  -16.3033    1.0000 </r>
       <r>  -16.3014    1.0000 </r>
       <r>  -16.3008    1.0000 </r>
       <r>  -16.3003    1.0000 </r>
       <r>  -16.3000    1.0000 </r>
       <r>  -16.2914    1.0000 </r>
       <r>  -16.2911    1.0000 </r>
       <r>  -16.2900    1.0000 </r>
       <r>  -16.2898    1.0000 </r>
       <r>  -14.3171    1.0000 </r>
       <r>  -14.1495    1.0000 </r>
       <r>  -14.0047    1.0000 </r>
       <r>  -13.9945    1.0000 </r>
       <r>  -13.9900    1.0000 </r>
       <r>  -13.9810    1.0000 </r>
       <r>  -13.9717    1.0000 </r>
       <r>  -13.9688    1.0000 </r>
       <r>  -13.9273    1.0000 </r>
       <r>  -13.7245    1.0000 </r>
       <r>  -13.7239    1.0000 </r>
       <r>  -13.7221    1.0000 </r>
       <r>   -8.1455    1.0000 </r>
       <r>   -7.6651    1.0000 </r>
       <r>   -7.2118    1.0000 </r>
       <r>   -7.1967    1.0000 </r>
       <r>   -7.1948    1.0000 </r>
       <r>   -7.1801    1.0000 </r>
       <r>   -7.1709    1.0000 </r>
       <r>   -7.1698    1.0000 </r>
       <r>   -7.1627    1.0000 </r>
       <r>   -7.1556    1.0000 </r>
       <r>   -7.1489    1.0000 </r>
       <r>   -7.1473    1.0000 </r>
       <r>   -7.1414    1.0000 </r>
       <r>   -7.1307    1.0000 </r>
       <r>   -7.0959    1.0000 </r>
       <r>   -6.5277    1.0000 </r>
       <r>   -3.2712    1.0000 </r>
       <r>   -3.2598    1.0000 </r>
       <r>   -3.2316    1.0000 </r>
       <r>   -3.1409    1.0000 </r>
       <r>   -3.1367    1.0000 </r>
       <r>   -3.0271    1.0000 </r>
       <r>   -2.1267    1.0000 </r>
       <r>   -1.9052    1.0000 </r>
       <r>   -1.8740    1.0000 </r>
       <r>   -1.8308    1.0000 </r>
       <r>   -1.8266    1.0000 </r>
       <r>   -1.7065    1.0000 </r>
       <r>   -1.5898    1.0000 </r>
       <r>   -1.5098    1.0000 </r>
       <r>   -1.4965    1.0000 </r>
       <r>   -1.4928    1.0000 </r>
       <r>   -1.4014    1.0000 </r>
       <r>   -1.3975    1.0000 </r>
       <r>   -1.3926    1.0000 </r>
       <r>   -1.3731    1.0000 </r>
       <r>   -1.3521    1.0000 </r>
       <r>   -1.3420    1.0000 </r>
       <r>   -1.3004    1.0000 </r>
       <r>   -1.2928    1.0000 </r>
       <r>   -1.2907    1.0000 </r>
       <r>   -1.1459    1.0000 </r>
       <r>   -1.1177    1.0000 </r>
       <r>   -1.1004    1.0000 </r>
       <r>   -1.0606    1.0000 </r>
       <r>   -1.0355    1.0000 </r>
       <r>   -0.9935    1.0000 </r>
       <r>   -0.9533    1.0000 </r>
       <r>   -0.7917    1.0000 </r>
       <r>   -0.6068    1.0000 </r>
       <r>   -0.1243    1.0000 </r>
       <r>    0.4494    1.0000 </r>
       <r>    2.7331    0.0000 </r>
       <r>    2.7582    0.0000 </r>
       <r>    2.9381    0.0000 </r>
       <r>    3.1606    0.0000 </r>
       <r>    3.3725    0.0000 </r>
       <r>    3.4679    0.0000 </r>
       <r>    4.9237    0.0000 </r>
       <r>    5.6258    0.0000 </r>
       <r>    5.8861    0.0000 </r>
       <r>    5.8906    0.0000 </r>
       <r>    6.0094    0.0000 </r>
       <r>    6.0512    0.0000 </r>
       <r>    6.1803    0.0000 </r>
       <r>    6.1868    0.0000 </r>
       <r>    6.3191    0.0000 </r>
       <r>    6.4134    0.0000 </r>
       <r>    6.4939    0.0000 </r>
       <r>    6.5097    0.0000 </r>
       <r>    6.5945    0.0000 </r>
       <r>    6.7502    0.0000 </r>
       <r>    6.8890    0.0000 </r>
       <r>    6.9699    0.0000 </r>
       <r>    6.9900    0.0000 </r>
       <r>    7.0823    0.0000 </r>
      </set>
      <set comment="kpoint 2">
       <r>  -20.7633    1.0000 </r>
       <r>  -20.7617    1.0000 </r>
       <r>  -20.7612    1.0000 </r>
       <r>  -20.7600    1.0000 </r>
       <r>  -16.4493    1.0000 </r>
       <r>  -16.4359    1.0000 </r>
       <r>  -16.4311    1.0000 </r>
       <r>  -16.4310    1.0000 </r>
       <r>  -16.3953    1.0000 </r>
       <r>  -16.3868    1.0000 </r>
       <r>  -16.3868    1.0000 </r>
       <r>  -16.3790    1.0000 </r>
       <r>  -16.3046    1.0000 </r>
       <r>  -16.3044    1.0000 </r>
       <r>  -16.3037    1.0000 </r>
       <r>  -16.3033    1.0000 </r>
       <r>  -16.3012    1.0000 </r>
       <r>  -16.3006    1.0000 </r>
       <r>  -16.3006    1.0000 </r>
       <r>  -16.3000    1.0000 </r>
       <r>  -16.2911    1.0000 </r>
       <r>  -16.2908    1.0000 </r>
       <r>  -16.2903    1.0000 </r>
       <r>  -16.2902    1.0000 </r>
       <r>  -14.2686    1.0000 </r>
       <r>  -14.1382    1.0000 </r>
       <r>  -14.1133    1.0000 </r>
       <r>  -14.0360    1.0000 </r>
       <r>  -13.9870    1.0000 </r>
       <r>  -13.9839    1.0000 </r>
       <r>  -13.9113    1.0000 </r>
       <r>  -13.9066    1.0000 </r>
       <r>  -13.8220    1.0000 </r>
       <r>  -13.7865    1.0000 </r>
       <r>  -13.7834    1.0000 </r>
       <r>  -13.7467    1.0000 </r>
       <r>   -7.9347    1.0000 </r>
       <r>   -7.4549    1.0000 </r>
       <r>   -7.4511    1.0000 </r>
       <r>   -7.2152    1.0000 </r>
       <r>   -7.1863    1.0000 </r>
       <r>   -7.1841    1.0000 </r>
       <r>   -7.1721    1.0000 </r>
       <r>   -7.1679    1.0000 </r>
       <r>   -7.1615    1.0000 </r>
       <r>   -7.1511    1.0000 </r>
       <r>   -7.1478    1.0000 </r>
       <r>   -7.1359    1.0000 </r>
       <r>   -7.1338    1.0000 </r>
       <r>   -7.1309    1.0000 </r>
       <r>   -7.1189    1.0000 </r>
       <r>   -6.8752    1.0000 </r>
       <r>   -3.2046    1.0000 </r>
       <r>   -3.1042    1.0000 </r>
       <r>   -2.9441    1.0000 </r>
       <r>   -2.8257    1.0000 </r>
       <r>   -2.7248    1.0000 </r>
       <r>   -2.7039    1.0000 </r>
       <r>   -2.2179    1.0000 </r>
       <r>   -2.0845    1.0000 </r>
       <r>   -2.0660    1.0000 </r>
       <r>   -1.9566    1.0000 </r>
       <r>   -1.9544    1.0000 </r>
       <r>   -1.9192    1.0000 </r>
       <r>   -1.7786    1.0000 </r>
       <r>   -1.6603    1.0000 </r>
       <r>   -1.6352    1.0000 </r>
       <r>   -1.5937    1.0000 </r>
       <r>   -1.4273    1.0000 </r>
       <r>   -1.4087    1.0000 </r>
       <r>   -1.3923    1.0000 </r>
       <r>   -1.3754    1.0000 </r>
       <r>   -1.3312    1.0000 </r>
       <r>   -1.3221    1.0000 </r>
       <r>   -1.2943    1.0000 </r>
       <r>   -1.2795    1.0000 </r>
       <r>   -1.2093    1.0000 </r>
       <r>   -1.1864    1.0000 </r>
       <r>   -1.1734    1.0000 </r>
       <r>   -1.1332    1.0000 </r>
       <r>   -1.0894    1.0000 </r>
       <r>   -1.0754    1.0000 </r>
       <r>   -1.0034    1.0000 </r>
       <r>   -0.9763    1.0000 </r>
       <r>   -0.7733    1.0000 </r>
       <r>   -0.6318    1.0000 </r>
       <r>   -0.4879    1.0000 </r>
       <r>   -0.0729    1.0000 </r>
       <r>    2.9070    0.0000 </r>
       <r>    3.2604    0.0000 </r>
       <r>    3.5452    0.0000 </r>
       <r>    3.8127    0.0000 </r>
       <r>    3.8948    0.0000 </r>
       <r>    4.1820    0.0000 </r>
       <r>    5.0582    0.0000 </r>
       <r>    5.1978    0.0000 </r>
       <r>    5.2469    0.0000 </r>
       <r>    5.3729    0.0000 </r>
       <r>    5.7796    0.0000 </r>
       <r>    5.8336    0.0000 </r>
       <r>    6.1392    0.0000 </r>
       <r>    6.2307    0.0000 </r>
       <r>    6.4456    0.0000 </r>
       <r>    6.4543    0.0000 </r>
       <r>    6.4762    0.0000 </r>
       <r>    6.5015    0.0000 </r>
       <r>    6.5325    0.0000 </r>
       <r>    6.7424    0.0000 </r>
       <r>    6.9103    0.0000 </r>
       <r>    7.0655    0.0000 </r>
       <r>    7.1158    0.0000 </r>
       <r>    7.1665    0.0000 </r>
      </set>
      <set comment="kpoint 3">
       <r>  -20.7635    1.0000 </r>
       <r>  -20.7635    1.0000 </r>
       <r>  -20.7597    1.0000 </r>
       <r>  -20.7597    1.0000 </r>
       <r>  -16.4522    1.0000 </r>
       <r>  -16.4522    1.0000 </r>
       <r>  -16.4302    1.0000 </r>
       <r>  -16.4302    1.0000 </r>
       <r>  -16.4006    1.0000 </r>
       <r>  -16.4006    1.0000 </r>
       <r>  -16.3635    1.0000 </r>
       <r>  -16.3635    1.0000 </r>
       <r>  -16.3043    1.0000 </r>
       <r>  -16.3043    1.0000 </r>
       <r>  -16.3037    1.0000 </r>
       <r>  -16.3037    1.0000 </r>
       <r>  -16.3011    1.0000 </r>
       <r>  -16.3011    1.0000 </r>
       <r>  -16.3000    1.0000 </r>
       <r>  -16.3000    1.0000 </r>
       <r>  -16.2912    1.0000 </r>
       <r>  -16.2912    1.0000 </r>
       <r>  -16.2899    1.0000 </r>
       <r>  -16.2899    1.0000 </r>
       <r>  -14.2618    1.0000 </r>
       <r>  -14.2618    1.0000 </r>
       <r>  -13.9994    1.0000 </r>
       <r>  -13.9994    1.0000 </r>
       <r>  -13.9721    1.0000 </r>
       <r>  -13.9721    1.0000 </r>
       <r>  -13.9539    1.0000 </r>
       <r>  -13.9539    1.0000 </r>
       <r>  -13.8264    1.0000 </r>
       <r>  -13.8264    1.0000 </r>
       <r>  -13.7230    1.0000 </r>
       <r>  -13.7230    1.0000 </r>
       <r>   -7.9232    1.0000 </r>
       <r>   -7.9232    1.0000 </r>
       <r>   -7.2035    1.0000 </r>
       <r>   -7.2035    1.0000 </r>
       <r>   -7.1882    1.0000 </r>
       <r>   -7.1882    1.0000 </r>
       <r>   -7.1610    1.0000 </r>
       <r>   -7.1610    1.0000 </r>
       <r>   -7.1556    1.0000 </r>
       <r>   -7.1556    1.0000 </r>
       <r>   -7.1486    1.0000 </r>
       <r>   -7.1486    1.0000 </r>
       <r>   -7.1366    1.0000 </r>
       <r>   -7.1366    1.0000 </r>
       <r>   -6.8696    1.0000 </r>
       <r>   -6.8696    1.0000 </r>
       <r>   -3.2203    1.0000 </r>
       <r>   -3.2203    1.0000 </r>
       <r>   -3.1835    1.0000 </r>
       <r>   -3.1835    1.0000 </r>
       <r>   -2.4420    1.0000 </r>
       <r>   -2.4420    1.0000 </r>
       <r>   -2.2783    1.0000 </r>
       <r>   -2.2783    1.0000 </r>
       <r>   -2.0055    1.0000 </r>
       <r>   -2.0055    1.0000 </r>
       <r>   -1.7727    1.0000 </r>
       <r>   -1.7727    1.0000 </r>
       <r>   -1.7490    1.0000 </r>
       <r>   -1.7490    1.0000 </r>
       <r>   -1.4738    1.0000 </r>
       <r>   -1.4738    1.0000 </r>
       <r>   -1.4425    1.0000 </r>
       <r>   -1.4425    1.0000 </r>
       <r>   -1.3576    1.0000 </r>
       <r>   -1.3576    1.0000 </r>
       <r>   -1.3109    1.0000 </r>
       <r>   -1.3109    1.0000 </r>
       <r>   -1.2914    1.0000 </r>
       <r>   -1.2914    1.0000 </r>
       <r>   -1.1701    1.0000 </r>
       <r>   -1.1701    1.0000 </r>
       <r>   -1.1510    1.0000 </r>
       <r>   -1.1510    1.0000 </r>
       <r>   -1.0817    1.0000 </r>
       <r>   -1.0817    1.0000 </r>
       <r>   -1.0550    1.0000 </r>
       <r>   -1.0550    1.0000 </r>
       <r>   -0.8097    1.0000 </r>
       <r>   -0.8097    1.0000 </r>
       <r>    0.0048    1.0000 </r>
       <r>    0.0048    1.0000 </r>
       <r>    2.9668    0.0000 </r>
       <r>    2.9668    0.0000 </r>
       <r>    3.1529    0.0000 </r>
       <r>    3.1529    0.0000 </r>
       <r>    4.2699    0.0000 </r>
       <r>    4.2699    0.0000 </r>
       <r>    4.8385    0.0000 </r>
       <r>    4.8385    0.0000 </r>
       <r>    5.5626    0.0000 </r>
       <r>    5.5626    0.0000 </r>
       <r>    6.0265    0.0000 </r>
       <r>    6.0265    0.0000 </r>
       <r>    6.1248    0.0000 </r>
       <r>    6.1248    0.0000 </r>
       <r>    6.2439    0.0000 </r>
       <r>    6.2439    0.0000 </r>
       <r>    6.4241    0.0000 </r>
       <r>    6.4241    0.0000 </r>
       <r>    6.7350    0.0000 </r>
       <r>    6.7350    0.0000 </r>
       <r>    6.8798    0.0000 </r>
       <r>    6.8800    0.0000 </r>
       <r>    6.9951    0.0000 </r>
       <r>    7.0086    0.0000 </r>
      </set>
      <set comment="kpoint 4">
       <r>  -20.7625    1.0000 </r>
       <r>  -20.7625    1.0000 </r>
       <r>  -20.7606    1.0000 </r>
       <r>  -20.7606    1.0000 </r>
       <r>  -16.4311    1.0000 </r>
       <r>  -16.4311    1.0000 </r>
       <r>  -16.4226    1.0000 </r>
       <r>  -16.4226    1.0000 </r>
       <r>  -16.4078    1.0000 </r>
       <r>  -16.4078    1.0000 </r>
       <r>  -16.3869    1.0000 </r>
       <r>  -16.3869    1.0000 </r>
       <r>  -16.3042    1.0000 </r>
       <r>  -16.3042    1.0000 </r>
       <r>  -16.3039    1.0000 </r>
       <r>  -16.3039    1.0000 </r>
       <r>  -16.3009    1.0000 </r>
       <r>  -16.3009    1.0000 </r>
       <r>  -16.3003    1.0000 </r>
       <r>  -16.3003    1.0000 </r>
       <r>  -16.2910    1.0000 </r>
       <r>  -16.2910    1.0000 </r>
       <r>  -16.2903    1.0000 </r>
       <r>  -16.2903    1.0000 </r>
       <r>  -14.2187    1.0000 </r>
       <r>  -14.2187    1.0000 </r>
       <r>  -14.1079    1.0000 </r>
       <r>  -14.1079    1.0000 </r>
       <r>  -13.9102    1.0000 </r>
       <r>  -13.9102    1.0000 </r>
       <r>  -13.8816    1.0000 </r>
       <r>  -13.8816    1.0000 </r>
       <r>  -13.8375    1.0000 </r>
       <r>  -13.8375    1.0000 </r>
       <r>  -13.7849    1.0000 </r>
       <r>  -13.7849    1.0000 </r>
       <r>   -7.7111    1.0000 </r>
       <r>   -7.7111    1.0000 </r>
       <r>   -7.2476    1.0000 </r>
       <r>   -7.2476    1.0000 </r>
       <r>   -7.1865    1.0000 </r>
       <r>   -7.1865    1.0000 </r>
       <r>   -7.1853    1.0000 </r>
       <r>   -7.1853    1.0000 </r>
       <r>   -7.1562    1.0000 </r>
       <r>   -7.1562    1.0000 </r>
       <r>   -7.1463    1.0000 </r>
       <r>   -7.1463    1.0000 </r>
       <r>   -7.1420    1.0000 </r>
       <r>   -7.1420    1.0000 </r>
       <r>   -7.0923    1.0000 </r>
       <r>   -7.0923    1.0000 </r>
       <r>   -2.8885    1.0000 </r>
       <r>   -2.8885    1.0000 </r>
       <r>   -2.7937    1.0000 </r>
       <r>   -2.7937    1.0000 </r>
       <r>   -2.3948    1.0000 </r>
       <r>   -2.3948    1.0000 </r>
       <r>   -2.3509    1.0000 </r>
       <r>   -2.3509    1.0000 </r>
       <r>   -2.1430    1.0000 </r>
       <r>   -2.1430    1.0000 </r>
       <r>   -2.0220    1.0000 </r>
       <r>   -2.0220    1.0000 </r>
       <r>   -1.7065    1.0000 </r>
       <r>   -1.7065    1.0000 </r>
       <r>   -1.6433    1.0000 </r>
       <r>   -1.6433    1.0000 </r>
       <r>   -1.5287    1.0000 </r>
       <r>   -1.5287    1.0000 </r>
       <r>   -1.4718    1.0000 </r>
       <r>   -1.4718    1.0000 </r>
       <r>   -1.3556    1.0000 </r>
       <r>   -1.3556    1.0000 </r>
       <r>   -1.3144    1.0000 </r>
       <r>   -1.3144    1.0000 </r>
       <r>   -1.1168    1.0000 </r>
       <r>   -1.1168    1.0000 </r>
       <r>   -1.0994    1.0000 </r>
       <r>   -1.0994    1.0000 </r>
       <r>   -1.0701    1.0000 </r>
       <r>   -1.0701    1.0000 </r>
       <r>   -1.0545    1.0000 </r>
       <r>   -1.0545    1.0000 </r>
       <r>   -0.7734    1.0000 </r>
       <r>   -0.7734    1.0000 </r>
       <r>   -0.5241    1.0000 </r>
       <r>   -0.5241    1.0000 </r>
       <r>    3.7103    0.0000 </r>
       <r>    3.7103    0.0000 </r>
       <r>    3.9684    0.0000 </r>
       <r>    3.9684    0.0000 </r>
       <r>    4.4153    0.0000 </r>
       <r>    4.4153    0.0000 </r>
       <r>    4.6765    0.0000 </r>
       <r>    4.6765    0.0000 </r>
       <r>    5.1917    0.0000 </r>
       <r>    5.1917    0.0000 </r>
       <r>    5.3212    0.0000 </r>
       <r>    5.3212    0.0000 </r>
       <r>    6.0719    0.0000 </r>
       <r>    6.0719    0.0000 </r>
       <r>    6.3485    0.0000 </r>
       <r>    6.3485    0.0000 </r>
       <r>    6.6046    0.0000 </r>
       <r>    6.6046    0.0000 </r>
       <r>    6.6855    0.0000 </r>
       <r>    6.6855    0.0000 </r>
       <r>    6.7599    0.0000 </r>
       <r>    6.7599    0.0000 </r>
       <r>    6.9278    0.0000 </r>
       <r>    6.9279    0.0000 </r>
      </set>
      <set comment="kpoint 5">
       <r>  -20.7633    1.0000 </r>
       <r>  -20.7621    1.0000 </r>
       <r>  -20.7607    1.0000 </r>
       <r>  -20.7598    1.0000 </r>
       <r>  -16.4492    1.0000 </r>
       <r>  -16.4357    1.0000 </r>
       <r>  -16.4313    1.0000 </r>
       <r>  -16.4312    1.0000 </r>
       <r>  -16.3953    1.0000 </r>
       <r>  -16.3869    1.0000 </r>
       <r>  -16.3869    1.0000 </r>
       <r>  -16.3790    1.0000 </r>
       <r>  -16.3047    1.0000 </r>
       <r>  -16.3042    1.0000 </r>
       <r>  -16.3037    1.0000 </r>
       <r>  -16.3034    1.0000 </r>
       <r>  -16.3011    1.0000 </r>
       <r>  -16.3006    1.0000 </r>
       <r>  -16.3005    1.0000 </r>
       <r>  -16.3001    1.0000 </r>
       <r>  -16.2910    1.0000 </r>
       <r>  -16.2907    1.0000 </r>
       <r>  -16.2904    1.0000 </r>
       <r>  -16.2901    1.0000 </r>
       <r>  -14.2645    1.0000 </r>
       <r>  -14.1249    1.0000 </r>
       <r>  -14.1075    1.0000 </r>
       <r>  -14.0172    1.0000 </r>
       <r>  -13.9871    1.0000 </r>
       <r>  -13.9851    1.0000 </r>
       <r>  -13.9337    1.0000 </r>
       <r>  -13.9260    1.0000 </r>
       <r>  -13.8168    1.0000 </r>
       <r>  -13.7926    1.0000 </r>
       <r>  -13.7900    1.0000 </r>
       <r>  -13.7450    1.0000 </r>
       <r>   -7.9308    1.0000 </r>
       <r>   -7.4476    1.0000 </r>
       <r>   -7.4382    1.0000 </r>
       <r>   -7.1944    1.0000 </r>
       <r>   -7.1856    1.0000 </r>
       <r>   -7.1797    1.0000 </r>
       <r>   -7.1778    1.0000 </r>
       <r>   -7.1627    1.0000 </r>
       <r>   -7.1617    1.0000 </r>
       <r>   -7.1593    1.0000 </r>
       <r>   -7.1471    1.0000 </r>
       <r>   -7.1384    1.0000 </r>
       <r>   -7.1379    1.0000 </r>
       <r>   -7.1264    1.0000 </r>
       <r>   -7.1175    1.0000 </r>
       <r>   -6.8717    1.0000 </r>
       <r>   -3.2065    1.0000 </r>
       <r>   -3.1052    1.0000 </r>
       <r>   -2.9747    1.0000 </r>
       <r>   -2.8541    1.0000 </r>
       <r>   -2.7136    1.0000 </r>
       <r>   -2.6357    1.0000 </r>
       <r>   -2.2752    1.0000 </r>
       <r>   -2.0618    1.0000 </r>
       <r>   -2.0607    1.0000 </r>
       <r>   -1.9812    1.0000 </r>
       <r>   -1.9328    1.0000 </r>
       <r>   -1.8458    1.0000 </r>
       <r>   -1.7686    1.0000 </r>
       <r>   -1.6797    1.0000 </r>
       <r>   -1.5972    1.0000 </r>
       <r>   -1.5958    1.0000 </r>
       <r>   -1.4384    1.0000 </r>
       <r>   -1.4069    1.0000 </r>
       <r>   -1.4010    1.0000 </r>
       <r>   -1.3375    1.0000 </r>
       <r>   -1.2938    1.0000 </r>
       <r>   -1.2855    1.0000 </r>
       <r>   -1.2781    1.0000 </r>
       <r>   -1.2621    1.0000 </r>
       <r>   -1.2543    1.0000 </r>
       <r>   -1.2189    1.0000 </r>
       <r>   -1.1711    1.0000 </r>
       <r>   -1.1635    1.0000 </r>
       <r>   -1.1242    1.0000 </r>
       <r>   -1.0920    1.0000 </r>
       <r>   -1.0094    1.0000 </r>
       <r>   -0.9801    1.0000 </r>
       <r>   -0.8891    1.0000 </r>
       <r>   -0.6709    1.0000 </r>
       <r>   -0.5299    1.0000 </r>
       <r>   -0.1260    1.0000 </r>
       <r>    2.9062    0.0000 </r>
       <r>    3.2539    0.0000 </r>
       <r>    3.6590    0.0000 </r>
       <r>    3.6798    0.0000 </r>
       <r>    4.0439    0.0000 </r>
       <r>    4.0453    0.0000 </r>
       <r>    5.0854    0.0000 </r>
       <r>    5.1115    0.0000 </r>
       <r>    5.2745    0.0000 </r>
       <r>    5.4660    0.0000 </r>
       <r>    5.7455    0.0000 </r>
       <r>    5.7885    0.0000 </r>
       <r>    6.1070    0.0000 </r>
       <r>    6.1687    0.0000 </r>
       <r>    6.1767    0.0000 </r>
       <r>    6.4346    0.0000 </r>
       <r>    6.5549    0.0000 </r>
       <r>    6.6404    0.0000 </r>
       <r>    6.6920    0.0000 </r>
       <r>    6.8689    0.0000 </r>
       <r>    6.9242    0.0000 </r>
       <r>    6.9918    0.0000 </r>
       <r>    7.0124    0.0000 </r>
       <r>    7.0916    0.0000 </r>
      </set>
      <set comment="kpoint 6">
       <r>  -20.7627    1.0000 </r>
       <r>  -20.7618    1.0000 </r>
       <r>  -20.7611    1.0000 </r>
       <r>  -20.7603    1.0000 </r>
       <r>  -16.4549    1.0000 </r>
       <r>  -16.4457    1.0000 </r>
       <r>  -16.4306    1.0000 </r>
       <r>  -16.4122    1.0000 </r>
       <r>  -16.4113    1.0000 </r>
       <r>  -16.3917    1.0000 </r>
       <r>  -16.3809    1.0000 </r>
       <r>  -16.3689    1.0000 </r>
       <r>  -16.3046    1.0000 </r>
       <r>  -16.3044    1.0000 </r>
       <r>  -16.3037    1.0000 </r>
       <r>  -16.3036    1.0000 </r>
       <r>  -16.3009    1.0000 </r>
       <r>  -16.3008    1.0000 </r>
       <r>  -16.3004    1.0000 </r>
       <r>  -16.3001    1.0000 </r>
       <r>  -16.2908    1.0000 </r>
       <r>  -16.2906    1.0000 </r>
       <r>  -16.2905    1.0000 </r>
       <r>  -16.2903    1.0000 </r>
       <r>  -14.2148    1.0000 </r>
       <r>  -14.1157    1.0000 </r>
       <r>  -14.0686    1.0000 </r>
       <r>  -14.0048    1.0000 </r>
       <r>  -13.9979    1.0000 </r>
       <r>  -13.9874    1.0000 </r>
       <r>  -13.9778    1.0000 </r>
       <r>  -13.9377    1.0000 </r>
       <r>  -13.8933    1.0000 </r>
       <r>  -13.8441    1.0000 </r>
       <r>  -13.7476    1.0000 </r>
       <r>  -13.7146    1.0000 </r>
       <r>   -7.8027    1.0000 </r>
       <r>   -7.5594    1.0000 </r>
       <r>   -7.3131    1.0000 </r>
       <r>   -7.1843    1.0000 </r>
       <r>   -7.1780    1.0000 </r>
       <r>   -7.1712    1.0000 </r>
       <r>   -7.1652    1.0000 </r>
       <r>   -7.1617    1.0000 </r>
       <r>   -7.1546    1.0000 </r>
       <r>   -7.1473    1.0000 </r>
       <r>   -7.1444    1.0000 </r>
       <r>   -7.1429    1.0000 </r>
       <r>   -7.1346    1.0000 </r>
       <r>   -7.1276    1.0000 </r>
       <r>   -7.1174    1.0000 </r>
       <r>   -6.9895    1.0000 </r>
       <r>   -3.1975    1.0000 </r>
       <r>   -3.1682    1.0000 </r>
       <r>   -3.1659    1.0000 </r>
       <r>   -3.0206    1.0000 </r>
       <r>   -2.7869    1.0000 </r>
       <r>   -2.6476    1.0000 </r>
       <r>   -2.2029    1.0000 </r>
       <r>   -2.0763    1.0000 </r>
       <r>   -2.0477    1.0000 </r>
       <r>   -2.0367    1.0000 </r>
       <r>   -1.9531    1.0000 </r>
       <r>   -1.7071    1.0000 </r>
       <r>   -1.7038    1.0000 </r>
       <r>   -1.6311    1.0000 </r>
       <r>   -1.5074    1.0000 </r>
       <r>   -1.4841    1.0000 </r>
       <r>   -1.4205    1.0000 </r>
       <r>   -1.3929    1.0000 </r>
       <r>   -1.3709    1.0000 </r>
       <r>   -1.3637    1.0000 </r>
       <r>   -1.3609    1.0000 </r>
       <r>   -1.3220    1.0000 </r>
       <r>   -1.3044    1.0000 </r>
       <r>   -1.2598    1.0000 </r>
       <r>   -1.2384    1.0000 </r>
       <r>   -1.2332    1.0000 </r>
       <r>   -1.2186    1.0000 </r>
       <r>   -1.1935    1.0000 </r>
       <r>   -1.1639    1.0000 </r>
       <r>   -1.0937    1.0000 </r>
       <r>   -1.0360    1.0000 </r>
       <r>   -0.9943    1.0000 </r>
       <r>   -0.8159    1.0000 </r>
       <r>   -0.6362    1.0000 </r>
       <r>   -0.3771    1.0000 </r>
       <r>   -0.0837    1.0000 </r>
       <r>    2.9869    0.0000 </r>
       <r>    3.1153    0.0000 </r>
       <r>    3.1584    0.0000 </r>
       <r>    3.5009    0.0000 </r>
       <r>    3.9335    0.0000 </r>
       <r>    4.2691    0.0000 </r>
       <r>    4.8583    0.0000 </r>
       <r>    5.2767    0.0000 </r>
       <r>    5.5446    0.0000 </r>
       <r>    5.9564    0.0000 </r>
       <r>    5.9804    0.0000 </r>
       <r>    6.0046    0.0000 </r>
       <r>    6.1144    0.0000 </r>
       <r>    6.3695    0.0000 </r>
       <r>    6.4088    0.0000 </r>
       <r>    6.5816    0.0000 </r>
       <r>    6.6614    0.0000 </r>
       <r>    6.7065    0.0000 </r>
       <r>    6.7506    0.0000 </r>
       <r>    6.8285    0.0000 </r>
       <r>    6.9630    0.0000 </r>
       <r>    6.9911    0.0000 </r>
       <r>    7.1153    0.0000 </r>
       <r>    7.2198    0.0000 </r>
      </set>
      <set comment="kpoint 7">
       <r>  -20.7626    1.0000 </r>
       <r>  -20.7626    1.0000 </r>
       <r>  -20.7604    1.0000 </r>
       <r>  -20.7604    1.0000 </r>
       <r>  -16.4312    1.0000 </r>
       <r>  -16.4312    1.0000 </r>
       <r>  -16.4225    1.0000 </r>
       <r>  -16.4225    1.0000 </r>
       <r>  -16.4077    1.0000 </r>
       <r>  -16.4077    1.0000 </r>
       <r>  -16.3870    1.0000 </r>
       <r>  -16.3870    1.0000 </r>
       <r>  -16.3042    1.0000 </r>
       <r>  -16.3042    1.0000 </r>
       <r>  -16.3039    1.0000 </r>
       <r>  -16.3039    1.0000 </r>
       <r>  -16.3008    1.0000 </r>
       <r>  -16.3008    1.0000 </r>
       <r>  -16.3003    1.0000 </r>
       <r>  -16.3003    1.0000 </r>
       <r>  -16.2908    1.0000 </r>
       <r>  -16.2908    1.0000 </r>
       <r>  -16.2902    1.0000 </r>
       <r>  -16.2902    1.0000 </r>
       <r>  -14.2146    1.0000 </r>
       <r>  -14.2146    1.0000 </r>
       <r>  -14.0949    1.0000 </r>
       <r>  -14.0949    1.0000 </r>
       <r>  -13.9305    1.0000 </r>
       <r>  -13.9305    1.0000 </r>
       <r>  -13.8771    1.0000 </r>
       <r>  -13.8771    1.0000 </r>
       <r>  -13.8355    1.0000 </r>
       <r>  -13.8355    1.0000 </r>
       <r>  -13.7915    1.0000 </r>
       <r>  -13.7915    1.0000 </r>
       <r>   -7.7070    1.0000 </r>
       <r>   -7.7070    1.0000 </r>
       <r>   -7.2253    1.0000 </r>
       <r>   -7.2253    1.0000 </r>
       <r>   -7.1958    1.0000 </r>
       <r>   -7.1958    1.0000 </r>
       <r>   -7.1708    1.0000 </r>
       <r>   -7.1708    1.0000 </r>
       <r>   -7.1502    1.0000 </r>
       <r>   -7.1502    1.0000 </r>
       <r>   -7.1475    1.0000 </r>
       <r>   -7.1475    1.0000 </r>
       <r>   -7.1279    1.0000 </r>
       <r>   -7.1279    1.0000 </r>
       <r>   -7.1206    1.0000 </r>
       <r>   -7.1206    1.0000 </r>
       <r>   -2.9192    1.0000 </r>
       <r>   -2.9192    1.0000 </r>
       <r>   -2.7584    1.0000 </r>
       <r>   -2.7584    1.0000 </r>
       <r>   -2.4096    1.0000 </r>
       <r>   -2.4096    1.0000 </r>
       <r>   -2.3514    1.0000 </r>
       <r>   -2.3514    1.0000 </r>
       <r>   -2.1768    1.0000 </r>
       <r>   -2.1768    1.0000 </r>
       <r>   -1.9928    1.0000 </r>
       <r>   -1.9928    1.0000 </r>
       <r>   -1.6792    1.0000 </r>
       <r>   -1.6792    1.0000 </r>
       <r>   -1.6343    1.0000 </r>
       <r>   -1.6343    1.0000 </r>
       <r>   -1.4952    1.0000 </r>
       <r>   -1.4952    1.0000 </r>
       <r>   -1.4328    1.0000 </r>
       <r>   -1.4328    1.0000 </r>
       <r>   -1.3099    1.0000 </r>
       <r>   -1.3099    1.0000 </r>
       <r>   -1.3077    1.0000 </r>
       <r>   -1.3077    1.0000 </r>
       <r>   -1.1618    1.0000 </r>
       <r>   -1.1618    1.0000 </r>
       <r>   -1.1126    1.0000 </r>
       <r>   -1.1126    1.0000 </r>
       <r>   -1.1010    1.0000 </r>
       <r>   -1.1010    1.0000 </r>
       <r>   -1.0537    1.0000 </r>
       <r>   -1.0537    1.0000 </r>
       <r>   -0.8587    1.0000 </r>
       <r>   -0.8587    1.0000 </r>
       <r>   -0.5998    1.0000 </r>
       <r>   -0.5998    1.0000 </r>
       <r>    3.8209    0.0000 </r>
       <r>    3.8209    0.0000 </r>
       <r>    3.8493    0.0000 </r>
       <r>    3.8493    0.0000 </r>
       <r>    4.3976    0.0000 </r>
       <r>    4.3976    0.0000 </r>
       <r>    4.6900    0.0000 </r>
       <r>    4.6900    0.0000 </r>
       <r>    5.2069    0.0000 </r>
       <r>    5.2069    0.0000 </r>
       <r>    5.3059    0.0000 </r>
       <r>    5.3059    0.0000 </r>
       <r>    6.0688    0.0000 </r>
       <r>    6.0688    0.0000 </r>
       <r>    6.2972    0.0000 </r>
       <r>    6.2972    0.0000 </r>
       <r>    6.5168    0.0000 </r>
       <r>    6.5168    0.0000 </r>
       <r>    6.6512    0.0000 </r>
       <r>    6.6512    0.0000 </r>
       <r>    6.8721    0.0000 </r>
       <r>    6.8721    0.0000 </r>
       <r>    7.0953    0.0000 </r>
       <r>    7.0953    0.0000 </r>
      </set>
      <set comment="kpoint 8">
       <r>  -20.7620    1.0000 </r>
       <r>  -20.7620    1.0000 </r>
       <r>  -20.7610    1.0000 </r>
       <r>  -20.7610    1.0000 </r>
       <r>  -16.4385    1.0000 </r>
       <r>  -16.4385    1.0000 </r>
       <r>  -16.4249    1.0000 </r>
       <r>  -16.4249    1.0000 </r>
       <r>  -16.4007    1.0000 </r>
       <r>  -16.4007    1.0000 </r>
       <r>  -16.3847    1.0000 </r>
       <r>  -16.3847    1.0000 </r>
       <r>  -16.3041    1.0000 </r>
       <r>  -16.3041    1.0000 </r>
       <r>  -16.3040    1.0000 </r>
       <r>  -16.3040    1.0000 </r>
       <r>  -16.3007    1.0000 </r>
       <r>  -16.3007    1.0000 </r>
       <r>  -16.3004    1.0000 </r>
       <r>  -16.3004    1.0000 </r>
       <r>  -16.2907    1.0000 </r>
       <r>  -16.2907    1.0000 </r>
       <r>  -16.2904    1.0000 </r>
       <r>  -16.2904    1.0000 </r>
       <r>  -14.1691    1.0000 </r>
       <r>  -14.1691    1.0000 </r>
       <r>  -14.0781    1.0000 </r>
       <r>  -14.0781    1.0000 </r>
       <r>  -13.9966    1.0000 </r>
       <r>  -13.9966    1.0000 </r>
       <r>  -13.9073    1.0000 </r>
       <r>  -13.9073    1.0000 </r>
       <r>  -13.8152    1.0000 </r>
       <r>  -13.8152    1.0000 </r>
       <r>  -13.7847    1.0000 </r>
       <r>  -13.7847    1.0000 </r>
       <r>   -7.5761    1.0000 </r>
       <r>   -7.5761    1.0000 </r>
       <r>   -7.3317    1.0000 </r>
       <r>   -7.3317    1.0000 </r>
       <r>   -7.1823    1.0000 </r>
       <r>   -7.1823    1.0000 </r>
       <r>   -7.1659    1.0000 </r>
       <r>   -7.1659    1.0000 </r>
       <r>   -7.1499    1.0000 </r>
       <r>   -7.1499    1.0000 </r>
       <r>   -7.1450    1.0000 </r>
       <r>   -7.1450    1.0000 </r>
       <r>   -7.1379    1.0000 </r>
       <r>   -7.1379    1.0000 </r>
       <r>   -7.1142    1.0000 </r>
       <r>   -7.1142    1.0000 </r>
       <r>   -3.1144    1.0000 </r>
       <r>   -3.1144    1.0000 </r>
       <r>   -2.7531    1.0000 </r>
       <r>   -2.7531    1.0000 </r>
       <r>   -2.4728    1.0000 </r>
       <r>   -2.4728    1.0000 </r>
       <r>   -2.3554    1.0000 </r>
       <r>   -2.3554    1.0000 </r>
       <r>   -2.1247    1.0000 </r>
       <r>   -2.1247    1.0000 </r>
       <r>   -1.9708    1.0000 </r>
       <r>   -1.9708    1.0000 </r>
       <r>   -1.7140    1.0000 </r>
       <r>   -1.7140    1.0000 </r>
       <r>   -1.6352    1.0000 </r>
       <r>   -1.6352    1.0000 </r>
       <r>   -1.4760    1.0000 </r>
       <r>   -1.4760    1.0000 </r>
       <r>   -1.3875    1.0000 </r>
       <r>   -1.3875    1.0000 </r>
       <r>   -1.3321    1.0000 </r>
       <r>   -1.3321    1.0000 </r>
       <r>   -1.2338    1.0000 </r>
       <r>   -1.2338    1.0000 </r>
       <r>   -1.2037    1.0000 </r>
       <r>   -1.2037    1.0000 </r>
       <r>   -1.1412    1.0000 </r>
       <r>   -1.1412    1.0000 </r>
       <r>   -1.0860    1.0000 </r>
       <r>   -1.0860    1.0000 </r>
       <r>   -1.0334    1.0000 </r>
       <r>   -1.0334    1.0000 </r>
       <r>   -0.7889    1.0000 </r>
       <r>   -0.7889    1.0000 </r>
       <r>   -0.5286    1.0000 </r>
       <r>   -0.5286    1.0000 </r>
       <r>    3.2989    0.0000 </r>
       <r>    3.2989    0.0000 </r>
       <r>    4.0809    0.0000 </r>
       <r>    4.0809    0.0000 </r>
       <r>    4.4669    0.0000 </r>
       <r>    4.4669    0.0000 </r>
       <r>    4.5967    0.0000 </r>
       <r>    4.5967    0.0000 </r>
       <r>    5.0996    0.0000 </r>
       <r>    5.0996    0.0000 </r>
       <r>    5.8075    0.0000 </r>
       <r>    5.8075    0.0000 </r>
       <r>    6.3347    0.0000 </r>
       <r>    6.3347    0.0000 </r>
       <r>    6.4513    0.0000 </r>
       <r>    6.4513    0.0000 </r>
       <r>    6.6570    0.0000 </r>
       <r>    6.6570    0.0000 </r>
       <r>    6.8083    0.0000 </r>
       <r>    6.8083    0.0000 </r>
       <r>    6.8633    0.0000 </r>
       <r>    6.8633    0.0000 </r>
       <r>    7.0283    0.0000 </r>
       <r>    7.0283    0.0000 </r>
      </set>
     </set>
    </set>
   </array>
  </eigenvalues>
  <separator name="orbital magnetization" >
   <v name="MAGDIPOLOUT">      0.00000000      0.00000000      0.00000000</v>
  </separator>
  <dos>
   <i name="efermi">      0.53857294 </i>
   <total>
    <array>
     <dimension dim="1">gridpoints</dimension>
     <dimension dim="2">spin</dimension>
     <field>energy</field>
     <field>total</field>
     <field>integrated</field>
     <set>
      <set comment="spin 1">
       <r>   -22.1635     0.0000     0.0000 </r>
       <r>   -22.0609     0.0000     0.0000 </r>
       <r>   -21.9583     0.0000     0.0000 </r>
       <r>   -21.8557     0.0000     0.0000 </r>
       <r>   -21.7531     0.0000     0.0000 </r>
       <r>   -21.6505     0.0000     0.0000 </r>
       <r>   -21.5479     0.0000     0.0000 </r>
       <r>   -21.4453     0.0000     0.0000 </r>
       <r>   -21.3427     0.0000     0.0000 </r>
       <r>   -21.2401     0.0000     0.0000 </r>
       <r>   -21.1374     0.0000     0.0000 </r>
       <r>   -21.0348     0.0000     0.0000 </r>
       <r>   -20.9322     0.0000     0.0000 </r>
       <r>   -20.8296     0.0000     0.0000 </r>
       <r>   -20.7270    77.9663     8.0000 </r>
       <r>   -20.6244     0.0000     8.0000 </r>
       <r>   -20.5218     0.0000     8.0000 </r>
       <r>   -20.4192     0.0000     8.0000 </r>
       <r>   -20.3166     0.0000     8.0000 </r>
       <r>   -20.2140     0.0000     8.0000 </r>
       <r>   -20.1114     0.0000     8.0000 </r>
       <r>   -20.0088     0.0000     8.0000 </r>
       <r>   -19.9061     0.0000     8.0000 </r>
       <r>   -19.8035     0.0000     8.0000 </r>
       <r>   -19.7009     0.0000     8.0000 </r>
       <r>   -19.5983     0.0000     8.0000 </r>
       <r>   -19.4957     0.0000     8.0000 </r>
       <r>   -19.3931     0.0000     8.0000 </r>
       <r>   -19.2905     0.0000     8.0000 </r>
       <r>   -19.1879     0.0000     8.0000 </r>
       <r>   -19.0853     0.0000     8.0000 </r>
       <r>   -18.9827     0.0000     8.0000 </r>
       <r>   -18.8801     0.0000     8.0000 </r>
       <r>   -18.7775     0.0000     8.0000 </r>
       <r>   -18.6748     0.0000     8.0000 </r>
       <r>   -18.5722     0.0000     8.0000 </r>
       <r>   -18.4696     0.0000     8.0000 </r>
       <r>   -18.3670     0.0000     8.0000 </r>
       <r>   -18.2644     0.0000     8.0000 </r>
       <r>   -18.1618     0.0000     8.0000 </r>
       <r>   -18.0592     0.0000     8.0000 </r>
       <r>   -17.9566     0.0000     8.0000 </r>
       <r>   -17.8540     0.0000     8.0000 </r>
       <r>   -17.7514     0.0000     8.0000 </r>
       <r>   -17.6488     0.0000     8.0000 </r>
       <r>   -17.5462     0.0000     8.0000 </r>
       <r>   -17.4435     0.0000     8.0000 </r>
       <r>   -17.3409     0.0000     8.0000 </r>
       <r>   -17.2383     0.0000     8.0000 </r>
       <r>   -17.1357     0.0000     8.0000 </r>
       <r>   -17.0331     0.0000     8.0000 </r>
       <r>   -16.9305     0.0000     8.0000 </r>
       <r>   -16.8279     0.0000     8.0000 </r>
       <r>   -16.7253     0.0000     8.0000 </r>
       <r>   -16.6227     0.0000     8.0000 </r>
       <r>   -16.5201     0.0000     8.0000 </r>
       <r>   -16.4175    72.2634    15.4148 </r>
       <r>   -16.3149    55.3953    24.6841 </r>
       <r>   -16.2122    77.9429    48.0000 </r>
       <r>   -16.1096     0.0000    48.0000 </r>
       <r>   -16.0070     0.0000    48.0000 </r>
       <r>   -15.9044     0.0000    48.0000 </r>
       <r>   -15.8018     0.0000    48.0000 </r>
       <r>   -15.6992     0.0000    48.0000 </r>
       <r>   -15.5966     0.0000    48.0000 </r>
       <r>   -15.4940     0.0000    48.0000 </r>
       <r>   -15.3914     0.0000    48.0000 </r>
       <r>   -15.2888     0.0000    48.0000 </r>
       <r>   -15.1862     0.0000    48.0000 </r>
       <r>   -15.0836     0.0000    48.0000 </r>
       <r>   -14.9809     0.0000    48.0000 </r>
       <r>   -14.8783     0.0000    48.0000 </r>
       <r>   -14.7757     0.0000    48.0000 </r>
       <r>   -14.6731     0.0000    48.0000 </r>
       <r>   -14.5705     0.0000    48.0000 </r>
       <r>   -14.4679     0.0000    48.0000 </r>
       <r>   -14.3653     0.0000    48.0000 </r>
       <r>   -14.2627     5.0883    48.5221 </r>
       <r>   -14.1601    20.8638    50.9186 </r>
       <r>   -14.0575    32.2222    54.6396 </r>
       <r>   -13.9549    48.5888    59.8745 </r>
       <r>   -13.8523    38.5607    64.6235 </r>
       <r>   -13.7496    44.1147    70.4155 </r>
       <r>   -13.6470     9.7452    72.0000 </r>
       <r>   -13.5444     0.0000    72.0000 </r>
       <r>   -13.4418     0.0000    72.0000 </r>
       <r>   -13.3392     0.0000    72.0000 </r>
       <r>   -13.2366     0.0000    72.0000 </r>
       <r>   -13.1340     0.0000    72.0000 </r>
       <r>   -13.0314     0.0000    72.0000 </r>
       <r>   -12.9288     0.0000    72.0000 </r>
       <r>   -12.8262     0.0000    72.0000 </r>
       <r>   -12.7236     0.0000    72.0000 </r>
       <r>   -12.6209     0.0000    72.0000 </r>
       <r>   -12.5183     0.0000    72.0000 </r>
       <r>   -12.4157     0.0000    72.0000 </r>
       <r>   -12.3131     0.0000    72.0000 </r>
       <r>   -12.2105     0.0000    72.0000 </r>
       <r>   -12.1079     0.0000    72.0000 </r>
       <r>   -12.0053     0.0000    72.0000 </r>
       <r>   -11.9027     0.0000    72.0000 </r>
       <r>   -11.8001     0.0000    72.0000 </r>
       <r>   -11.6975     0.0000    72.0000 </r>
       <r>   -11.5949     0.0000    72.0000 </r>
       <r>   -11.4923     0.0000    72.0000 </r>
       <r>   -11.3896     0.0000    72.0000 </r>
       <r>   -11.2870     0.0000    72.0000 </r>
       <r>   -11.1844     0.0000    72.0000 </r>
       <r>   -11.0818     0.0000    72.0000 </r>
       <r>   -10.9792     0.0000    72.0000 </r>
       <r>   -10.8766     0.0000    72.0000 </r>
       <r>   -10.7740     0.0000    72.0000 </r>
       <r>   -10.6714     0.0000    72.0000 </r>
       <r>   -10.5688     0.0000    72.0000 </r>
       <r>   -10.4662     0.0000    72.0000 </r>
       <r>   -10.3636     0.0000    72.0000 </r>
       <r>   -10.2610     0.0000    72.0000 </r>
       <r>   -10.1583     0.0000    72.0000 </r>
       <r>   -10.0557     0.0000    72.0000 </r>
       <r>    -9.9531     0.0000    72.0000 </r>
       <r>    -9.8505     0.0000    72.0000 </r>
       <r>    -9.7479     0.0000    72.0000 </r>
       <r>    -9.6453     0.0000    72.0000 </r>
       <r>    -9.5427     0.0000    72.0000 </r>
       <r>    -9.4401     0.0000    72.0000 </r>
       <r>    -9.3375     0.0000    72.0000 </r>
       <r>    -9.2349     0.0000    72.0000 </r>
       <r>    -9.1323     0.0000    72.0000 </r>
       <r>    -9.0297     0.0000    72.0000 </r>
       <r>    -8.9270     0.0000    72.0000 </r>
       <r>    -8.8244     0.0000    72.0000 </r>
       <r>    -8.7218     0.0000    72.0000 </r>
       <r>    -8.6192     0.0000    72.0000 </r>
       <r>    -8.5166     0.0000    72.0000 </r>
       <r>    -8.4140     0.0000    72.0000 </r>
       <r>    -8.3114     0.0000    72.0000 </r>
       <r>    -8.2088     0.0000    72.0000 </r>
       <r>    -8.1062     1.0829    72.1111 </r>
       <r>    -8.0036     0.0000    72.1111 </r>
       <r>    -7.9010     6.4953    72.7776 </r>
       <r>    -7.7984     3.1587    73.1019 </r>
       <r>    -7.6957     8.3527    74.0793 </r>
       <r>    -7.5931     1.1511    74.2292 </r>
       <r>    -7.4905     4.3315    75.5556 </r>
       <r>    -7.3879     8.6629    76.4444 </r>
       <r>    -7.2853    12.9942    77.7778 </r>
       <r>    -7.1827    44.4000    82.3336 </r>
       <r>    -7.0801   138.4058   102.7573 </r>
       <r>    -6.9775     4.1404   103.2026 </r>
       <r>    -6.8749     2.3249   103.4608 </r>
       <r>    -6.7723     0.0000   103.8889 </r>
       <r>    -6.6697     0.0000   103.8889 </r>
       <r>    -6.5671     0.0000   103.8889 </r>
       <r>    -6.4644     1.0829   104.0000 </r>
       <r>    -6.3618     0.0000   104.0000 </r>
       <r>    -6.2592     0.0000   104.0000 </r>
       <r>    -6.1566     0.0000   104.0000 </r>
       <r>    -6.0540     0.0000   104.0000 </r>
       <r>    -5.9514     0.0000   104.0000 </r>
       <r>    -5.8488     0.0000   104.0000 </r>
       <r>    -5.7462     0.0000   104.0000 </r>
       <r>    -5.6436     0.0000   104.0000 </r>
       <r>    -5.5410     0.0000   104.0000 </r>
       <r>    -5.4384     0.0000   104.0000 </r>
       <r>    -5.3358     0.0000   104.0000 </r>
       <r>    -5.2331     0.0000   104.0000 </r>
       <r>    -5.1305     0.0000   104.0000 </r>
       <r>    -5.0279     0.0000   104.0000 </r>
       <r>    -4.9253     0.0000   104.0000 </r>
       <r>    -4.8227     0.0000   104.0000 </r>
       <r>    -4.7201     0.0000   104.0000 </r>
       <r>    -4.6175     0.0000   104.0000 </r>
       <r>    -4.5149     0.0000   104.0000 </r>
       <r>    -4.4123     0.0000   104.0000 </r>
       <r>    -4.3097     0.0000   104.0000 </r>
       <r>    -4.2071     0.0000   104.0000 </r>
       <r>    -4.1045     0.0000   104.0000 </r>
       <r>    -4.0018     0.0000   104.0000 </r>
       <r>    -3.8992     0.0000   104.0000 </r>
       <r>    -3.7966     0.0000   104.0000 </r>
       <r>    -3.6940     0.0000   104.0000 </r>
       <r>    -3.5914     0.0000   104.0000 </r>
       <r>    -3.4888     0.0000   104.0000 </r>
       <r>    -3.3862     0.0000   104.0000 </r>
       <r>    -3.2836     0.0433   104.0044 </r>
       <r>    -3.1810    14.5575   105.6049 </r>
       <r>    -3.0784    15.1597   108.1111 </r>
       <r>    -2.9758     6.3650   108.7642 </r>
       <r>    -2.8732    10.7717   109.9942 </r>
       <r>    -2.7705    11.0243   111.3534 </r>
       <r>    -2.6679     6.5060   113.3342 </r>
       <r>    -2.5653     2.1657   114.0000 </r>
       <r>    -2.4627     7.9907   114.8199 </r>
       <r>    -2.3601    11.7400   116.3157 </r>
       <r>    -2.2575     4.3145   118.2205 </r>
       <r>    -2.1549    11.0254   119.3535 </r>
       <r>    -2.0523    23.4028   122.1791 </r>
       <r>    -1.9497    28.0663   125.8798 </r>
       <r>    -1.8471     5.2786   126.8750 </r>
       <r>    -1.7445     8.0987   128.0532 </r>
       <r>    -1.6419    36.6794   131.8747 </r>
       <r>    -1.5392     7.8729   134.5856 </r>
       <r>    -1.4366    35.9553   138.6893 </r>
       <r>    -1.3340    55.6102   145.4839 </r>
       <r>    -1.2314    51.9896   152.6682 </r>
       <r>    -1.1288    46.4811   158.8805 </r>
       <r>    -1.0262    59.9293   166.2604 </r>
       <r>    -0.9236    12.9930   168.0000 </r>
       <r>    -0.8210     7.6447   168.7844 </r>
       <r>    -0.7184    16.2429   171.0000 </r>
       <r>    -0.6158     8.7921   171.9021 </r>
       <r>    -0.5132    14.7542   173.9583 </r>
       <r>    -0.4106     2.1654   174.2222 </r>
       <r>    -0.3079     4.3315   174.6667 </r>
       <r>    -0.2053     0.0000   174.6667 </r>
       <r>    -0.1027     3.2616   175.0013 </r>
       <r>    -0.0001     2.6924   175.7207 </r>
       <r>     0.1025     0.0000   175.8889 </r>
       <r>     0.2051     0.0000   175.8889 </r>
       <r>     0.3077     0.0000   175.8889 </r>
       <r>     0.4103     0.0000   175.8889 </r>
       <r>     0.5129     1.0829   176.0000 </r>
       <r>     0.6155     0.0000   176.0000 </r>
       <r>     0.7181     0.0000   176.0000 </r>
       <r>     0.8207     0.0000   176.0000 </r>
       <r>     0.9234     0.0000   176.0000 </r>
       <r>     1.0260     0.0000   176.0000 </r>
       <r>     1.1286     0.0000   176.0000 </r>
       <r>     1.2312     0.0000   176.0000 </r>
       <r>     1.3338     0.0000   176.0000 </r>
       <r>     1.4364     0.0000   176.0000 </r>
       <r>     1.5390     0.0000   176.0000 </r>
       <r>     1.6416     0.0000   176.0000 </r>
       <r>     1.7442     0.0000   176.0000 </r>
       <r>     1.8468     0.0000   176.0000 </r>
       <r>     1.9494     0.0000   176.0000 </r>
       <r>     2.0520     0.0000   176.0000 </r>
       <r>     2.1547     0.0000   176.0000 </r>
       <r>     2.2573     0.0000   176.0000 </r>
       <r>     2.3599     0.0000   176.0000 </r>
       <r>     2.4625     0.0000   176.0000 </r>
       <r>     2.5651     0.0000   176.0000 </r>
       <r>     2.6677     0.0000   176.0000 </r>
       <r>     2.7703     2.1190   176.2174 </r>
       <r>     2.8729     0.0000   176.2222 </r>
       <r>     2.9755     7.5821   177.0002 </r>
       <r>     3.0781     0.0000   177.4444 </r>
       <r>     3.1807    11.9056   178.6661 </r>
       <r>     3.2833     4.4524   179.1235 </r>
       <r>     3.3860     1.0518   180.1079 </r>
       <r>     3.4886     1.2570   180.2401 </r>
       <r>     3.5912     2.1657   180.8889 </r>
       <r>     3.6938     4.3226   181.3324 </r>
       <r>     3.7964     0.0237   181.7802 </r>
       <r>     3.8990    10.2329   183.0501 </r>
       <r>     4.0016     8.6629   184.0000 </r>
       <r>     4.1042    12.9902   185.3329 </r>
       <r>     4.2068     2.1653   185.5555 </r>
       <r>     4.3094     6.4972   186.2222 </r>
       <r>     4.4120     5.6282   186.7997 </r>
       <r>     4.5146     8.6629   188.0000 </r>
       <r>     4.6173     8.6473   188.8873 </r>
       <r>     4.7199     8.6629   189.7778 </r>
       <r>     4.8225     0.0252   189.7804 </r>
       <r>     4.9251     4.9579   190.5087 </r>
       <r>     5.0277     0.0000   190.5556 </r>
       <r>     5.1303    15.1514   192.1102 </r>
       <r>     5.2329    10.8801   193.2275 </r>
       <r>     5.3355    15.0664   194.9904 </r>
       <r>     5.4381     2.1658   195.2222 </r>
       <r>     5.5407     3.4307   195.5742 </r>
       <r>     5.6433     1.0759   196.2215 </r>
       <r>     5.7459     1.1354   196.3387 </r>
       <r>     5.8486    15.1232   197.9962 </r>
       <r>     5.9512     3.1691   198.3252 </r>
       <r>     6.0538    12.7014   199.9699 </r>
       <r>     6.1564    10.9044   202.0078 </r>
       <r>     6.2590     6.4613   203.1075 </r>
       <r>     6.3616    18.8448   205.0447 </r>
       <r>     6.4642    22.3523   207.7380 </r>
       <r>     6.5668    12.9741   209.3313 </r>
       <r>     6.6694    24.0359   212.2441 </r>
       <r>     6.7720    20.3808   214.8692 </r>
       <r>     6.8746    26.1797   217.5751 </r>
       <r>     6.9772    14.0146   219.5491 </r>
       <r>     7.0799    14.5936   221.9419 </r>
       <r>     7.1825     8.6366   223.5528 </r>
       <r>     7.2851     4.3315   224.0000 </r>
       <r>     7.3877     0.0000   224.0000 </r>
       <r>     7.4903     0.0000   224.0000 </r>
       <r>     7.5929     0.0000   224.0000 </r>
       <r>     7.6955     0.0000   224.0000 </r>
       <r>     7.7981     0.0000   224.0000 </r>
       <r>     7.9007     0.0000   224.0000 </r>
       <r>     8.0033     0.0000   224.0000 </r>
       <r>     8.1059     0.0000   224.0000 </r>
       <r>     8.2085     0.0000   224.0000 </r>
       <r>     8.3112     0.0000   224.0000 </r>
       <r>     8.4138     0.0000   224.0000 </r>
       <r>     8.5164     0.0000   224.0000 </r>
       <r>     8.6190     0.0000   224.0000 </r>
      </set>
     </set>
    </array>
   </total>
   <partial>
    <array>
     <dimension dim="1">gridpoints</dimension>
     <dimension dim="2">spin</dimension>
     <dimension dim="3">ion</dimension>
     <field>energy</field>
     <field>  s  </field>
     <field>  p  </field>
     <field>  d  </field>
     <set>
      <set comment="ion 1">
       <set comment="spin 1">
        <r>   -22.1635     0.0000     0.0000     0.0000 </r>
[...]
        <r>  0.0000  0.0001  0.0004 </r>
        <r>  0.0003  0.0113  0.0002 </r>
        <r>  0.0002  0.0103  0.0004 </r>
        <r>  0.0028  0.1717  0.0017 </r>
        <r>  0.0029  0.1571  0.0018 </r>
        <r>  0.0003  0.0046  0.0018 </r>
        <r>  0.0002  0.0048  0.0007 </r>
        <r>  0.0001  0.0025  0.0015 </r>
        <r>  0.0007  0.0065  0.0008 </r>
        <r>  0.0136  0.0346  0.0073 </r>
        <r>  0.0009  0.0132  0.0007 </r>
        <r>  0.0001  0.0010  0.0001 </r>
        <r>  0.0009  0.0018  0.0007 </r>
        <r>  0.0008  0.0033  0.0003 </r>
        <r>  0.0000  0.0007  0.0000 </r>
        <r>  0.0136  0.0331  0.0077 </r>
        <r>  0.0009  0.0135  0.0008 </r>
       </set>
       <set comment="band 93">
        <r>  0.0000  0.0001  0.0003 </r>
        <r>  0.0005  0.0002  0.0006 </r>
        <r>  0.0000  0.0000  0.0006 </r>
        <r>  0.0000  0.0008  0.0015 </r>
        <r>  0.0025  0.1041  0.0012 </r>
        <r>  0.0020  0.0759  0.0010 </r>
        <r>  0.0027  0.0577  0.0012 </r>
        <r>  0.0033  0.0792  0.0015 </r>
        <r>  0.0097  0.0010  0.0038 </r>
        <r>  0.0001  0.0716  0.0003 </r>
        <r>  0.0119  0.0017  0.0050 </r>
        <r>  0.0000  0.0564  0.0004 </r>
        <r>  0.0003  0.0061  0.0008 </r>
        <r>  0.0000  0.0014  0.0017 </r>
        <r>  0.0000  0.0012  0.0022 </r>
        <r>  0.0006  0.0040  0.0012 </r>
        <r>  0.0004  0.0074  0.0011 </r>
        <r>  0.0000  0.0017  0.0023 </r>
        <r>  0.0005  0.0028  0.0010 </r>
        <r>  0.0000  0.0009  0.0016 </r>
       </set>
       <set comment="band 94">
        <r>  0.0000  0.0008  0.0015 </r>
        <r>  0.0000  0.0000  0.0006 </r>
        <r>  0.0005  0.0002  0.0006 </r>
        <r>  0.0000  0.0001  0.0003 </r>
        <r>  0.0033  0.0792  0.0015 </r>
        <r>  0.0027  0.0577  0.0012 </r>
        <r>  0.0020  0.0759  0.0010 </r>
        <r>  0.0025  0.1041  0.0012 </r>
        <r>  0.0000  0.0564  0.0004 </r>
        <r>  0.0119  0.0017  0.0050 </r>
        <r>  0.0001  0.0716  0.0003 </r>
        <r>  0.0097  0.0010  0.0038 </r>
        <r>  0.0006  0.0040  0.0012 </r>
        <r>  0.0000  0.0012  0.0022 </r>
        <r>  0.0000  0.0014  0.0017 </r>
        <r>  0.0003  0.0061  0.0008 </r>
        <r>  0.0005  0.0028  0.0010 </r>
        <r>  0.0000  0.0009  0.0016 </r>
        <r>  0.0004  0.0074  0.0011 </r>
        <r>  0.0000  0.0017  0.0023 </r>
       </set>
       <set comment="band 95">
        <r>  0.0000  0.0001  0.0004 </r>
        <r>  0.0001  0.0010  0.0010 </r>
        <r>  0.0000  0.0002  0.0003 </r>
        <r>  0.0003  0.0002  0.0003 </r>
        <r>  0.0027  0.0544  0.0012 </r>
        <r>  0.0034  0.0794  0.0016 </r>
        <r>  0.0024  0.1133  0.0012 </r>
        <r>  0.0019  0.0764  0.0010 </r>
        <r>  0.0118  0.0009  0.0054 </r>
        <r>  0.0001  0.0485  0.0005 </r>
        <r>  0.0087  0.0005  0.0038 </r>
        <r>  0.0001  0.0672  0.0001 </r>
        <r>  0.0005  0.0054  0.0021 </r>
        <r>  0.0002  0.0046  0.0007 </r>
        <r>  0.0002  0.0060  0.0008 </r>
        <r>  0.0002  0.0051  0.0018 </r>
        <r>  0.0004  0.0037  0.0015 </r>
        <r>  0.0001  0.0029  0.0005 </r>
        <r>  0.0003  0.0068  0.0025 </r>
        <r>  0.0002  0.0077  0.0010 </r>
       </set>
       <set comment="band 96">
        <r>  0.0003  0.0002  0.0003 </r>
        <r>  0.0000  0.0002  0.0003 </r>
        <r>  0.0001  0.0010  0.0010 </r>
        <r>  0.0000  0.0001  0.0004 </r>
        <r>  0.0019  0.0764  0.0010 </r>
        <r>  0.0024  0.1133  0.0012 </r>
        <r>  0.0034  0.0794  0.0016 </r>
        <r>  0.0027  0.0544  0.0012 </r>
        <r>  0.0001  0.0672  0.0001 </r>
        <r>  0.0087  0.0005  0.0038 </r>
        <r>  0.0001  0.0485  0.0005 </r>
        <r>  0.0118  0.0009  0.0054 </r>
        <r>  0.0002  0.0051  0.0018 </r>
        <r>  0.0002  0.0060  0.0008 </r>
        <r>  0.0002  0.0046  0.0007 </r>
        <r>  0.0005  0.0054  0.0021 </r>
        <r>  0.0003  0.0068  0.0025 </r>
        <r>  0.0002  0.0077  0.0010 </r>
        <r>  0.0004  0.0037  0.0015 </r>
        <r>  0.0001  0.0029  0.0005 </r>
       </set>
       <set comment="band 97">
        <r>  0.0000  0.0000  0.0018 </r>
        <r>  0.0001  0.0005  0.0007 </r>
        <r>  0.0000  0.0001  0.0030 </r>
        <r>  0.0003  0.0004  0.0006 </r>
        <r>  0.0024  0.0654  0.0009 </r>
        <r>  0.0015  0.0533  0.0008 </r>
        <r>  0.0026  0.0805  0.0010 </r>
        <r>  0.0021  0.1060  0.0012 </r>
        <r>  0.0006  0.0047  0.0004 </r>
        <r>  0.0001  0.0088  0.0032 </r>
        <r>  0.0026  0.0035  0.0012 </r>
        <r>  0.0000  0.0020  0.0031 </r>
        <r>  0.0034  0.0484  0.0021 </r>
        <r>  0.0001  0.0012  0.0025 </r>
        <r>  0.0001  0.0014  0.0015 </r>
        <r>  0.0032  0.0285  0.0011 </r>
        <r>  0.0020  0.0313  0.0014 </r>
        <r>  0.0000  0.0008  0.0017 </r>
        <r>  0.0046  0.0456  0.0018 </r>
        <r>  0.0001  0.0018  0.0024 </r>
       </set>
       <set comment="band 98">
        <r>  0.0003  0.0004  0.0006 </r>
        <r>  0.0000  0.0001  0.0030 </r>
        <r>  0.0001  0.0005  0.0007 </r>
        <r>  0.0000  0.0000  0.0018 </r>
        <r>  0.0021  0.1060  0.0012 </r>
        <r>  0.0026  0.0805  0.0010 </r>
        <r>  0.0015  0.0533  0.0008 </r>
        <r>  0.0024  0.0654  0.0009 </r>
        <r>  0.0000  0.0020  0.0031 </r>
        <r>  0.0026  0.0035  0.0012 </r>
        <r>  0.0001  0.0088  0.0032 </r>
        <r>  0.0006  0.0047  0.0004 </r>
        <r>  0.0032  0.0285  0.0011 </r>
        <r>  0.0001  0.0014  0.0015 </r>
        <r>  0.0001  0.0012  0.0025 </r>
        <r>  0.0034  0.0484  0.0021 </r>
        <r>  0.0046  0.0456  0.0018 </r>
        <r>  0.0001  0.0018  0.0024 </r>
        <r>  0.0020  0.0313  0.0014 </r>
        <r>  0.0000  0.0008  0.0017 </r>
       </set>
       <set comment="band 99">
        <r>  0.0000  0.0001  0.0029 </r>
        <r>  0.0000  0.0002  0.0018 </r>
        <r>  0.0000  0.0001  0.0020 </r>
        <r>  0.0000  0.0002  0.0015 </r>
        <r>  0.0000  0.1337  0.0004 </r>
        <r>  0.0000  0.1516  0.0004 </r>
        <r>  0.0002  0.0117  0.0008 </r>
        <r>  0.0000  0.0105  0.0006 </r>
        <r>  0.0004  0.0016  0.0016 </r>
        <r>  0.0000  0.0011  0.0032 </r>
        <r>  0.0000  0.0030  0.0012 </r>
        <r>  0.0001  0.0016  0.0034 </r>
        <r>  0.0000  0.0004  0.0004 </r>
        <r>  0.0000  0.0066  0.0007 </r>
        <r>  0.0000  0.0931  0.0022 </r>
        <r>  0.0001  0.0017  0.0047 </r>
        <r>  0.0000  0.0018  0.0045 </r>
        <r>  0.0000  0.0920  0.0025 </r>
        <r>  0.0000  0.0002  0.0005 </r>
        <r>  0.0000  0.0077  0.0004 </r>
       </set>
       <set comment="band 100">
        <r>  0.0000  0.0002  0.0015 </r>
        <r>  0.0000  0.0001  0.0020 </r>
        <r>  0.0000  0.0002  0.0018 </r>
        <r>  0.0000  0.0001  0.0029 </r>
        <r>  0.0000  0.0105  0.0006 </r>
        <r>  0.0002  0.0117  0.0008 </r>
        <r>  0.0000  0.1516  0.0004 </r>
        <r>  0.0000  0.1337  0.0004 </r>
        <r>  0.0001  0.0016  0.0034 </r>
        <r>  0.0000  0.0030  0.0012 </r>
        <r>  0.0000  0.0011  0.0032 </r>
        <r>  0.0004  0.0016  0.0016 </r>
        <r>  0.0001  0.0017  0.0047 </r>
        <r>  0.0000  0.0931  0.0022 </r>
        <r>  0.0000  0.0066  0.0007 </r>
        <r>  0.0000  0.0004  0.0004 </r>
        <r>  0.0000  0.0002  0.0005 </r>
        <r>  0.0000  0.0077  0.0004 </r>
        <r>  0.0000  0.0018  0.0045 </r>
        <r>  0.0000  0.0920  0.0025 </r>
       </set>
       <set comment="band 101">
        <r>  0.0110  0.0048  0.0048 </r>
        <r>  0.0008  0.0012  0.0126 </r>
        <r>  0.0122  0.0053  0.0087 </r>
        <r>  0.0007  0.0013  0.0129 </r>
        <r>  0.0001  0.0044  0.0001 </r>
        <r>  0.0003  0.0099  0.0002 </r>
        <r>  0.0004  0.0075  0.0005 </r>
        <r>  0.0002  0.0051  0.0002 </r>
        <r>  0.0002  0.0069  0.0005 </r>
        <r>  0.0040  0.0075  0.0033 </r>
        <r>  0.0003  0.0064  0.0004 </r>
        <r>  0.0029  0.0065  0.0034 </r>
        <r>  0.0026  0.0051  0.0023 </r>
        <r>  0.0046  0.0015  0.0016 </r>
        <r>  0.0036  0.0029  0.0024 </r>
        <r>  0.0002  0.0035  0.0003 </r>
        <r>  0.0016  0.0037  0.0013 </r>
        <r>  0.0023  0.0012  0.0015 </r>
        <r>  0.0011  0.0049  0.0012 </r>
        <r>  0.0059  0.0032  0.0024 </r>
       </set>
       <set comment="band 102">
        <r>  0.0007  0.0013  0.0129 </r>
        <r>  0.0122  0.0053  0.0087 </r>
        <r>  0.0008  0.0012  0.0126 </r>
        <r>  0.0110  0.0048  0.0048 </r>
        <r>  0.0002  0.0051  0.0002 </r>
        <r>  0.0004  0.0075  0.0005 </r>
        <r>  0.0003  0.0099  0.0002 </r>
        <r>  0.0001  0.0044  0.0001 </r>
        <r>  0.0029  0.0065  0.0034 </r>
        <r>  0.0003  0.0064  0.0004 </r>
        <r>  0.0040  0.0075  0.0033 </r>
        <r>  0.0002  0.0069  0.0005 </r>
        <r>  0.0002  0.0035  0.0003 </r>
        <r>  0.0036  0.0029  0.0024 </r>
        <r>  0.0046  0.0015  0.0016 </r>
        <r>  0.0026  0.0051  0.0023 </r>
        <r>  0.0011  0.0049  0.0012 </r>
        <r>  0.0059  0.0032  0.0024 </r>
        <r>  0.0016  0.0037  0.0013 </r>
        <r>  0.0023  0.0012  0.0015 </r>
       </set>
       <set comment="band 103">
        <r>  0.0000  0.0004  0.0050 </r>
        <r>  0.0004  0.0005  0.0561 </r>
        <r>  0.0000  0.0008  0.0016 </r>
        <r>  0.0057  0.0022  0.0449 </r>
        <r>  0.0001  0.0082  0.0004 </r>
        <r>  0.0000  0.0017  0.0003 </r>
        <r>  0.0000  0.0018  0.0003 </r>
        <r>  0.0001  0.0074  0.0004 </r>
        <r>  0.0002  0.0138  0.0065 </r>
        <r>  0.0000  0.0020  0.0005 </r>
        <r>  0.0009  0.0092  0.0064 </r>
        <r>  0.0000  0.0002  0.0002 </r>
        <r>  0.0007  0.0047  0.0012 </r>
        <r>  0.0011  0.0042  0.0017 </r>
        <r>  0.0001  0.0012  0.0013 </r>
        <r>  0.0004  0.0025  0.0020 </r>
        <r>  0.0008  0.0044  0.0011 </r>
        <r>  0.0011  0.0043  0.0017 </r>
        <r>  0.0003  0.0027  0.0021 </r>
        <r>  0.0001  0.0011  0.0013 </r>
       </set>
       <set comment="band 104">
        <r>  0.0057  0.0022  0.0449 </r>
        <r>  0.0000  0.0008  0.0016 </r>
        <r>  0.0004  0.0005  0.0561 </r>
        <r>  0.0000  0.0004  0.0050 </r>
        <r>  0.0001  0.0074  0.0004 </r>
        <r>  0.0000  0.0018  0.0003 </r>
        <r>  0.0000  0.0017  0.0003 </r>
        <r>  0.0001  0.0082  0.0004 </r>
        <r>  0.0000  0.0002  0.0002 </r>
        <r>  0.0009  0.0092  0.0064 </r>
        <r>  0.0000  0.0020  0.0005 </r>
        <r>  0.0002  0.0138  0.0065 </r>
        <r>  0.0004  0.0025  0.0020 </r>
        <r>  0.0001  0.0012  0.0013 </r>
        <r>  0.0011  0.0042  0.0017 </r>
        <r>  0.0007  0.0047  0.0012 </r>
        <r>  0.0003  0.0027  0.0021 </r>
        <r>  0.0001  0.0011  0.0013 </r>
        <r>  0.0008  0.0044  0.0011 </r>
        <r>  0.0011  0.0043  0.0017 </r>
       </set>
       <set comment="band 105">
        <r>  0.0007  0.0004  0.0313 </r>
        <r>  0.0022  0.0021  0.0260 </r>
        <r>  0.0018  0.0019  0.0261 </r>
        <r>  0.0008  0.0004  0.0322 </r>
        <r>  0.0001  0.0011  0.0010 </r>
        <r>  0.0004  0.0032  0.0004 </r>
        <r>  0.0000  0.0083  0.0011 </r>
        <r>  0.0001  0.0086  0.0004 </r>
        <r>  0.0007  0.0028  0.0022 </r>
        <r>  0.0003  0.0040  0.0016 </r>
        <r>  0.0003  0.0046  0.0018 </r>
        <r>  0.0006  0.0025  0.0020 </r>
        <r>  0.0018  0.0023  0.0031 </r>
        <r>  0.0026  0.0014  0.0032 </r>
        <r>  0.0001  0.0018  0.0019 </r>
        <r>  0.0005  0.0038  0.0028 </r>
        <r>  0.0006  0.0033  0.0027 </r>
        <r>  0.0001  0.0018  0.0019 </r>
        <r>  0.0017  0.0028  0.0031 </r>
        <r>  0.0026  0.0013  0.0032 </r>
       </set>
       <set comment="band 106">
        <r>  0.0008  0.0004  0.0322 </r>
        <r>  0.0018  0.0019  0.0261 </r>
        <r>  0.0022  0.0021  0.0260 </r>
        <r>  0.0007  0.0004  0.0313 </r>
        <r>  0.0001  0.0086  0.0004 </r>
        <r>  0.0000  0.0083  0.0011 </r>
        <r>  0.0004  0.0032  0.0004 </r>
        <r>  0.0001  0.0011  0.0010 </r>
        <r>  0.0006  0.0025  0.0020 </r>
        <r>  0.0003  0.0046  0.0018 </r>
        <r>  0.0003  0.0040  0.0016 </r>
        <r>  0.0007  0.0028  0.0022 </r>
        <r>  0.0005  0.0038  0.0028 </r>
        <r>  0.0001  0.0018  0.0019 </r>
        <r>  0.0026  0.0014  0.0032 </r>
        <r>  0.0018  0.0023  0.0031 </r>
        <r>  0.0017  0.0028  0.0031 </r>
        <r>  0.0026  0.0013  0.0032 </r>
        <r>  0.0006  0.0033  0.0027 </r>
        <r>  0.0001  0.0018  0.0019 </r>
       </set>
       <set comment="band 107">
        <r>  0.0003  0.0035  0.0278 </r>
        <r>  0.0011  0.0012  0.0316 </r>
        <r>  0.0013  0.0014  0.0292 </r>
        <r>  0.0002  0.0031  0.0281 </r>
        <r>  0.0001  0.0014  0.0002 </r>
        <r>  0.0000  0.0036  0.0005 </r>
        <r>  0.0001  0.0106  0.0014 </r>
        <r>  0.0000  0.0108  0.0021 </r>
        <r>  0.0002  0.0032  0.0015 </r>
        <r>  0.0010  0.0037  0.0018 </r>
        <r>  0.0009  0.0038  0.0017 </r>
        <r>  0.0002  0.0032  0.0014 </r>
        <r>  0.0023  0.0034  0.0054 </r>
        <r>  0.0009  0.0021  0.0049 </r>
        <r>  0.0007  0.0018  0.0015 </r>
        <r>  0.0001  0.0025  0.0019 </r>
        <r>  0.0002  0.0026  0.0021 </r>
        <r>  0.0008  0.0017  0.0014 </r>
        <r>  0.0023  0.0034  0.0052 </r>
        <r>  0.0008  0.0021  0.0050 </r>
       </set>
       <set comment="band 108">
        <r>  0.0002  0.0031  0.0281 </r>
        <r>  0.0013  0.0014  0.0292 </r>
        <r>  0.0011  0.0012  0.0316 </r>
        <r>  0.0003  0.0035  0.0278 </r>
        <r>  0.0000  0.0108  0.0021 </r>
        <r>  0.0001  0.0106  0.0014 </r>
        <r>  0.0000  0.0036  0.0005 </r>
        <r>  0.0001  0.0014  0.0002 </r>
        <r>  0.0002  0.0032  0.0014 </r>
        <r>  0.0009  0.0038  0.0017 </r>
        <r>  0.0010  0.0037  0.0018 </r>
        <r>  0.0002  0.0032  0.0015 </r>
        <r>  0.0001  0.0025  0.0019 </r>
        <r>  0.0007  0.0018  0.0015 </r>
        <r>  0.0009  0.0021  0.0049 </r>
        <r>  0.0023  0.0034  0.0054 </r>
        <r>  0.0023  0.0034  0.0052 </r>
        <r>  0.0008  0.0021  0.0050 </r>
        <r>  0.0002  0.0026  0.0021 </r>
        <r>  0.0008  0.0017  0.0014 </r>
       </set>
       <set comment="band 109">
        <r>  0.0000  0.0007  0.0094 </r>
        <r>  0.0002  0.0066  0.0367 </r>
        <r>  0.0000  0.0010  0.0123 </r>
        <r>  0.0007  0.0042  0.0599 </r>
        <r>  0.0000  0.0045  0.0005 </r>
        <r>  0.0001  0.0036  0.0005 </r>
        <r>  0.0000  0.0024  0.0008 </r>
        <r>  0.0000  0.0047  0.0006 </r>
        <r>  0.0048  0.0046  0.0039 </r>
        <r>  0.0000  0.0011  0.0007 </r>
        <r>  0.0000  0.0116  0.0035 </r>
        <r>  0.0002  0.0023  0.0008 </r>
        <r>  0.0006  0.0014  0.0007 </r>
        <r>  0.0005  0.0046  0.0050 </r>
        <r>  0.0000  0.0045  0.0018 </r>
        <r>  0.0015  0.0026  0.0035 </r>
        <r>  0.0014  0.0014  0.0013 </r>
        <r>  0.0005  0.0056  0.0054 </r>
        <r>  0.0007  0.0027  0.0029 </r>
        <r>  0.0000  0.0035  0.0014 </r>
       </set>
       <set comment="band 110">
        <r>  0.0007  0.0042  0.0599 </r>
        <r>  0.0000  0.0010  0.0123 </r>
        <r>  0.0002  0.0066  0.0367 </r>
        <r>  0.0000  0.0007  0.0094 </r>
        <r>  0.0000  0.0047  0.0006 </r>
        <r>  0.0000  0.0024  0.0008 </r>
        <r>  0.0001  0.0036  0.0005 </r>
        <r>  0.0000  0.0045  0.0005 </r>
        <r>  0.0002  0.0023  0.0008 </r>
        <r>  0.0000  0.0116  0.0035 </r>
        <r>  0.0000  0.0011  0.0007 </r>
        <r>  0.0048  0.0046  0.0039 </r>
        <r>  0.0015  0.0026  0.0035 </r>
        <r>  0.0000  0.0045  0.0018 </r>
        <r>  0.0005  0.0046  0.0050 </r>
        <r>  0.0006  0.0014  0.0007 </r>
        <r>  0.0007  0.0027  0.0029 </r>
        <r>  0.0000  0.0035  0.0014 </r>
        <r>  0.0014  0.0014  0.0013 </r>
        <r>  0.0005  0.0056  0.0054 </r>
       </set>
       <set comment="band 111">
        <r>  0.0034  0.0029  0.0327 </r>
        <r>  0.0008  0.0015  0.0224 </r>
        <r>  0.0012  0.0018  0.0269 </r>
        <r>  0.0023  0.0022  0.0362 </r>
        <r>  0.0000  0.0076  0.0007 </r>
        <r>  0.0001  0.0068  0.0004 </r>
        <r>  0.0001  0.0059  0.0021 </r>
        <r>  0.0001  0.0016  0.0021 </r>
        <r>  0.0003  0.0062  0.0014 </r>
        <r>  0.0008  0.0045  0.0029 </r>
        <r>  0.0005  0.0031  0.0028 </r>
        <r>  0.0004  0.0091  0.0018 </r>
        <r>  0.0010  0.0044  0.0036 </r>
        <r>  0.0003  0.0020  0.0045 </r>
        <r>  0.0007  0.0058  0.0018 </r>
        <r>  0.0003  0.0009  0.0024 </r>
        <r>  0.0003  0.0015  0.0023 </r>
        <r>  0.0007  0.0054  0.0013 </r>
        <r>  0.0010  0.0038  0.0037 </r>
        <r>  0.0003  0.0024  0.0050 </r>
       </set>
       <set comment="band 112">
        <r>  0.0023  0.0022  0.0361 </r>
        <r>  0.0012  0.0018  0.0269 </r>
        <r>  0.0008  0.0015  0.0224 </r>
        <r>  0.0034  0.0029  0.0327 </r>
        <r>  0.0001  0.0016  0.0021 </r>
        <r>  0.0001  0.0059  0.0021 </r>
        <r>  0.0001  0.0068  0.0003 </r>
        <r>  0.0000  0.0076  0.0007 </r>
        <r>  0.0004  0.0091  0.0018 </r>
        <r>  0.0005  0.0031  0.0028 </r>
        <r>  0.0008  0.0045  0.0029 </r>
        <r>  0.0003  0.0062  0.0014 </r>
        <r>  0.0003  0.0009  0.0024 </r>
        <r>  0.0007  0.0058  0.0018 </r>
        <r>  0.0003  0.0020  0.0045 </r>
        <r>  0.0010  0.0043  0.0036 </r>
        <r>  0.0010  0.0038  0.0037 </r>
        <r>  0.0003  0.0024  0.0050 </r>
        <r>  0.0003  0.0015  0.0023 </r>
        <r>  0.0007  0.0053  0.0013 </r>
       </set>
      </set>
     </set>
    </set>
   </array>
  </projected>
 </calculation>
 <structure name="finalpos" >
  <crystal>
   <varray name="basis" >
    <v>       8.43303355       0.00000000       0.00000000 </v>
    <v>       0.00000000      11.88144586       0.00000000 </v>
    <v>       0.00000000       0.00000000       8.00059315 </v>
   </varray>
   <i name="volume">    801.63248445 </i>
   <varray name="rec_basis" >
    <v>       0.11858129       0.00000000       0.00000000 </v>
    <v>       0.00000000       0.08416484       0.00000000 </v>
    <v>       0.00000000       0.00000000       0.12499073 </v>
   </varray>
  </crystal>
  <varray name="positions" >
   <v>       0.06566404       0.25000000       0.47910671 </v>
   <v>       0.43433596       0.75000000       0.97910671 </v>
   <v>       0.56566404       0.25000000       0.02089329 </v>
   <v>       0.93433596       0.75000000       0.52089329 </v>
   <v>       0.00000000       0.00000000       0.00000000 </v>
   <v>       0.50000000       0.00000000       0.50000000 </v>
   <v>       0.50000000       0.50000000       0.50000000 </v>
   <v>       0.00000000       0.50000000       0.00000000 </v>
   <v>       0.50340119       0.75000000       0.43987340 </v>
   <v>       0.99659881       0.25000000       0.93987340 </v>
   <v>       0.00340119       0.75000000       0.06012660 </v>
   <v>       0.49659881       0.25000000       0.56012660 </v>
   <v>       0.30185030       0.46698022       0.19282305 </v>
   <v>       0.19814970       0.53301978       0.69282305 </v>
   <v>       0.80185030       0.03301978       0.30717695 </v>
   <v>       0.69814970       0.96698022       0.80717695 </v>
   <v>       0.30185030       0.03301978       0.19282305 </v>
   <v>       0.19814970       0.96698022       0.69282305 </v>
   <v>       0.69814970       0.53301978       0.80717695 </v>
   <v>       0.80185030       0.46698022       0.30717695 </v>
  </varray>
 </structure>
</modeling>
