CsPbBr3 cubic bulk                      
           1
     8.433034    0.000000    0.000000
     0.000000   11.881446    0.000000
     0.000000    0.000000    8.000593
   Cs   Pb   Br
   4   4  12
Direct configuration=     1
   0.06566404  0.25000000  0.47910671
   0.43433596  0.75000000  0.97910671
   0.56566404  0.25000000  0.02089329
   0.93433596  0.75000000  0.52089329
   0.00000000  0.00000000  0.00000000
   0.50000000  0.00000000  0.50000000
   0.50000000  0.50000000  0.50000000
   0.00000000  0.50000000  0.00000000
   0.50340119  0.75000000  0.43987340
   0.99659881  0.25000000  0.93987340
   0.00340119  0.75000000  0.06012660
   0.49659881  0.25000000  0.56012660
   0.30185030  0.46698022  0.19282305
   0.19814970  0.53301978  0.69282305
   0.80185030  0.03301978  0.30717695
   0.69814970  0.96698022  0.80717695
   0.30185030  0.03301978  0.19282305
   0.19814970  0.96698022  0.69282305
   0.69814970  0.53301978  0.80717695
   0.80185030  0.46698022  0.30717695
