  20  20   1   0
  0.4012536E+02  0.8504218E-09  0.1188145E-08  0.7942281E-09  0.5000000E-15
   1.0000000000000000E-004
  CAR 
 CsPbBr3 cubic bulk                      
      8.61765201    -22.16779547  301      0.53647205      1.00000000
    -22.168  0.0000E+00  0.0000E+00
    -22.065  0.0000E+00  0.0000E+00
    -21.963  0.0000E+00  0.0000E+00
    -21.860  0.0000E+00  0.0000E+00
    -21.757  0.0000E+00  0.0000E+00
    -21.655  0.0000E+00  0.0000E+00
    -21.552  0.0000E+00  0.0000E+00
    -21.449  0.0000E+00  0.0000E+00
    -21.347  0.0000E+00  0.0000E+00
    -21.244  0.0000E+00  0.0000E+00
    -21.142  0.0000E+00  0.0000E+00
    -21.039  0.0000E+00  0.0000E+00
    -20.936  0.0000E+00  0.0000E+00
    -20.834  0.0000E+00  0.0000E+00
    -20.731  0.7796E+02  0.8000E+01
    -20.629  0.0000E+00  0.8000E+01
    -20.526  0.0000E+00  0.8000E+01
    -20.423  0.0000E+00  0.8000E+01
    -20.321  0.0000E+00  0.8000E+01
    -20.218  0.0000E+00  0.8000E+01
    -20.115  0.0000E+00  0.8000E+01
    -20.013  0.0000E+00  0.8000E+01
    -19.910  0.0000E+00  0.8000E+01
    -19.808  0.0000E+00  0.8000E+01
    -19.705  0.0000E+00  0.8000E+01
    -19.602  0.0000E+00  0.8000E+01
    -19.500  0.0000E+00  0.8000E+01
    -19.397  0.0000E+00  0.8000E+01
    -19.294  0.0000E+00  0.8000E+01
    -19.192  0.0000E+00  0.8000E+01
    -19.089  0.0000E+00  0.8000E+01
    -18.987  0.0000E+00  0.8000E+01
    -18.884  0.0000E+00  0.8000E+01
    -18.781  0.0000E+00  0.8000E+01
    -18.679  0.0000E+00  0.8000E+01
    -18.576  0.0000E+00  0.8000E+01
    -18.474  0.0000E+00  0.8000E+01
    -18.371  0.0000E+00  0.8000E+01
    -18.268  0.0000E+00  0.8000E+01
    -18.166  0.0000E+00  0.8000E+01
    -18.063  0.0000E+00  0.8000E+01
    -17.960  0.0000E+00  0.8000E+01
    -17.858  0.0000E+00  0.8000E+01
    -17.755  0.0000E+00  0.8000E+01
    -17.653  0.0000E+00  0.8000E+01
    -17.550  0.0000E+00  0.8000E+01
    -17.447  0.0000E+00  0.8000E+01
    -17.345  0.0000E+00  0.8000E+01
    -17.242  0.0000E+00  0.8000E+01
    -17.140  0.0000E+00  0.8000E+01
    -17.037  0.0000E+00  0.8000E+01
    -16.934  0.0000E+00  0.8000E+01
    -16.832  0.0000E+00  0.8000E+01
    -16.729  0.0000E+00  0.8000E+01
    -16.626  0.0000E+00  0.8000E+01
    -16.524  0.6270E-12  0.8000E+01
    -16.421  0.9155E+02  0.1740E+02
    -16.319  0.1149E+03  0.3391E+02
    -16.216  0.0000E+00  0.4800E+02
    -16.113  0.0000E+00  0.4800E+02
    -16.011  0.0000E+00  0.4800E+02
    -15.908  0.0000E+00  0.4800E+02
    -15.805  0.0000E+00  0.4800E+02
    -15.703  0.0000E+00  0.4800E+02
    -15.600  0.0000E+00  0.4800E+02
    -15.498  0.0000E+00  0.4800E+02
    -15.395  0.0000E+00  0.4800E+02
    -15.292  0.0000E+00  0.4800E+02
    -15.190  0.0000E+00  0.4800E+02
    -15.087  0.0000E+00  0.4800E+02
    -14.985  0.0000E+00  0.4800E+02
    -14.882  0.0000E+00  0.4800E+02
    -14.779  0.0000E+00  0.4800E+02
    -14.677  0.0000E+00  0.4800E+02
    -14.574  0.0000E+00  0.4800E+02
    -14.471  0.0000E+00  0.4800E+02
    -14.369  0.3781E-11  0.4800E+02
    -14.266  0.5032E+01  0.4852E+02
    -14.164  0.2102E+02  0.5093E+02
    -14.061  0.3198E+02  0.5461E+02
    -13.958  0.4906E+02  0.5992E+02
    -13.856  0.3393E+02  0.6470E+02
    -13.753  0.4278E+02  0.7072E+02
    -13.650  0.8661E+01  0.7200E+02
    -13.548  0.0000E+00  0.7200E+02
    -13.445  0.0000E+00  0.7200E+02
    -13.343  0.0000E+00  0.7200E+02
    -13.240  0.0000E+00  0.7200E+02
    -13.137  0.0000E+00  0.7200E+02
    -13.035  0.0000E+00  0.7200E+02
    -12.932  0.0000E+00  0.7200E+02
    -12.830  0.0000E+00  0.7200E+02
    -12.727  0.0000E+00  0.7200E+02
    -12.624  0.0000E+00  0.7200E+02
    -12.522  0.0000E+00  0.7200E+02
    -12.419  0.0000E+00  0.7200E+02
    -12.316  0.0000E+00  0.7200E+02
    -12.214  0.0000E+00  0.7200E+02
    -12.111  0.0000E+00  0.7200E+02
    -12.009  0.0000E+00  0.7200E+02
    -11.906  0.0000E+00  0.7200E+02
    -11.803  0.0000E+00  0.7200E+02
    -11.701  0.0000E+00  0.7200E+02
    -11.598  0.0000E+00  0.7200E+02
    -11.496  0.0000E+00  0.7200E+02
    -11.393  0.0000E+00  0.7200E+02
    -11.290  0.0000E+00  0.7200E+02
    -11.188  0.0000E+00  0.7200E+02
    -11.085  0.0000E+00  0.7200E+02
    -10.982  0.0000E+00  0.7200E+02
    -10.880  0.0000E+00  0.7200E+02
    -10.777  0.0000E+00  0.7200E+02
    -10.675  0.0000E+00  0.7200E+02
    -10.572  0.0000E+00  0.7200E+02
    -10.469  0.0000E+00  0.7200E+02
    -10.367  0.0000E+00  0.7200E+02
    -10.264  0.0000E+00  0.7200E+02
    -10.161  0.0000E+00  0.7200E+02
    -10.059  0.0000E+00  0.7200E+02
     -9.956  0.0000E+00  0.7200E+02
     -9.854  0.0000E+00  0.7200E+02
     -9.751  0.0000E+00  0.7200E+02
     -9.648  0.0000E+00  0.7200E+02
     -9.546  0.0000E+00  0.7200E+02
     -9.443  0.0000E+00  0.7200E+02
     -9.341  0.0000E+00  0.7200E+02
     -9.238  0.0000E+00  0.7200E+02
     -9.135  0.0000E+00  0.7200E+02
     -9.033  0.0000E+00  0.7200E+02
     -8.930  0.0000E+00  0.7200E+02
     -8.827  0.0000E+00  0.7200E+02
     -8.725  0.0000E+00  0.7200E+02
     -8.622  0.0000E+00  0.7200E+02
     -8.520  0.0000E+00  0.7200E+02
     -8.417  0.0000E+00  0.7200E+02
     -8.314  0.0000E+00  0.7200E+02
     -8.212  0.0000E+00  0.7200E+02
     -8.109  0.1083E+01  0.7211E+02
     -8.006  0.0000E+00  0.7211E+02
     -7.904  0.6496E+01  0.7278E+02
     -7.801  0.4087E+01  0.7320E+02
     -7.699  0.8579E+01  0.7410E+02
     -7.596  0.1553E+01  0.7427E+02
     -7.493  0.4330E+01  0.7556E+02
     -7.391  0.8662E+01  0.7644E+02
     -7.288  0.1299E+02  0.7778E+02
     -7.186  0.4901E+02  0.8281E+02
     -7.083  0.1386E+03  0.1028E+03
     -6.980  0.4322E+01  0.1032E+03
     -6.878  0.5709E+01  0.1038E+03
     -6.775  0.0000E+00  0.1039E+03
     -6.672  0.0000E+00  0.1039E+03
     -6.570  0.3377E-03  0.1039E+03
     -6.467  0.1082E+01  0.1040E+03
     -6.365  0.0000E+00  0.1040E+03
     -6.262  0.0000E+00  0.1040E+03
     -6.159  0.0000E+00  0.1040E+03
     -6.057  0.0000E+00  0.1040E+03
     -5.954  0.0000E+00  0.1040E+03
     -5.852  0.0000E+00  0.1040E+03
     -5.749  0.0000E+00  0.1040E+03
     -5.646  0.0000E+00  0.1040E+03
     -5.544  0.0000E+00  0.1040E+03
     -5.441  0.0000E+00  0.1040E+03
     -5.338  0.0000E+00  0.1040E+03
     -5.236  0.0000E+00  0.1040E+03
     -5.133  0.0000E+00  0.1040E+03
     -5.031  0.0000E+00  0.1040E+03
     -4.928  0.0000E+00  0.1040E+03
     -4.825  0.0000E+00  0.1040E+03
     -4.723  0.0000E+00  0.1040E+03
     -4.620  0.0000E+00  0.1040E+03
     -4.517  0.0000E+00  0.1040E+03
     -4.415  0.0000E+00  0.1040E+03
     -4.312  0.0000E+00  0.1040E+03
     -4.210  0.0000E+00  0.1040E+03
     -4.107  0.0000E+00  0.1040E+03
     -4.004  0.0000E+00  0.1040E+03
     -3.902  0.0000E+00  0.1040E+03
     -3.799  0.0000E+00  0.1040E+03
     -3.697  0.0000E+00  0.1040E+03
     -3.594  0.0000E+00  0.1040E+03
     -3.491  0.0000E+00  0.1040E+03
     -3.389  0.0000E+00  0.1040E+03
     -3.286  0.1177E+00  0.1040E+03
     -3.183  0.1332E+02  0.1056E+03
     -3.081  0.1516E+02  0.1081E+03
     -2.978  0.7351E+01  0.1089E+03
     -2.876  0.8918E+01  0.1098E+03
     -2.773  0.1082E+02  0.1113E+03
     -2.670  0.6499E+01  0.1133E+03
     -2.568  0.6494E+01  0.1140E+03
     -2.465  0.8362E+01  0.1149E+03
     -2.362  0.1571E+02  0.1167E+03
     -2.260  0.4329E+01  0.1182E+03
     -2.157  0.1125E+02  0.1194E+03
     -2.055  0.2345E+02  0.1222E+03
     -1.952  0.2951E+02  0.1260E+03
     -1.849  0.2376E+01  0.1268E+03
     -1.747  0.7875E+01  0.1280E+03
     -1.644  0.4106E+02  0.1323E+03
     -1.542  0.8026E+01  0.1346E+03
     -1.439  0.3958E+02  0.1392E+03
     -1.336  0.5865E+02  0.1460E+03
     -1.234  0.5009E+02  0.1531E+03
     -1.131  0.4518E+02  0.1587E+03
     -1.028  0.5262E+02  0.1663E+03
     -0.926  0.1299E+02  0.1680E+03
     -0.823  0.7681E+01  0.1690E+03
     -0.721  0.7579E+01  0.1710E+03
     -0.618  0.1210E+02  0.1722E+03
     -0.515  0.1513E+02  0.1740E+03
     -0.413  0.2166E+01  0.1742E+03
     -0.310  0.4329E+01  0.1747E+03
     -0.208  0.1202E-15  0.1747E+03
     -0.105  0.4364E+01  0.1751E+03
     -0.002  0.2158E+01  0.1759E+03
      0.100  0.0000E+00  0.1759E+03
      0.203  0.0000E+00  0.1759E+03
      0.306  0.0000E+00  0.1759E+03
      0.408  0.8898E-02  0.1759E+03
      0.511  0.0000E+00  0.1760E+03
      0.613  0.0000E+00  0.1760E+03
      0.716  0.0000E+00  0.1760E+03
      0.819  0.0000E+00  0.1760E+03
      0.921  0.0000E+00  0.1760E+03
      1.024  0.0000E+00  0.1760E+03
      1.127  0.0000E+00  0.1760E+03
      1.229  0.0000E+00  0.1760E+03
      1.332  0.0000E+00  0.1760E+03
      1.434  0.0000E+00  0.1760E+03
      1.537  0.0000E+00  0.1760E+03
      1.640  0.0000E+00  0.1760E+03
      1.742  0.0000E+00  0.1760E+03
      1.845  0.0000E+00  0.1760E+03
      1.947  0.0000E+00  0.1760E+03
      2.050  0.0000E+00  0.1760E+03
      2.153  0.0000E+00  0.1760E+03
      2.255  0.0000E+00  0.1760E+03
      2.358  0.0000E+00  0.1760E+03
      2.461  0.0000E+00  0.1760E+03
      2.563  0.0000E+00  0.1760E+03
      2.666  0.6675E-11  0.1760E+03
      2.768  0.2166E+01  0.1762E+03
      2.871  0.7752E-02  0.1762E+03
      2.974  0.6357E+01  0.1773E+03
      3.076  0.7706E-01  0.1775E+03
      3.179  0.7560E+01  0.1787E+03
      3.282  0.1100E+02  0.1798E+03
      3.384  0.7156E+00  0.1801E+03
      3.487  0.5953E+01  0.1807E+03
      3.589  0.1684E-01  0.1809E+03
      3.692  0.5953E+01  0.1817E+03
      3.795  0.4330E+01  0.1822E+03
      3.897  0.9399E+01  0.1832E+03
      4.000  0.5835E+01  0.1842E+03
      4.102  0.1083E+02  0.1853E+03
      4.205  0.2159E+01  0.1856E+03
      4.308  0.6497E+01  0.1862E+03
      4.410  0.8137E+01  0.1871E+03
      4.513  0.8662E+01  0.1880E+03
      4.616  0.8662E+01  0.1889E+03
      4.718  0.8662E+01  0.1898E+03
      4.821  0.4389E+00  0.1898E+03
      4.923  0.5679E+00  0.1905E+03
      5.026  0.3909E+01  0.1910E+03
      5.129  0.1467E+02  0.1925E+03
      5.231  0.3026E+01  0.1933E+03
      5.334  0.1074E+02  0.1952E+03
      5.436  0.1398E-04  0.1952E+03
      5.539  0.6492E+01  0.1959E+03
      5.642  0.1083E+01  0.1962E+03
      5.744  0.2161E+01  0.1964E+03
      5.847  0.1624E+02  0.1981E+03
      5.950  0.5284E+01  0.1987E+03
      6.052  0.6942E+01  0.2000E+03
      6.155  0.1102E+02  0.2020E+03
      6.257  0.5941E+01  0.2032E+03
      6.360  0.2073E+02  0.2053E+03
      6.463  0.2269E+02  0.2078E+03
      6.565  0.1174E+02  0.2094E+03
      6.668  0.2657E+02  0.2125E+03
      6.771  0.2238E+02  0.2149E+03
      6.873  0.2441E+02  0.2174E+03
      6.976  0.1392E+02  0.2194E+03
      7.078  0.1848E+02  0.2219E+03
      7.181  0.1295E+02  0.2236E+03
      7.284  0.4331E+01  0.2240E+03
      7.386  0.0000E+00  0.2240E+03
      7.489  0.0000E+00  0.2240E+03
      7.591  0.0000E+00  0.2240E+03
      7.694  0.0000E+00  0.2240E+03
      7.797  0.0000E+00  0.2240E+03
      7.899  0.0000E+00  0.2240E+03
      8.002  0.0000E+00  0.2240E+03
      8.105  0.0000E+00  0.2240E+03
      8.207  0.0000E+00  0.2240E+03
      8.310  0.0000E+00  0.2240E+03
      8.412  0.0000E+00  0.2240E+03
      8.515  0.0000E+00  0.2240E+03
      8.618  0.0000E+00  0.2240E+03
      8.61765201    -22.16779547  301      0.53647205      1.00000000
    -22.168  0.0000E+00  0.0000E+00  0.0000E+00
    -22.065  0.0000E+00  0.0000E+00  0.0000E+00
    -21.963  0.0000E+00  0.0000E+00  0.0000E+00
    -21.860  0.0000E+00  0.0000E+00  0.0000E+00
    -21.757  0.0000E+00  0.0000E+00  0.0000E+00
    -21.655  0.0000E+00  0.0000E+00  0.0000E+00
    -21.552  0.0000E+00  0.0000E+00  0.0000E+00
    -21.449  0.0000E+00  0.0000E+00  0.0000E+00
    -21.347  0.0000E+00  0.0000E+00  0.0000E+00
    -21.244  0.0000E+00  0.0000E+00  0.0000E+00
    -21.142  0.0000E+00  0.0000E+00  0.0000E+00
    -21.039  0.0000E+00  0.0000E+00  0.0000E+00
    -20.936  0.0000E+00  0.0000E+00  0.0000E+00
    -20.834  0.0000E+00  0.0000E+00  0.0000E+00
    -20.731  0.1730E+02  0.8429E-05  0.2923E-05
    -20.629  0.0000E+00  0.0000E+00  0.0000E+00
    -20.526  0.0000E+00  0.0000E+00  0.0000E+00
    -20.423  0.0000E+00  0.0000E+00  0.0000E+00
    -20.321  0.0000E+00  0.0000E+00  0.0000E+00
    -20.218  0.0000E+00  0.0000E+00  0.0000E+00
    -20.115  0.0000E+00  0.0000E+00  0.0000E+00
    -20.013  0.0000E+00  0.0000E+00  0.0000E+00
    -19.910  0.0000E+00  0.0000E+00  0.0000E+00
    -19.808  0.0000E+00  0.0000E+00  0.0000E+00
    -19.705  0.0000E+00  0.0000E+00  0.0000E+00
    -19.602  0.0000E+00  0.0000E+00  0.0000E+00
    -19.500  0.0000E+00  0.0000E+00  0.0000E+00
    -19.397  0.0000E+00  0.0000E+00  0.0000E+00
    -19.294  0.0000E+00  0.0000E+00  0.0000E+00
    -19.192  0.0000E+00  0.0000E+00  0.0000E+00
    -19.089  0.0000E+00  0.0000E+00  0.0000E+00
    -18.987  0.0000E+00  0.0000E+00  0.0000E+00
    -18.884  0.0000E+00  0.0000E+00  0.0000E+00
    -18.781  0.0000E+00  0.0000E+00  0.0000E+00
    -18.679  0.0000E+00  0.0000E+00  0.0000E+00
    -18.576  0.0000E+00  0.0000E+00  0.0000E+00
    -18.474  0.0000E+00  0.0000E+00  0.0000E+00
    -18.371  0.0000E+00  0.0000E+00  0.0000E+00
    -18.268  0.0000E+00  0.0000E+00  0.0000E+00
    -18.166  0.0000E+00  0.0000E+00  0.0000E+00
    -18.063  0.0000E+00  0.0000E+00  0.0000E+00
    -17.960  0.0000E+00  0.0000E+00  0.0000E+00
    -17.858  0.0000E+00  0.0000E+00  0.0000E+00
    -17.755  0.0000E+00  0.0000E+00  0.0000E+00
    -17.653  0.0000E+00  0.0000E+00  0.0000E+00
    -17.550  0.0000E+00  0.0000E+00  0.0000E+00
    -17.447  0.0000E+00  0.0000E+00  0.0000E+00
    -17.345  0.0000E+00  0.0000E+00  0.0000E+00
    -17.242  0.0000E+00  0.0000E+00  0.0000E+00
    -17.140  0.0000E+00  0.0000E+00  0.0000E+00
    -17.037  0.0000E+00  0.0000E+00  0.0000E+00
    -16.934  0.0000E+00  0.0000E+00  0.0000E+00
    -16.832  0.0000E+00  0.0000E+00  0.0000E+00
    -16.729  0.0000E+00  0.0000E+00  0.0000E+00
    -16.626  0.0000E+00  0.0000E+00  0.0000E+00
    -16.524  0.1180E-17  0.7858E-18  0.1580E-18
    -16.421  0.9766E-04  0.8343E-04  0.1824E-04
    -16.319  0.3472E-04  0.1996E-04  0.2464E-05
    -16.216  0.0000E+00  0.0000E+00  0.0000E+00
    -16.113  0.0000E+00  0.0000E+00  0.0000E+00
    -16.011  0.0000E+00  0.0000E+00  0.0000E+00
    -15.908  0.0000E+00  0.0000E+00  0.0000E+00
    -15.805  0.0000E+00  0.0000E+00  0.0000E+00
    -15.703  0.0000E+00  0.0000E+00  0.0000E+00
    -15.600  0.0000E+00  0.0000E+00  0.0000E+00
    -15.498  0.0000E+00  0.0000E+00  0.0000E+00
    -15.395  0.0000E+00  0.0000E+00  0.0000E+00
    -15.292  0.0000E+00  0.0000E+00  0.0000E+00
    -15.190  0.0000E+00  0.0000E+00  0.0000E+00
    -15.087  0.0000E+00  0.0000E+00  0.0000E+00
    -14.985  0.0000E+00  0.0000E+00  0.0000E+00
    -14.882  0.0000E+00  0.0000E+00  0.0000E+00
    -14.779  0.0000E+00  0.0000E+00  0.0000E+00
    -14.677  0.0000E+00  0.0000E+00  0.0000E+00
    -14.574  0.0000E+00  0.0000E+00  0.0000E+00
    -14.471  0.0000E+00  0.0000E+00  0.0000E+00
    -14.369  0.1658E-14  0.1172E-16  0.2367E-17
    -14.266  0.1667E-02  0.3332E-03  0.6083E-05
    -14.164  0.3290E-02  0.3490E-02  0.7279E-04
    -14.061  0.8426E-03  0.5273E-02  0.2298E-03
    -13.958  0.3362E-02  0.6861E-02  0.5507E-03
    -13.856  0.6012E-03  0.2916E-02  0.3090E-03
    -13.753  0.1063E-02  0.2661E-02  0.4422E-03
    -13.650  0.4396E-03  0.5733E-03  0.7133E-04
    -13.548  0.0000E+00  0.0000E+00  0.0000E+00
    -13.445  0.0000E+00  0.0000E+00  0.0000E+00
    -13.343  0.0000E+00  0.0000E+00  0.0000E+00
    -13.240  0.0000E+00  0.0000E+00  0.0000E+00
    -13.137  0.0000E+00  0.0000E+00  0.0000E+00
    -13.035  0.0000E+00  0.0000E+00  0.0000E+00
    -12.932  0.0000E+00  0.0000E+00  0.0000E+00
    -12.830  0.0000E+00  0.0000E+00  0.0000E+00
    -12.727  0.0000E+00  0.0000E+00  0.0000E+00
    -12.624  0.0000E+00  0.0000E+00  0.0000E+00
    -12.522  0.0000E+00  0.0000E+00  0.0000E+00
    -12.419  0.0000E+00  0.0000E+00  0.0000E+00
    -12.316  0.0000E+00  0.0000E+00  0.0000E+00
    -12.214  0.0000E+00  0.0000E+00  0.0000E+00
    -12.111  0.0000E+00  0.0000E+00  0.0000E+00
    -12.009  0.0000E+00  0.0000E+00  0.0000E+00
    -11.906  0.0000E+00  0.0000E+00  0.0000E+00
    -11.803  0.0000E+00  0.0000E+00  0.0000E+00
    -11.701  0.0000E+00  0.0000E+00  0.0000E+00
    -11.598  0.0000E+00  0.0000E+00  0.0000E+00
    -11.496  0.0000E+00  0.0000E+00  0.0000E+00
    -11.393  0.0000E+00  0.0000E+00  0.0000E+00
    -11.290  0.0000E+00  0.0000E+00  0.0000E+00
    -11.188  0.0000E+00  0.0000E+00  0.0000E+00
    -11.085  0.0000E+00  0.0000E+00  0.0000E+00
    -10.982  0.0000E+00  0.0000E+00  0.0000E+00
    -10.880  0.0000E+00  0.0000E+00  0.0000E+00
    -10.777  0.0000E+00  0.0000E+00  0.0000E+00
    -10.675  0.0000E+00  0.0000E+00  0.0000E+00
    -10.572  0.0000E+00  0.0000E+00  0.0000E+00
    -10.469  0.0000E+00  0.0000E+00  0.0000E+00
    -10.367  0.0000E+00  0.0000E+00  0.0000E+00
    -10.264  0.0000E+00  0.0000E+00  0.0000E+00
    -10.161  0.0000E+00  0.0000E+00  0.0000E+00
    -10.059  0.0000E+00  0.0000E+00  0.0000E+00
     -9.956  0.0000E+00  0.0000E+00  0.0000E+00
     -9.854  0.0000E+00  0.0000E+00  0.0000E+00
     -9.751  0.0000E+00  0.0000E+00  0.0000E+00
     -9.648  0.0000E+00  0.0000E+00  0.0000E+00
     -9.546  0.0000E+00  0.0000E+00  0.0000E+00
     -9.443  0.0000E+00  0.0000E+00  0.0000E+00
     -9.341  0.0000E+00  0.0000E+00  0.0000E+00
     -9.238  0.0000E+00  0.0000E+00  0.0000E+00
     -9.135  0.0000E+00  0.0000E+00  0.0000E+00
     -9.033  0.0000E+00  0.0000E+00  0.0000E+00
     -8.930  0.0000E+00  0.0000E+00  0.0000E+00
     -8.827  0.0000E+00  0.0000E+00  0.0000E+00
     -8.725  0.0000E+00  0.0000E+00  0.0000E+00
     -8.622  0.0000E+00  0.0000E+00  0.0000E+00
     -8.520  0.0000E+00  0.0000E+00  0.0000E+00
     -8.417  0.0000E+00  0.0000E+00  0.0000E+00
     -8.314  0.0000E+00  0.0000E+00  0.0000E+00
     -8.212  0.0000E+00  0.0000E+00  0.0000E+00
     -8.109  0.9383E-19  0.3791E-04  0.7495E-05
     -8.006  0.0000E+00  0.0000E+00  0.0000E+00
     -7.904  0.1089E-06  0.5122E-02  0.3797E-04
     -7.801  0.2239E-18  0.5498E-02  0.2879E-04
     -7.699  0.1050E-04  0.2149E-01  0.4536E-04
     -7.596  0.9624E-06  0.8697E-02  0.5438E-05
     -7.493  0.1755E-11  0.2664E-01  0.8582E-05
     -7.391  0.1060E-04  0.9400E-01  0.4413E-04
     -7.288  0.4892E-04  0.3238E+00  0.4158E-04
     -7.186  0.5733E-04  0.8090E+01  0.5797E-04
     -7.083  0.4022E-04  0.2574E+02  0.6872E-04
     -6.980  0.1957E-04  0.1211E+00  0.2617E-04
     -6.878  0.4773E-04  0.4756E-01  0.2152E-04
     -6.775  0.0000E+00  0.0000E+00  0.0000E+00
     -6.672  0.0000E+00  0.0000E+00  0.0000E+00
     -6.570  0.3512E-08  0.9320E-06  0.2217E-09
     -6.467  0.1126E-04  0.2988E-02  0.7105E-06
     -6.365  0.0000E+00  0.0000E+00  0.0000E+00
     -6.262  0.0000E+00  0.0000E+00  0.0000E+00
     -6.159  0.0000E+00  0.0000E+00  0.0000E+00
     -6.057  0.0000E+00  0.0000E+00  0.0000E+00
     -5.954  0.0000E+00  0.0000E+00  0.0000E+00
     -5.852  0.0000E+00  0.0000E+00  0.0000E+00
     -5.749  0.0000E+00  0.0000E+00  0.0000E+00
     -5.646  0.0000E+00  0.0000E+00  0.0000E+00
     -5.544  0.0000E+00  0.0000E+00  0.0000E+00
     -5.441  0.0000E+00  0.0000E+00  0.0000E+00
     -5.338  0.0000E+00  0.0000E+00  0.0000E+00
     -5.236  0.0000E+00  0.0000E+00  0.0000E+00
     -5.133  0.0000E+00  0.0000E+00  0.0000E+00
     -5.031  0.0000E+00  0.0000E+00  0.0000E+00
     -4.928  0.0000E+00  0.0000E+00  0.0000E+00
     -4.825  0.0000E+00  0.0000E+00  0.0000E+00
     -4.723  0.0000E+00  0.0000E+00  0.0000E+00
     -4.620  0.0000E+00  0.0000E+00  0.0000E+00
     -4.517  0.0000E+00  0.0000E+00  0.0000E+00
     -4.415  0.0000E+00  0.0000E+00  0.0000E+00
     -4.312  0.0000E+00  0.0000E+00  0.0000E+00
     -4.210  0.0000E+00  0.0000E+00  0.0000E+00
     -4.107  0.0000E+00  0.0000E+00  0.0000E+00
     -4.004  0.0000E+00  0.0000E+00  0.0000E+00
     -3.902  0.0000E+00  0.0000E+00  0.0000E+00
     -3.799  0.0000E+00  0.0000E+00  0.0000E+00
     -3.697  0.0000E+00  0.0000E+00  0.0000E+00
     -3.594  0.0000E+00  0.0000E+00  0.0000E+00
     -3.491  0.0000E+00  0.0000E+00  0.0000E+00
     -3.389  0.0000E+00  0.0000E+00  0.0000E+00
     -3.286  0.2451E-05  0.1930E-03  0.2596E-05
     -3.183  0.1030E-03  0.1745E-01  0.1275E-02
     -3.081  0.2227E-03  0.1328E-01  0.1764E-02
     -2.978  0.1859E-03  0.5230E-02  0.8181E-03
     -2.876  0.3882E-03  0.1525E-01  0.7222E-03
     -2.773  0.1370E-03  0.1179E-01  0.8836E-03
     -2.670  0.4948E-03  0.8338E-02  0.7508E-03
     -2.568  0.6032E-17  0.3186E-02  0.3389E-03
     -2.465  0.1091E-03  0.1514E-01  0.1057E-02
     -2.362  0.1426E-02  0.1333E-01  0.1709E-02
     -2.260  0.7293E-03  0.2150E-02  0.3705E-03
     -2.157  0.4094E-02  0.1010E-01  0.1131E-02
     -2.055  0.1346E-01  0.2802E-01  0.3003E-02
     -1.952  0.2014E-01  0.4877E-01  0.6338E-02
     -1.849  0.1118E-02  0.1135E-01  0.2095E-03
     -1.747  0.5154E-03  0.5235E-01  0.2058E-02
     -1.644  0.4426E-02  0.1453E+00  0.1470E-01
     -1.542  0.4574E-03  0.2937E-01  0.2153E-02
     -1.439  0.5445E-02  0.8184E-01  0.1668E-01
     -1.336  0.3929E-02  0.8543E-01  0.2670E-01
     -1.234  0.5660E-02  0.6916E-01  0.1321E-01
     -1.131  0.2438E-02  0.8999E-01  0.1186E-01
     -1.028  0.2055E-02  0.7105E-01  0.1330E-01
     -0.926  0.7655E-03  0.1050E-01  0.3496E-02
     -0.823  0.2179E-03  0.1081E-01  0.2938E-02
     -0.721  0.6157E-03  0.1115E-01  0.1110E-02
     -0.618  0.7886E-03  0.6384E-02  0.1338E-02
     -0.515  0.6285E-03  0.5696E-02  0.1760E-02
     -0.413  0.2434E-16  0.7389E-03  0.2741E-03
     -0.310  0.5806E-16  0.3081E-02  0.4853E-04
     -0.208  0.7844E-21  0.4143E-19  0.1679E-19
     -0.105  0.7065E-05  0.6104E-03  0.6975E-03
     -0.002  0.3394E-05  0.3931E-03  0.2790E-03
      0.100  0.0000E+00  0.0000E+00  0.0000E+00
      0.203  0.0000E+00  0.0000E+00  0.0000E+00
      0.306  0.0000E+00  0.0000E+00  0.0000E+00
      0.408  0.4054E-18  0.4005E-06  0.9616E-06
      0.511  0.0000E+00  0.0000E+00  0.0000E+00
      0.613  0.0000E+00  0.0000E+00  0.0000E+00
      0.716  0.0000E+00  0.0000E+00  0.0000E+00
      0.819  0.0000E+00  0.0000E+00  0.0000E+00
      0.921  0.0000E+00  0.0000E+00  0.0000E+00
      1.024  0.0000E+00  0.0000E+00  0.0000E+00
      1.127  0.0000E+00  0.0000E+00  0.0000E+00
      1.229  0.0000E+00  0.0000E+00  0.0000E+00
      1.332  0.0000E+00  0.0000E+00  0.0000E+00
      1.434  0.0000E+00  0.0000E+00  0.0000E+00
      1.537  0.0000E+00  0.0000E+00  0.0000E+00
      1.640  0.0000E+00  0.0000E+00  0.0000E+00
      1.742  0.0000E+00  0.0000E+00  0.0000E+00
      1.845  0.0000E+00  0.0000E+00  0.0000E+00
      1.947  0.0000E+00  0.0000E+00  0.0000E+00
      2.050  0.0000E+00  0.0000E+00  0.0000E+00
      2.153  0.0000E+00  0.0000E+00  0.0000E+00
      2.255  0.0000E+00  0.0000E+00  0.0000E+00
      2.358  0.0000E+00  0.0000E+00  0.0000E+00
      2.461  0.0000E+00  0.0000E+00  0.0000E+00
      2.563  0.0000E+00  0.0000E+00  0.0000E+00
      2.666  0.5832E-19  0.3012E-15  0.6417E-14
      2.768  0.3184E-04  0.2517E-03  0.1526E-02
      2.871  0.4382E-06  0.1608E-05  0.2847E-05
      2.974  0.3085E-03  0.8060E-03  0.3737E-02
      3.076  0.9942E-14  0.6399E-04  0.2617E-04
      3.179  0.6848E-03  0.1053E-02  0.2140E-02
      3.282  0.8469E-03  0.5282E-02  0.3154E-02
      3.384  0.4366E-04  0.1049E-03  0.1415E-03
      3.487  0.7874E-03  0.1930E-02  0.2820E-02
      3.589  0.4058E-17  0.2959E-05  0.2268E-04
      3.692  0.6201E-03  0.1306E-02  0.4442E-02
      3.795  0.5478E-03  0.1236E-02  0.3318E-02
      3.897  0.8274E-03  0.1616E-02  0.7061E-02
      4.000  0.4610E-03  0.1858E-02  0.3510E-02
      4.102  0.4359E-03  0.1915E-02  0.4065E-02
      4.205  0.1649E-03  0.8125E-03  0.5168E-03
      4.308  0.1417E-03  0.1498E-02  0.3749E-02
      4.410  0.7526E-03  0.2694E-02  0.8317E-02
      4.513  0.1702E-04  0.3887E-02  0.8059E-02
      4.616  0.1155E-02  0.1625E-02  0.3038E-02
      4.718  0.1797E-02  0.3150E-02  0.4296E-02
      4.821  0.1519E-03  0.1089E-03  0.3848E-03
      4.923  0.6162E-02  0.5919E-05  0.2551E-03
      5.026  0.5097E-14  0.1866E-02  0.4200E-02
      5.129  0.1935E-02  0.2938E-02  0.1739E-01
      5.231  0.3133E-02  0.2466E-02  0.2463E-02
      5.334  0.6710E-02  0.5649E-02  0.1085E-01
      5.436  0.4442E-08  0.1887E-08  0.1329E-07
      5.539  0.7505E-03  0.4414E-03  0.1389E-01
      5.642  0.1800E-12  0.6658E-06  0.2896E-02
      5.744  0.1240E-01  0.2356E-02  0.8739E-02
      5.847  0.8103E-02  0.2682E-02  0.3205E-01
      5.950  0.2193E-03  0.4944E-03  0.9363E-02
      6.052  0.3445E-01  0.1546E-01  0.5913E-01
      6.155  0.6912E-03  0.1600E-02  0.3500E-01
      6.257  0.7420E-02  0.3288E-02  0.1349E+00
      6.360  0.6302E-01  0.4180E-01  0.3746E+00
      6.463  0.5676E-01  0.3386E-01  0.5477E+00
      6.565  0.1104E-01  0.6376E-02  0.3473E+00
      6.668  0.2962E-01  0.4468E-01  0.7419E+00
      6.771  0.5490E-01  0.2702E-01  0.5773E+00
      6.873  0.8570E-02  0.5894E-01  0.7667E+00
      6.976  0.6775E-02  0.1068E-01  0.5762E+00
      7.078  0.3009E-01  0.3232E-01  0.6054E+00
      7.181  0.6513E-02  0.4175E-01  0.3049E+00
      7.284  0.5099E-04  0.5755E-02  0.1283E+00
      7.386  0.0000E+00  0.0000E+00  0.0000E+00
      7.489  0.0000E+00  0.0000E+00  0.0000E+00
      7.591  0.0000E+00  0.0000E+00  0.0000E+00
      7.694  0.0000E+00  0.0000E+00  0.0000E+00
      7.797  0.0000E+00  0.0000E+00  0.0000E+00
      7.899  0.0000E+00  0.0000E+00  0.0000E+00
      8.002  0.0000E+00  0.0000E+00  0.0000E+00
      8.105  0.0000E+00  0.0000E+00  0.0000E+00
      8.207  0.0000E+00  0.0000E+00  0.0000E+00
      8.310  0.0000E+00  0.0000E+00  0.0000E+00
      8.412  0.0000E+00  0.0000E+00  0.0000E+00
      8.515  0.0000E+00  0.0000E+00  0.0000E+00
      8.618  0.0000E+00  0.0000E+00  0.0000E+00
      8.61765201    -22.16779547  301      0.53647205      1.00000000
    -22.168  0.0000E+00  0.0000E+00  0.0000E+00
    -22.065  0.0000E+00  0.0000E+00  0.0000E+00
    -21.963  0.0000E+00  0.0000E+00  0.0000E+00
    -21.860  0.0000E+00  0.0000E+00  0.0000E+00
    -21.757  0.0000E+00  0.0000E+00  0.0000E+00
    -21.655  0.0000E+00  0.0000E+00  0.0000E+00
    -21.552  0.0000E+00  0.0000E+00  0.0000E+00
    -21.449  0.0000E+00  0.0000E+00  0.0000E+00
    -21.347  0.0000E+00  0.0000E+00  0.0000E+00
    -21.244  0.0000E+00  0.0000E+00  0.0000E+00
    -21.142  0.0000E+00  0.0000E+00  0.0000E+00
    -21.039  0.0000E+00  0.0000E+00  0.0000E+00
    -20.936  0.0000E+00  0.0000E+00  0.0000E+00
    -20.834  0.0000E+00  0.0000E+00  0.0000E+00
    -20.731  0.1730E+02  0.8423E-05  0.2931E-05
    -20.629  0.0000E+00  0.0000E+00  0.0000E+00
    -20.526  0.0000E+00  0.0000E+00  0.0000E+00
    -20.423  0.0000E+00  0.0000E+00  0.0000E+00
    -20.321  0.0000E+00  0.0000E+00  0.0000E+00
    -20.218  0.0000E+00  0.0000E+00  0.0000E+00
    -20.115  0.0000E+00  0.0000E+00  0.0000E+00
    -20.013  0.0000E+00  0.0000E+00  0.0000E+00
    -19.910  0.0000E+00  0.0000E+00  0.0000E+00
    -19.808  0.0000E+00  0.0000E+00  0.0000E+00
    -19.705  0.0000E+00  0.0000E+00  0.0000E+00
    -19.602  0.0000E+00  0.0000E+00  0.0000E+00
    -19.500  0.0000E+00  0.0000E+00  0.0000E+00
    -19.397  0.0000E+00  0.0000E+00  0.0000E+00
    -19.294  0.0000E+00  0.0000E+00  0.0000E+00
    -19.192  0.0000E+00  0.0000E+00  0.0000E+00
    -19.089  0.0000E+00  0.0000E+00  0.0000E+00
    -18.987  0.0000E+00  0.0000E+00  0.0000E+00
    -18.884  0.0000E+00  0.0000E+00  0.0000E+00
    -18.781  0.0000E+00  0.0000E+00  0.0000E+00
    -18.679  0.0000E+00  0.0000E+00  0.0000E+00
    -18.576  0.0000E+00  0.0000E+00  0.0000E+00
    -18.474  0.0000E+00  0.0000E+00  0.0000E+00
    -18.371  0.0000E+00  0.0000E+00  0.0000E+00
    -18.268  0.0000E+00  0.0000E+00  0.0000E+00
    -18.166  0.0000E+00  0.0000E+00  0.0000E+00
    -18.063  0.0000E+00  0.0000E+00  0.0000E+00
    -17.960  0.0000E+00  0.0000E+00  0.0000E+00
    -17.858  0.0000E+00  0.0000E+00  0.0000E+00
    -17.755  0.0000E+00  0.0000E+00  0.0000E+00
    -17.653  0.0000E+00  0.0000E+00  0.0000E+00
    -17.550  0.0000E+00  0.0000E+00  0.0000E+00
    -17.447  0.0000E+00  0.0000E+00  0.0000E+00
    -17.345  0.0000E+00  0.0000E+00  0.0000E+00
    -17.242  0.0000E+00  0.0000E+00  0.0000E+00
    -17.140  0.0000E+00  0.0000E+00  0.0000E+00
    -17.037  0.0000E+00  0.0000E+00  0.0000E+00
    -16.934  0.0000E+00  0.0000E+00  0.0000E+00
    -16.832  0.0000E+00  0.0000E+00  0.0000E+00
    -16.729  0.0000E+00  0.0000E+00  0.0000E+00
    -16.626  0.0000E+00  0.0000E+00  0.0000E+00
    -16.524  0.1555E-18  0.7838E-18  0.1665E-18
    -16.421  0.1003E-03  0.7089E-04  0.1750E-04
    -16.319  0.3440E-04  0.2267E-04  0.2493E-05
    -16.216  0.0000E+00  0.0000E+00  0.0000E+00
    -16.113  0.0000E+00  0.0000E+00  0.0000E+00
    -16.011  0.0000E+00  0.0000E+00  0.0000E+00
    -15.908  0.0000E+00  0.0000E+00  0.0000E+00
    -15.805  0.0000E+00  0.0000E+00  0.0000E+00
    -15.703  0.0000E+00  0.0000E+00  0.0000E+00
    -15.600  0.0000E+00  0.0000E+00  0.0000E+00
    -15.498  0.0000E+00  0.0000E+00  0.0000E+00
    -15.395  0.0000E+00  0.0000E+00  0.0000E+00
    -15.292  0.0000E+00  0.0000E+00  0.0000E+00
    -15.190  0.0000E+00  0.0000E+00  0.0000E+00
    -15.087  0.0000E+00  0.0000E+00  0.0000E+00
    -14.985  0.0000E+00  0.0000E+00  0.0000E+00
    -14.882  0.0000E+00  0.0000E+00  0.0000E+00
    -14.779  0.0000E+00  0.0000E+00  0.0000E+00
    -14.677  0.0000E+00  0.0000E+00  0.0000E+00
    -14.574  0.0000E+00  0.0000E+00  0.0000E+00
    -14.471  0.0000E+00  0.0000E+00  0.0000E+00
    -14.369  0.1658E-14  0.1172E-16  0.2367E-17
    -14.266  0.1667E-02  0.3332E-03  0.6083E-05
    -14.164  0.3889E-02  0.2741E-02  0.7325E-04
    -14.061  0.7561E-03  0.7463E-02  0.2430E-03
    -13.958  0.1608E-02  0.4545E-02  0.3939E-03
    -13.856  0.1485E-02  0.3837E-02  0.4113E-03
    -13.753  0.1575E-02  0.2396E-02  0.4213E-03
    -13.650  0.1735E-03  0.4964E-03  0.7236E-04
    -13.548  0.0000E+00  0.0000E+00  0.0000E+00
    -13.445  0.0000E+00  0.0000E+00  0.0000E+00
    -13.343  0.0000E+00  0.0000E+00  0.0000E+00
    -13.240  0.0000E+00  0.0000E+00  0.0000E+00
    -13.137  0.0000E+00  0.0000E+00  0.0000E+00
    -13.035  0.0000E+00  0.0000E+00  0.0000E+00