CsPbBr3 cubic bulk                      
           1
     8.504218    0.000000    0.000000
     0.000000   11.881446    0.000000
     0.000000    0.000000    7.942281
   Cs   Pb   Br
   4   4  12
Direct configuration=     1
   0.06777596  0.25000000  0.47651495
   0.43222404  0.75000000  0.97651495
   0.56777596  0.25000000  0.02348505
   0.93222404  0.75000000  0.52348505
   0.00000000  0.00000000  0.00000000
   0.50000000  0.00000000  0.50000000
   0.50000000  0.50000000  0.50000000
   0.00000000  0.50000000  0.00000000
   0.50525761  0.75000000  0.44025523
   0.99474239  0.25000000  0.94025523
   0.00525761  0.75000000  0.05974477
   0.49474239  0.25000000  0.55974477
   0.30151032  0.46683287  0.19160694
   0.19848968  0.53316713  0.69160694
   0.80151032  0.03316713  0.30839306
   0.69848968  0.96683287  0.80839306
   0.30151032  0.03316713  0.19160694
   0.19848968  0.96683287  0.69160694
   0.69848968  0.53316713  0.80839306
   0.80151032  0.46683287  0.30839306
