CsPbBr3 cubic bulk                      
           1
     8.420018    0.000000    8.077981
     0.000000   11.763808    0.000000
    -8.420018    0.000000    8.077981
   Cs   Pb   Br
   8   8  24
Direct configuration=     1
   0.27212500  0.25000000  0.20823600
   0.80852694  0.30097622  0.63924424
   0.79050447  0.82153975  0.26187565
   0.26866262  0.84935728  0.68569747
   0.34182155  0.42209983  0.73227905
   0.76620706  0.30878970  0.17793633
   0.76157507  0.75984634  0.68744580
   0.35336498  0.81711408  0.20909604
   0.03463181  0.05553691  0.96391418
   0.55492129  0.09174624  0.45859387
   0.58945071  0.07614845  0.92577719
   0.04013612  0.06178858  0.45795649
   0.54836752  0.56671769  0.95579446
   0.02797200  0.56996588  0.43771960
   0.06789444  0.54709738  0.94027291
   0.51751274  0.58145557  0.43860279
   0.49925989  0.81809866  0.92882866
   0.98946924  0.82360773  0.49646661
   0.01792182  0.31917139  0.04496839
   0.52074408  0.32153771  0.42983039
   0.05147139  0.80077791  0.87335997
   0.54235717  0.84103103  0.45412657
   0.57936919  0.32987003  0.89719207
   0.00283093  0.31682273  0.35797781
   0.32692099  0.50453796  0.04032066
   0.76450400  0.54997964  0.48966971
   0.61754410  0.57830394  0.18705764
   0.06650984  0.48123778  0.69198912
   0.64987587  0.04229492  0.69191534
   0.10969843  0.97760686  0.22035456
   0.79639798  0.97787791  0.03080516
   0.30186002  0.07402717  0.47967367
   0.32546497  0.08883888  0.93874885
   0.79877914  0.09644128  0.41357280
   0.53534618  0.07743142  0.21503447
   0.05519668  0.10842921  0.71616525
   0.80174133  0.56677166  0.89142084
   0.27903923  0.57058229  0.41704258
   0.52028219  0.63255465  0.69213927
   0.00313623  0.61764909  0.18653601
