 vasp.5.4.4.18Apr17-6-g9f103f2a35 (build Jun 22 2020 09:27:21) complex           
 executed on tx2_gcc-7.3_libsci-1 date 2021.10.12  05:26:59
 running on   64 total cores
 distrk:  each k-point on   64 cores,    1 groups
 distr:  one band on NCORES_PER_BAND=   8 cores,    8 groups


--------------------------------------------------------------------------------------------------------


 INCAR:
 POTCAR:    PAW_PBE Cs_sv 08Apr2002               
 POTCAR:    PAW_PBE Pb_d 06Sep2000                
 POTCAR:    PAW_PBE Br 06Sep2000                  
 POTCAR:    PAW_PBE Cs_sv 08Apr2002               
 POTCAR:    PAW_PBE Cs_sv 08Apr2002               
   SHA256 =  c1463496f0f6037ed62c6012a8013a89ee9ad6ffb38599dcd6c079e7ed31779b Cs
   COPYR  = (c) Copyright 08Apr2002 Georg Kresse                                
   COPYR  = This file is part of the software VASP. Any use, copying, and all ot
   COPYR  = If you do not have a valid VASP license, you may not use, copy or di
   VRHFIN =Cs: 5s5p6s                                                           
   LEXCH  = PE                                                                  
   EATOM  =   555.6835 eV,   40.8416 Ry                                         
                                                                                
   TITEL  = PAW_PBE Cs_sv 08Apr2002                                             
   LULTRA =        F    use ultrasoft PP ?                                      
   IUNSCR =        1    unscreen: 0-lin 1-nonlin 2-no                           
   RPACOR =    2.200    partial core radius                                     
   POMASS =  132.900; ZVAL   =    9.000    mass and valenz                      
   RCORE  =    2.500    outmost cutoff radius                                   
   RWIGS  =    2.500; RWIGS  =    1.323    wigner-seitz radius (au A)           
   ENMAX  =  220.318; ENMIN  =  165.238 eV                                      
   RCLOC  =    2.207    cutoff for local pot                                    
   LCOR   =        T    correct aug charges                                     
   LPAW   =        T    paw PP                                                  
   EAUG   =  407.933                                                            
   DEXC   =    0.000                                                            
   RMAX   =    2.554    core radius for proj-oper                               
   RAUG   =    1.300    factor for augmentation sphere                          
   RDEP   =    2.590    radius for radial grids                                 
   RDEPT  =    2.117    core radius for aug-charge                              
                                                                                
   Atomic configuration                                                         
   13 entries                                                                   
     n  l   j            E        occ.                                          
     1  0  0.50    -35790.1377   2.0000                                         
     2  0  0.50     -5613.6201   2.0000                                         
     2  1  1.50     -5035.0101   6.0000                                         
     3  0  0.50     -1167.0767   2.0000                                         
     3  1  1.50      -980.9754   6.0000                                         
     3  2  2.50      -708.0703  10.0000                                         
     4  0  0.50      -220.2386   2.0000                                         
     4  1  1.50      -160.7596   6.0000                                         
     4  2  2.50       -74.2354  10.0000                                         
     5  0  0.50       -26.7287   2.0000                                         
     6  0  0.50        -2.0862   1.0000                                         
     5  1  1.50       -13.5159   6.0000                                         
     5  2  2.50        -0.4136   0.0000                                         
   Description                                                                  
     l       E           TYP  RCUT    TYP  RCUT                                 
     0    -26.7287425     23  1.900                                             
     0     -2.0862306     23  1.900                                             
     1    -13.5158719     23  2.500                                             
     1     -2.7211652     23  2.500                                             
     2     -0.4136171     23  2.500                                             
  local pseudopotential read in
  partial core-charges read in
  partial kinetic energy density read in
  atomic valenz-charges read in
  non local Contribution for L=           0  read in
    real space projection operators read in
  non local Contribution for L=           0  read in
    real space projection operators read in
  non local Contribution for L=           1  read in
    real space projection operators read in
  non local Contribution for L=           1  read in
    real space projection operators read in
  non local Contribution for L=           2  read in
    real space projection operators read in
    PAW grid and wavefunctions read in

   number of l-projection  operators is LMAX  =           5
   number of lm-projection operators is LMMAX =          13

 POTCAR:    PAW_PBE Pb_d 06Sep2000                
   SHA256 =  fb885b08f0fba73a15f6a6b0e39bd200c13ec96ef97cf3ecd8e63bade5137abd Pb
   COPYR  = (c) Copyright 06Sep2000 Georg Kresse                                
   COPYR  = This file is part of the software VASP. Any use, copying, and all ot
   COPYR  = If you do not have a valid VASP license, you may not use, copy or di
   VRHFIN =Pb:                                                                  
   LEXCH  = PE                                                                  
   EATOM  =  1661.6185 eV,  122.1255 Ry                                         
                                                                                
   TITEL  = PAW_PBE Pb_d 06Sep2000                                              
   LULTRA =        F    use ultrasoft PP ?                                      
   IUNSCR =        1    unscreen: 0-lin 1-nonlin 2-no                           
   RPACOR =    2.200    partial core radius                                     
   POMASS =  207.200; ZVAL   =   14.000    mass and valenz                      
   RCORE  =    2.500    outmost cutoff radius                                   
   RWIGS  =    3.260; RWIGS  =    1.725    wigner-seitz radius (au A)           
   ENMAX  =  237.835; ENMIN  =  178.376 eV                                      
   ICORE  =        3    local potential                                         
   LCOR   =        T    correct aug charges                                     
   LPAW   =        T    paw PP                                                  
   EAUG   =  391.914                                                            
   DEXC   =    0.000                                                            
   RMAX   =    2.565    core radius for proj-oper                               
   RAUG   =    1.300    factor for augmentation sphere                          
   RDEP   =    2.643    radius for radial grids                                 
   RDEPT  =    2.092    core radius for aug-charge                              
                                                                                
   Atomic configuration                                                         
   16 entries                                                                   
     n  l   j            E        occ.                                          
     1  0  0.50    -88091.8466   2.0000                                         
     2  0  0.50    -15753.4197   2.0000                                         
     2  1  1.50    -13508.1797   6.0000                                         
     3  0  0.50     -3781.7194   2.0000                                         
     3  1  1.50     -3138.2529   6.0000                                         
     3  2  2.50     -2483.2977  10.0000                                         
     4  0  0.50      -856.2895   2.0000                                         
     4  1  1.50      -645.4942   6.0000                                         
     4  2  2.50      -401.8768  10.0000                                         
     4  3  3.50      -132.9059  14.0000                                         
     5  0  0.50      -144.0950   2.0000                                         
     5  1  1.50       -85.7879   6.0000                                         
     5  2  2.50       -21.1769  10.0000                                         
     6  0  0.50       -12.0372   2.0000                                         
     6  1  1.50        -3.4971   2.0000                                         
     5  3  2.50        -2.7212   0.0000                                         
   Description                                                                  
     l       E           TYP  RCUT    TYP  RCUT                                 
     2    -21.1768523     23  2.500                                             
     2      1.3605826     23  2.500                                             
     0    -12.0371562     23  2.500                                             
     0     13.6058260     23  2.500                                             
     1     -3.4971339     23  2.500                                             
     1     13.6058260     23  2.500                                             
     3     -1.3605826      7  2.500                                             
  local pseudopotential read in
  partial core-charges read in
  partial kinetic energy density read in
  atomic valenz-charges read in
  non local Contribution for L=           2  read in
    real space projection operators read in
  non local Contribution for L=           2  read in
    real space projection operators read in
  non local Contribution for L=           0  read in
    real space projection operators read in
  non local Contribution for L=           0  read in
    real space projection operators read in
  non local Contribution for L=           1  read in
    real space projection operators read in
  non local Contribution for L=           1  read in
    real space projection operators read in
    PAW grid and wavefunctions read in

   number of l-projection  operators is LMAX  =           6
   number of lm-projection operators is LMMAX =          18

 POTCAR:    PAW_PBE Br 06Sep2000                  
   SHA256 =  96a73d2954943bbee26f4990d676cc6c3bf44b8dd2c75cd4b3b825d8403f0103 Br
   COPYR  = (c) Copyright 06Sep2000 Georg Kresse                                
   COPYR  = This file is part of the software VASP. Any use, copying, and all ot
   COPYR  = If you do not have a valid VASP license, you may not use, copy or di
   VRHFIN =Br: s2p5                                                             
   LEXCH  = PE                                                                  
   EATOM  =   368.4488 eV,   27.0802 Ry                                         
                                                                                
   TITEL  = PAW_PBE Br 06Sep2000                                                
   LULTRA =        F    use ultrasoft PP ?                                      
   IUNSCR =        1    unscreen: 0-lin 1-nonlin 2-no                           
   RPACOR =    1.900    partial core radius                                     
   POMASS =   79.904; ZVAL   =    7.000    mass and valenz                      
   RCORE  =    2.100    outmost cutoff radius                                   
   RWIGS  =    2.200; RWIGS  =    1.164    wigner-seitz radius (au A)           
   ENMAX  =  216.285; ENMIN  =  162.214 eV                                      
   ICORE  =        3    local potential                                         
   LCOR   =        T    correct aug charges                                     
   LPAW   =        T    paw PP                                                  
   EAUG   =  503.852                                                            
   DEXC   =    0.000                                                            
   RMAX   =    2.139    core radius for proj-oper                               
   RAUG   =    1.300    factor for augmentation sphere                          
   RDEP   =    2.186    radius for radial grids                                 
   RDEPT  =    1.890    core radius for aug-charge                              
                                                                                
   Atomic configuration                                                         
   10 entries                                                                   
     n  l   j            E        occ.                                          
     1  0  0.50    -13316.2796   2.0000                                         
     2  0  0.50     -1732.8239   2.0000                                         
     2  1  1.50     -1528.2193   6.0000                                         
     3  0  0.50      -238.0460   2.0000                                         
     3  1  1.50      -173.4609   6.0000                                         
     3  2  2.50       -66.7132  10.0000                                         
     4  0  0.50       -20.1334   2.0000                                         
     4  1  0.50        -7.8591   5.0000                                         
     4  2  2.50        -8.1635   0.0000                                         
     4  3  2.50        -8.1635   0.0000                                         
   Description                                                                  
     l       E           TYP  RCUT    TYP  RCUT                                 
     0    -20.1333652     23  2.100                                             
     0    -21.4939478     23  2.100                                             
     1     -7.8591052     23  2.100                                             
     1     -3.1608434     23  2.100                                             
     2     -8.1634956     23  2.100                                             
     3     -1.3605826      7  2.100                                             
  local pseudopotential read in
  partial core-charges read in
  partial kinetic energy density read in
  atomic valenz-charges read in
  non local Contribution for L=           0  read in
    real space projection operators read in
  non local Contribution for L=           0  read in
    real space projection operators read in
  non local Contribution for L=           1  read in
    real space projection operators read in
  non local Contribution for L=           1  read in
    real space projection operators read in
  non local Contribution for L=           2  read in
    real space projection operators read in
    PAW grid and wavefunctions read in

   number of l-projection  operators is LMAX  =           5
   number of lm-projection operators is LMMAX =          13

 POTCAR:    PAW_PBE Cs_sv 08Apr2002               
   SHA256 =  c1463496f0f6037ed62c6012a8013a89ee9ad6ffb38599dcd6c079e7ed31779b Cs
   COPYR  = (c) Copyright 08Apr2002 Georg Kresse                                
   COPYR  = This file is part of the software VASP. Any use, copying, and all ot
   COPYR  = If you do not have a valid VASP license, you may not use, copy or di
   VRHFIN =Cs: 5s5p6s                                                           
   LEXCH  = PE                                                                  
   EATOM  =   555.6835 eV,   40.8416 Ry                                         
                                                                                
   TITEL  = PAW_PBE Cs_sv 08Apr2002                                             
   LULTRA =        F    use ultrasoft PP ?                                      
   IUNSCR =        1    unscreen: 0-lin 1-nonlin 2-no                           
   RPACOR =    2.200    partial core radius                                     
   POMASS =  132.900; ZVAL   =    9.000    mass and valenz                      
   RCORE  =    2.500    outmost cutoff radius                                   
   RWIGS  =    2.500; RWIGS  =    1.323    wigner-seitz radius (au A)           
   ENMAX  =  220.318; ENMIN  =  165.238 eV                                      
   RCLOC  =    2.207    cutoff for local pot                                    
   LCOR   =        T    correct aug charges                                     
   LPAW   =        T    paw PP                                                  
   EAUG   =  407.933                                                            
   DEXC   =    0.000                                                            
   RMAX   =    2.554    core radius for proj-oper                               
   RAUG   =    1.300    factor for augmentation sphere                          
   RDEP   =    2.590    radius for radial grids                                 
   RDEPT  =    2.117    core radius for aug-charge                              
                                                                                
   Atomic configuration                                                         
   13 entries                                                                   
     n  l   j            E        occ.                                          
     1  0  0.50    -35790.1377   2.0000                                         
     2  0  0.50     -5613.6201   2.0000                                         
     2  1  1.50     -5035.0101   6.0000                                         
     3  0  0.50     -1167.0767   2.0000                                         
     3  1  1.50      -980.9754   6.0000                                         
     3  2  2.50      -708.0703  10.0000                                         
     4  0  0.50      -220.2386   2.0000                                         
     4  1  1.50      -160.7596   6.0000                                         
     4  2  2.50       -74.2354  10.0000                                         
     5  0  0.50       -26.7287   2.0000                                         
     6  0  0.50        -2.0862   1.0000                                         
     5  1  1.50       -13.5159   6.0000                                         
     5  2  2.50        -0.4136   0.0000                                         
   Description                                                                  
     l       E           TYP  RCUT    TYP  RCUT                                 
     0    -26.7287425     23  1.900                                             
     0     -2.0862306     23  1.900                                             
     1    -13.5158719     23  2.500                                             
     1     -2.7211652     23  2.500                                             
     2     -0.4136171     23  2.500                                             
  local pseudopotential read in
  partial core-charges read in
  partial kinetic energy density read in
  atomic valenz-charges read in
  non local Contribution for L=           0  read in
    real space projection operators read in
  non local Contribution for L=           0  read in
    real space projection operators read in
  non local Contribution for L=           1  read in
    real space projection operators read in
  non local Contribution for L=           1  read in
    real space projection operators read in
  non local Contribution for L=           2  read in
    real space projection operators read in
    PAW grid and wavefunctions read in

   number of l-projection  operators is LMAX  =           5
   number of lm-projection operators is LMMAX =          13

 Optimization of the real space projectors (new method)

 maximal supplied QI-value         = 15.12
 optimisation between [QCUT,QGAM] = [  8.77, 17.69] = [ 21.53, 87.61] Ry 
 Optimized for a Real-space Cutoff    1.85 Angstroem

   l    n(q)    QCUT    max X(q) W(low)/X(q) W(high)/X(q)  e(spline) 
   0     10     8.768    25.322    0.81E-04    0.51E-04    0.48E-06
   0     10     8.768    99.187    0.78E-04    0.50E-04    0.47E-06
   1      9     8.768    11.761    0.21E-03    0.20E-03    0.37E-06
   1      9     8.768     8.275    0.24E-03    0.22E-03    0.41E-06
   2      9     8.768     3.829    0.23E-04    0.15E-03    0.18E-06
 Optimization of the real space projectors (new method)

 maximal supplied QI-value         = 15.12
 optimisation between [QCUT,QGAM] = [  8.77, 17.69] = [ 21.53, 87.61] Ry 
 Optimized for a Real-space Cutoff    1.59 Angstroem

   l    n(q)    QCUT    max X(q) W(low)/X(q) W(high)/X(q)  e(spline) 
   2      7     8.768     3.846    0.48E-04    0.11E-03    0.11E-06
   2      7     8.768     8.593    0.20E-03    0.22E-04    0.24E-06
   0      8     8.768    20.082    0.68E-04    0.88E-04    0.41E-07
   0      8     8.768     8.597    0.89E-04    0.13E-03    0.59E-07
   1      8     8.768    33.223    0.15E-03    0.53E-04    0.87E-07
   1      8     8.768    15.899    0.14E-03    0.44E-04    0.78E-07
 Optimization of the real space projectors (new method)

 maximal supplied QI-value         = 17.95
 optimisation between [QCUT,QGAM] = [  8.80, 17.59] = [ 21.67, 86.68] Ry 
 Optimized for a Real-space Cutoff    1.59 Angstroem

   l    n(q)    QCUT    max X(q) W(low)/X(q) W(high)/X(q)  e(spline) 
   0      8     8.797   175.082    0.82E-04    0.14E-03    0.89E-07
   0      8     8.797   174.004    0.79E-04    0.14E-03    0.86E-07
   1      8     8.797    54.315    0.16E-03    0.14E-04    0.30E-06
   1      8     8.797    42.441    0.16E-03    0.14E-04    0.30E-06
   2      7     8.797     3.596    0.92E-04    0.15E-03    0.85E-07
 Optimization of the real space projectors (new method)

 maximal supplied QI-value         = 15.12
 optimisation between [QCUT,QGAM] = [  8.77, 17.69] = [ 21.53, 87.61] Ry 
 Optimized for a Real-space Cutoff    1.85 Angstroem

   l    n(q)    QCUT    max X(q) W(low)/X(q) W(high)/X(q)  e(spline) 
   0     10     8.768    25.322    0.81E-04    0.51E-04    0.48E-06
   0     10     8.768    99.187    0.78E-04    0.50E-04    0.47E-06
   1      9     8.768    11.761    0.21E-03    0.20E-03    0.37E-06
   1      9     8.768     8.275    0.24E-03    0.22E-03    0.41E-06
   2      9     8.768     3.829    0.23E-04    0.15E-03    0.18E-06
  PAW_PBE Cs_sv 08Apr2002               :
 energy of atom  1       EATOM= -555.6835
 kinetic energy error for atom=    0.0069 (will be added to EATOM!!)
  PAW_PBE Pb_d 06Sep2000                :
 energy of atom  2       EATOM=-1661.6185
 kinetic energy error for atom=    0.0498 (will be added to EATOM!!)
  PAW_PBE Br 06Sep2000                  :
 energy of atom  3       EATOM= -368.4488
 kinetic energy error for atom=    0.0072 (will be added to EATOM!!)
  PAW_PBE Cs_sv 08Apr2002               :
 energy of atom  4       EATOM= -555.6835
 kinetic energy error for atom=    0.0069 (will be added to EATOM!!)


 POSCAR: Cs7 Pb8 Br24                            
  positions in direct lattice
  No initial velocities read in

 METAGGA = SCAN     LMAXTAU =  6    LMIXTAU =  F

 exchange correlation table for  LEXCH =        8
   RHO(1)=    0.500       N(1)  =     2000
   RHO(2)=  100.500       N(2)  =     4000

 VTST: version 3.2, (02/03/18)

 CHAIN: initializing optimizer
 
 OPT: Using VASP Conjugate-Gradient optimizer
 CHAIN: Read ICHAIN            0

 POSCAR: Cs7 Pb8 Br24                            
  positions in direct lattice
  No initial velocities read in



--------------------------------------------------------------------------------------------------------


 ion  position               nearest neighbor table
   1  0.271  0.248  0.198-
   2  0.768  0.246  0.738-
   3  0.218  0.763  0.768-
   4  0.282  0.237  0.733-
   5  0.732  0.754  0.762-
   6  0.229  0.752  0.303-
   7  0.999  0.996  0.009-  29 2.93  28 2.95  19 3.00  17 3.02  34 3.06  31 3.09
   8  0.501  0.004  0.491-  32 2.93  33 2.95  18 3.00  20 3.02  27 3.06  30 3.10
   9  0.509  0.998  0.001-  29 2.99  27 2.99  21 3.01  33 3.01  31 3.02  15 3.04
  10  0.991  0.002  0.499-  32 2.99  34 3.00  28 3.01  16 3.01  30 3.02  22 3.04
  11  0.500  0.501  0.991-  37 2.93  23 2.96  15 2.97  35 2.99  21 3.02  25 3.08
  12  1.000  0.500  0.509-  26 2.93  36 2.97  22 2.97  24 2.99  16 3.02  38 3.08
  13  0.007  0.501  0.001-  35 2.97  23 2.98  26 2.99  17 2.99  19 3.00  38 3.01
  14  0.493  0.499  0.499-  24 2.97  36 2.98  37 2.99  20 2.99  18 3.00  25 3.01
  15  0.475  0.748  0.945-  11 2.97   9 3.04
  16  0.959  0.750  0.465-  10 3.01  12 3.02
  17  0.983  0.250  0.974-  13 2.99   7 3.02
  18  0.441  0.252  0.467-  14 3.00   8 3.00
  19  0.060  0.749  0.033-   7 3.00  13 3.00
  20  0.518  0.751  0.526-  14 2.99   8 3.02
  21  0.540  0.250  0.034-   9 3.01  11 3.02
  22  0.025  0.252  0.555-  12 2.97  10 3.04
  23  0.251  0.460  0.948-  11 2.96  13 2.98
  24  0.746  0.468  0.508-  14 2.97  12 2.99
  25  0.444  0.529  0.246-  14 3.01  11 3.08
  26  0.976  0.554  0.751-  12 2.93  13 2.99
  27  0.542  0.033  0.750-   9 2.99   8 3.06
  28  0.059  0.029  0.255-   7 2.95  10 3.01
  29  0.757  0.939  0.034-   7 2.93   9 2.99
  30  0.245  0.971  0.545-  10 3.02   8 3.10
  31  0.255  0.029  0.955-   9 3.02   7 3.09
  32  0.743  0.061  0.466-   8 2.93  10 2.99
  33  0.441  0.971  0.246-   8 2.95   9 3.01
  34  0.958  0.967  0.750-  10 3.00   7 3.06
  35  0.754  0.531  0.991-  13 2.97  11 2.99
  36  0.249  0.540  0.552-  12 2.97  14 2.98
  37  0.524  0.446  0.749-  11 2.93  14 2.99
  38  0.056  0.471  0.254-  13 3.01  12 3.08
  39  0.750  0.498  0.250-


IMPORTANT INFORMATION: All symmetrisations will be switched off!
NOSYMM: (Re-)initialisation of all symmetry stuff for point group C_1.



 KPOINTS: 1x1x1                                   

Automatic generation of k-mesh.
Space group operators:
 irot       det(A)        alpha          n_x          n_y          n_z        tau_x        tau_y        tau_z
    1     1.000000     0.000000     1.000000     0.000000     0.000000     0.000000     0.000000     0.000000
 
 Subroutine IBZKPT returns following result:
 ===========================================
 
 Found      8 irreducible k-points:
 
 Following reciprocal coordinates:
            Coordinates               Weight
  0.000000  0.000000  0.000000      1.000000
  0.500000  0.000000  0.000000      1.000000
  0.000000  0.500000  0.000000      1.000000
  0.500000  0.500000  0.000000      1.000000
  0.000000  0.000000  0.500000      1.000000
  0.500000  0.000000  0.500000      1.000000
  0.000000  0.500000  0.500000      1.000000
  0.500000  0.500000  0.500000      1.000000
 
 Following cartesian coordinates:
            Coordinates               Weight
  0.000000  0.000000  0.000000      1.000000
  0.029691  0.000000  0.030948      1.000000
  0.000000  0.042503  0.000000      1.000000
  0.029691  0.042503  0.030948      1.000000
 -0.029691  0.000000  0.030948      1.000000
  0.000000  0.000000  0.061897      1.000000
 -0.029691  0.042503  0.030948      1.000000
  0.000000  0.042503  0.061897      1.000000
 


--------------------------------------------------------------------------------------------------------




 Dimension of arrays:
   k-points           NKPTS =      8   k-points in BZ     NKDIM =      8   number of bands    NBANDS=    208
   number of dos      NEDOS =    301   number of ions     NIONS =     39
   non local maximal  LDIM  =      6   non local SUM 2l+1 LMDIM =     18
   total plane-waves  NPLWV = 343000
   max r-space proj   IRMAX =   5716   max aug-charges    IRDMAX=  91227
   dimension x,y,z NGX =    70 NGY =   70 NGZ =   70
   dimension x,y,z NGXF=   140 NGYF=  140 NGZF=  140
   support grid    NGXF=   280 NGYF=  280 NGZF=  280
   ions per type =               6   8  24   1
   NGX,Y,Z   is equivalent  to a cutoff of   9.97,  9.89,  9.97 a.u.
   NGXF,Y,Z  is equivalent  to a cutoff of  19.95, 19.78, 19.95 a.u.

 SYSTEM =  CsPbBr3 cubic bulk                      
 POSCAR =  Cs7 Pb8 Br24                            

 Startparameter for this run:
   NWRITE =      2    write-flag & timer
   PREC   = accura    normal or accurate (medium, high low for compatibility)
   ISTART =      0    job   : 0-new  1-cont  2-samecut
   ICHARG =      2    charge: 1-file 2-atom 10-const
   ISPIN  =      1    spin polarized calculation?
   LNONCOLLINEAR =      F non collinear calculations
   LSORBIT =      F    spin-orbit coupling
   INIWAV =      1    electr: 0-lowe 1-rand  2-diag
   LASPH  =      T    aspherical Exc in radial PAW
   METAGGA=      F    non-selfconsistent MetaGGA calc.

 Electronic Relaxation 1
   ENCUT  =  300.0 eV  22.05 Ry    4.70 a.u.  16.48 16.61 16.48*2*pi/ulx,y,z
   ENINI  =  300.0     initial cutoff
   ENAUG  =  503.9 eV  augmentation charge cutoff
   NELM   =    200;   NELMIN=  2; NELMDL= -5     # of ELM steps 
   EDIFF  = 0.1E-05   stopping-criterion for ELM
   LREAL  =      T    real-space projection
   NLSPLINE    = F    spline interpolate recip. space projectors
   LCOMPAT=      F    compatible to vasp.4.4
   GGA_COMPAT  = T    GGA compatible to vasp.4.4-vasp.4.6
   LMAXPAW     = -100 max onsite density
   LMAXMIX     =    2 max onsite mixed and CHGCAR
   VOSKOWN=      0    Vosko Wilk Nusair interpolation
   ROPT   =   -0.00025  -0.00025  -0.00025  -0.00025
 Ionic relaxation
   EDIFFG = -.1E-01   stopping-criterion for IOM
   NSW    =      0    number of steps for IOM
   NBLOCK =      1;   KBLOCK =      1    inner block; outer block 
   IBRION =     -1    ionic relax: 0-MD 1-quasi-New 2-CG
   NFREE  =      1    steps in history (QN), initial steepest desc. (CG)
   ISIF   =      2    stress and relaxation
   IWAVPR =     10    prediction:  0-non 1-charg 2-wave 3-comb
   ISYM   =      0    0-nonsym 1-usesym 2-fastsym
   LCORR  =      T    Harris-Foulkes like correction to forces

   POTIM  = 0.5000    time-step for ionic-motion
   TEIN   =    0.0    initial temperature
   TEBEG  =    0.0;   TEEND  =   0.0 temperature during run
   SMASS  =  -3.00    Nose mass-parameter (am)
   estimated Nose-frequenzy (Omega)   =  0.10E-29 period in steps =****** mass=  -0.311E-26a.u.
   SCALEE = 1.0000    scale energy and forces
   NPACO  =    256;   APACO  = 16.0  distance and # of slots for P.C.
   PSTRESS=    0.0 pullay stress

  Mass of Ions in am
   POMASS = 132.90207.20 79.90132.90
  Ionic Valenz
   ZVAL   =   9.00 14.00  7.00  9.00
  Atomic Wigner-Seitz radii
   RWIGS  =  -1.00 -1.00 -1.00 -1.00
  virtual crystal weights 
   VCA    =   1.00  1.00  1.00  1.00
   NELECT =     344.0000    total number of electrons
   NUPDOWN=       0.0000    fix difference up-down

 DOS related values:
   EMIN   =  10.00;   EMAX   =-10.00  energy-range for DOS
   EFERMI =   0.00
   ISMEAR =     0;   SIGMA  =   0.01  broadening in eV -4-tet -1-fermi 0-gaus

 Electronic relaxation 2 (details)
   IALGO  =     38    algorithm
   LDIAG  =      T    sub-space diagonalisation (order eigenvalues)
   LSUBROT=      F    optimize rotation matrix (better conditioning)
   TURBO    =      0    0=normal 1=particle mesh
   IRESTART =      0    0=no restart 2=restart with 2 vectors
   NREBOOT  =      0    no. of reboots
   NMIN     =      0    reboot dimension
   EREF     =   0.00    reference energy to select bands
   IMIX   =      4    mixing-type and parameters
     AMIX     =   0.40;   BMIX     =  1.00
     AMIX_MAG =   1.60;   BMIX_MAG =  1.00
     AMIN     =   0.10
     WC   =   100.;   INIMIX=   1;  MIXPRE=   1;  MAXMIX= -45

 Intra band minimization:
   WEIMIN = 0.0000     energy-eigenvalue tresh-hold
   EBREAK =  0.12E-08  absolut break condition
   DEPER  =   0.30     relativ break condition  

   TIME   =   0.40     timestep for ELM

  volume/ion in A,a.u.               =      41.03       276.90
  Fermi-wavevector in a.u.,A,eV,Ry     =   0.980685  1.853227 13.085320  0.961744
  Thomas-Fermi vector in A             =   2.111635

 Write flags
   LWAVE        =      F    write WAVECAR
   LDOWNSAMPLE  =      F    k-point downsampling of WAVECAR
   LCHARG       =      F    write CHGCAR
   LVTOT        =      F    write LOCPOT, total local potential
   LVHAR        =      T    write LOCPOT, Hartree potential only
   LELF         =      F    write electronic localiz. function (ELF)
   LORBIT       =     10    0 simple, 1 ext, 2 COOP (PROOUT), +10 PAW based schemes


 Dipole corrections
   LMONO  =      F    monopole corrections only (constant potential shift)
   LDIPOL =      F    correct potential (dipole corrections)
   IDIPOL =      0    1-x, 2-y, 3-z, 4-all directions 
   EPSILON=  1.0000000 bulk dielectric constant

 Exchange correlation treatment:
   GGA     =    --    GGA type
   LEXCH   =     8    internal setting for exchange type
   VOSKOWN=      0    Vosko Wilk Nusair interpolation
   LHFCALC =     F    Hartree Fock is set to
   LHFONE  =     F    Hartree Fock one center treatment
   AEXX    =    0.0000 exact exchange contribution

 Linear response parameters
   LEPSILON=     F    determine dielectric tensor
   LRPA    =     F    only Hartree local field effects (RPA)
   LNABLA  =     F    use nabla operator in PAW spheres
   LVEL    =     F    velocity operator in full k-point grid
   LINTERFAST=   F  fast interpolation
   KINTER  =     0    interpolate to denser k-point grid
   CSHIFT  =0.1000    complex shift for real part using Kramers Kronig
   OMEGAMAX=  -1.0    maximum frequency
   DEG_THRESHOLD= 0.2000000E-02 threshold for treating states as degnerate
   RTIME   =   -0.100 relaxation time in fs
  (WPLASMAI=    0.000 imaginary part of plasma frequency in eV, 0.658/RTIME)
   DFIELD  = 0.0000000 0.0000000 0.0000000 field for delta impulse in time

 Orbital magnetization related:
   ORBITALMAG=     F  switch on orbital magnetization
   LCHIMAG   =     F  perturbation theory with respect to B field
   DQ        =  0.001000  dq finite difference perturbation B field
   LLRAUG    =     F  two centre corrections for induced B field



--------------------------------------------------------------------------------------------------------


 Static calculation
 charge density and potential will be updated during run
 non-spin polarized calculation
 Variant of blocked Davidson
 Davidson routine will perform the subspace rotation
 perform sub-space diagonalisation
    after iterative eigenvector-optimisation
 modified Broyden-mixing scheme, WC =      100.0
 initial mixing is a Kerker type mixing with AMIX =  0.4000 and BMIX =      1.0000
 Hartree-type preconditioning will be used
 using additional bands           36
 real space projection scheme for non local part
 use partial core corrections
 calculate Harris-corrections to forces   (improved forces if not selfconsistent)
 use gradient corrections 
 use of overlap-Matrix (Vanderbilt PP)
 Gauss-broadening in eV      SIGMA  =   0.01


--------------------------------------------------------------------------------------------------------


  energy-cutoff  :      300.00
  volume of cell :     1600.27
      direct lattice vectors                 reciprocal lattice vectors
     8.420018000  0.000000000  8.077981000     0.059382296 -0.000000000  0.061896655
     0.000000000 11.763808000  0.000000000     0.000000000  0.085006488 -0.000000000
    -8.420018000  0.000000000  8.077981000    -0.059382296  0.000000000  0.061896655

  length of vectors
    11.668353789 11.763808000 11.668353789     0.085775596  0.085006488  0.085775596



 k-points in units of 2pi/SCALE and weight: 1x1x1                                   
   0.00000000  0.00000000  0.00000000       0.125
   0.02969115  0.00000000  0.03094833       0.125
   0.00000000  0.04250324  0.00000000       0.125
   0.02969115  0.04250324  0.03094833       0.125
  -0.02969115  0.00000000  0.03094833       0.125
   0.00000000  0.00000000  0.06189665       0.125
  -0.02969115  0.04250324  0.03094833       0.125
   0.00000000  0.04250324  0.06189665       0.125

 k-points in reciprocal lattice and weights: 1x1x1                                   
   0.00000000  0.00000000  0.00000000       0.125
   0.50000000  0.00000000  0.00000000       0.125
   0.00000000  0.50000000  0.00000000       0.125
   0.50000000  0.50000000  0.00000000       0.125
   0.00000000  0.00000000  0.50000000       0.125
   0.50000000  0.00000000  0.50000000       0.125
   0.00000000  0.50000000  0.50000000       0.125
   0.50000000  0.50000000  0.50000000       0.125

 position of ions in fractional coordinates (direct lattice) 
   0.27077600  0.24793300  0.19756200
   0.76831600  0.24587800  0.73845200
   0.21792300  0.76308200  0.76760700
   0.28225300  0.23747900  0.73254000
   0.73171600  0.75383500  0.76196100
   0.22917200  0.75209600  0.30263800
   0.99945500  0.99570900  0.00852100
   0.50071600  0.00440500  0.49146600
   0.50893900  0.99811900  0.00108900
   0.99093000  0.00202500  0.49891600
   0.49999200  0.50074200  0.99138800
   0.99982200  0.49975400  0.50864600
   0.00725600  0.50102700  0.00084000
   0.49279600  0.49934400  0.49914400
   0.47491300  0.74785900  0.94484500
   0.95913600  0.75016400  0.46549300
   0.98289500  0.24952800  0.97381100
   0.44050200  0.25150000  0.46745000
   0.05997500  0.74885400  0.03269200
   0.51761900  0.75081600  0.52621300
   0.54003200  0.25009100  0.03384900
   0.02526400  0.25248300  0.55507700
   0.25119200  0.46021200  0.94819600
   0.74589900  0.46760900  0.50844000
   0.44367200  0.52862200  0.24566400
   0.97572200  0.55445300  0.75134300
   0.54191500  0.03273200  0.75030600
   0.05898000  0.02942200  0.25451400
   0.75702400  0.93875800  0.03383500
   0.24540000  0.97077500  0.54530400
   0.25460700  0.02948900  0.95475400
   0.74289600  0.06099400  0.46607800
   0.44068700  0.97102800  0.24552500
   0.95765700  0.96713000  0.74980200
   0.75430000  0.53100200  0.99121000
   0.24893300  0.54020600  0.55207800
   0.52437200  0.44638400  0.74870500
   0.05634000  0.47132100  0.25433700
   0.74985900  0.49799300  0.24978000

 position of ions in cartesian coordinates  (Angst):
   0.61646320  2.91663621  3.78322547
   0.25145542  2.89246158 12.17164328
  -4.62834917  8.97675014  7.96109261
  -3.79142465  2.79365736  8.19747857
  -0.25466344  8.86797020 12.06589443
  -0.61858504  8.84751294  4.29595108
   8.34368212 11.71332950  8.14241098
   0.07788517  0.05181957  8.01482734
   4.27610614 11.74168028  4.11999649
   4.14276674  0.02382171 12.03494768
  -4.13756317  5.89063275 12.04733930
   4.13571076  5.87901010 12.18537584
   0.05402284  5.89398543  0.06539933
  -0.05345027  5.87418694  8.01287247
  -3.95683590  8.79766969 11.46877815
   4.15648295  8.82478526 11.50812599
   0.07648744  2.93539948 15.80623389
  -0.22690265  2.95859771  7.33441900
   0.22972335  8.80937468  0.74856227
  -0.07236163  8.83245527  8.43205506
   4.26206997  2.94202251  4.63579981
  -4.46103500  2.97016154  4.68798357
  -5.86878623  5.41384561  9.68863348
   1.99940905  5.50086250 10.13252661
   1.66723092  6.21860771  5.56844311
   1.88927522  6.52247864 13.95119826
  -1.75465597  0.38505296 10.43853669
  -1.64639980  0.34611476  2.53239858
   6.08926440 11.04336887  6.38854398
  -2.52519708 11.42001071  6.38729189
  -5.89525034  0.34690293  9.76919518
   2.33081254  0.71752171  9.76606900
   1.64326755 11.42298695  5.54320750
   1.75014284 11.37713163 13.79282136
  -1.99478646  6.24660558 14.10019662
  -2.55248636  6.35487966  6.47055164
  -1.88888790  5.25117567 10.28389182
  -1.66713830  5.54452975  2.50964290
   4.21067418  5.85829404  8.07506485



--------------------------------------------------------------------------------------------------------


 k-point  1 :   0.0000 0.0000 0.0000  plane waves:   18901
 k-point  2 :   0.5000 0.0000 0.0000  plane waves:   18892
 k-point  3 :   0.0000 0.5000 0.0000  plane waves:   18858
 k-point  4 :   0.5000 0.5000 0.0000  plane waves:   18900
 k-point  5 :   0.0000 0.0000 0.5000  plane waves:   18892
 k-point  6 :   0.5000 0.0000 0.5000  plane waves:   18810
 k-point  7 :   0.0000 0.5000 0.5000  plane waves:   18900
 k-point  8 :   0.5000 0.5000 0.5000  plane waves:   18888

 maximum and minimum number of plane-waves per node :      2391     2328

 maximum number of plane-waves:     18901
 maximum index in each direction: 
   IXMAX=   16   IYMAX=   16   IZMAX=   16
   IXMIN=  -16   IYMIN=  -17   IZMIN=  -16


 real space projection operators:
  total allocation   :      16481.97 KBytes
  max/ min on nodes  :       2157.34       1799.03


 parallel 3D FFT for wavefunctions:
    minimum data exchange during FFTs selected (reduces bandwidth)
 parallel 3D FFT for charge:
    minimum data exchange during FFTs selected (reduces bandwidth)


 total amount of memory used by VASP MPI-rank0    60999. kBytes
=======================================================================

   base      :      30000. kBytes
   nonlr-proj:       6411. kBytes
   fftplans  :       8423. kBytes
   grid      :       7942. kBytes
   one-center:         77. kBytes
   wavefun   :       8146. kBytes

     INWAV:  cpu time    0.0001: real time    0.0007
 Broyden mixing: mesh for mixing (old mesh)
   NGX = 33   NGY = 33   NGZ = 33
  (NGX  =140   NGY  =140   NGZ  =140)
  gives a total of  35937 points

 initial charge density was supplied:
 charge density of overlapping atoms calculated
 number of electron     343.0000000 magnetization 
 keeping initial charge density in first step


--------------------------------------------------------------------------------------------------------


 Maximum index for non-local projection operator          728
 Maximum index for augmentation-charges         3322 (set IRDMAX)


--------------------------------------------------------------------------------------------------------


 First call to EWALD:  gamma=   0.152
 Maximum number of real-space cells 3x 3x 3
 Maximum number of reciprocal cells 3x 3x 3

    FEWALD:  cpu time    0.0041: real time    0.0041


--------------------------------------- Iteration      1(   1)  ---------------------------------------


    POTLOK:  cpu time    0.2640: real time    0.2847
    SETDIJ:  cpu time    1.1984: real time    1.1985
     EDDAV:  cpu time   16.5523: real time   16.5573
       DOS:  cpu time    0.0008: real time    0.0008
    --------------------------------------------
      LOOP:  cpu time   18.0155: real time   18.0413

 eigenvalue-minimisations  :  3464
 total energy-change (2. order) : 0.1363677E+04  (-0.1105837E+05)
 number of electron     343.0000000 magnetization 
 augmentation part      343.0000000 magnetization 

 Free energy of the ion-electron system (eV)
  ---------------------------------------------------
  alpha Z        PSCENC =       835.99855037
  Ewald energy   TEWEN  =    -17360.49621322
  -Hartree energ DENC   =     -7764.35094150
  -exchange      EXHF   =         0.00000000
  -V(xc)+E(xc)   XCENC  =       905.76694211
  PAW double counting   =     21217.07306836   -22257.58625956
  entropy T*S    EENTRO =        -0.00095328
  eigenvalues    EBANDS =      -237.61105483
  atomic energy  EATOM  =     26024.88362379
  Solvation  Ediel_sol  =         0.00000000
  ---------------------------------------------------
  free energy    TOTEN  =      1363.67676224 eV

  energy without entropy =     1363.67771552  energy(sigma->0) =     1363.67723888


--------------------------------------------------------------------------------------------------------




--------------------------------------- Iteration      1(   2)  ---------------------------------------


     EDDAV:  cpu time   18.4948: real time   18.5072
       DOS:  cpu time    0.0004: real time    0.0004
    --------------------------------------------
      LOOP:  cpu time   18.4952: real time   18.5076

 eigenvalue-minimisations  :  4112
 total energy-change (2. order) :-0.2451685E+04  (-0.2364155E+04)
 number of electron     343.0000000 magnetization 
 augmentation part      343.0000000 magnetization 

 Free energy of the ion-electron system (eV)
  ---------------------------------------------------
  alpha Z        PSCENC =       835.99855037
  Ewald energy   TEWEN  =    -17360.49621322
  -Hartree energ DENC   =     -7764.35094150
  -exchange      EXHF   =         0.00000000
  -V(xc)+E(xc)   XCENC  =       905.76694211
  PAW double counting   =     21217.07306836   -22257.58625956
  entropy T*S    EENTRO =        -0.00000000
  eigenvalues    EBANDS =     -2689.29715995
  atomic energy  EATOM  =     26024.88362379
  Solvation  Ediel_sol  =         0.00000000
  ---------------------------------------------------
  free energy    TOTEN  =     -1088.00838960 eV

  energy without entropy =    -1088.00838960  energy(sigma->0) =    -1088.00838960


--------------------------------------------------------------------------------------------------------




--------------------------------------- Iteration      1(   3)  ---------------------------------------


     EDDAV:  cpu time   19.3170: real time   19.3624
       DOS:  cpu time    0.0004: real time    0.0004
    --------------------------------------------
      LOOP:  cpu time   19.3174: real time   19.3628

 eigenvalue-minimisations  :  4416
 total energy-change (2. order) :-0.3642884E+03  (-0.3622637E+03)
 number of electron     343.0000000 magnetization 
 augmentation part      343.0000000 magnetization 

 Free energy of the ion-electron system (eV)
  ---------------------------------------------------
  alpha Z        PSCENC =       835.99855037
  Ewald energy   TEWEN  =    -17360.49621322
  -Hartree energ DENC   =     -7764.35094150
  -exchange      EXHF   =         0.00000000
  -V(xc)+E(xc)   XCENC  =       905.76694211
  PAW double counting   =     21217.07306836   -22257.58625956
  entropy T*S    EENTRO =        -0.00000000
  eigenvalues    EBANDS =     -3053.58558463
  atomic energy  EATOM  =     26024.88362379
  Solvation  Ediel_sol  =         0.00000000
  ---------------------------------------------------
  free energy    TOTEN  =     -1452.29681428 eV

  energy without entropy =    -1452.29681428  energy(sigma->0) =    -1452.29681428


--------------------------------------------------------------------------------------------------------




--------------------------------------- Iteration      1(   4)  ---------------------------------------


     EDDAV:  cpu time   17.9742: real time   17.9985
       DOS:  cpu time    0.0004: real time    0.0004
    --------------------------------------------
      LOOP:  cpu time   17.9746: real time   17.9990

 eigenvalue-minimisations  :  3936
 total energy-change (2. order) :-0.1230319E+02  (-0.1226682E+02)
 number of electron     343.0000000 magnetization 
 augmentation part      343.0000000 magnetization 

 Free energy of the ion-electron system (eV)
  ---------------------------------------------------
  alpha Z        PSCENC =       835.99855037
  Ewald energy   TEWEN  =    -17360.49621322
  -Hartree energ DENC   =     -7764.35094150
  -exchange      EXHF   =         0.00000000
  -V(xc)+E(xc)   XCENC  =       905.76694211
  PAW double counting   =     21217.07306836   -22257.58625956
  entropy T*S    EENTRO =        -0.00000000
  eigenvalues    EBANDS =     -3065.88877286
  atomic energy  EATOM  =     26024.88362379
  Solvation  Ediel_sol  =         0.00000000
  ---------------------------------------------------
  free energy    TOTEN  =     -1464.60000251 eV

  energy without entropy =    -1464.60000251  energy(sigma->0) =    -1464.60000251


--------------------------------------------------------------------------------------------------------




--------------------------------------- Iteration      1(   5)  ---------------------------------------


     EDDAV:  cpu time   19.3997: real time   19.4218
       DOS:  cpu time    0.0005: real time    0.0005
    CHARGE:  cpu time    2.7107: real time    2.7109
    MIXING:  cpu time    0.0014: real time    0.0014
    --------------------------------------------
      LOOP:  cpu time   22.1124: real time   22.1346

 eigenvalue-minimisations  :  4432
 total energy-change (2. order) :-0.5490913E+00  (-0.5487769E+00)
 number of electron     343.9999998 magnetization 
 augmentation part       -4.6171690 magnetization 

 Broyden mixing:
  rms(total) = 0.10462E+01    rms(broyden)= 0.10455E+01
  rms(prec ) = 0.14356E+01
  weight for this iteration     100.00

 Free energy of the ion-electron system (eV)
  ---------------------------------------------------
  alpha Z        PSCENC =       835.99855037
  Ewald energy   TEWEN  =    -17360.49621322
  -Hartree energ DENC   =     -7764.35094150
  -exchange      EXHF   =         0.00000000
  -V(xc)+E(xc)   XCENC  =       905.76694211
  PAW double counting   =     21217.07306836   -22257.58625956
  entropy T*S    EENTRO =        -0.00000000
  eigenvalues    EBANDS =     -3066.43786414
  atomic energy  EATOM  =     26024.88362379
  Solvation  Ediel_sol  =         0.00000000
  ---------------------------------------------------
  free energy    TOTEN  =     -1465.14909379 eV

  energy without entropy =    -1465.14909379  energy(sigma->0) =    -1465.14909379


--------------------------------------------------------------------------------------------------------




--------------------------------------- Iteration      1(   6)  ---------------------------------------


    POTLOK:  cpu time    0.2658: real time    0.3097
    SETDIJ:  cpu time    1.1983: real time    1.1985
     EDDAV:  cpu time   19.0184: real time   19.0192
       DOS:  cpu time    0.0005: real time    0.0005
    CHARGE:  cpu time    2.6967: real time    2.6968
    MIXING:  cpu time    0.0015: real time    0.0015
    --------------------------------------------
      LOOP:  cpu time   23.1813: real time   23.2262

 eigenvalue-minimisations  :  4312
 total energy-change (2. order) : 0.7894141E+02  (-0.2317915E+01)
 number of electron     343.9999998 magnetization 
 augmentation part       -3.2064767 magnetization 

 Broyden mixing:
  rms(total) = 0.72788E+00    rms(broyden)= 0.72778E+00
  rms(prec ) = 0.90305E+00
  weight for this iteration     100.00

 eigenvalues of (default mixing * dielectric matrix)
  average eigenvalue GAMMA=   1.2325
  1.2325

 Free energy of the ion-electron system (eV)
  ---------------------------------------------------
  alpha Z        PSCENC =       835.99855037
  Ewald energy   TEWEN  =    -17360.49621322
  -Hartree energ DENC   =     -7748.91271602
  -exchange      EXHF   =         0.00000000
  -V(xc)+E(xc)   XCENC  =       939.61177723
  PAW double counting   =     21562.91602005   -22602.11232562
  entropy T*S    EENTRO =        -0.00000000
  eigenvalues    EBANDS =     -3038.09640267
  atomic energy  EATOM  =     26024.88362379
  Solvation  Ediel_sol  =         0.00000000
  ---------------------------------------------------
  free energy    TOTEN  =     -1386.20768610 eV

  energy without entropy =    -1386.20768610  energy(sigma->0) =    -1386.20768610


--------------------------------------------------------------------------------------------------------




--------------------------------------- Iteration      1(   7)  ---------------------------------------


    POTLOK:  cpu time    0.2505: real time    0.3068
    SETDIJ:  cpu time    1.1966: real time    1.1967
     EDDAV:  cpu time   18.5257: real time   18.5264
       DOS:  cpu time    0.0004: real time    0.0004
    CHARGE:  cpu time    2.6981: real time    2.6982
    MIXING:  cpu time    0.0015: real time    0.0015
    --------------------------------------------
      LOOP:  cpu time   22.6728: real time   22.7300

 eigenvalue-minimisations  :  4144
 total energy-change (2. order) : 0.4060666E+00  (-0.9482765E+00)
 number of electron     343.9999998 magnetization 
 augmentation part       -2.5687108 magnetization 

 Broyden mixing:
  rms(total) = 0.38109E+00    rms(broyden)= 0.38107E+00
  rms(prec ) = 0.41713E+00
  weight for this iteration     100.00

 eigenvalues of (default mixing * dielectric matrix)
  average eigenvalue GAMMA=   1.2951
  1.2951  1.2951

 Free energy of the ion-electron system (eV)
  ---------------------------------------------------
  alpha Z        PSCENC =       835.99855037
  Ewald energy   TEWEN  =    -17360.49621322
  -Hartree energ DENC   =     -7791.45164981
  -exchange      EXHF   =         0.00000000
  -V(xc)+E(xc)   XCENC  =       944.97054439
  PAW double counting   =     22268.33877720   -23305.92359758
  entropy T*S    EENTRO =        -0.00000000
  eigenvalues    EBANDS =     -3002.12165462
  atomic energy  EATOM  =     26024.88362379
  Solvation  Ediel_sol  =         0.00000000
  ---------------------------------------------------
  free energy    TOTEN  =     -1385.80161949 eV

  energy without entropy =    -1385.80161949  energy(sigma->0) =    -1385.80161949


--------------------------------------------------------------------------------------------------------




--------------------------------------- Iteration      1(   8)  ---------------------------------------


    POTLOK:  cpu time    0.2600: real time    0.3155
    SETDIJ:  cpu time    1.1993: real time    1.1995
     EDDAV:  cpu time   17.8957: real time   17.8964
       DOS:  cpu time    0.0005: real time    0.0005
    CHARGE:  cpu time    2.6981: real time    2.6982
    MIXING:  cpu time    0.0016: real time    0.0016
    --------------------------------------------
      LOOP:  cpu time   22.0552: real time   22.1116

 eigenvalue-minimisations  :  3928
 total energy-change (2. order) :-0.1798781E+00  (-0.4120481E-01)
 number of electron     343.9999998 magnetization 
 augmentation part       -2.6699598 magnetization 

 Broyden mixing:
  rms(total) = 0.22397E+00    rms(broyden)= 0.22397E+00
  rms(prec ) = 0.24884E+00
  weight for this iteration     100.00

 eigenvalues of (default mixing * dielectric matrix)
  average eigenvalue GAMMA=   1.6831
  1.1346  1.2932  2.6217

 Free energy of the ion-electron system (eV)
  ---------------------------------------------------
  alpha Z        PSCENC =       835.99855037
  Ewald energy   TEWEN  =    -17360.49621322
  -Hartree energ DENC   =     -7795.79476594
  -exchange      EXHF   =         0.00000000
  -V(xc)+E(xc)   XCENC  =       945.56155418
  PAW double counting   =     22509.04898853   -23547.11128267
  entropy T*S    EENTRO =        -0.00000000
  eigenvalues    EBANDS =     -2998.07195261
  atomic energy  EATOM  =     26024.88362379
  Solvation  Ediel_sol  =         0.00000000
  ---------------------------------------------------
  free energy    TOTEN  =     -1385.98149759 eV

  energy without entropy =    -1385.98149759  energy(sigma->0) =    -1385.98149759


--------------------------------------------------------------------------------------------------------




--------------------------------------- Iteration      1(   9)  ---------------------------------------


    POTLOK:  cpu time    0.2866: real time    0.3198
    SETDIJ:  cpu time    1.1962: real time    1.1962
     EDDAV:  cpu time   17.1994: real time   17.2001
       DOS:  cpu time    0.0004: real time    0.0004
    CHARGE:  cpu time    2.6924: real time    2.6925
    MIXING:  cpu time    0.0019: real time    0.0019
    --------------------------------------------
      LOOP:  cpu time   21.3769: real time   21.4110

 eigenvalue-minimisations  :  3680
 total energy-change (2. order) :-0.8651923E-01  (-0.1677482E-01)
 number of electron     343.9999998 magnetization 
 augmentation part       -2.7136682 magnetization 

 Broyden mixing:
  rms(total) = 0.44083E-01    rms(broyden)= 0.44080E-01
  rms(prec ) = 0.50720E-01
  weight for this iteration     100.00

 eigenvalues of (default mixing * dielectric matrix)
  average eigenvalue GAMMA=   1.4632
  2.5276  1.2434  1.2434  0.8382

 Free energy of the ion-electron system (eV)
  ---------------------------------------------------
  alpha Z        PSCENC =       835.99855037
  Ewald energy   TEWEN  =    -17360.49621322
  -Hartree energ DENC   =     -7802.59373242
  -exchange      EXHF   =         0.00000000
  -V(xc)+E(xc)   XCENC  =       947.60477944
  PAW double counting   =     22866.77130672   -23905.77638896
  entropy T*S    EENTRO =        -0.00000000
  eigenvalues    EBANDS =     -2992.45994254
  atomic energy  EATOM  =     26024.88362379
  Solvation  Ediel_sol  =         0.00000000
  ---------------------------------------------------
  free energy    TOTEN  =     -1386.06801681 eV

  energy without entropy =    -1386.06801681  energy(sigma->0) =    -1386.06801681


--------------------------------------------------------------------------------------------------------




--------------------------------------- Iteration      1(  10)  ---------------------------------------


    POTLOK:  cpu time    0.2896: real time    0.3195
    SETDIJ:  cpu time    1.1984: real time    1.1985
     EDDAV:  cpu time   20.3814: real time   20.3822
       DOS:  cpu time    0.0005: real time    0.0005
    CHARGE:  cpu time    2.6967: real time    2.6968
    MIXING:  cpu time    0.0019: real time    0.0019
    --------------------------------------------
      LOOP:  cpu time   24.5685: real time   24.5994

 eigenvalue-minimisations  :  4784
 total energy-change (2. order) :-0.2716403E-02  (-0.1457905E-02)
 number of electron     343.9999998 magnetization 
 augmentation part       -2.6996702 magnetization 

 Broyden mixing:
  rms(total) = 0.28834E-01    rms(broyden)= 0.28833E-01
  rms(prec ) = 0.34864E-01
  weight for this iteration     100.00

 eigenvalues of (default mixing * dielectric matrix)
  average eigenvalue GAMMA=   1.4043
  2.0530  1.8763  1.2291  0.9314  0.9314

 Free energy of the ion-electron system (eV)
  ---------------------------------------------------
  alpha Z        PSCENC =       835.99855037
  Ewald energy   TEWEN  =    -17360.49621322
  -Hartree energ DENC   =     -7800.92991093
  -exchange      EXHF   =         0.00000000
  -V(xc)+E(xc)   XCENC  =       947.44838329
  PAW double counting   =     22835.79300686   -23874.86344338
  entropy T*S    EENTRO =        -0.00000000
  eigenvalues    EBANDS =     -2993.90472999
  atomic energy  EATOM  =     26024.88362379
  Solvation  Ediel_sol  =         0.00000000
  ---------------------------------------------------
  free energy    TOTEN  =     -1386.07073321 eV

  energy without entropy =    -1386.07073321  energy(sigma->0) =    -1386.07073321


--------------------------------------------------------------------------------------------------------




--------------------------------------- Iteration      1(  11)  ---------------------------------------


    POTLOK:  cpu time    0.2970: real time    0.3072
    SETDIJ:  cpu time    1.1984: real time    1.1984
     EDDAV:  cpu time   17.2590: real time   17.2598
       DOS:  cpu time    0.0006: real time    0.0006
    CHARGE:  cpu time    2.7047: real time    2.7049
    MIXING:  cpu time    0.0019: real time    0.0019
    --------------------------------------------
      LOOP:  cpu time   21.4618: real time   21.4728

 eigenvalue-minimisations  :  3696
 total energy-change (2. order) :-0.3636287E-02  (-0.3159050E-03)
 number of electron     343.9999998 magnetization 
 augmentation part       -2.6977794 magnetization 

 Broyden mixing:
  rms(total) = 0.10953E-01    rms(broyden)= 0.10953E-01
  rms(prec ) = 0.16359E-01
  weight for this iteration     100.00

 eigenvalues of (default mixing * dielectric matrix)
  average eigenvalue GAMMA=   1.5912
  2.7076  2.7076  1.2011  1.2011  0.8651  0.8651

 Free energy of the ion-electron system (eV)
  ---------------------------------------------------
  alpha Z        PSCENC =       835.99855037
  Ewald energy   TEWEN  =    -17360.49621322
  -Hartree energ DENC   =     -7799.14873098
  -exchange      EXHF   =         0.00000000
  -V(xc)+E(xc)   XCENC  =       947.38146626
  PAW double counting   =     22811.10741367   -23850.40575570
  entropy T*S    EENTRO =        -0.00000000
  eigenvalues    EBANDS =     -2995.39472369
  atomic energy  EATOM  =     26024.88362379
  Solvation  Ediel_sol  =         0.00000000
  ---------------------------------------------------
  free energy    TOTEN  =     -1386.07436950 eV

  energy without entropy =    -1386.07436950  energy(sigma->0) =    -1386.07436950


--------------------------------------------------------------------------------------------------------




--------------------------------------- Iteration      1(  12)  ---------------------------------------


    POTLOK:  cpu time    0.2918: real time    0.3121
    SETDIJ:  cpu time    1.1990: real time    1.1990
     EDDAV:  cpu time   17.0771: real time   17.0780
       DOS:  cpu time    0.0006: real time    0.0006
    CHARGE:  cpu time    2.6993: real time    2.6994
    MIXING:  cpu time    0.0017: real time    0.0017
    --------------------------------------------
      LOOP:  cpu time   21.2694: real time   21.2907

 eigenvalue-minimisations  :  3640
 total energy-change (2. order) :-0.2447087E-02  (-0.2498269E-03)
 number of electron     343.9999998 magnetization 
 augmentation part       -2.7011559 magnetization 

 Broyden mixing:
  rms(total) = 0.72367E-02    rms(broyden)= 0.72359E-02
  rms(prec ) = 0.96089E-02
  weight for this iteration     100.00

 eigenvalues of (default mixing * dielectric matrix)
  average eigenvalue GAMMA=   1.6026
  2.7885  2.7885  1.3601  1.3601  0.9302  0.9953  0.9953

 Free energy of the ion-electron system (eV)
  ---------------------------------------------------
  alpha Z        PSCENC =       835.99855037
  Ewald energy   TEWEN  =    -17360.49621322
  -Hartree energ DENC   =     -7798.82245951
  -exchange      EXHF   =         0.00000000
  -V(xc)+E(xc)   XCENC  =       947.46643739
  PAW double counting   =     22809.85724986   -23849.36561262
  entropy T*S    EENTRO =        -0.00000000
  eigenvalues    EBANDS =     -2995.59839265
  atomic energy  EATOM  =     26024.88362379
  Solvation  Ediel_sol  =         0.00000000
  ---------------------------------------------------
  free energy    TOTEN  =     -1386.07681659 eV

  energy without entropy =    -1386.07681659  energy(sigma->0) =    -1386.07681659


--------------------------------------------------------------------------------------------------------




--------------------------------------- Iteration      1(  13)  ---------------------------------------


    POTLOK:  cpu time    0.2864: real time    0.3155
    SETDIJ:  cpu time    1.1983: real time    1.1984
     EDDAV:  cpu time   19.5152: real time   19.5161
       DOS:  cpu time    0.0005: real time    0.0005
    CHARGE:  cpu time    2.7054: real time    2.7055
    MIXING:  cpu time    0.0019: real time    0.0019
    --------------------------------------------
      LOOP:  cpu time   23.7076: real time   23.7377

 eigenvalue-minimisations  :  4472
 total energy-change (2. order) : 0.1705707E-03  (-0.8493234E-04)
 number of electron     343.9999998 magnetization 
 augmentation part       -2.7020479 magnetization 

 Broyden mixing:
  rms(total) = 0.29655E-02    rms(broyden)= 0.29648E-02
  rms(prec ) = 0.36888E-02
  weight for this iteration     100.00

 eigenvalues of (default mixing * dielectric matrix)
  average eigenvalue GAMMA=   1.5897
  3.1198  2.2942  1.4935  1.4935  1.2199  1.2199  0.9185  0.9587

 Free energy of the ion-electron system (eV)
  ---------------------------------------------------
  alpha Z        PSCENC =       835.99855037
  Ewald energy   TEWEN  =    -17360.49621322
  -Hartree energ DENC   =     -7799.83787567
  -exchange      EXHF   =         0.00000000
  -V(xc)+E(xc)   XCENC  =       947.52728098
  PAW double counting   =     22810.40779183   -23849.88307880
  entropy T*S    EENTRO =        -0.00000000
  eigenvalues    EBANDS =     -2994.67672530
  atomic energy  EATOM  =     26024.88362379
  Solvation  Ediel_sol  =         0.00000000
  ---------------------------------------------------
  free energy    TOTEN  =     -1386.07664602 eV

  energy without entropy =    -1386.07664602  energy(sigma->0) =    -1386.07664602


--------------------------------------------------------------------------------------------------------




--------------------------------------- Iteration      1(  14)  ---------------------------------------


    POTLOK:  cpu time    0.2757: real time    0.2811
    SETDIJ:  cpu time    1.1982: real time    1.1983
     EDDAV:  cpu time   17.1916: real time   17.1924
       DOS:  cpu time    0.0004: real time    0.0004
    CHARGE:  cpu time    2.7003: real time    2.7004
    MIXING:  cpu time    0.0017: real time    0.0017
    --------------------------------------------
      LOOP:  cpu time   21.3680: real time   21.3743

 eigenvalue-minimisations  :  3672
 total energy-change (2. order) : 0.4453963E-05  (-0.1745773E-04)
 number of electron     343.9999998 magnetization 
 augmentation part       -2.7013809 magnetization 

 Broyden mixing:
  rms(total) = 0.17270E-02    rms(broyden)= 0.17258E-02
  rms(prec ) = 0.24269E-02
  weight for this iteration     100.00

 eigenvalues of (default mixing * dielectric matrix)
  average eigenvalue GAMMA=   1.6103
  3.1538  2.3374  2.3374  1.2619  1.2619  1.1562  1.1562  0.9139  0.9139

 Free energy of the ion-electron system (eV)
  ---------------------------------------------------
  alpha Z        PSCENC =       835.99855037
  Ewald energy   TEWEN  =    -17360.49621322
  -Hartree energ DENC   =     -7799.97438087
  -exchange      EXHF   =         0.00000000
  -V(xc)+E(xc)   XCENC  =       947.53388210
  PAW double counting   =     22812.33190554   -23851.79304115
  entropy T*S    EENTRO =        -0.00000000
  eigenvalues    EBANDS =     -2994.56096813
  atomic energy  EATOM  =     26024.88362379
  Solvation  Ediel_sol  =         0.00000000
  ---------------------------------------------------
  free energy    TOTEN  =     -1386.07664156 eV

  energy without entropy =    -1386.07664156  energy(sigma->0) =    -1386.07664156


--------------------------------------------------------------------------------------------------------




--------------------------------------- Iteration      1(  15)  ---------------------------------------


    POTLOK:  cpu time    0.2754: real time    0.3195
    SETDIJ:  cpu time    1.1972: real time    1.1973
     EDDAV:  cpu time   17.2118: real time   17.2125
       DOS:  cpu time    0.0005: real time    0.0005
    CHARGE:  cpu time    2.7057: real time    2.7058
    MIXING:  cpu time    0.0022: real time    0.0022
    --------------------------------------------
      LOOP:  cpu time   21.3927: real time   21.4376

 eigenvalue-minimisations  :  3680
 total energy-change (2. order) :-0.9058675E-05  (-0.2943536E-05)
 number of electron     343.9999998 magnetization 
 augmentation part       -2.7013266 magnetization 

 Broyden mixing:
  rms(total) = 0.99408E-03    rms(broyden)= 0.99249E-03
  rms(prec ) = 0.14338E-02
  weight for this iteration     100.00

 eigenvalues of (default mixing * dielectric matrix)
  average eigenvalue GAMMA=   1.6628
  3.6139  2.4629  2.4629  1.4824  1.4824  1.1950  1.1950  0.9400  0.9400  0.8539

 Free energy of the ion-electron system (eV)
  ---------------------------------------------------
  alpha Z        PSCENC =       835.99855037
  Ewald energy   TEWEN  =    -17360.49621322
  -Hartree energ DENC   =     -7800.15586128
  -exchange      EXHF   =         0.00000000
  -V(xc)+E(xc)   XCENC  =       947.53944720
  PAW double counting   =     22811.84437584   -23851.29837245
  entropy T*S    EENTRO =        -0.00000000
  eigenvalues    EBANDS =     -2994.39220088
  atomic energy  EATOM  =     26024.88362379
  Solvation  Ediel_sol  =         0.00000000
  ---------------------------------------------------
  free energy    TOTEN  =     -1386.07665062 eV

  energy without entropy =    -1386.07665062  energy(sigma->0) =    -1386.07665062


--------------------------------------------------------------------------------------------------------




--------------------------------------- Iteration      1(  16)  ---------------------------------------


    POTLOK:  cpu time    0.2997: real time    0.3120
    SETDIJ:  cpu time    1.2033: real time    1.2034
     EDDAV:  cpu time   17.2164: real time   17.2172
       DOS:  cpu time    0.0006: real time    0.0006
    CHARGE:  cpu time    2.6971: real time    2.6972
    MIXING:  cpu time    0.0019: real time    0.0019
    --------------------------------------------
      LOOP:  cpu time   21.4190: real time   21.4322

 eigenvalue-minimisations  :  3680
 total energy-change (2. order) :-0.5788807E-04  (-0.2522137E-05)
 number of electron     343.9999998 magnetization 
 augmentation part       -2.7009258 magnetization 

 Broyden mixing:
  rms(total) = 0.52200E-03    rms(broyden)= 0.51899E-03
  rms(prec ) = 0.59904E-03
  weight for this iteration     100.00

 eigenvalues of (default mixing * dielectric matrix)
  average eigenvalue GAMMA=   1.7448
  4.2804  2.9062  2.5085  1.7954  1.2615  1.2615  1.1237  1.1237  0.8952  1.0181
  1.0181

 Free energy of the ion-electron system (eV)
  ---------------------------------------------------
  alpha Z        PSCENC =       835.99855037
  Ewald energy   TEWEN  =    -17360.49621322
  -Hartree energ DENC   =     -7800.15132459
  -exchange      EXHF   =         0.00000000
  -V(xc)+E(xc)   XCENC  =       947.53324340
  PAW double counting   =     22811.14171644   -23850.59423826
  entropy T*S    EENTRO =        -0.00000000
  eigenvalues    EBANDS =     -2994.39206644
  atomic energy  EATOM  =     26024.88362379
  Solvation  Ediel_sol  =         0.00000000
  ---------------------------------------------------
  free energy    TOTEN  =     -1386.07670851 eV

  energy without entropy =    -1386.07670851  energy(sigma->0) =    -1386.07670851


--------------------------------------------------------------------------------------------------------




--------------------------------------- Iteration      1(  17)  ---------------------------------------


    POTLOK:  cpu time    0.2722: real time    0.3041
    SETDIJ:  cpu time    1.2045: real time    1.2045
     EDDAV:  cpu time   16.2958: real time   16.2967
       DOS:  cpu time    0.0011: real time    0.0011
    CHARGE:  cpu time    2.6976: real time    2.6977
    MIXING:  cpu time    0.0020: real time    0.0020
    --------------------------------------------
      LOOP:  cpu time   20.4732: real time   20.5063

 eigenvalue-minimisations  :  3344
 total energy-change (2. order) : 0.6682067E-05  (-0.4202662E-06)
 number of electron     343.9999998 magnetization 
 augmentation part       -2.7008459 magnetization 

 Broyden mixing:
  rms(total) = 0.29637E-03    rms(broyden)= 0.29107E-03
  rms(prec ) = 0.32385E-03
  weight for this iteration     100.00

 eigenvalues of (default mixing * dielectric matrix)
  average eigenvalue GAMMA=   1.6625
  4.2181  2.9307  2.4582  1.7880  1.3028  1.3028  1.1093  1.1093  1.0505  1.0505
  0.8670  0.7629

 Free energy of the ion-electron system (eV)
  ---------------------------------------------------
  alpha Z        PSCENC =       835.99855037
  Ewald energy   TEWEN  =    -17360.49621322
  -Hartree energ DENC   =     -7800.15193769
  -exchange      EXHF   =         0.00000000
  -V(xc)+E(xc)   XCENC  =       947.53096079
  PAW double counting   =     22811.61839572   -23851.06556853
  entropy T*S    EENTRO =        -0.00000000
  eigenvalues    EBANDS =     -2994.39451305
  atomic energy  EATOM  =     26024.88362379
  Solvation  Ediel_sol  =         0.00000000
  ---------------------------------------------------
  free energy    TOTEN  =     -1386.07670183 eV

  energy without entropy =    -1386.07670183  energy(sigma->0) =    -1386.07670183


--------------------------------------------------------------------------------------------------------




--------------------------------------- Iteration      1(  18)  ---------------------------------------


    POTLOK:  cpu time    0.2782: real time    0.3112
    SETDIJ:  cpu time    1.1990: real time    1.1991
     EDDAV:  cpu time   12.9034: real time   12.9040
       DOS:  cpu time    0.0004: real time    0.0004
    CHARGE:  cpu time    2.6993: real time    2.6996
    MIXING:  cpu time    0.0024: real time    0.0024
    --------------------------------------------
      LOOP:  cpu time   17.0828: real time   17.1167

 eigenvalue-minimisations  :  2152
 total energy-change (2. order) :-0.1211797E-05  (-0.5348328E-07)
 number of electron     343.9999998 magnetization 
 augmentation part       -2.7009072 magnetization 

 Broyden mixing:
  rms(total) = 0.16274E-03    rms(broyden)= 0.15290E-03
  rms(prec ) = 0.17399E-03
  weight for this iteration     100.00

 eigenvalues of (default mixing * dielectric matrix)
  average eigenvalue GAMMA=   1.7033
  4.6707  2.9758  2.3845  2.0819  1.4621  1.4621  1.1137  1.1137  1.0331  1.0331
  0.8567  0.9779  0.9779

 Free energy of the ion-electron system (eV)
  ---------------------------------------------------
  alpha Z        PSCENC =       835.99855037
  Ewald energy   TEWEN  =    -17360.49621322
  -Hartree energ DENC   =     -7800.15338085
  -exchange      EXHF   =         0.00000000
  -V(xc)+E(xc)   XCENC  =       947.53093956
  PAW double counting   =     22811.62107651   -23851.06856278
  entropy T*S    EENTRO =        -0.00000000
  eigenvalues    EBANDS =     -2994.39273641
  atomic energy  EATOM  =     26024.88362379
  Solvation  Ediel_sol  =         0.00000000
  ---------------------------------------------------
  free energy    TOTEN  =     -1386.07670304 eV

  energy without entropy =    -1386.07670304  energy(sigma->0) =    -1386.07670304


--------------------------------------------------------------------------------------------------------




--------------------------------------- Iteration      1(  19)  ---------------------------------------


    POTLOK:  cpu time    0.2833: real time    0.3108
    SETDIJ:  cpu time    1.1987: real time    1.1987
     EDDAV:  cpu time   13.2556: real time   13.2562
       DOS:  cpu time    0.0006: real time    0.0006
    CHARGE:  cpu time    2.6976: real time    2.6977
    MIXING:  cpu time    0.0020: real time    0.0020
    --------------------------------------------
      LOOP:  cpu time   17.4379: real time   17.4662

 eigenvalue-minimisations  :  2280
 total energy-change (2. order) :-0.1263681E-05  (-0.2797204E-06)
 number of electron     343.9999998 magnetization 
 augmentation part       -2.7008855 magnetization 

 Broyden mixing:
  rms(total) = 0.21106E-03    rms(broyden)= 0.20356E-03
  rms(prec ) = 0.21409E-03
  weight for this iteration     100.00

 eigenvalues of (default mixing * dielectric matrix)
  average eigenvalue GAMMA=   1.5899
  4.6793  2.9792  2.3910  2.0618  1.4645  1.4645  0.8571  1.1084  1.1084  1.0365
  1.0365  0.9830  0.9830  0.1057

 Free energy of the ion-electron system (eV)
  ---------------------------------------------------
  alpha Z        PSCENC =       835.99855037
  Ewald energy   TEWEN  =    -17360.49621322
  -Hartree energ DENC   =     -7800.15225785
  -exchange      EXHF   =         0.00000000
  -V(xc)+E(xc)   XCENC  =       947.53067667
  PAW double counting   =     22811.68028197   -23851.13113920
  entropy T*S    EENTRO =        -0.00000000
  eigenvalues    EBANDS =     -2994.39022683
  atomic energy  EATOM  =     26024.88362379
  Solvation  Ediel_sol  =         0.00000000
  ---------------------------------------------------
  free energy    TOTEN  =     -1386.07670430 eV

  energy without entropy =    -1386.07670430  energy(sigma->0) =    -1386.07670430


--------------------------------------------------------------------------------------------------------




--------------------------------------- Iteration      1(  20)  ---------------------------------------


    POTLOK:  cpu time    0.2555: real time    0.3125
    SETDIJ:  cpu time    1.2030: real time    1.2031
     EDDAV:  cpu time   13.1915: real time   13.1921
       DOS:  cpu time    0.0004: real time    0.0004
    --------------------------------------------
      LOOP:  cpu time   14.6504: real time   14.7079

 eigenvalue-minimisations  :  2256
 total energy-change (2. order) : 0.6017326E-06  (-0.2559981E-06)
 number of electron     343.9999998 magnetization 
 augmentation part       -2.7008855 magnetization 

 Free energy of the ion-electron system (eV)
  ---------------------------------------------------
  alpha Z        PSCENC =       835.99855037
  Ewald energy   TEWEN  =    -17360.49621322
  -Hartree energ DENC   =     -7800.15284120
  -exchange      EXHF   =         0.00000000
  -V(xc)+E(xc)   XCENC  =       947.53071396
  PAW double counting   =     22811.68014155   -23851.12774807
  entropy T*S    EENTRO =        -0.00000000
  eigenvalues    EBANDS =     -2994.39293088
  atomic energy  EATOM  =     26024.88362379
  Solvation  Ediel_sol  =         0.00000000
  ---------------------------------------------------
  free energy    TOTEN  =     -1386.07670370 eV

  energy without entropy =    -1386.07670370  energy(sigma->0) =    -1386.07670370


--------------------------------------------------------------------------------------------------------




 average (electrostatic) potential at core
  the test charge radii are     1.1312  1.1541  1.0178  1.1312
  (the norm of the test charge is              1.0000)
       1 -55.3939       2 -55.4653       3 -55.3502       4 -55.3514       5 -55.4611
       6 -55.3962       7-101.7733       8-101.7717       9-101.7899      10-101.7910
      11-101.9855      12-101.9854      13-101.9718      14-101.9724      15 -69.1318
      16 -69.0598      17 -69.0740      18 -69.1444      19 -69.1461      20 -69.0735
      21 -69.0635      22 -69.1258      23 -69.3200      24 -69.4083      25 -69.3086
      26 -69.3319      27 -69.0868      28 -69.0238      29 -68.9157      30 -69.0058
      31 -69.0103      32 -68.9225      33 -69.0233      34 -69.0867      35 -69.4084
      36 -69.3173      37 -69.3312      38 -69.3068      39 -55.5710



 E-fermi :   0.2935     XC(G=0):  -7.9068     alpha+bet : -6.8224


 k-point     1 :       0.0000    0.0000    0.0000
  band No.  band energies     occupation 
      1     -21.2537      2.00000
      2     -20.9944      2.00000
      3     -20.9904      2.00000
      4     -20.9316      2.00000
      5     -20.9287      2.00000
      6     -20.8935      2.00000
      7     -20.8916      2.00000
      8     -16.8214      2.00000
      9     -16.8049      2.00000
     10     -16.7850      2.00000
     11     -16.7685      2.00000
     12     -16.7379      2.00000
     13     -16.7370      2.00000
     14     -16.7275      2.00000
     15     -16.7226      2.00000
     16     -16.6658      2.00000
     17     -16.6654      2.00000
     18     -16.6525      2.00000
     19     -16.6520      2.00000
     20     -16.6498      2.00000
     21     -16.6494      2.00000
     22     -16.6345      2.00000
     23     -16.6343      2.00000
     24     -16.6331      2.00000
     25     -16.6324      2.00000
     26     -16.6251      2.00000
     27     -16.6247      2.00000
     28     -16.5820      2.00000
     29     -16.5734      2.00000
     30     -16.5631      2.00000
     31     -16.5617      2.00000
     32     -16.5320      2.00000
     33     -16.5227      2.00000
     34     -16.5150      2.00000
     35     -16.4964      2.00000
     36     -16.4565      2.00000
     37     -16.4555      2.00000
     38     -16.4472      2.00000
     39     -16.4462      2.00000
     40     -16.4404      2.00000
     41     -16.4395      2.00000
     42     -16.4392      2.00000
     43     -16.4380      2.00000
     44     -16.4354      2.00000
     45     -16.4338      2.00000
[...]


--------------------------------------------------------------------------------------------------------


 soft charge-density along one line, spin component           1
         0         1         2         3         4         5         6         7         8         9
 total charge-density along one line

 pseudopotential strength for first ion, spin component:           1
 18.026  -4.719   0.002  -0.001  -0.001  -0.003   0.002   0.001
 -4.719   1.244  -0.000   0.000   0.000   0.001  -0.000  -0.000
  0.002  -0.000   2.289  -0.000  -0.000  -2.743   0.000   0.000
 -0.001   0.000  -0.000   2.289  -0.001   0.000  -2.743   0.001
 -0.001   0.000  -0.000  -0.001   2.290   0.000   0.001  -2.744
 -0.003   0.001  -2.743   0.000   0.000   3.256  -0.000  -0.000
  0.002  -0.000   0.000  -2.743   0.001  -0.000   3.257  -0.001
  0.001  -0.000   0.000   0.001  -2.744  -0.000  -0.001   3.257
 -0.000   0.000  -0.000   0.000   0.001   0.000  -0.000  -0.002
 -0.000   0.000   0.000   0.001   0.000  -0.001  -0.002  -0.000
  0.000  -0.000  -0.000  -0.002   0.001   0.001   0.002  -0.001
 -0.001   0.000   0.000  -0.000  -0.000  -0.000   0.000   0.000
  0.001  -0.000  -0.001  -0.000  -0.001   0.001   0.000   0.002
 total augmentation occupancy for first ion, spin component:           1
  1.911  -0.141   0.000  -0.000  -0.000   0.001  -0.001  -0.001  -0.000  -0.000   0.000  -0.001   0.001
 -0.141   0.129   0.006  -0.004  -0.002  -0.002   0.001   0.002   0.001   0.000  -0.000   0.002  -0.002
  0.000   0.006   2.015  -0.000  -0.001   0.003  -0.000  -0.000   0.001   0.001  -0.002   0.000  -0.002
 -0.000  -0.004  -0.000   2.017  -0.002  -0.000   0.004  -0.001   0.000   0.002  -0.004  -0.000   0.000
 -0.000  -0.002  -0.001  -0.002   2.019  -0.000  -0.001   0.005   0.003   0.000   0.001   0.001  -0.002
  0.001  -0.002   0.003  -0.000  -0.000   0.010   0.000   0.000  -0.001  -0.002   0.000  -0.000   0.000
 -0.001   0.001  -0.000   0.004  -0.001   0.000   0.009   0.001  -0.000  -0.000   0.003  -0.000   0.000
 -0.001   0.002  -0.000  -0.001   0.005   0.000   0.001   0.009  -0.001  -0.000  -0.001  -0.001   0.002
 -0.000   0.001   0.001   0.000   0.003  -0.001  -0.000  -0.001   0.007   0.001  -0.000   0.000   0.000
 -0.000   0.000   0.001   0.002   0.000  -0.002  -0.000  -0.000   0.001   0.006  -0.000   0.000   0.000
  0.000  -0.000  -0.002  -0.004   0.001   0.000   0.003  -0.001  -0.000  -0.000   0.006  -0.002  -0.000
 -0.001   0.002   0.000  -0.000   0.001  -0.000  -0.000  -0.001   0.000   0.000  -0.002   0.004   0.001
  0.001  -0.002  -0.002   0.000  -0.002   0.000   0.000   0.002   0.000   0.000  -0.000   0.001   0.005


------------------------ aborting loop because EDIFF is reached ----------------------------------------





 total charge     

# of ion       s       p       d       tot
------------------------------------------
    1        1.786   4.721   0.021   6.529
    2        1.786   4.721   0.019   6.526
    3        1.787   4.722   0.022   6.531
    4        1.787   4.722   0.022   6.531
    5        1.786   4.721   0.020   6.526
    6        1.787   4.721   0.021   6.529
    7        1.554   0.420   9.833  11.807
    8        1.554   0.421   9.833  11.807
    9        1.554   0.415   9.833  11.803
   10        1.554   0.415   9.833  11.802
   11        1.550   0.437   9.835  11.822
   12        1.551   0.436   9.834  11.821
   13        1.554   0.432   9.835  11.821
   14        1.554   0.432   9.835  11.820
   15        1.614   3.290   0.006   4.910
   16        1.614   3.280   0.006   4.900
   17        1.614   3.285   0.006   4.905
   18        1.614   3.290   0.006   4.911
   19        1.614   3.290   0.006   4.911
   20        1.614   3.285   0.006   4.905
   21        1.614   3.280   0.006   4.900
   22        1.614   3.290   0.006   4.910
   23        1.615   3.290   0.007   4.911
   24        1.619   3.319   0.010   4.947
   25        1.615   3.291   0.006   4.911
   26        1.615   3.291   0.007   4.914
   27        1.614   3.291   0.006   4.910
   28        1.615   3.287   0.006   4.908
   29        1.615   3.277   0.006   4.898
   30        1.614   3.293   0.006   4.912
   31        1.614   3.293   0.006   4.912
   32        1.615   3.277   0.006   4.899
   33        1.615   3.287   0.006   4.908
   34        1.614   3.291   0.006   4.910
   35        1.619   3.319   0.010   4.947
   36        1.615   3.289   0.007   4.911
   37        1.615   3.291   0.007   4.914
   38        1.615   3.291   0.006   4.911
   39        1.800   4.735   0.051   6.586
--------------------------------------------------
tot         63.700 115.436  79.003 258.139

    CHARGE:  cpu time    0.3979: real time    0.3979
    FORLOC:  cpu time    0.0120: real time    0.0120
    FORNL :  cpu time    1.9070: real time    1.9071
    STRESS:  cpu time   49.7952: real time   49.7971
    FORCOR:  cpu time    0.2450: real time    0.2450
    FORHAR:  cpu time    0.0288: real time    0.0288
    MIXING:  cpu time    0.0020: real time    0.0020
    OFIELD:  cpu time    0.0000: real time    0.0000

  FORCE on cell =-STRESS in cart. coord.  units (eV):
  Direction    XX          YY          ZZ          XY          YZ          ZX
  --------------------------------------------------------------------------------------
  Alpha Z   835.99855   835.99855   835.99855
  Ewald   -5639.27146 -6056.42627 -5664.87731    49.75814    -5.84352    83.73138
  Hartree  2693.58872  2445.10901  2661.46678    31.70831     2.04773    74.18162
  E(xc)   -1447.32495 -1447.74611 -1447.28382     0.08762    -0.06121    -0.13495
  Local   -3442.84731 -2778.71998 -3384.40638   -81.60401     3.63224  -157.62071
  n-local  1795.72387  1794.48631  1795.41843     0.22800    -0.07251     0.37854
  augment   824.57337   825.08017   823.97839     0.05203     0.02772     0.23471
  Kinetic  4391.48122  4385.12474  4392.55125     1.06609    -0.95745    -4.43993
  Fock        0.00000     0.00000     0.00000     0.00000     0.00000     0.00000
  -------------------------------------------------------------------------------------
  Total      11.92201     2.90642    12.84590     1.29618    -1.22700    -3.66934
  in kB      11.93620     2.90988    12.86119     1.29773    -1.22846    -3.67371
  external pressure =        9.24 kB  Pullay stress =        0.00 kB


 VOLUME and BASIS-vectors are now :
 -----------------------------------------------------------------------------
  energy-cutoff  :      300.00
  volume of cell :     1600.27
      direct lattice vectors                 reciprocal lattice vectors
     8.420018000  0.000000000  8.077981000     0.059382296 -0.000000000  0.061896655
     0.000000000 11.763808000  0.000000000     0.000000000  0.085006488 -0.000000000
    -8.420018000  0.000000000  8.077981000    -0.059382296  0.000000000  0.061896655

  length of vectors
    11.668353789 11.763808000 11.668353789     0.085775596  0.085006488  0.085775596


 FORCES acting on ions
    electron-ion (+dipol)            ewald-force                    non-local-force                 convergence-correction
 -----------------------------------------------------------------------------------------------
   0.381E+02 0.395E+01 -.186E+02   -.380E+02 -.419E+01 0.186E+02   -.945E-01 0.200E+00 -.890E-01   0.368E-04 -.154E-03 0.913E-06
   0.181E+02 0.116E+02 -.104E+02   -.179E+02 -.118E+02 0.103E+02   -.172E+00 0.159E+00 0.114E+00   -.545E-04 -.708E-04 0.278E-06
   -.218E+02 -.435E+01 -.120E+02   0.217E+02 0.448E+01 0.121E+02   0.115E+00 -.128E+00 -.823E-01   -.151E-04 0.178E-03 -.364E-04
   0.216E+02 0.455E+01 0.127E+02   -.214E+02 -.468E+01 -.128E+02   -.115E+00 0.126E+00 0.832E-01   0.266E-05 -.195E-03 0.909E-04
   -.182E+02 -.117E+02 0.103E+02   0.181E+02 0.119E+02 -.102E+02   0.169E+00 -.162E+00 -.116E+00   0.957E-04 0.212E-03 0.386E-04
   -.378E+02 -.408E+01 0.183E+02   0.377E+02 0.433E+01 -.184E+02   0.945E-01 -.198E+00 0.925E-01   -.703E-04 0.196E-03 0.411E-04
   0.994E+02 -.210E+02 0.499E+01   -.980E+02 0.216E+02 -.526E+01   -.140E+01 -.569E+00 0.244E+00   -.602E-03 0.160E-03 0.133E-03
   -.989E+02 0.212E+02 -.436E+01   0.975E+02 -.218E+02 0.459E+01   0.144E+01 0.527E+00 -.215E+00   0.593E-03 -.176E-03 -.127E-03
   0.710E+01 0.943E+01 -.114E+03   -.743E+01 -.957E+01 0.115E+03   0.316E+00 0.145E+00 -.495E+00   -.177E-03 -.225E-04 0.767E-03
   -.719E+01 -.906E+01 0.113E+03   0.752E+01 0.922E+01 -.113E+03   -.303E+00 -.160E+00 0.446E+00   0.186E-03 0.539E-05 -.777E-03
   0.286E+02 -.258E+02 -.643E+02   -.300E+02 0.260E+02 0.664E+02   0.125E+01 -.208E+00 -.234E+01   -.141E-03 0.249E-04 0.748E-03
   -.286E+02 0.241E+02 0.637E+02   0.300E+02 -.243E+02 -.657E+02   -.129E+01 0.206E+00 0.228E+01   0.144E-03 -.982E-05 -.765E-03
   0.657E+02 0.125E+02 -.143E+02   -.666E+02 -.125E+02 0.145E+02   0.111E+01 -.779E-01 -.978E-01   -.664E-03 -.759E-04 0.471E-04
   -.658E+02 -.141E+02 0.142E+02   0.668E+02 0.141E+02 -.144E+02   -.115E+01 0.488E-01 0.661E-01   0.656E-03 0.872E-04 -.415E-04
   0.112E+02 -.146E+02 -.524E+01   -.112E+02 0.147E+02 0.497E+01   -.415E-01 -.169E+00 0.256E+00   -.600E-04 0.876E-04 0.326E-03
   0.112E+02 -.194E+02 0.102E+03   -.113E+02 0.194E+02 -.102E+03   0.920E-01 -.302E-01 0.376E+00   -.658E-05 0.104E-03 -.430E-03
   0.456E+02 0.169E+02 0.208E+02   -.455E+02 -.170E+02 -.209E+02   -.655E-01 0.114E+00 0.121E+00   -.400E-03 -.827E-04 0.144E-03
   -.313E+02 0.936E+01 0.417E+02   0.312E+02 -.940E+01 -.421E+02   0.711E-01 0.682E-01 0.347E+00   0.300E-03 -.835E-04 0.543E-04
   0.317E+02 -.891E+01 -.418E+02   -.316E+02 0.894E+01 0.422E+02   -.747E-01 -.613E-01 -.351E+00   -.309E-03 0.804E-04 -.675E-04
   -.463E+02 -.163E+02 -.206E+02   0.462E+02 0.164E+02 0.208E+02   0.625E-01 -.110E+00 -.127E+00   0.405E-03 0.902E-04 -.124E-03
   -.114E+02 0.198E+02 -.101E+03   0.115E+02 -.198E+02 0.101E+03   -.921E-01 0.326E-01 -.356E+00   -.339E-05 -.103E-03 0.415E-03
   -.113E+02 0.148E+02 0.467E+01   0.113E+02 -.149E+02 -.441E+01   0.338E-01 0.165E+00 -.256E+00   0.777E-04 -.881E-04 -.319E-03
   -.983E+01 0.181E+02 0.151E+02   0.101E+02 -.184E+02 -.155E+02   -.197E+00 0.265E+00 0.362E+00   -.673E-04 -.210E-04 0.701E-04
   -.444E+01 0.263E+02 0.644E+01   0.411E+01 -.265E+02 -.611E+01   -.637E+00 -.102E-02 0.543E+00   0.152E-03 0.298E-04 -.157E-03
   0.101E+01 -.381E+02 0.161E+02   -.116E+01 0.382E+02 -.164E+02   0.140E+00 -.168E+00 0.312E+00   0.191E-03 0.595E-04 0.210E-03
   0.248E+02 -.277E+02 0.190E+02   -.250E+02 0.281E+02 -.191E+02   0.232E+00 -.418E+00 0.814E-01   -.597E-04 -.138E-05 -.474E-04
   -.297E+02 -.109E+02 -.242E+02   0.299E+02 0.110E+02 0.243E+02   -.188E+00 -.829E-01 -.717E-01   -.259E-04 -.465E-04 -.175E-04
   0.216E+02 -.344E+02 0.822E+01   -.214E+02 0.347E+02 -.784E+01   -.145E+00 -.224E+00 -.346E+00   -.302E-03 0.203E-04 -.320E-03
   0.745E+02 0.303E+02 -.629E+02   -.749E+02 -.308E+02 0.632E+02   0.359E+00 0.489E+00 -.225E+00   -.406E-03 0.538E-04 0.359E-03
   0.311E+01 0.107E+02 -.149E+02   -.316E+01 -.108E+02 0.152E+02   0.460E-01 0.104E+00 -.221E+00   0.958E-04 0.108E-04 -.820E-04
   -.307E+01 -.108E+02 0.152E+02   0.312E+01 0.109E+02 -.155E+02   -.477E-01 -.109E+00 0.216E+00   -.784E-04 -.178E-05 0.812E-04
   -.746E+02 -.298E+02 0.626E+02   0.750E+02 0.303E+02 -.628E+02   -.358E+00 -.481E+00 0.226E+00   0.407E-03 -.891E-04 -.372E-03
   -.214E+02 0.347E+02 -.817E+01   0.212E+02 -.349E+02 0.779E+01   0.146E+00 0.216E+00 0.350E+00   0.303E-03 -.252E-04 0.329E-03
   0.293E+02 0.110E+02 0.245E+02   -.296E+02 -.111E+02 -.246E+02   0.193E+00 0.872E-01 0.761E-01   0.112E-04 0.782E-05 0.225E-06
   0.487E+01 -.261E+02 -.628E+01   -.455E+01 0.263E+02 0.594E+01   0.624E+00 0.296E-01 -.524E+00   -.153E-03 0.241E-07 0.154E-03
   0.102E+02 -.182E+02 -.146E+02   -.104E+02 0.185E+02 0.150E+02   0.208E+00 -.261E+00 -.360E+00   0.772E-04 0.163E-04 -.663E-04
   -.252E+02 0.275E+02 -.188E+02   0.255E+02 -.279E+02 0.189E+02   -.230E+00 0.415E+00 -.847E-01   0.437E-04 0.900E-05 0.384E-04
   -.810E+00 0.374E+02 -.165E+02   0.959E+00 -.375E+02 0.168E+02   -.142E+00 0.174E+00 -.312E+00   -.182E-03 -.608E-04 -.208E-03
   -.176E+00 0.138E+01 -.268E+00   0.181E+00 -.140E+01 0.262E+00   0.483E-02 -.886E-02 -.927E-02   -.182E-05 0.111E-04 -.898E-06
 -----------------------------------------------------------------------------------------------
   0.255E-01 0.552E-01 0.988E-01   0.213E-12 -.117E-12 0.356E-13   -.314E-01 -.554E-01 -.902E-01   -.164E-05 0.137E-03 0.881E-04


 POSITION                                       TOTAL-FORCE (eV/Angst)
 -----------------------------------------------------------------------------------
      0.61646      2.91664      3.78323         0.002935     -0.034282     -0.009314
      0.25146      2.89246     12.17164         0.012465     -0.033005      0.011614
     -4.62835      8.97675      7.96109        -0.006421      0.012915     -0.009577
     -3.79142      2.79366      8.19748         0.008136     -0.015226      0.009675
     -0.25466      8.86797     12.06589        -0.014622      0.033105     -0.013038
     -0.61859      8.84751      4.29595        -0.004066      0.036574      0.010331
      8.34368     11.71333      8.14241        -0.054481      0.016251     -0.014801
      0.07789      0.05182      8.01483         0.043781     -0.018263      0.006979
      4.27611     11.74168      4.12000        -0.012730     -0.006228      0.053756
      4.14277      0.02382     12.03495         0.016784      0.004708     -0.046150
     -4.13756      5.89063     12.04734        -0.140640     -0.032523     -0.236296
      4.13571      5.87901     12.18538         0.145810      0.033922      0.239914
      0.05402      5.89399      0.06540         0.236016     -0.042949      0.092483
     -0.05345      5.87419      8.01287        -0.236986      0.043989     -0.088461
     -3.95684      8.79767     11.46878         0.012330     -0.038111     -0.001013
      4.15648      8.82479     11.50813         0.004160     -0.051884     -0.021063
      0.07649      2.93540     15.80623         0.001569      0.051692      0.004712
     -0.22690      2.95860      7.33442        -0.001754      0.048317     -0.003035
      0.22972      8.80937      0.74856         0.000796     -0.046502      0.001137
     -0.07236      8.83246      8.43206        -0.001929     -0.052208     -0.006104
      4.26207      2.94202      4.63580        -0.003357      0.055049      0.026498
     -4.46103      2.97016      4.68798        -0.014664      0.034151     -0.000350
     -5.86879      5.41385      9.68863         0.049311      0.008605      0.025928
      1.99941      5.50086     10.13253        -0.952306     -0.208191      0.861790
      1.66723      6.21861      5.56844         0.002090     -0.012541     -0.004953
      1.88928      6.52248     13.95120        -0.009814     -0.027095     -0.015637
     -1.75466      0.38505     10.43854         0.005022      0.016159     -0.007472
     -1.64640      0.34611      2.53240         0.028954     -0.020090      0.006006
      6.08926     11.04337      6.38854         0.023120     -0.019508     -0.022380
     -2.52520     11.42001      6.38729         0.000678      0.011164      0.008066
     -5.89525      0.34690      9.76920        -0.001338     -0.012652     -0.013166
      2.33081      0.71752      9.76607        -0.018465      0.024810      0.024789
      1.64327     11.42299      5.54321        -0.029275      0.015064     -0.005397
      1.75014     11.37713     13.79282         0.000097     -0.014446      0.006357
     -1.99479      6.24661     14.10020         0.935406      0.221503     -0.850715
     -2.55249      6.35488      6.47055        -0.045463     -0.007903     -0.027502
     -1.88889      5.25118     10.28389         0.014271      0.025844      0.014641
     -1.66714      5.54453      2.50964        -0.004974      0.015841      0.005225
      4.21067      5.85829      8.07506         0.009555     -0.016058     -0.013477
 -----------------------------------------------------------------------------------
    total drift:                               -0.005817     -0.000081      0.008695


--------------------------------------------------------------------------------------------------------



  FREE ENERGIE OF THE ION-ELECTRON SYSTEM (eV)
  ---------------------------------------------------
  free  energy   TOTEN  =     -1386.07670370 eV

  energy  without entropy=    -1386.07670370  energy(sigma->0) =    -1386.07670370



--------------------------------------------------------------------------------------------------------


    POTLOK:  cpu time    1.4362: real time    1.4362


--------------------------------------------------------------------------------------------------------


 stress matrix after NEB project (eV)
     11.92201      1.29622     -3.66934
      1.29618      2.90642     -1.22700
     -3.66931     -1.22700     12.84590
  FORCES: max atom, RMS     1.301120    0.307283
  FORCE total and by dimension    1.918983    0.952306
  Stress total and by dimension   18.678809   12.845899
     LOOP+:  cpu time  465.1984: real time  465.8482
    4ORBIT:  cpu time    0.0000: real time    0.0000



 total charge     

# of ion       s       p       d       tot
------------------------------------------
    1        1.786   4.721   0.021   6.529
    2        1.786   4.721   0.019   6.526
    3        1.787   4.722   0.022   6.531
    4        1.787   4.722   0.022   6.531
    5        1.786   4.721   0.020   6.526
    6        1.787   4.721   0.021   6.529
    7        1.554   0.420   9.833  11.807
    8        1.554   0.421   9.833  11.807
    9        1.554   0.415   9.833  11.803
   10        1.554   0.415   9.833  11.802
   11        1.550   0.437   9.835  11.822
   12        1.551   0.436   9.834  11.821
   13        1.554   0.432   9.835  11.821
   14        1.554   0.432   9.835  11.820
   15        1.614   3.290   0.006   4.910
   16        1.614   3.280   0.006   4.900
   17        1.614   3.285   0.006   4.905
   18        1.614   3.290   0.006   4.911
   19        1.614   3.290   0.006   4.911
   20        1.614   3.285   0.006   4.905
   21        1.614   3.280   0.006   4.900
   22        1.614   3.290   0.006   4.910
   23        1.615   3.290   0.007   4.911
   24        1.619   3.319   0.010   4.947
   25        1.615   3.291   0.006   4.911
   26        1.615   3.291   0.007   4.914
   27        1.614   3.291   0.006   4.910
   28        1.615   3.287   0.006   4.908
   29        1.615   3.277   0.006   4.898
   30        1.614   3.293   0.006   4.912
   31        1.614   3.293   0.006   4.912
   32        1.615   3.277   0.006   4.899
   33        1.615   3.287   0.006   4.908
   34        1.614   3.291   0.006   4.910
   35        1.619   3.319   0.010   4.947
   36        1.615   3.289   0.007   4.911
   37        1.615   3.291   0.007   4.914
   38        1.615   3.291   0.006   4.911
   39        1.800   4.735   0.051   6.586
--------------------------------------------------
tot         63.700 115.436  79.003 258.139


 total amount of memory used by VASP MPI-rank0    60999. kBytes
=======================================================================

   base      :      30000. kBytes
   nonlr-proj:       6411. kBytes
   fftplans  :       8423. kBytes
   grid      :       7942. kBytes
   one-center:         77. kBytes
   wavefun   :       8146. kBytes

  
  
 General timing and accounting informations for this job:
 ========================================================
  
                  Total CPU time used (sec):      477.629
                            User time (sec):      476.141
                          System time (sec):        1.488
                         Elapsed time (sec):      479.040
  
                   Maximum memory used (kb):       78796.
                   Average memory used (kb):           0.
  
                          Minor page faults:        21023
                          Major page faults:            1
                 Voluntary context switches:         1630
