<?xml version="1.0" encoding="ISO-8859-1"?>
<modeling>
 <generator>
  <i name="program" type="string">vasp </i>
  <i name="version" type="string">5.4.4.18Apr17-6-g9f103f2a35  </i>
  <i name="subversion" type="string">(build Jun 22 2020 09:27:21) complex            parallel </i>
  <i name="platform" type="string">tx2_gcc-7.3_libsci-18.07_cray-fftw-3.3.8 </i>
  <i name="date" type="string">2021 10 12 </i>
  <i name="time" type="string">05:26:59 </i>
 </generator>
 <incar>
  <i type="string" name="SYSTEM"> CsPbBr3 cubic bulk</i>
  <i type="string" name="PREC">accurate</i>
  <i type="string" name="ALGO"> NORMAL   ! Electronic minimisation algo</i>
  <i type="logical" name="ADDGRID"> T  </i>
  <i type="int" name="ISPIN">     1</i>
  <i type="int" name="NELM">   200</i>
  <i type="int" name="IBRION">     2</i>
  <i name="EDIFF">      0.00000100</i>
  <i name="EDIFFG">     -0.01000000</i>
  <i type="int" name="NSW">     0</i>
  <i type="int" name="ISIF">     2</i>
  <i type="int" name="ISYM">     0</i>
  <i name="ENCUT">    300.00000000</i>
  <i name="POTIM">      0.50000000</i>
  <i name="NUPDOWN">      0.00000000</i>
  <i name="NELECT">    344.00000000</i>
  <i type="string" name="LREAL"> AUTO</i>
  <i type="int" name="ISMEAR">     0</i>
  <i name="SIGMA">      0.01000000</i>
  <i type="logical" name="LWAVE"> F  </i>
  <i type="logical" name="LCHARG"> F  </i>
  <i type="logical" name="LVHAR"> T  </i>
  <i type="int" name="LORBIT">    10</i>
  <i type="logical" name="LASPH"> T  </i>
  <v type="int" name="KPOINT_BSE">    -1     0     0     0</v>
  <i type="int" name="NELM">   200</i>
  <i type="string" name="METAGGA"> SCAN       ! PBE exchange-correlation</i>
  <i type="logical" name="LASPH"> T  </i>
 </incar>
 <structure name="primitive_cell" >
  <crystal>
   <varray name="basis" >
    <v>       8.42001800       0.00000000       8.07798100 </v>
    <v>       0.00000000      11.76380800       0.00000000 </v>
    <v>      -8.42001800       0.00000000       8.07798100 </v>
   </varray>
   <i name="volume">   1600.27186790 </i>
   <varray name="rec_basis" >
    <v>       0.05938230      -0.00000000       0.06189665 </v>
    <v>       0.00000000       0.08500649      -0.00000000 </v>
    <v>      -0.05938230       0.00000000       0.06189665 </v>
   </varray>
  </crystal>
  <varray name="positions" >
   <v>       0.27077600       0.24793300       0.19756200 </v>
   <v>       0.05898000       0.02942200       0.25451400 </v>
   <v>       0.44050200       0.25150000       0.46745000 </v>
   <v>       0.05634000       0.47132100       0.25433700 </v>
   <v>      -0.45996800       0.25009100       0.03384900 </v>
   <v>       0.25460700       0.02948900      -0.04524600 </v>
   <v>       0.25119200       0.46021200      -0.05180400 </v>
   <v>       0.44068700      -0.02897200       0.24552500 </v>
   <v>       0.44367200      -0.47137800       0.24566400 </v>
   <v>      -0.01710500       0.24952800      -0.02618900 </v>
   <v>      -0.49106100      -0.00188100       0.00108900 </v>
   <v>       0.49999200      -0.49925800      -0.00861200 </v>
   <v>       0.00725600      -0.49897300       0.00084000 </v>
   <v>      -0.00054500      -0.00429100       0.00852100 </v>
   <v>      -0.49928400       0.00440500       0.49146600 </v>
   <v>       0.02526400       0.25248300      -0.44492300 </v>
   <v>       0.49279600       0.49934400       0.49914400 </v>
   <v>       0.24540000      -0.02922500      -0.45469600 </v>
   <v>       0.24893300      -0.45979400      -0.44792200 </v>
   <v>       0.28225300       0.23747900      -0.26746000 </v>
   <v>      -0.00907000       0.00202500       0.49891600 </v>
   <v>      -0.00017800       0.49975400      -0.49135400 </v>
   <v>       0.22917200      -0.24790400       0.30263800 </v>
   <v>      -0.25014100       0.49799300       0.24978000 </v>
   <v>      -0.47562800       0.44638400      -0.25129500 </v>
   <v>      -0.25710400       0.06099400       0.46607800 </v>
   <v>       0.05997500      -0.25114600       0.03269200 </v>
   <v>      -0.45808500       0.03273200      -0.24969400 </v>
   <v>      -0.25410100       0.46760900      -0.49156000 </v>
   <v>       0.47491300      -0.25214100      -0.05515500 </v>
   <v>      -0.24570000      -0.46899800      -0.00879000 </v>
   <v>      -0.24297600      -0.06124200       0.03383500 </v>
   <v>      -0.04234300      -0.03287000      -0.25019800 </v>
   <v>      -0.02427800      -0.44554700      -0.24865700 </v>
   <v>      -0.48238100      -0.24918400      -0.47378700 </v>
   <v>       0.21792300      -0.23691800      -0.23239300 </v>
   <v>      -0.04086400      -0.24983600       0.46549300 </v>
   <v>      -0.23168400       0.24587800      -0.26154800 </v>
   <v>      -0.26828400      -0.24616500      -0.23803900 </v>
  </varray>
 </structure>
 <varray name="primitive_index" >
  <v type="int" >        1 </v>
  <v type="int" >       28 </v>
  <v type="int" >       18 </v>
  <v type="int" >       38 </v>
  <v type="int" >       21 </v>
  <v type="int" >       31 </v>
  <v type="int" >       23 </v>
  <v type="int" >       33 </v>
  <v type="int" >       25 </v>
  <v type="int" >       17 </v>
  <v type="int" >        9 </v>
  <v type="int" >       11 </v>
  <v type="int" >       13 </v>
  <v type="int" >        7 </v>
  <v type="int" >        8 </v>
  <v type="int" >       22 </v>
  <v type="int" >       14 </v>
  <v type="int" >       30 </v>
  <v type="int" >       36 </v>
  <v type="int" >        4 </v>
  <v type="int" >       10 </v>
  <v type="int" >       12 </v>
  <v type="int" >        6 </v>
  <v type="int" >       39 </v>
  <v type="int" >       37 </v>
  <v type="int" >       32 </v>
  <v type="int" >       19 </v>
  <v type="int" >       27 </v>
  <v type="int" >       24 </v>
  <v type="int" >       15 </v>
  <v type="int" >       35 </v>
  <v type="int" >       29 </v>
  <v type="int" >       34 </v>
  <v type="int" >       26 </v>
  <v type="int" >       20 </v>
  <v type="int" >        3 </v>
  <v type="int" >       16 </v>
  <v type="int" >        2 </v>
  <v type="int" >        5 </v>
 </varray>
 <kpoints>
  <generation param="Gamma">
   <v type="int" name="divisions">       2        2        2 </v>
   <v name="usershift">      0.00000000       0.00000000       0.00000000 </v>
   <v name="genvec1">      0.50000000       0.00000000       0.00000000 </v>
   <v name="genvec2">      0.00000000       0.50000000       0.00000000 </v>
   <v name="genvec3">      0.00000000       0.00000000       0.50000000 </v>
   <v name="shift">      0.00000000       0.00000000       0.00000000 </v>
  </generation>
  <varray name="kpointlist" >
   <v>       0.00000000       0.00000000       0.00000000 </v>
   <v>       0.50000000       0.00000000       0.00000000 </v>
   <v>       0.00000000       0.50000000       0.00000000 </v>
   <v>       0.50000000       0.50000000       0.00000000 </v>
   <v>       0.00000000       0.00000000       0.50000000 </v>
   <v>       0.50000000       0.00000000       0.50000000 </v>
   <v>       0.00000000       0.50000000       0.50000000 </v>
   <v>       0.50000000       0.50000000       0.50000000 </v>
  </varray>
  <varray name="weights" >
   <v>       0.12500000 </v>
   <v>       0.12500000 </v>
   <v>       0.12500000 </v>
   <v>       0.12500000 </v>
   <v>       0.12500000 </v>
   <v>       0.12500000 </v>
   <v>       0.12500000 </v>
   <v>       0.12500000 </v>
  </varray>
 </kpoints>
 <parameters>
  <separator name="general" >
   <i type="string" name="SYSTEM">CsPbBr3 cubic bulk</i>
   <i type="logical" name="LCOMPAT"> F  </i>
  </separator>
  <separator name="electronic" >
   <i type="string" name="PREC">accura</i>
   <i name="ENMAX">    300.00000000</i>
   <i name="ENAUG">    503.85200000</i>
   <i name="EDIFF">      0.00000100</i>
   <i type="int" name="IALGO">    38</i>
   <i type="int" name="IWAVPR">    10</i>
   <i type="int" name="NBANDS">   208</i>
   <i name="NELECT">    344.00000000</i>
   <i type="int" name="TURBO">     0</i>
   <i type="int" name="IRESTART">     0</i>
   <i type="int" name="NREBOOT">     0</i>
   <i type="int" name="NMIN">     0</i>
   <i name="EREF">      0.00000000</i>
   <separator name="electronic smearing" >
    <i type="int" name="ISMEAR">     0</i>
    <i name="SIGMA">      0.01000000</i>
    <i name="KSPACING">      0.50000000</i>
    <i type="logical" name="KGAMMA"> T  </i>
   </separator>
   <separator name="electronic projectors" >
    <i type="logical" name="LREAL"> T  </i>
    <v name="ROPT">     -0.00025000     -0.00025000     -0.00025000     -0.00025000</v>
    <i type="int" name="LMAXPAW">  -100</i>
    <i type="int" name="LMAXMIX">     2</i>
    <i type="logical" name="NLSPLINE"> F  </i>
   </separator>
   <separator name="electronic startup" >
    <i type="int" name="ISTART">     0</i>
    <i type="int" name="ICHARG">     2</i>
    <i type="int" name="INIWAV">     1</i>
   </separator>
   <separator name="electronic spin" >
    <i type="int" name="ISPIN">     1</i>
    <i type="logical" name="LNONCOLLINEAR"> F  </i>
    <v name="MAGMOM">      0.00000000      0.00000000      0.00000000      0.00000000      0.00000000      0.00000000      0.00000000      0.00000000      0.00000000      0.00000000      0.00000000      0.00000000      0.00000000      0.00000000      0.00000000      0.00000000      0.00000000      0.00000000      0.00000000      0.00000000
      0.00000000      0.00000000      0.00000000      0.00000000      0.00000000      0.00000000      0.00000000      0.00000000      0.00000000      0.00000000      0.00000000      0.00000000      0.00000000      0.00000000      0.00000000      0.00000000      0.00000000      0.00000000      0.00000000</v>
    <i name="NUPDOWN">      0.00000000</i>
    <i type="logical" name="LSORBIT"> F  </i>
    <v name="SAXIS">      0.00000000      0.00000000      1.00000000</v>
    <i type="logical" name="LSPIRAL"> F  </i>
    <v name="QSPIRAL">      0.00000000      0.00000000      0.00000000</v>
    <i type="logical" name="LZEROZ"> F  </i>
   </separator>
   <separator name="electronic exchange-correlation" >
    <i type="logical" name="LASPH"> T  </i>
    <i type="logical" name="LMETAGGA"> F  </i>
   </separator>
   <separator name="electronic convergence" >
    <i type="int" name="NELM">   200</i>
    <i type="int" name="NELMDL">    -5</i>
    <i type="int" name="NELMIN">     2</i>
    <i name="ENINI">    300.00000000</i>
    <separator name="electronic convergence detail" >
     <i type="logical" name="LDIAG"> T  </i>
     <i type="logical" name="LSUBROT"> F  </i>
     <i name="WEIMIN">      0.00000000</i>
     <i name="EBREAK">      0.00000000</i>
     <i name="DEPER">      0.30000000</i>
     <i type="int" name="NRMM">     4</i>
     <i name="TIME">      0.40000000</i>
    </separator>
   </separator>
   <separator name="electronic mixer" >
    <i name="AMIX">      0.40000000</i>
    <i name="BMIX">      1.00000000</i>
    <i name="AMIN">      0.10000000</i>
    <i name="AMIX_MAG">      1.60000000</i>
    <i name="BMIX_MAG">      1.00000000</i>
    <separator name="electronic mixer details" >
     <i type="int" name="IMIX">     4</i>
     <i type="logical" name="MIXFIRST"> F  </i>
     <i type="int" name="MAXMIX">   -45</i>
     <i name="WC">    100.00000000</i>
     <i type="int" name="INIMIX">     1</i>
     <i type="int" name="MIXPRE">     1</i>
     <i type="int" name="MREMOVE">     5</i>
    </separator>
   </separator>
   <separator name="electronic dipolcorrection" >
    <i type="logical" name="LDIPOL"> F  </i>
    <i type="logical" name="LMONO"> F  </i>
    <i type="int" name="IDIPOL">     0</i>
    <i name="EPSILON">      1.00000000</i>
    <v name="DIPOL">   -100.00000000   -100.00000000   -100.00000000</v>
    <i name="EFIELD">      0.00000000</i>
   </separator>
  </separator>
  <separator name="grids" >
   <i type="int" name="NGX">    70</i>
   <i type="int" name="NGY">    70</i>
   <i type="int" name="NGZ">    70</i>
   <i type="int" name="NGXF">   140</i>
   <i type="int" name="NGYF">   140</i>
   <i type="int" name="NGZF">   140</i>
   <i type="logical" name="ADDGRID"> T  </i>
  </separator>
  <separator name="ionic" >
   <i type="int" name="NSW">     0</i>
   <i type="int" name="IBRION">    -1</i>
   <i type="int" name="MDALGO">     0</i>
   <i type="int" name="ISIF">     2</i>
   <i name="PSTRESS">      0.00000000</i>
   <i name="EDIFFG">     -0.01000000</i>
   <i type="int" name="NFREE">     1</i>
   <i name="POTIM">      0.50000000</i>
   <i name="SMASS">     -3.00000000</i>
   <i name="SCALEE">      1.00000000</i>
  </separator>
  <separator name="ionic md" >
   <i name="TEBEG">      0.00010000</i>
   <i name="TEEND">      0.00010000</i>
   <i type="int" name="NBLOCK">     1</i>
   <i type="int" name="KBLOCK">     1</i>
   <i type="int" name="NPACO">   256</i>
   <i name="APACO">     16.00000000</i>
  </separator>
  <separator name="symmetry" >
   <i type="int" name="ISYM">     0</i>
   <i name="SYMPREC">      0.00001000</i>
  </separator>
  <separator name="dos" >
   <i type="int" name="LORBIT">    10</i>
   <v name="RWIGS">     -1.00000000     -1.00000000     -1.00000000     -1.00000000</v>
   <i type="int" name="NEDOS">   301</i>
   <i name="EMIN">     10.00000000</i>
   <i name="EMAX">    -10.00000000</i>
   <i name="EFERMI">      0.00000000</i>
  </separator>
  <separator name="writing" >
   <i type="int" name="NWRITE">     2</i>
   <i type="logical" name="LWAVE"> F  </i>
   <i type="logical" name="LDOWNSAMPLE"> F  </i>
   <i type="logical" name="LCHARG"> F  </i>
   <i type="logical" name="LPARD"> F  </i>
   <i type="logical" name="LVTOT"> F  </i>
   <i type="logical" name="LVHAR"> T  </i>
   <i type="logical" name="LELF"> F  </i>
   <i type="logical" name="LOPTICS"> F  </i>
   <v name="STM">      0.00000000      0.00000000      0.00000000      0.00000000      0.00000000      0.00000000      0.00000000</v>
  </separator>
  <separator name="performance" >
   <i type="int" name="NPAR">     8</i>
   <i type="int" name="NSIM">     4</i>
   <i type="int" name="NBLK">    -1</i>
   <i type="logical" name="LPLANE"> T  </i>
   <i type="logical" name="LSCALAPACK"> T  </i>
   <i type="logical" name="LSCAAWARE"> F  </i>
   <i type="logical" name="LSCALU"> F  </i>
   <i type="logical" name="LASYNC"> F  </i>
   <i type="logical" name="LORBITALREAL"> F  </i>
  </separator>
  <separator name="miscellaneous" >
   <i type="int" name="IDIOT">     3</i>
   <i type="int" name="ISPECIAL">     0</i>
   <i type="logical" name="LMUSIC"> F  </i>
   <v name="POMASS">    132.90000000    207.20000000     79.90400000    132.90000000</v>
   <v name="DARWINR">      0.00000000      0.00000000      0.00000000      0.00000000</v>
   <v name="DARWINV">      1.00000000      1.00000000      1.00000000      1.00000000</v>
   <i type="logical" name="LCORR"> T  </i>
  </separator>
  <i type="logical" name="GGA_COMPAT"> T  </i>
  <i type="logical" name="LBERRY"> F  </i>
  <i type="int" name="ICORELEVEL">     0</i>
  <i type="logical" name="LDAU"> F  </i>
  <i type="int" name="I_CONSTRAINED_M">     0</i>
  <separator name="electronic exchange-correlation" >
   <i type="string" name="GGA">--</i>
   <i type="int" name="VOSKOWN">     0</i>
   <i type="logical" name="LHFCALC"> F  </i>
   <i type="string" name="PRECFOCK"></i>
   <i type="logical" name="LSYMGRAD"> F  </i>
   <i type="logical" name="LHFONE"> F  </i>
   <i type="logical" name="LRHFCALC"> F  </i>
   <i type="logical" name="LTHOMAS"> F  </i>
   <i type="logical" name="LMODELHF"> F  </i>
   <i name="ENCUT4O">     -1.00000000</i>
   <i type="int" name="EXXOEP">     0</i>
   <i type="int" name="FOURORBIT">     0</i>
   <i name="AEXX">      0.00000000</i>
   <i name="HFALPHA">      0.00000000</i>
   <i name="MCALPHA">      0.00000000</i>
   <i name="ALDAX">      1.00000000</i>
   <i name="AGGAX">      1.00000000</i>
   <i name="ALDAC">      1.00000000</i>
   <i name="AGGAC">      1.00000000</i>
   <i type="int" name="NKREDX">     1</i>
   <i type="int" name="NKREDY">     1</i>
   <i type="int" name="NKREDZ">     1</i>
   <i type="logical" name="SHIFTRED"> F  </i>
   <i type="logical" name="ODDONLY"> F  </i>
   <i type="logical" name="EVENONLY"> F  </i>
   <i type="int" name="LMAXFOCK">     0</i>
   <i type="int" name="NMAXFOCKAE">     0</i>
   <i type="logical" name="LFOCKAEDFT"> F  </i>
   <i name="HFSCREEN">      0.00000000</i>
   <i name="HFSCREENC">      0.00000000</i>
   <i type="int" name="NBANDSGWLOW">     0</i>
  </separator>
  <separator name="vdW DFT" >
   <i type="logical" name="LUSE_VDW"> F  </i>
   <i name="Zab_VDW">     -0.84910000</i>
   <i name="PARAM1">      0.12340000</i>
   <i name="PARAM2">      1.00000000</i>
   <i name="PARAM3">      0.00000000</i>
  </separator>
  <separator name="model GW" >
   <i type="int" name="MODEL_GW">     0</i>
   <i name="MODEL_EPS0">     24.61956720</i>
   <i name="MODEL_ALPHA">      1.00000000</i>
  </separator>
  <separator name="linear response parameters" >
   <i type="logical" name="LEPSILON"> F  </i>
   <i type="logical" name="LRPA"> F  </i>
   <i type="logical" name="LNABLA"> F  </i>
   <i type="logical" name="LVEL"> F  </i>
   <i type="int" name="KINTER">     0</i>
   <i name="CSHIFT">      0.10000000</i>
   <i name="OMEGAMAX">     -1.00000000</i>
   <i name="DEG_THRESHOLD">      0.00200000</i>
   <i name="RTIME">     -0.10000000</i>
   <i name="WPLASMAI">      0.00000000</i>
   <v name="DFIELD">      0.00000000      0.00000000      0.00000000</v>
   <v name="WPLASMA">      0.00000000      0.00000000      0.00000000      0.00000000      0.00000000      0.00000000      0.00000000      0.00000000      0.00000000</v>
  </separator>
  <separator name="orbital magnetization" >
   <i type="logical" name="NUCIND"> F  </i>
   <v name="MAGPOS">      0.00000000      0.00000000      0.00000000</v>
   <i type="logical" name="LNICSALL"> T  </i>
   <i type="logical" name="ORBITALMAG"> F  </i>
   <i type="logical" name="LMAGBLOCH"> F  </i>
   <i type="logical" name="LCHIMAG"> F  </i>
   <i type="logical" name="LGAUGE"> T  </i>
   <i type="int" name="MAGATOM">     0</i>
   <v name="MAGDIPOL">      0.00000000      0.00000000      0.00000000</v>
   <v name="AVECCONST">      0.00000000      0.00000000      0.00000000</v>
  </separator>
  <separator name="response functions" >
   <i type="logical" name="LADDER"> F  </i>
   <i type="logical" name="LRPAFORCE"> F  </i>
   <i type="logical" name="LFXC"> F  </i>
   <i type="logical" name="LHARTREE"> T  </i>
   <i type="int" name="IBSE">     0</i>
   <v type="int" name="KPOINT">    -1     0     0     0</v>
   <i type="logical" name="LTCTE"> F  </i>
   <i type="logical" name="LTETE"> F  </i>
   <i type="logical" name="LTRIPLET"> F  </i>
   <i type="logical" name="LFXCEPS"> F  </i>
   <i type="logical" name="LFXHEG"> F  </i>
   <i type="int" name="NATURALO">     2</i>
   <i type="logical" name="L2ORDER"> F  </i>
   <i type="logical" name="LMP2LT"> F  </i>
   <i type="logical" name="LUSEW"> F  </i>
   <i name="ENCUTGW">     -2.00000000</i>
   <i name="ENCUTGWSOFT">     -2.00000000</i>
   <i name="ENCUTLF">     -1.00000000</i>
   <i type="int" name="LMAXMP2">    -1</i>
   <i name="SCISSOR">      0.00000000</i>
   <i type="int" name="NOMEGA">     0</i>
   <i type="int" name="NOMEGAR">     0</i>
   <i type="int" name="NBANDSGW">    -1</i>
   <i type="int" name="NBANDSO">    -1</i>
   <i type="int" name="NBANDSV">    -1</i>
   <i type="int" name="NELM">   200</i>
   <i type="int" name="NELMHF">     1</i>
   <i type="int" name="DIM">     3</i>
   <i type="int" name="ANTIRES">     0</i>
   <i name="OMEGAMAX">    -30.00000000</i>
   <i name="OMEGAMIN">    -30.00000000</i>
   <i name="OMEGATL">   -200.00000000</i>
   <i type="int" name="OMEGAGRID">   140</i>
   <i name="CSHIFT">     -0.10000000</i>
   <i type="logical" name="SELFENERGY"> F  </i>
   <i type="logical" name="LSPECTRAL"> F  </i>
   <i type="logical" name="LSPECTRALGW"> F  </i>
   <i type="logical" name="LSINGLES"> F  </i>
   <i type="logical" name="LFERMIGW"> F  </i>
   <i type="logical" name="ODDONLYGW"> F  </i>
   <i type="logical" name="EVENONLYGW"> F  </i>
   <i type="int" name="NKREDLFX">     1</i>
   <i type="int" name="NKREDLFY">     1</i>
   <i type="int" name="NKREDLFZ">     1</i>
   <i type="int" name="MAXMEM">  2800</i>
   <i type="int" name="TELESCOPE">     0</i>
   <i type="int" name="TAUPAR">     1</i>
   <i type="int" name="OMEGAPAR">    -1</i>
   <i name="LAMBDA">      1.00000000</i>
  </separator>
  <separator name="External order field" >
   <i name="OFIELD_KAPPA">      0.00000000</i>
   <v name="OFIELD_K">      0.00000000      0.00000000      0.00000000</v>
   <i name="OFIELD_Q6_NEAR">      0.00000000</i>
   <i name="OFIELD_Q6_FAR">      0.00000000</i>
   <i name="OFIELD_A">      0.00000000</i>
  </separator>
 </parameters>
 <atominfo>
  <atoms>      39 </atoms>
  <types>       4 </types>
  <array name="atoms" >
   <dimension dim="1">ion</dimension>
   <field type="string">element</field>
   <field type="int">atomtype</field>
   <set>
    <rc><c>Cs</c><c>   1</c></rc>
    <rc><c>Cs</c><c>   1</c></rc>
    <rc><c>Cs</c><c>   1</c></rc>
    <rc><c>Cs</c><c>   1</c></rc>
    <rc><c>Cs</c><c>   1</c></rc>
    <rc><c>Cs</c><c>   1</c></rc>
    <rc><c>Pb</c><c>   2</c></rc>
    <rc><c>Pb</c><c>   2</c></rc>
    <rc><c>Pb</c><c>   2</c></rc>
    <rc><c>Pb</c><c>   2</c></rc>
    <rc><c>Pb</c><c>   2</c></rc>
    <rc><c>Pb</c><c>   2</c></rc>
    <rc><c>Pb</c><c>   2</c></rc>
    <rc><c>Pb</c><c>   2</c></rc>
    <rc><c>Br</c><c>   3</c></rc>
    <rc><c>Br</c><c>   3</c></rc>
    <rc><c>Br</c><c>   3</c></rc>
    <rc><c>Br</c><c>   3</c></rc>
    <rc><c>Br</c><c>   3</c></rc>
    <rc><c>Br</c><c>   3</c></rc>
    <rc><c>Br</c><c>   3</c></rc>
    <rc><c>Br</c><c>   3</c></rc>
    <rc><c>Br</c><c>   3</c></rc>
    <rc><c>Br</c><c>   3</c></rc>
    <rc><c>Br</c><c>   3</c></rc>
    <rc><c>Br</c><c>   3</c></rc>
    <rc><c>Br</c><c>   3</c></rc>
    <rc><c>Br</c><c>   3</c></rc>
    <rc><c>Br</c><c>   3</c></rc>
    <rc><c>Br</c><c>   3</c></rc>
    <rc><c>Br</c><c>   3</c></rc>
    <rc><c>Br</c><c>   3</c></rc>
    <rc><c>Br</c><c>   3</c></rc>
    <rc><c>Br</c><c>   3</c></rc>
    <rc><c>Br</c><c>   3</c></rc>
    <rc><c>Br</c><c>   3</c></rc>
    <rc><c>Br</c><c>   3</c></rc>
    <rc><c>Br</c><c>   3</c></rc>
    <rc><c>Cs</c><c>   4</c></rc>
   </set>
  </array>
  <array name="atomtypes" >
   <dimension dim="1">type</dimension>
   <field type="int">atomspertype</field>
   <field type="string">element</field>
   <field>mass</field>
   <field>valence</field>
   <field type="string">pseudopotential</field>
   <set>
    <rc><c>   6</c><c>Cs</c><c>    132.90000000</c><c>      9.00000000</c><c>  PAW_PBE Cs_sv 08Apr2002               </c></rc>
    <rc><c>   8</c><c>Pb</c><c>    207.20000000</c><c>     14.00000000</c><c>  PAW_PBE Pb_d 06Sep2000                </c></rc>
    <rc><c>  24</c><c>Br</c><c>     79.90400000</c><c>      7.00000000</c><c>  PAW_PBE Br 06Sep2000                  </c></rc>
    <rc><c>   1</c><c>Cs</c><c>    132.90000000</c><c>      9.00000000</c><c>  PAW_PBE Cs_sv 08Apr2002               </c></rc>
   </set>
  </array>
 </atominfo>
 <structure name="initialpos" >
  <crystal>
   <varray name="basis" >
    <v>       8.42001800       0.00000000       8.07798100 </v>
    <v>       0.00000000      11.76380800       0.00000000 </v>
    <v>      -8.42001800       0.00000000       8.07798100 </v>
   </varray>
   <i name="volume">   1600.27186790 </i>
   <varray name="rec_basis" >
    <v>       0.05938230      -0.00000000       0.06189665 </v>
    <v>       0.00000000       0.08500649      -0.00000000 </v>
    <v>      -0.05938230       0.00000000       0.06189665 </v>
   </varray>
  </crystal>
  <varray name="positions" >
   <v>       0.27077600       0.24793300       0.19756200 </v>
   <v>       0.76831600       0.24587800       0.73845200 </v>
   <v>       0.21792300       0.76308200       0.76760700 </v>
   <v>       0.28225300       0.23747900       0.73254000 </v>
   <v>       0.73171600       0.75383500       0.76196100 </v>
   <v>       0.22917200       0.75209600       0.30263800 </v>
   <v>       0.99945500       0.99570900       0.00852100 </v>
   <v>       0.50071600       0.00440500       0.49146600 </v>
   <v>       0.50893900       0.99811900       0.00108900 </v>
   <v>       0.99093000       0.00202500       0.49891600 </v>
   <v>       0.49999200       0.50074200       0.99138800 </v>
   <v>       0.99982200       0.49975400       0.50864600 </v>
   <v>       0.00725600       0.50102700       0.00084000 </v>
   <v>       0.49279600       0.49934400       0.49914400 </v>
   <v>       0.47491300       0.74785900       0.94484500 </v>
   <v>       0.95913600       0.75016400       0.46549300 </v>
   <v>       0.98289500       0.24952800       0.97381100 </v>
   <v>       0.44050200       0.25150000       0.46745000 </v>
   <v>       0.05997500       0.74885400       0.03269200 </v>
   <v>       0.51761900       0.75081600       0.52621300 </v>
   <v>       0.54003200       0.25009100       0.03384900 </v>
   <v>       0.02526400       0.25248300       0.55507700 </v>
   <v>       0.25119200       0.46021200       0.94819600 </v>
   <v>       0.74589900       0.46760900       0.50844000 </v>
   <v>       0.44367200       0.52862200       0.24566400 </v>
   <v>       0.97572200       0.55445300       0.75134300 </v>
   <v>       0.54191500       0.03273200       0.75030600 </v>
   <v>       0.05898000       0.02942200       0.25451400 </v>
   <v>       0.75702400       0.93875800       0.03383500 </v>
   <v>       0.24540000       0.97077500       0.54530400 </v>
   <v>       0.25460700       0.02948900       0.95475400 </v>
   <v>       0.74289600       0.06099400       0.46607800 </v>
   <v>       0.44068700       0.97102800       0.24552500 </v>
   <v>       0.95765700       0.96713000       0.74980200 </v>
   <v>       0.75430000       0.53100200       0.99121000 </v>
   <v>       0.24893300       0.54020600       0.55207800 </v>
   <v>       0.52437200       0.44638400       0.74870500 </v>
   <v>       0.05634000       0.47132100       0.25433700 </v>
   <v>       0.74985900       0.49799300       0.24978000 </v>
  </varray>
 </structure>
 <calculation>
  <scstep>
   <time name="dav">   16.55   16.56</time>
   <time name="total">   18.02   18.04</time>
   <energy>
    <i name="alphaZ">    835.99855037 </i>
    <i name="ewald"> -17360.49621322 </i>
    <i name="hartreedc">  -7764.35094150 </i>
    <i name="XCdc">    905.76694211 </i>
    <i name="pawpsdc">  21217.07306836 </i>
    <i name="pawaedc"> -22257.58625956 </i>
    <i name="eentropy">     -0.00095328 </i>
    <i name="bandstr">   -237.61105483 </i>
    <i name="atom">  26024.88362379 </i>
    <i name="e_fr_energy">   1363.67676224 </i>
    <i name="e_wo_entrp">   1363.67771552 </i>
    <i name="e_0_energy">   1363.67723888 </i>
   </energy>
  </scstep>
  <scstep>
   <time name="dav">   18.49   18.51</time>
   <time name="total">   18.50   18.51</time>
   <energy>
    <i name="e_fr_energy">  -1088.00838960 </i>
    <i name="e_wo_entrp">  -1088.00838960 </i>
    <i name="e_0_energy">  -1088.00838960 </i>
   </energy>
  </scstep>
  <scstep>
   <time name="dav">   19.32   19.36</time>
   <time name="total">   19.32   19.36</time>
   <energy>
    <i name="e_fr_energy">  -1452.29681428 </i>
    <i name="e_wo_entrp">  -1452.29681428 </i>
    <i name="e_0_energy">  -1452.29681428 </i>
   </energy>
  </scstep>
  <scstep>
   <time name="dav">   17.97   18.00</time>
   <time name="total">   17.97   18.00</time>
   <energy>
    <i name="e_fr_energy">  -1464.60000251 </i>
    <i name="e_wo_entrp">  -1464.60000251 </i>
    <i name="e_0_energy">  -1464.60000251 </i>
   </energy>
  </scstep>
  <scstep>
   <time name="dav">   19.40   19.42</time>
   <time name="total">   22.11   22.13</time>
   <energy>
    <i name="e_fr_energy">  -1465.14909379 </i>
    <i name="e_wo_entrp">  -1465.14909379 </i>
    <i name="e_0_energy">  -1465.14909379 </i>
   </energy>
  </scstep>
  <scstep>
   <time name="dav">   19.02   19.02</time>
   <time name="total">   23.18   23.23</time>
   <energy>
    <i name="e_fr_energy">  -1386.20768610 </i>
    <i name="e_wo_entrp">  -1386.20768610 </i>
    <i name="e_0_energy">  -1386.20768610 </i>
   </energy>
  </scstep>
  <scstep>
   <time name="dav">   18.53   18.53</time>
   <time name="total">   22.67   22.73</time>
   <energy>
    <i name="e_fr_energy">  -1385.80161949 </i>
    <i name="e_wo_entrp">  -1385.80161949 </i>
    <i name="e_0_energy">  -1385.80161949 </i>
   </energy>
  </scstep>
  <scstep>
   <time name="dav">   17.90   17.90</time>
   <time name="total">   22.06   22.11</time>
   <energy>
    <i name="e_fr_energy">  -1385.98149759 </i>
    <i name="e_wo_entrp">  -1385.98149759 </i>
    <i name="e_0_energy">  -1385.98149759 </i>
   </energy>
  </scstep>
  <scstep>
   <time name="dav">   17.20   17.20</time>
   <time name="total">   21.38   21.41</time>
   <energy>
    <i name="e_fr_energy">  -1386.06801681 </i>
    <i name="e_wo_entrp">  -1386.06801681 </i>
    <i name="e_0_energy">  -1386.06801681 </i>
   </energy>
  </scstep>
  <scstep>
   <time name="dav">   20.38   20.38</time>
   <time name="total">   24.57   24.60</time>
   <energy>
    <i name="e_fr_energy">  -1386.07073321 </i>
    <i name="e_wo_entrp">  -1386.07073321 </i>
    <i name="e_0_energy">  -1386.07073321 </i>
   </energy>
  </scstep>
  <scstep>
   <time name="dav">   17.26   17.26</time>
   <time name="total">   21.46   21.47</time>
   <energy>
    <i name="e_fr_energy">  -1386.07436950 </i>
    <i name="e_wo_entrp">  -1386.07436950 </i>
    <i name="e_0_energy">  -1386.07436950 </i>
   </energy>
  </scstep>
  <scstep>
   <time name="dav">   17.08   17.08</time>
   <time name="total">   21.27   21.29</time>
   <energy>
    <i name="e_fr_energy">  -1386.07681659 </i>
    <i name="e_wo_entrp">  -1386.07681659 </i>
    <i name="e_0_energy">  -1386.07681659 </i>
   </energy>
  </scstep>
  <scstep>
   <time name="dav">   19.52   19.52</time>
   <time name="total">   23.71   23.74</time>
   <energy>
    <i name="e_fr_energy">  -1386.07664602 </i>
    <i name="e_wo_entrp">  -1386.07664602 </i>
    <i name="e_0_energy">  -1386.07664602 </i>
   </energy>
  </scstep>
  <scstep>
   <time name="dav">   17.19   17.19</time>
   <time name="total">   21.37   21.37</time>
   <energy>
    <i name="e_fr_energy">  -1386.07664156 </i>
    <i name="e_wo_entrp">  -1386.07664156 </i>
    <i name="e_0_energy">  -1386.07664156 </i>
   </energy>
  </scstep>
  <scstep>
   <time name="dav">   17.21   17.21</time>
   <time name="total">   21.39   21.44</time>
   <energy>
    <i name="e_fr_energy">  -1386.07665062 </i>
    <i name="e_wo_entrp">  -1386.07665062 </i>
    <i name="e_0_energy">  -1386.07665062 </i>
   </energy>
  </scstep>
  <scstep>
   <time name="dav">   17.22   17.22</time>
   <time name="total">   21.42   21.43</time>
   <energy>
    <i name="e_fr_energy">  -1386.07670851 </i>
    <i name="e_wo_entrp">  -1386.07670851 </i>
    <i name="e_0_energy">  -1386.07670851 </i>
   </energy>
  </scstep>
  <scstep>
   <time name="dav">   16.30   16.30</time>
   <time name="total">   20.47   20.51</time>
   <energy>
    <i name="e_fr_energy">  -1386.07670183 </i>
    <i name="e_wo_entrp">  -1386.07670183 </i>
    <i name="e_0_energy">  -1386.07670183 </i>
   </energy>
  </scstep>
  <scstep>
   <time name="dav">   12.90   12.90</time>
   <time name="total">   17.08   17.12</time>
   <energy>
    <i name="e_fr_energy">  -1386.07670304 </i>
    <i name="e_wo_entrp">  -1386.07670304 </i>
    <i name="e_0_energy">  -1386.07670304 </i>
   </energy>
  </scstep>
  <scstep>
   <time name="dav">   13.26   13.26</time>
   <time name="total">   17.44   17.47</time>
   <energy>
    <i name="e_fr_energy">  -1386.07670430 </i>
    <i name="e_wo_entrp">  -1386.07670430 </i>
    <i name="e_0_energy">  -1386.07670430 </i>
   </energy>
  </scstep>
  <scstep>
   <time name="dav">   13.19   13.19</time>
   <time name="total">   14.65   14.71</time>
   <energy>
    <i name="alphaZ">    835.99855037 </i>
    <i name="ewald"> -17360.49621322 </i>
    <i name="hartreedc">  -7800.15284120 </i>
    <i name="XCdc">    947.53071396 </i>
    <i name="pawpsdc">  22811.68014155 </i>
    <i name="pawaedc"> -23851.12774807 </i>
    <i name="eentropy">     -0.00000000 </i>
    <i name="bandstr">  -2994.39293088 </i>
    <i name="atom">  26024.88362379 </i>
    <i name="e_fr_energy">  -1386.07670370 </i>
    <i name="e_wo_entrp">  -1386.07670370 </i>
    <i name="e_0_energy">  -1386.07670370 </i>
   </energy>
  </scstep>
  <structure>
   <crystal>
    <varray name="basis" >
     <v>       8.42001800       0.00000000       8.07798100 </v>
     <v>       0.00000000      11.76380800       0.00000000 </v>
     <v>      -8.42001800       0.00000000       8.07798100 </v>
    </varray>
    <i name="volume">   1600.27186790 </i>
    <varray name="rec_basis" >
     <v>       0.05938230      -0.00000000       0.06189665 </v>
     <v>       0.00000000       0.08500649      -0.00000000 </v>
     <v>      -0.05938230       0.00000000       0.06189665 </v>
    </varray>
   </crystal>
   <varray name="positions" >
    <v>       0.27077600       0.24793300       0.19756200 </v>
    <v>       0.76831600       0.24587800       0.73845200 </v>
    <v>       0.21792300       0.76308200       0.76760700 </v>
    <v>       0.28225300       0.23747900       0.73254000 </v>
    <v>       0.73171600       0.75383500       0.76196100 </v>
    <v>       0.22917200       0.75209600       0.30263800 </v>
    <v>       0.99945500       0.99570900       0.00852100 </v>
    <v>       0.50071600       0.00440500       0.49146600 </v>
    <v>       0.50893900       0.99811900       0.00108900 </v>
    <v>       0.99093000       0.00202500       0.49891600 </v>
    <v>       0.49999200       0.50074200       0.99138800 </v>
    <v>       0.99982200       0.49975400       0.50864600 </v>
    <v>       0.00725600       0.50102700       0.00084000 </v>
    <v>       0.49279600       0.49934400       0.49914400 </v>
    <v>       0.47491300       0.74785900       0.94484500 </v>
    <v>       0.95913600       0.75016400       0.46549300 </v>
    <v>       0.98289500       0.24952800       0.97381100 </v>
    <v>       0.44050200       0.25150000       0.46745000 </v>
    <v>       0.05997500       0.74885400       0.03269200 </v>
    <v>       0.51761900       0.75081600       0.52621300 </v>
    <v>       0.54003200       0.25009100       0.03384900 </v>
    <v>       0.02526400       0.25248300       0.55507700 </v>
    <v>       0.25119200       0.46021200       0.94819600 </v>
    <v>       0.74589900       0.46760900       0.50844000 </v>
    <v>       0.44367200       0.52862200       0.24566400 </v>
    <v>       0.97572200       0.55445300       0.75134300 </v>
    <v>       0.54191500       0.03273200       0.75030600 </v>
    <v>       0.05898000       0.02942200       0.25451400 </v>
    <v>       0.75702400       0.93875800       0.03383500 </v>
    <v>       0.24540000       0.97077500       0.54530400 </v>
    <v>       0.25460700       0.02948900       0.95475400 </v>
    <v>       0.74289600       0.06099400       0.46607800 </v>
    <v>       0.44068700       0.97102800       0.24552500 </v>
    <v>       0.95765700       0.96713000       0.74980200 </v>
    <v>       0.75430000       0.53100200       0.99121000 </v>
    <v>       0.24893300       0.54020600       0.55207800 </v>
    <v>       0.52437200       0.44638400       0.74870500 </v>
    <v>       0.05634000       0.47132100       0.25433700 </v>
    <v>       0.74985900       0.49799300       0.24978000 </v>
   </varray>
  </structure>
  <varray name="forces" >
   <v>       0.00293470      -0.03428175      -0.00931425 </v>
   <v>       0.01246502      -0.03300543       0.01161412 </v>
   <v>      -0.00642139       0.01291512      -0.00957698 </v>
   <v>       0.00813630      -0.01522602       0.00967515 </v>
   <v>      -0.01462206       0.03310492      -0.01303844 </v>
   <v>      -0.00406575       0.03657417       0.01033111 </v>
   <v>      -0.05448065       0.01625091      -0.01480122 </v>
   <v>       0.04378095      -0.01826346       0.00697870 </v>
   <v>      -0.01273031      -0.00622829       0.05375635 </v>
   <v>       0.01678376       0.00470836      -0.04614981 </v>
   <v>      -0.14064024      -0.03252271      -0.23629616 </v>
   <v>       0.14581011       0.03392233       0.23991447 </v>
   <v>       0.23601616      -0.04294906       0.09248306 </v>
   <v>      -0.23698586       0.04398920      -0.08846121 </v>
   <v>       0.01232998      -0.03811113      -0.00101313 </v>
   <v>       0.00415973      -0.05188395      -0.02106320 </v>
   <v>       0.00156895       0.05169226       0.00471238 </v>
   <v>      -0.00175446       0.04831728      -0.00303457 </v>
   <v>       0.00079589      -0.04650219       0.00113745 </v>
   <v>      -0.00192891      -0.05220798      -0.00610421 </v>
   <v>      -0.00335750       0.05504933       0.02649793 </v>
   <v>      -0.01466433       0.03415125      -0.00035020 </v>
   <v>       0.04931098       0.00860513       0.02592794 </v>
   <v>      -0.95230621      -0.20819135       0.86178953 </v>
   <v>       0.00209021      -0.01254051      -0.00495322 </v>
   <v>      -0.00981379      -0.02709519      -0.01563729 </v>
   <v>       0.00502209       0.01615910      -0.00747152 </v>
   <v>       0.02895410      -0.02009049       0.00600608 </v>
   <v>       0.02311966      -0.01950752      -0.02238033 </v>
   <v>       0.00067804       0.01116417       0.00806590 </v>
   <v>      -0.00133767      -0.01265184      -0.01316622 </v>
   <v>      -0.01846524       0.02481000       0.02478858 </v>
   <v>      -0.02927484       0.01506414      -0.00539673 </v>
   <v>       0.00009712      -0.01444586       0.00635728 </v>
   <v>       0.93540583       0.22150323      -0.85071455 </v>
   <v>      -0.04546272      -0.00790317      -0.02750204 </v>
   <v>       0.01427094       0.02584419       0.01464113 </v>
   <v>      -0.00497395       0.01584113       0.00522488 </v>
   <v>       0.00955538      -0.01605829      -0.01347677 </v>
  </varray>
  <varray name="stress" >
   <v>      11.93620496       1.29776580      -3.67370576 </v>
   <v>       1.29772712       2.90988283      -1.22846032 </v>
   <v>      -3.67367541      -1.22846408      12.86119487 </v>
  </varray>
  <energy>
   <i name="e_fr_energy">  -1386.07670370 </i>
   <i name="e_wo_entrp">  -1386.07670370 </i>
   <i name="e_0_energy">     -0.00000000 </i>
  </energy>
  <time name="totalsc">  465.20  465.85</time>
  <eigenvalues>
   <array>
    <dimension dim="1">band</dimension>
    <dimension dim="2">kpoint</dimension>
    <dimension dim="3">spin</dimension>
    <field>eigene</field>
    <field>occ</field>
    <set>
     <set comment="spin 1">
      <set comment="kpoint 1">
       <r>  -21.2537    1.0000 </r>
       <r>  -20.9944    1.0000 </r>
       <r>  -20.9904    1.0000 </r>
       <r>  -20.9316    1.0000 </r>
       <r>  -20.9287    1.0000 </r>
       <r>  -20.8935    1.0000 </r>
       <r>  -20.8916    1.0000 </r>
       <r>  -16.8214    1.0000 </r>
       <r>  -16.8049    1.0000 </r>
       <r>  -16.7850    1.0000 </r>
       <r>  -16.7685    1.0000 </r>
       <r>  -16.7379    1.0000 </r>
       <r>  -16.7370    1.0000 </r>
       <r>  -16.7275    1.0000 </r>
       <r>  -16.7226    1.0000 </r>
       <r>  -16.6658    1.0000 </r>
       <r>  -16.6654    1.0000 </r>
       <r>  -16.6525    1.0000 </r>
       <r>  -16.6520    1.0000 </r>
       <r>  -16.6498    1.0000 </r>
       <r>  -16.6494    1.0000 </r>
       <r>  -16.6345    1.0000 </r>
       <r>  -16.6343    1.0000 </r>
       <r>  -16.6331    1.0000 </r>
       <r>  -16.6324    1.0000 </r>
       <r>  -16.6251    1.0000 </r>
       <r>  -16.6247    1.0000 </r>
       <r>  -16.5820    1.0000 </r>
       <r>  -16.5734    1.0000 </r>
       <r>  -16.5631    1.0000 </r>
       <r>  -16.5617    1.0000 </r>
       <r>  -16.5320    1.0000 </r>
       <r>  -16.5227    1.0000 </r>
       <r>  -16.5150    1.0000 </r>
       <r>  -16.4964    1.0000 </r>
       <r>  -16.4565    1.0000 </r>
       <r>  -16.4555    1.0000 </r>
       <r>  -16.4472    1.0000 </r>
       <r>  -16.4462    1.0000 </r>
       <r>  -16.4404    1.0000 </r>
       <r>  -16.4395    1.0000 </r>
       <r>  -16.4392    1.0000 </r>
       <r>  -16.4380    1.0000 </r>
       <r>  -16.4354    1.0000 </r>
       <r>  -16.4338    1.0000 </r>
       <r>  -16.4228    1.0000 </r>
       <r>  -16.4214    1.0000 </r>
       <r>  -14.6784    1.0000 </r>
       <r>  -14.6312    1.0000 </r>
       <r>  -14.4666    1.0000 </r>
       <r>  -14.4122    1.0000 </r>
       <r>  -14.3824    1.0000 </r>
       <r>  -14.3565    1.0000 </r>
       <r>  -14.3527    1.0000 </r>
       <r>  -14.3005    1.0000 </r>
       <r>  -14.1652    1.0000 </r>
       <r>  -14.1636    1.0000 </r>
       <r>  -14.1550    1.0000 </r>
       <r>  -14.1303    1.0000 </r>
       <r>  -14.1107    1.0000 </r>
       <r>  -14.1027    1.0000 </r>
       <r>  -14.0917    1.0000 </r>
       <r>  -14.0881    1.0000 </r>
       <r>  -14.0698    1.0000 </r>
       <r>  -14.0431    1.0000 </r>
       <r>  -13.9886    1.0000 </r>
       <r>  -13.9767    1.0000 </r>
       <r>  -13.8736    1.0000 </r>
       <r>  -13.8627    1.0000 </r>
       <r>  -13.8072    1.0000 </r>
       <r>  -13.7494    1.0000 </r>
       <r>   -8.4453    1.0000 </r>
       <r>   -8.0456    1.0000 </r>
       <r>   -7.9158    1.0000 </r>
       <r>   -7.8796    1.0000 </r>
       <r>   -7.8391    1.0000 </r>
       <r>   -7.6886    1.0000 </r>
       <r>   -7.6677    1.0000 </r>
       <r>   -7.4208    1.0000 </r>
       <r>   -7.3994    1.0000 </r>
       <r>   -7.3965    1.0000 </r>
       <r>   -7.3928    1.0000 </r>
       <r>   -7.3798    1.0000 </r>
       <r>   -7.3780    1.0000 </r>
       <r>   -7.3768    1.0000 </r>
       <r>   -7.3681    1.0000 </r>
       <r>   -7.3558    1.0000 </r>
       <r>   -7.3487    1.0000 </r>
       <r>   -7.3416    1.0000 </r>
       <r>   -7.3376    1.0000 </r>
       <r>   -7.3358    1.0000 </r>
       <r>   -7.3216    1.0000 </r>
       <r>   -7.3130    1.0000 </r>
       <r>   -7.3122    1.0000 </r>
       <r>   -7.2997    1.0000 </r>
       <r>   -7.2960    1.0000 </r>
       <r>   -7.2727    1.0000 </r>
       <r>   -7.2708    1.0000 </r>
       <r>   -7.2532    1.0000 </r>
       <r>   -6.7460    1.0000 </r>
       <r>   -3.6778    1.0000 </r>
       <r>   -3.6722    1.0000 </r>
       <r>   -3.5429    1.0000 </r>
       <r>   -3.4651    1.0000 </r>
       <r>   -3.4193    1.0000 </r>
       <r>   -3.3702    1.0000 </r>
       <r>   -3.3304    1.0000 </r>
       <r>   -3.2925    1.0000 </r>
       <r>   -3.2242    1.0000 </r>
       <r>   -3.2054    1.0000 </r>
       <r>   -3.1686    1.0000 </r>
       <r>   -3.0366    1.0000 </r>
       <r>   -2.5596    1.0000 </r>
       <r>   -2.3400    1.0000 </r>
       <r>   -2.3311    1.0000 </r>
       <r>   -2.2664    1.0000 </r>
       <r>   -2.2039    1.0000 </r>
       <r>   -2.1642    1.0000 </r>
       <r>   -2.1077    1.0000 </r>
       <r>   -2.0791    1.0000 </r>
       <r>   -1.9918    1.0000 </r>
       <r>   -1.9881    1.0000 </r>
       <r>   -1.9305    1.0000 </r>
       <r>   -1.9131    1.0000 </r>
       <r>   -1.8744    1.0000 </r>
       <r>   -1.8236    1.0000 </r>
       <r>   -1.7800    1.0000 </r>
       <r>   -1.7721    1.0000 </r>
       <r>   -1.7351    1.0000 </r>
       <r>   -1.7020    1.0000 </r>
       <r>   -1.7006    1.0000 </r>
       <r>   -1.6655    1.0000 </r>
       <r>   -1.6476    1.0000 </r>
       <r>   -1.6415    1.0000 </r>
       <r>   -1.6086    1.0000 </r>
       <r>   -1.5991    1.0000 </r>
       <r>   -1.5758    1.0000 </r>
       <r>   -1.5691    1.0000 </r>
       <r>   -1.5488    1.0000 </r>
       <r>   -1.5466    1.0000 </r>
       <r>   -1.5365    1.0000 </r>
       <r>   -1.5100    1.0000 </r>
       <r>   -1.5034    1.0000 </r>
       <r>   -1.4902    1.0000 </r>
       <r>   -1.4604    1.0000 </r>
       <r>   -1.4507    1.0000 </r>
       <r>   -1.4247    1.0000 </r>
       <r>   -1.4070    1.0000 </r>
       <r>   -1.3977    1.0000 </r>
       <r>   -1.3876    1.0000 </r>
       <r>   -1.3560    1.0000 </r>
       <r>   -1.3534    1.0000 </r>
       <r>   -1.3237    1.0000 </r>
       <r>   -1.3048    1.0000 </r>
       <r>   -1.2964    1.0000 </r>
       <r>   -1.2873    1.0000 </r>
       <r>   -1.2714    1.0000 </r>
       <r>   -1.2551    1.0000 </r>
       <r>   -1.2301    1.0000 </r>
       <r>   -1.1316    1.0000 </r>
       <r>   -1.0948    1.0000 </r>
       <r>   -1.0931    1.0000 </r>
       <r>   -1.0654    1.0000 </r>
       <r>   -1.0542    1.0000 </r>
       <r>   -0.9546    1.0000 </r>
       <r>   -0.8380    1.0000 </r>
       <r>   -0.8085    1.0000 </r>
       <r>   -0.7673    1.0000 </r>
       <r>   -0.3946    1.0000 </r>
       <r>   -0.3422    1.0000 </r>
       <r>   -0.2937    1.0000 </r>
       <r>    0.2387    1.0000 </r>
       <r>    2.5220    0.0000 </r>
       <r>    2.6435    0.0000 </r>
       <r>    2.7230    0.0000 </r>
       <r>    2.8762    0.0000 </r>
       <r>    2.8934    0.0000 </r>
       <r>    2.9209    0.0000 </r>
       <r>    2.9711    0.0000 </r>
       <r>    2.9870    0.0000 </r>
       <r>    3.1738    0.0000 </r>
       <r>    3.3230    0.0000 </r>
       <r>    3.3837    0.0000 </r>
       <r>    3.4267    0.0000 </r>
       <r>    4.6409    0.0000 </r>
       <r>    4.7781    0.0000 </r>
       <r>    5.3957    0.0000 </r>
       <r>    5.4089    0.0000 </r>
       <r>    5.5526    0.0000 </r>
       <r>    5.5931    0.0000 </r>
       <r>    5.6067    0.0000 </r>
       <r>    5.7506    0.0000 </r>
       <r>    5.8484    0.0000 </r>
       <r>    5.8924    0.0000 </r>
       <r>    5.8989    0.0000 </r>
       <r>    5.9749    0.0000 </r>
       <r>    6.0349    0.0000 </r>
       <r>    6.0484    0.0000 </r>
       <r>    6.0715    0.0000 </r>
       <r>    6.0977    0.0000 </r>
       <r>    6.1953    0.0000 </r>
       <r>    6.2181    0.0000 </r>
       <r>    6.2504    0.0000 </r>
       <r>    6.2725    0.0000 </r>
       <r>    6.3912    0.0000 </r>
       <r>    6.4279    0.0000 </r>
       <r>    6.4772    0.0000 </r>
       <r>    6.6150    0.0000 </r>
      </set>
      <set comment="kpoint 2">
       <r>  -21.2537    1.0000 </r>
       <r>  -20.9944    1.0000 </r>
       <r>  -20.9904    1.0000 </r>
       <r>  -20.9316    1.0000 </r>
       <r>  -20.9287    1.0000 </r>
       <r>  -20.8935    1.0000 </r>
       <r>  -20.8916    1.0000 </r>
       <r>  -16.7987    1.0000 </r>
       <r>  -16.7981    1.0000 </r>
       <r>  -16.7718    1.0000 </r>
       <r>  -16.7696    1.0000 </r>
       <r>  -16.7582    1.0000 </r>
       <r>  -16.7574    1.0000 </r>
       <r>  -16.7274    1.0000 </r>
       <r>  -16.7267    1.0000 </r>
       <r>  -16.6655    1.0000 </r>
       <r>  -16.6653    1.0000 </r>
       <r>  -16.6522    1.0000 </r>
       <r>  -16.6517    1.0000 </r>
       <r>  -16.6499    1.0000 </r>
       <r>  -16.6495    1.0000 </r>
       <r>  -16.6344    1.0000 </r>
       <r>  -16.6343    1.0000 </r>
       <r>  -16.6332    1.0000 </r>
       <r>  -16.6325    1.0000 </r>
       <r>  -16.6252    1.0000 </r>
       <r>  -16.6247    1.0000 </r>
       <r>  -16.5762    1.0000 </r>
       <r>  -16.5748    1.0000 </r>
       <r>  -16.5495    1.0000 </r>
       <r>  -16.5489    1.0000 </r>
       <r>  -16.5358    1.0000 </r>
       <r>  -16.5329    1.0000 </r>
       <r>  -16.5173    1.0000 </r>
       <r>  -16.5123    1.0000 </r>
       <r>  -16.4565    1.0000 </r>
       <r>  -16.4555    1.0000 </r>
       <r>  -16.4470    1.0000 </r>
       <r>  -16.4461    1.0000 </r>
       <r>  -16.4405    1.0000 </r>
       <r>  -16.4396    1.0000 </r>
       <r>  -16.4393    1.0000 </r>
       <r>  -16.4380    1.0000 </r>
       <r>  -16.4354    1.0000 </r>
       <r>  -16.4338    1.0000 </r>
       <r>  -16.4228    1.0000 </r>
       <r>  -16.4214    1.0000 </r>
       <r>  -14.6536    1.0000 </r>
       <r>  -14.6301    1.0000 </r>
       <r>  -14.5708    1.0000 </r>
       <r>  -14.3813    1.0000 </r>
       <r>  -14.3697    1.0000 </r>
       <r>  -14.3494    1.0000 </r>
       <r>  -14.2861    1.0000 </r>
       <r>  -14.2706    1.0000 </r>
       <r>  -14.2013    1.0000 </r>
       <r>  -14.1721    1.0000 </r>
       <r>  -14.1600    1.0000 </r>
       <r>  -14.1495    1.0000 </r>
       <r>  -14.1262    1.0000 </r>
       <r>  -14.1196    1.0000 </r>
       <r>  -14.0930    1.0000 </r>
       <r>  -14.0907    1.0000 </r>
       <r>  -14.0772    1.0000 </r>
       <r>  -14.0607    1.0000 </r>
       <r>  -13.9167    1.0000 </r>
       <r>  -13.9079    1.0000 </r>
       <r>  -13.8732    1.0000 </r>
       <r>  -13.8604    1.0000 </r>
       <r>  -13.8380    1.0000 </r>
       <r>  -13.7958    1.0000 </r>
       <r>   -8.2179    1.0000 </r>
       <r>   -8.1880    1.0000 </r>
       <r>   -7.9236    1.0000 </r>
       <r>   -7.8354    1.0000 </r>
       <r>   -7.6897    1.0000 </r>
       <r>   -7.6844    1.0000 </r>
       <r>   -7.6703    1.0000 </r>
       <r>   -7.6217    1.0000 </r>
       <r>   -7.5636    1.0000 </r>
       <r>   -7.4056    1.0000 </r>
       <r>   -7.3935    1.0000 </r>
       <r>   -7.3885    1.0000 </r>
       <r>   -7.3828    1.0000 </r>
       <r>   -7.3773    1.0000 </r>
       <r>   -7.3711    1.0000 </r>
       <r>   -7.3561    1.0000 </r>
       <r>   -7.3505    1.0000 </r>
       <r>   -7.3387    1.0000 </r>
       <r>   -7.3373    1.0000 </r>
       <r>   -7.3364    1.0000 </r>
       <r>   -7.3161    1.0000 </r>
       <r>   -7.3114    1.0000 </r>
       <r>   -7.3057    1.0000 </r>
       <r>   -7.2953    1.0000 </r>
       <r>   -7.2941    1.0000 </r>
       <r>   -7.2809    1.0000 </r>
       <r>   -7.2731    1.0000 </r>
       <r>   -7.0895    1.0000 </r>
       <r>   -7.0460    1.0000 </r>
       <r>   -3.5997    1.0000 </r>
       <r>   -3.4871    1.0000 </r>
       <r>   -3.3911    1.0000 </r>
       <r>   -3.3848    1.0000 </r>
       <r>   -3.2929    1.0000 </r>
       <r>   -3.2839    1.0000 </r>
       <r>   -3.2448    1.0000 </r>
       <r>   -3.2163    1.0000 </r>
       <r>   -2.8577    1.0000 </r>
       <r>   -2.8551    1.0000 </r>
       <r>   -2.8412    1.0000 </r>
       <r>   -2.6923    1.0000 </r>
       <r>   -2.5242    1.0000 </r>
       <r>   -2.5054    1.0000 </r>
       <r>   -2.4760    1.0000 </r>
       <r>   -2.4359    1.0000 </r>
       <r>   -2.3457    1.0000 </r>
       <r>   -2.3417    1.0000 </r>
       <r>   -2.2502    1.0000 </r>
       <r>   -2.2136    1.0000 </r>
       <r>   -2.1930    1.0000 </r>
       <r>   -2.1298    1.0000 </r>
       <r>   -2.0879    1.0000 </r>
       <r>   -1.9914    1.0000 </r>
       <r>   -1.9425    1.0000 </r>
       <r>   -1.9007    1.0000 </r>
       <r>   -1.8730    1.0000 </r>
       <r>   -1.8295    1.0000 </r>
       <r>   -1.8129    1.0000 </r>
       <r>   -1.8078    1.0000 </r>
       <r>   -1.6959    1.0000 </r>
       <r>   -1.6929    1.0000 </r>
       <r>   -1.6823    1.0000 </r>
       <r>   -1.6619    1.0000 </r>
       <r>   -1.6295    1.0000 </r>
       <r>   -1.6186    1.0000 </r>
       <r>   -1.5758    1.0000 </r>
       <r>   -1.5716    1.0000 </r>
       <r>   -1.5465    1.0000 </r>
       <r>   -1.5435    1.0000 </r>
       <r>   -1.5163    1.0000 </r>
       <r>   -1.4943    1.0000 </r>
       <r>   -1.4916    1.0000 </r>
       <r>   -1.4823    1.0000 </r>
       <r>   -1.4657    1.0000 </r>
       <r>   -1.4595    1.0000 </r>
       <r>   -1.4334    1.0000 </r>
       <r>   -1.3947    1.0000 </r>
       <r>   -1.3927    1.0000 </r>
       <r>   -1.3859    1.0000 </r>
       <r>   -1.3831    1.0000 </r>
       <r>   -1.3560    1.0000 </r>
       <r>   -1.3257    1.0000 </r>
       <r>   -1.3018    1.0000 </r>
       <r>   -1.2898    1.0000 </r>
       <r>   -1.2781    1.0000 </r>
       <r>   -1.2516    1.0000 </r>
       <r>   -1.1929    1.0000 </r>
       <r>   -1.1785    1.0000 </r>
       <r>   -1.1624    1.0000 </r>
       <r>   -1.1304    1.0000 </r>
       <r>   -1.1145    1.0000 </r>
       <r>   -1.1116    1.0000 </r>
       <r>   -1.0643    1.0000 </r>
       <r>   -0.9775    1.0000 </r>
       <r>   -0.9334    1.0000 </r>
       <r>   -0.7665    1.0000 </r>
       <r>   -0.7363    1.0000 </r>
       <r>   -0.6873    1.0000 </r>
       <r>   -0.6116    1.0000 </r>
       <r>   -0.2524    1.0000 </r>
       <r>   -0.1130    1.0000 </r>
       <r>    2.7364    0.0000 </r>
       <r>    2.7638    0.0000 </r>
       <r>    2.7796    0.0000 </r>
       <r>    2.7970    0.0000 </r>
       <r>    3.0796    0.0000 </r>
       <r>    3.0802    0.0000 </r>
       <r>    3.1998    0.0000 </r>
       <r>    3.2525    0.0000 </r>
       <r>    3.8519    0.0000 </r>
       <r>    4.0718    0.0000 </r>
       <r>    4.2354    0.0000 </r>
       <r>    4.4057    0.0000 </r>
       <r>    4.4237    0.0000 </r>
       <r>    4.4436    0.0000 </r>
       <r>    4.5702    0.0000 </r>
       <r>    4.7761    0.0000 </r>
       <r>    5.2678    0.0000 </r>
       <r>    5.3285    0.0000 </r>
       <r>    5.4389    0.0000 </r>
       <r>    5.4710    0.0000 </r>
       <r>    5.5867    0.0000 </r>
       <r>    5.6198    0.0000 </r>
       <r>    5.7453    0.0000 </r>
       <r>    5.7807    0.0000 </r>
       <r>    5.8900    0.0000 </r>
       <r>    6.0073    0.0000 </r>
       <r>    6.0326    0.0000 </r>
       <r>    6.1240    0.0000 </r>
       <r>    6.1856    0.0000 </r>
       <r>    6.1940    0.0000 </r>
       <r>    6.2754    0.0000 </r>
       <r>    6.3057    0.0000 </r>
       <r>    6.3777    0.0000 </r>
       <r>    6.4836    0.0000 </r>
       <r>    6.5360    0.0000 </r>
       <r>    6.5978    0.0000 </r>
      </set>
      <set comment="kpoint 3">
       <r>  -21.2537    1.0000 </r>
       <r>  -20.9943    1.0000 </r>
       <r>  -20.9905    1.0000 </r>
       <r>  -20.9313    1.0000 </r>
       <r>  -20.9289    1.0000 </r>
       <r>  -20.8932    1.0000 </r>
       <r>  -20.8919    1.0000 </r>
       <r>  -16.8214    1.0000 </r>
       <r>  -16.8044    1.0000 </r>
       <r>  -16.7843    1.0000 </r>
       <r>  -16.7656    1.0000 </r>
       <r>  -16.7354    1.0000 </r>
       <r>  -16.7342    1.0000 </r>
       <r>  -16.7247    1.0000 </r>
       <r>  -16.7219    1.0000 </r>
       <r>  -16.6658    1.0000 </r>
       <r>  -16.6654    1.0000 </r>
       <r>  -16.6525    1.0000 </r>
       <r>  -16.6520    1.0000 </r>
       <r>  -16.6497    1.0000 </r>
       <r>  -16.6494    1.0000 </r>
       <r>  -16.6345    1.0000 </r>
       <r>  -16.6343    1.0000 </r>
       <r>  -16.6331    1.0000 </r>
       <r>  -16.6324    1.0000 </r>
       <r>  -16.6251    1.0000 </r>
       <r>  -16.6247    1.0000 </r>
       <r>  -16.5823    1.0000 </r>
       <r>  -16.5756    1.0000 </r>
       <r>  -16.5654    1.0000 </r>
       <r>  -16.5646    1.0000 </r>
       <r>  -16.5363    1.0000 </r>
       <r>  -16.5245    1.0000 </r>
       <r>  -16.5164    1.0000 </r>
       <r>  -16.4964    1.0000 </r>
       <r>  -16.4564    1.0000 </r>
       <r>  -16.4554    1.0000 </r>
       <r>  -16.4471    1.0000 </r>
       <r>  -16.4462    1.0000 </r>
       <r>  -16.4404    1.0000 </r>
       <r>  -16.4395    1.0000 </r>
       <r>  -16.4392    1.0000 </r>
       <r>  -16.4380    1.0000 </r>
       <r>  -16.4353    1.0000 </r>
       <r>  -16.4338    1.0000 </r>
       <r>  -16.4228    1.0000 </r>
       <r>  -16.4214    1.0000 </r>
       <r>  -14.6761    1.0000 </r>
       <r>  -14.6315    1.0000 </r>
       <r>  -14.4644    1.0000 </r>
       <r>  -14.4075    1.0000 </r>
       <r>  -14.3823    1.0000 </r>
       <r>  -14.3554    1.0000 </r>
       <r>  -14.3516    1.0000 </r>
       <r>  -14.3453    1.0000 </r>
       <r>  -14.2309    1.0000 </r>
       <r>  -14.2020    1.0000 </r>
       <r>  -14.1203    1.0000 </r>
       <r>  -14.1009    1.0000 </r>
       <r>  -14.0941    1.0000 </r>
       <r>  -14.0891    1.0000 </r>
       <r>  -14.0761    1.0000 </r>
       <r>  -14.0434    1.0000 </r>
       <r>  -14.0197    1.0000 </r>
       <r>  -13.9999    1.0000 </r>
       <r>  -13.9863    1.0000 </r>
       <r>  -13.9802    1.0000 </r>
       <r>  -13.9260    1.0000 </r>
       <r>  -13.8962    1.0000 </r>
       <r>  -13.8247    1.0000 </r>
       <r>  -13.7507    1.0000 </r>
       <r>   -8.3325    1.0000 </r>
       <r>   -8.0293    1.0000 </r>
       <r>   -7.9825    1.0000 </r>
       <r>   -7.8406    1.0000 </r>
       <r>   -7.7736    1.0000 </r>
       <r>   -7.6825    1.0000 </r>
       <r>   -7.5832    1.0000 </r>
       <r>   -7.5500    1.0000 </r>
       <r>   -7.5459    1.0000 </r>
       <r>   -7.4002    1.0000 </r>
       <r>   -7.3909    1.0000 </r>
       <r>   -7.3881    1.0000 </r>
       <r>   -7.3816    1.0000 </r>
       <r>   -7.3802    1.0000 </r>
       <r>   -7.3793    1.0000 </r>
       <r>   -7.3520    1.0000 </r>
       <r>   -7.3505    1.0000 </r>
       <r>   -7.3341    1.0000 </r>
       <r>   -7.3283    1.0000 </r>
       <r>   -7.3257    1.0000 </r>
       <r>   -7.3204    1.0000 </r>
       <r>   -7.3059    1.0000 </r>
       <r>   -7.3055    1.0000 </r>
       <r>   -7.3000    1.0000 </r>
       <r>   -7.2938    1.0000 </r>
       <r>   -7.2922    1.0000 </r>
       <r>   -7.2834    1.0000 </r>
       <r>   -7.2035    1.0000 </r>
       <r>   -6.9890    1.0000 </r>
       <r>   -3.6773    1.0000 </r>
       <r>   -3.6712    1.0000 </r>
       <r>   -3.5349    1.0000 </r>
       <r>   -3.4384    1.0000 </r>
       <r>   -3.2997    1.0000 </r>
       <r>   -3.2414    1.0000 </r>
       <r>   -3.2269    1.0000 </r>
       <r>   -3.0794    1.0000 </r>
       <r>   -2.7246    1.0000 </r>
       <r>   -2.7033    1.0000 </r>
       <r>   -2.6786    1.0000 </r>
       <r>   -2.5678    1.0000 </r>
       <r>   -2.5604    1.0000 </r>
       <r>   -2.5486    1.0000 </r>
       <r>   -2.5295    1.0000 </r>
       <r>   -2.4698    1.0000 </r>
       <r>   -2.4563    1.0000 </r>
       <r>   -2.3045    1.0000 </r>
       <r>   -2.2296    1.0000 </r>
       <r>   -2.1903    1.0000 </r>
       <r>   -2.1893    1.0000 </r>
       <r>   -2.0882    1.0000 </r>
       <r>   -2.0432    1.0000 </r>
       <r>   -2.0338    1.0000 </r>
       <r>   -1.9788    1.0000 </r>
       <r>   -1.9695    1.0000 </r>
       <r>   -1.8780    1.0000 </r>
       <r>   -1.8569    1.0000 </r>
       <r>   -1.8162    1.0000 </r>
       <r>   -1.7772    1.0000 </r>
       <r>   -1.7747    1.0000 </r>
       <r>   -1.7067    1.0000 </r>
       <r>   -1.7042    1.0000 </r>
       <r>   -1.6703    1.0000 </r>
       <r>   -1.6055    1.0000 </r>
       <r>   -1.5918    1.0000 </r>
       <r>   -1.5880    1.0000 </r>
       <r>   -1.5568    1.0000 </r>
       <r>   -1.5255    1.0000 </r>
       <r>   -1.5110    1.0000 </r>
       <r>   -1.5085    1.0000 </r>
       <r>   -1.4789    1.0000 </r>
       <r>   -1.4782    1.0000 </r>
       <r>   -1.4614    1.0000 </r>
       <r>   -1.4426    1.0000 </r>
       <r>   -1.4292    1.0000 </r>
       <r>   -1.4126    1.0000 </r>
       <r>   -1.4071    1.0000 </r>
       <r>   -1.3979    1.0000 </r>
       <r>   -1.3782    1.0000 </r>
       <r>   -1.3642    1.0000 </r>
       <r>   -1.3266    1.0000 </r>
       <r>   -1.3080    1.0000 </r>
       <r>   -1.2971    1.0000 </r>
       <r>   -1.2706    1.0000 </r>
       <r>   -1.2635    1.0000 </r>
       <r>   -1.2485    1.0000 </r>
       <r>   -1.2292    1.0000 </r>
       <r>   -1.2247    1.0000 </r>
       <r>   -1.2004    1.0000 </r>
       <r>   -1.1503    1.0000 </r>
       <r>   -1.1264    1.0000 </r>
       <r>   -1.1084    1.0000 </r>
       <r>   -1.1032    1.0000 </r>
       <r>   -1.0803    1.0000 </r>
       <r>   -0.8526    1.0000 </r>
       <r>   -0.7925    1.0000 </r>
       <r>   -0.7714    1.0000 </r>
       <r>   -0.6431    1.0000 </r>
       <r>   -0.6211    1.0000 </r>
       <r>   -0.3555    1.0000 </r>
       <r>   -0.0980    1.0000 </r>
       <r>    2.6100    0.0000 </r>
       <r>    2.8356    0.0000 </r>
       <r>    2.8910    0.0000 </r>
       <r>    2.9535    0.0000 </r>
       <r>    3.0297    0.0000 </r>
       <r>    3.0584    0.0000 </r>
       <r>    3.2510    0.0000 </r>
       <r>    3.3146    0.0000 </r>
       <r>    4.0456    0.0000 </r>
       <r>    4.1195    0.0000 </r>
       <r>    4.1794    0.0000 </r>
       <r>    4.3353    0.0000 </r>
       <r>    4.3947    0.0000 </r>
       <r>    4.4073    0.0000 </r>
       <r>    4.6316    0.0000 </r>
       <r>    4.6327    0.0000 </r>
       <r>    4.7932    0.0000 </r>
       <r>    5.2842    0.0000 </r>
       <r>    5.4869    0.0000 </r>
       <r>    5.5268    0.0000 </r>
       <r>    5.6451    0.0000 </r>
       <r>    5.6741    0.0000 </r>
       <r>    5.7449    0.0000 </r>
       <r>    5.8442    0.0000 </r>
       <r>    5.8792    0.0000 </r>
       <r>    5.9573    0.0000 </r>
       <r>    6.0661    0.0000 </r>
       <r>    6.1156    0.0000 </r>
       <r>    6.1747    0.0000 </r>
       <r>    6.2000    0.0000 </r>
       <r>    6.3105    0.0000 </r>
       <r>    6.3755    0.0000 </r>
       <r>    6.4225    0.0000 </r>
       <r>    6.4426    0.0000 </r>
       <r>    6.5191    0.0000 </r>
       <r>    6.5855    0.0000 </r>
      </set>
      <set comment="kpoint 4">
       <r>  -21.2537    1.0000 </r>
       <r>  -20.9943    1.0000 </r>
       <r>  -20.9905    1.0000 </r>
       <r>  -20.9314    1.0000 </r>
       <r>  -20.9289    1.0000 </r>
       <r>  -20.8932    1.0000 </r>
       <r>  -20.8919    1.0000 </r>
       <r>  -16.7987    1.0000 </r>
       <r>  -16.7981    1.0000 </r>
       <r>  -16.7706    1.0000 </r>
       <r>  -16.7683    1.0000 </r>
       <r>  -16.7555    1.0000 </r>
       <r>  -16.7547    1.0000 </r>
       <r>  -16.7251    1.0000 </r>
       <r>  -16.7243    1.0000 </r>
       <r>  -16.6655    1.0000 </r>
       <r>  -16.6652    1.0000 </r>
       <r>  -16.6522    1.0000 </r>
       <r>  -16.6517    1.0000 </r>
       <r>  -16.6498    1.0000 </r>
       <r>  -16.6494    1.0000 </r>
       <r>  -16.6344    1.0000 </r>
       <r>  -16.6344    1.0000 </r>
       <r>  -16.6332    1.0000 </r>
       <r>  -16.6325    1.0000 </r>
       <r>  -16.6252    1.0000 </r>
       <r>  -16.6247    1.0000 </r>
       <r>  -16.5776    1.0000 </r>
       <r>  -16.5765    1.0000 </r>
       <r>  -16.5520    1.0000 </r>
       <r>  -16.5516    1.0000 </r>
       <r>  -16.5395    1.0000 </r>
       <r>  -16.5354    1.0000 </r>
       <r>  -16.5179    1.0000 </r>
       <r>  -16.5125    1.0000 </r>
       <r>  -16.4564    1.0000 </r>
       <r>  -16.4554    1.0000 </r>
       <r>  -16.4471    1.0000 </r>
       <r>  -16.4462    1.0000 </r>
       <r>  -16.4404    1.0000 </r>
       <r>  -16.4396    1.0000 </r>
       <r>  -16.4392    1.0000 </r>
       <r>  -16.4380    1.0000 </r>
       <r>  -16.4354    1.0000 </r>
       <r>  -16.4338    1.0000 </r>
       <r>  -16.4227    1.0000 </r>
       <r>  -16.4214    1.0000 </r>
       <r>  -14.6527    1.0000 </r>
       <r>  -14.6308    1.0000 </r>
       <r>  -14.5677    1.0000 </r>
       <r>  -14.3811    1.0000 </r>
       <r>  -14.3698    1.0000 </r>
       <r>  -14.3471    1.0000 </r>
       <r>  -14.3136    1.0000 </r>
       <r>  -14.2927    1.0000 </r>
       <r>  -14.2533    1.0000 </r>
       <r>  -14.1911    1.0000 </r>
       <r>  -14.1542    1.0000 </r>
       <r>  -14.1491    1.0000 </r>
       <r>  -14.0898    1.0000 </r>
       <r>  -14.0881    1.0000 </r>
       <r>  -14.0704    1.0000 </r>
       <r>  -14.0587    1.0000 </r>
       <r>  -14.0167    1.0000 </r>
       <r>  -14.0042    1.0000 </r>
       <r>  -13.9529    1.0000 </r>
       <r>  -13.9364    1.0000 </r>
       <r>  -13.9201    1.0000 </r>
       <r>  -13.8689    1.0000 </r>
       <r>  -13.8450    1.0000 </r>
       <r>  -13.7959    1.0000 </r>
       <r>   -8.0932    1.0000 </r>
       <r>   -8.0722    1.0000 </r>
       <r>   -7.8937    1.0000 </r>
       <r>   -7.8399    1.0000 </r>
       <r>   -7.8282    1.0000 </r>
       <r>   -7.7753    1.0000 </r>
       <r>   -7.6887    1.0000 </r>
       <r>   -7.5500    1.0000 </r>
       <r>   -7.4524    1.0000 </r>
       <r>   -7.4216    1.0000 </r>
       <r>   -7.3966    1.0000 </r>
       <r>   -7.3913    1.0000 </r>
       <r>   -7.3820    1.0000 </r>
       <r>   -7.3754    1.0000 </r>
       <r>   -7.3683    1.0000 </r>
       <r>   -7.3646    1.0000 </r>
       <r>   -7.3445    1.0000 </r>
       <r>   -7.3409    1.0000 </r>
       <r>   -7.3403    1.0000 </r>
       <r>   -7.3283    1.0000 </r>
       <r>   -7.3201    1.0000 </r>
       <r>   -7.3111    1.0000 </r>
       <r>   -7.3046    1.0000 </r>
       <r>   -7.3024    1.0000 </r>
       <r>   -7.2961    1.0000 </r>
       <r>   -7.2902    1.0000 </r>
       <r>   -7.2875    1.0000 </r>
       <r>   -7.2741    1.0000 </r>
       <r>   -7.2250    1.0000 </r>
       <r>   -3.5950    1.0000 </r>
       <r>   -3.4720    1.0000 </r>
       <r>   -3.2708    1.0000 </r>
       <r>   -3.2333    1.0000 </r>
       <r>   -2.9833    1.0000 </r>
       <r>   -2.9139    1.0000 </r>
       <r>   -2.9028    1.0000 </r>
       <r>   -2.8251    1.0000 </r>
       <r>   -2.7972    1.0000 </r>
       <r>   -2.7047    1.0000 </r>
       <r>   -2.6741    1.0000 </r>
       <r>   -2.6524    1.0000 </r>
       <r>   -2.5456    1.0000 </r>
       <r>   -2.5121    1.0000 </r>
       <r>   -2.5080    1.0000 </r>
       <r>   -2.4724    1.0000 </r>
       <r>   -2.4477    1.0000 </r>
       <r>   -2.4068    1.0000 </r>
       <r>   -2.3777    1.0000 </r>
       <r>   -2.3251    1.0000 </r>
       <r>   -2.3076    1.0000 </r>
       <r>   -2.2720    1.0000 </r>
       <r>   -2.1643    1.0000 </r>
       <r>   -2.1124    1.0000 </r>
       <r>   -1.9778    1.0000 </r>
       <r>   -1.9569    1.0000 </r>
       <r>   -1.9362    1.0000 </r>
       <r>   -1.9057    1.0000 </r>
       <r>   -1.8835    1.0000 </r>
       <r>   -1.8346    1.0000 </r>
       <r>   -1.8251    1.0000 </r>
       <r>   -1.8074    1.0000 </r>
       <r>   -1.7613    1.0000 </r>
       <r>   -1.7487    1.0000 </r>
       <r>   -1.7031    1.0000 </r>
       <r>   -1.6754    1.0000 </r>
       <r>   -1.6452    1.0000 </r>
       <r>   -1.6233    1.0000 </r>
       <r>   -1.5835    1.0000 </r>
       <r>   -1.5709    1.0000 </r>
       <r>   -1.5703    1.0000 </r>
       <r>   -1.5249    1.0000 </r>
       <r>   -1.5147    1.0000 </r>
       <r>   -1.4477    1.0000 </r>
       <r>   -1.4360    1.0000 </r>
       <r>   -1.4280    1.0000 </r>
       <r>   -1.4135    1.0000 </r>
       <r>   -1.3972    1.0000 </r>
       <r>   -1.3448    1.0000 </r>
       <r>   -1.3317    1.0000 </r>
       <r>   -1.3303    1.0000 </r>
       <r>   -1.3121    1.0000 </r>
       <r>   -1.3112    1.0000 </r>
       <r>   -1.2833    1.0000 </r>
       <r>   -1.2799    1.0000 </r>
       <r>   -1.2497    1.0000 </r>
       <r>   -1.2255    1.0000 </r>
       <r>   -1.2145    1.0000 </r>
       <r>   -1.1891    1.0000 </r>
       <r>   -1.1720    1.0000 </r>
       <r>   -1.1571    1.0000 </r>
       <r>   -1.1281    1.0000 </r>
       <r>   -1.1257    1.0000 </r>
       <r>   -1.0834    1.0000 </r>
       <r>   -1.0721    1.0000 </r>
       <r>   -0.9478    1.0000 </r>
       <r>   -0.9128    1.0000 </r>
       <r>   -0.8627    1.0000 </r>
       <r>   -0.7441    1.0000 </r>
       <r>   -0.7097    1.0000 </r>
       <r>   -0.5406    1.0000 </r>
       <r>   -0.4796    1.0000 </r>
       <r>    2.8545    0.0000 </r>
       <r>    2.8731    0.0000 </r>
       <r>    3.0916    0.0000 </r>
       <r>    3.1428    0.0000 </r>
       <r>    3.8151    0.0000 </r>
       <r>    3.9751    0.0000 </r>
       <r>    4.1033    0.0000 </r>
       <r>    4.1058    0.0000 </r>
       <r>    4.1801    0.0000 </r>
       <r>    4.1929    0.0000 </r>
       <r>    4.2043    0.0000 </r>
       <r>    4.2764    0.0000 </r>
       <r>    4.3626    0.0000 </r>
       <r>    4.4382    0.0000 </r>
       <r>    4.4720    0.0000 </r>
       <r>    4.5401    0.0000 </r>
       <r>    4.5410    0.0000 </r>
       <r>    4.6273    0.0000 </r>
       <r>    4.7774    0.0000 </r>
       <r>    4.7885    0.0000 </r>
       <r>    5.3824    0.0000 </r>
       <r>    5.5295    0.0000 </r>
       <r>    5.5694    0.0000 </r>
       <r>    5.7460    0.0000 </r>
       <r>    5.8328    0.0000 </r>
       <r>    5.9692    0.0000 </r>
       <r>    5.9708    0.0000 </r>
       <r>    5.9918    0.0000 </r>
       <r>    6.0589    0.0000 </r>
       <r>    6.1703    0.0000 </r>
       <r>    6.3000    0.0000 </r>
       <r>    6.3082    0.0000 </r>
       <r>    6.3789    0.0000 </r>
       <r>    6.3828    0.0000 </r>
       <r>    6.4515    0.0000 </r>
       <r>    6.5042    0.0000 </r>
      </set>
      <set comment="kpoint 5">
       <r>  -21.2537    1.0000 </r>
       <r>  -20.9944    1.0000 </r>
       <r>  -20.9904    1.0000 </r>
       <r>  -20.9316    1.0000 </r>
       <r>  -20.9286    1.0000 </r>
       <r>  -20.8936    1.0000 </r>
       <r>  -20.8916    1.0000 </r>
       <r>  -16.8128    1.0000 </r>
       <r>  -16.8077    1.0000 </r>
       <r>  -16.7632    1.0000 </r>
       <r>  -16.7590    1.0000 </r>
       <r>  -16.7455    1.0000 </r>
       <r>  -16.7449    1.0000 </r>
       <r>  -16.7367    1.0000 </r>
       <r>  -16.7365    1.0000 </r>
       <r>  -16.6657    1.0000 </r>
       <r>  -16.6656    1.0000 </r>
       <r>  -16.6525    1.0000 </r>
       <r>  -16.6521    1.0000 </r>
       <r>  -16.6497    1.0000 </r>
       <r>  -16.6494    1.0000 </r>
       <r>  -16.6344    1.0000 </r>
       <r>  -16.6344    1.0000 </r>
       <r>  -16.6331    1.0000 </r>
       <r>  -16.6324    1.0000 </r>
       <r>  -16.6251    1.0000 </r>
       <r>  -16.6247    1.0000 </r>
       <r>  -16.5659    1.0000 </r>
       <r>  -16.5650    1.0000 </r>
       <r>  -16.5563    1.0000 </r>
       <r>  -16.5560    1.0000 </r>
       <r>  -16.5428    1.0000 </r>
       <r>  -16.5417    1.0000 </r>
       <r>  -16.5109    1.0000 </r>
       <r>  -16.5093    1.0000 </r>
       <r>  -16.4565    1.0000 </r>
       <r>  -16.4555    1.0000 </r>
       <r>  -16.4472    1.0000 </r>
       <r>  -16.4463    1.0000 </r>
       <r>  -16.4402    1.0000 </r>
       <r>  -16.4396    1.0000 </r>
       <r>  -16.4390    1.0000 </r>
       <r>  -16.4381    1.0000 </r>
       <r>  -16.4354    1.0000 </r>
       <r>  -16.4339    1.0000 </r>
       <r>  -16.4228    1.0000 </r>
       <r>  -16.4215    1.0000 </r>
       <r>  -14.7157    1.0000 </r>
       <r>  -14.5760    1.0000 </r>
       <r>  -14.4771    1.0000 </r>
       <r>  -14.4574    1.0000 </r>
       <r>  -14.4061    1.0000 </r>
       <r>  -14.3607    1.0000 </r>
       <r>  -14.2721    1.0000 </r>
       <r>  -14.2473    1.0000 </r>
       <r>  -14.2019    1.0000 </r>
       <r>  -14.1737    1.0000 </r>
       <r>  -14.1688    1.0000 </r>
       <r>  -14.1526    1.0000 </r>
       <r>  -14.1367    1.0000 </r>
       <r>  -14.1290    1.0000 </r>
       <r>  -14.1097    1.0000 </r>
       <r>  -14.0933    1.0000 </r>
       <r>  -14.0084    1.0000 </r>
       <r>  -13.9851    1.0000 </r>
       <r>  -13.9469    1.0000 </r>
       <r>  -13.9344    1.0000 </r>
       <r>  -13.9168    1.0000 </r>
       <r>  -13.9111    1.0000 </r>
       <r>  -13.7886    1.0000 </r>
       <r>  -13.7856    1.0000 </r>
       <r>   -8.2928    1.0000 </r>
       <r>   -8.1893    1.0000 </r>
       <r>   -7.8551    1.0000 </r>
       <r>   -7.7545    1.0000 </r>
       <r>   -7.7017    1.0000 </r>
       <r>   -7.6946    1.0000 </r>
       <r>   -7.6469    1.0000 </r>
       <r>   -7.6436    1.0000 </r>
       <r>   -7.5862    1.0000 </r>
       <r>   -7.3956    1.0000 </r>
       <r>   -7.3950    1.0000 </r>
       <r>   -7.3921    1.0000 </r>
       <r>   -7.3879    1.0000 </r>
       <r>   -7.3803    1.0000 </r>
       <r>   -7.3688    1.0000 </r>
       <r>   -7.3594    1.0000 </r>
       <r>   -7.3519    1.0000 </r>
       <r>   -7.3435    1.0000 </r>
       <r>   -7.3400    1.0000 </r>
       <r>   -7.3224    1.0000 </r>
       <r>   -7.3165    1.0000 </r>
       <r>   -7.3060    1.0000 </r>
       <r>   -7.3008    1.0000 </r>
       <r>   -7.2932    1.0000 </r>
       <r>   -7.2930    1.0000 </r>
       <r>   -7.2863    1.0000 </r>
       <r>   -7.2832    1.0000 </r>
       <r>   -7.0755    1.0000 </r>
       <r>   -7.0691    1.0000 </r>
       <r>   -3.7252    1.0000 </r>
       <r>   -3.5857    1.0000 </r>
       <r>   -3.3967    1.0000 </r>
       <r>   -3.3930    1.0000 </r>
       <r>   -3.3071    1.0000 </r>
       <r>   -3.2911    1.0000 </r>
       <r>   -3.1620    1.0000 </r>
       <r>   -3.1274    1.0000 </r>
       <r>   -2.9750    1.0000 </r>
       <r>   -2.7693    1.0000 </r>
       <r>   -2.7232    1.0000 </r>
       <r>   -2.7132    1.0000 </r>
       <r>   -2.5678    1.0000 </r>
       <r>   -2.5282    1.0000 </r>
       <r>   -2.4422    1.0000 </r>
       <r>   -2.4397    1.0000 </r>
       <r>   -2.3252    1.0000 </r>
       <r>   -2.2968    1.0000 </r>
       <r>   -2.2669    1.0000 </r>
       <r>   -2.2442    1.0000 </r>
       <r>   -2.1903    1.0000 </r>
       <r>   -2.1122    1.0000 </r>
       <r>   -2.0478    1.0000 </r>
       <r>   -2.0005    1.0000 </r>
       <r>   -1.9593    1.0000 </r>
       <r>   -1.9271    1.0000 </r>
       <r>   -1.9249    1.0000 </r>
       <r>   -1.8657    1.0000 </r>
       <r>   -1.8176    1.0000 </r>
       <r>   -1.7527    1.0000 </r>
       <r>   -1.7210    1.0000 </r>
       <r>   -1.6864    1.0000 </r>
       <r>   -1.6511    1.0000 </r>
       <r>   -1.6312    1.0000 </r>
       <r>   -1.6287    1.0000 </r>
       <r>   -1.5927    1.0000 </r>
       <r>   -1.5844    1.0000 </r>
       <r>   -1.5817    1.0000 </r>
       <r>   -1.5451    1.0000 </r>
       <r>   -1.5403    1.0000 </r>
       <r>   -1.5223    1.0000 </r>
       <r>   -1.5113    1.0000 </r>
       <r>   -1.4964    1.0000 </r>
       <r>   -1.4836    1.0000 </r>
       <r>   -1.4784    1.0000 </r>
       <r>   -1.4736    1.0000 </r>
       <r>   -1.4452    1.0000 </r>
       <r>   -1.4003    1.0000 </r>
       <r>   -1.3878    1.0000 </r>
       <r>   -1.3803    1.0000 </r>
       <r>   -1.3739    1.0000 </r>
       <r>   -1.3680    1.0000 </r>
       <r>   -1.3151    1.0000 </r>
       <r>   -1.2881    1.0000 </r>
       <r>   -1.2834    1.0000 </r>
       <r>   -1.2695    1.0000 </r>
       <r>   -1.2237    1.0000 </r>
       <r>   -1.1996    1.0000 </r>
       <r>   -1.1744    1.0000 </r>
       <r>   -1.1651    1.0000 </r>
       <r>   -1.1536    1.0000 </r>
       <r>   -1.1062    1.0000 </r>
       <r>   -1.0923    1.0000 </r>
       <r>   -1.0561    1.0000 </r>
       <r>   -0.9572    1.0000 </r>
       <r>   -0.9491    1.0000 </r>
       <r>   -0.7585    1.0000 </r>
       <r>   -0.7058    1.0000 </r>
       <r>   -0.6847    1.0000 </r>
       <r>   -0.6486    1.0000 </r>
       <r>   -0.1870    1.0000 </r>
       <r>   -0.1122    1.0000 </r>
       <r>    2.6612    0.0000 </r>
       <r>    2.7547    0.0000 </r>
       <r>    2.7634    0.0000 </r>
       <r>    2.7788    0.0000 </r>
       <r>    3.0863    0.0000 </r>
       <r>    3.0974    0.0000 </r>
       <r>    3.1928    0.0000 </r>
       <r>    3.2494    0.0000 </r>
       <r>    3.7252    0.0000 </r>
       <r>    4.1870    0.0000 </r>
       <r>    4.2907    0.0000 </r>
       <r>    4.3030    0.0000 </r>
       <r>    4.3067    0.0000 </r>
       <r>    4.5203    0.0000 </r>
       <r>    4.6848    0.0000 </r>
       <r>    4.6963    0.0000 </r>
       <r>    5.2451    0.0000 </r>
       <r>    5.3305    0.0000 </r>
       <r>    5.4323    0.0000 </r>
       <r>    5.5073    0.0000 </r>
       <r>    5.5390    0.0000 </r>
       <r>    5.5577    0.0000 </r>
       <r>    5.7767    0.0000 </r>
       <r>    5.8349    0.0000 </r>
       <r>    5.8561    0.0000 </r>
       <r>    5.9965    0.0000 </r>
       <r>    6.0803    0.0000 </r>
       <r>    6.1372    0.0000 </r>
       <r>    6.1540    0.0000 </r>
       <r>    6.2949    0.0000 </r>
       <r>    6.3492    0.0000 </r>
       <r>    6.3636    0.0000 </r>
       <r>    6.4511    0.0000 </r>
       <r>    6.4859    0.0000 </r>
       <r>    6.5482    0.0000 </r>
       <r>    6.5780    0.0000 </r>
      </set>
      <set comment="kpoint 6">
       <r>  -21.2537    1.0000 </r>
       <r>  -20.9944    1.0000 </r>
       <r>  -20.9904    1.0000 </r>
       <r>  -20.9315    1.0000 </r>
       <r>  -20.9286    1.0000 </r>
       <r>  -20.8935    1.0000 </r>
       <r>  -20.8915    1.0000 </r>
       <r>  -16.7854    1.0000 </r>
       <r>  -16.7841    1.0000 </r>
       <r>  -16.7702    1.0000 </r>
       <r>  -16.7702    1.0000 </r>
       <r>  -16.7573    1.0000 </r>
       <r>  -16.7562    1.0000 </r>
       <r>  -16.7433    1.0000 </r>
       <r>  -16.7423    1.0000 </r>
       <r>  -16.6654    1.0000 </r>
       <r>  -16.6653    1.0000 </r>
       <r>  -16.6522    1.0000 </r>
       <r>  -16.6517    1.0000 </r>
       <r>  -16.6497    1.0000 </r>
       <r>  -16.6494    1.0000 </r>
       <r>  -16.6343    1.0000 </r>
       <r>  -16.6342    1.0000 </r>
       <r>  -16.6331    1.0000 </r>
       <r>  -16.6324    1.0000 </r>
       <r>  -16.6251    1.0000 </r>
       <r>  -16.6246    1.0000 </r>
       <r>  -16.5564    1.0000 </r>
       <r>  -16.5562    1.0000 </r>
       <r>  -16.5478    1.0000 </r>
       <r>  -16.5469    1.0000 </r>
       <r>  -16.5427    1.0000 </r>
       <r>  -16.5415    1.0000 </r>
       <r>  -16.5294    1.0000 </r>
       <r>  -16.5282    1.0000 </r>
       <r>  -16.4564    1.0000 </r>
       <r>  -16.4554    1.0000 </r>
       <r>  -16.4470    1.0000 </r>
       <r>  -16.4461    1.0000 </r>
       <r>  -16.4402    1.0000 </r>
       <r>  -16.4396    1.0000 </r>
       <r>  -16.4390    1.0000 </r>
       <r>  -16.4380    1.0000 </r>
       <r>  -16.4354    1.0000 </r>
       <r>  -16.4338    1.0000 </r>
       <r>  -16.4227    1.0000 </r>
       <r>  -16.4214    1.0000 </r>
       <r>  -14.7085    1.0000 </r>
       <r>  -14.5672    1.0000 </r>
       <r>  -14.5424    1.0000 </r>
       <r>  -14.4925    1.0000 </r>
       <r>  -14.3132    1.0000 </r>
       <r>  -14.3060    1.0000 </r>
       <r>  -14.2407    1.0000 </r>
       <r>  -14.2336    1.0000 </r>
       <r>  -14.2243    1.0000 </r>
       <r>  -14.2162    1.0000 </r>
       <r>  -14.2054    1.0000 </r>
       <r>  -14.1868    1.0000 </r>
       <r>  -14.1361    1.0000 </r>
       <r>  -14.1298    1.0000 </r>
       <r>  -14.1176    1.0000 </r>
       <r>  -14.1117    1.0000 </r>
       <r>  -13.9623    1.0000 </r>
       <r>  -13.9505    1.0000 </r>
       <r>  -13.9206    1.0000 </r>
       <r>  -13.9188    1.0000 </r>
       <r>  -13.9077    1.0000 </r>
       <r>  -13.9064    1.0000 </r>
       <r>  -13.8298    1.0000 </r>
       <r>  -13.8214    1.0000 </r>
       <r>   -8.1064    1.0000 </r>
       <r>   -7.9770    1.0000 </r>
       <r>   -7.9674    1.0000 </r>
       <r>   -7.9492    1.0000 </r>
       <r>   -7.8288    1.0000 </r>
       <r>   -7.6920    1.0000 </r>
       <r>   -7.6810    1.0000 </r>
       <r>   -7.4470    1.0000 </r>
       <r>   -7.4430    1.0000 </r>
       <r>   -7.4199    1.0000 </r>
       <r>   -7.4088    1.0000 </r>
       <r>   -7.3932    1.0000 </r>
       <r>   -7.3901    1.0000 </r>
       <r>   -7.3828    1.0000 </r>
       <r>   -7.3787    1.0000 </r>
       <r>   -7.3712    1.0000 </r>
       <r>   -7.3608    1.0000 </r>
       <r>   -7.3456    1.0000 </r>
       <r>   -7.3430    1.0000 </r>
       <r>   -7.3418    1.0000 </r>
       <r>   -7.3162    1.0000 </r>
       <r>   -7.3139    1.0000 </r>
[...]
        <r>  0.0006  0.0047  0.0014 </r>
        <r>  0.0006  0.0025  0.0012 </r>
        <r>  0.0004  0.0007  0.0005 </r>
        <r>  0.0008  0.0017  0.0014 </r>
        <r>  0.0017  0.0031  0.0019 </r>
        <r>  0.0001  0.0013  0.0004 </r>
        <r>  0.0021  0.0019  0.0025 </r>
        <r>  0.0003  0.0030  0.0008 </r>
        <r>  0.0000  0.0058  0.0000 </r>
       </set>
       <set comment="band 199">
        <r>  0.0032  0.0006  0.0140 </r>
        <r>  0.0004  0.0001  0.0034 </r>
        <r>  0.0008  0.0002  0.0041 </r>
        <r>  0.0008  0.0002  0.0040 </r>
        <r>  0.0006  0.0001  0.0036 </r>
        <r>  0.0032  0.0006  0.0126 </r>
        <r>  0.0001  0.0006  0.0001 </r>
        <r>  0.0001  0.0006  0.0001 </r>
        <r>  0.0000  0.0003  0.0003 </r>
        <r>  0.0000  0.0002  0.0002 </r>
        <r>  0.0001  0.0006  0.0002 </r>
        <r>  0.0001  0.0004  0.0002 </r>
        <r>  0.0002  0.0032  0.0011 </r>
        <r>  0.0001  0.0036  0.0010 </r>
        <r>  0.0001  0.0007  0.0012 </r>
        <r>  0.0001  0.0042  0.0013 </r>
        <r>  0.0000  0.0024  0.0002 </r>
        <r>  0.0000  0.0036  0.0020 </r>
        <r>  0.0000  0.0032  0.0018 </r>
        <r>  0.0000  0.0024  0.0002 </r>
        <r>  0.0001  0.0046  0.0014 </r>
        <r>  0.0001  0.0008  0.0012 </r>
        <r>  0.0004  0.0025  0.0010 </r>
        <r>  0.0003  0.0013  0.0007 </r>
        <r>  0.0006  0.0020  0.0050 </r>
        <r>  0.0009  0.0003  0.0006 </r>
        <r>  0.0001  0.0003  0.0003 </r>
        <r>  0.0001  0.0025  0.0001 </r>
        <r>  0.0001  0.0001  0.0002 </r>
        <r>  0.0012  0.0007  0.0005 </r>
        <r>  0.0012  0.0007  0.0005 </r>
        <r>  0.0001  0.0000  0.0002 </r>
        <r>  0.0001  0.0025  0.0001 </r>
        <r>  0.0002  0.0003  0.0003 </r>
        <r>  0.0002  0.0012  0.0008 </r>
        <r>  0.0003  0.0025  0.0011 </r>
        <r>  0.0008  0.0003  0.0005 </r>
        <r>  0.0006  0.0019  0.0049 </r>
        <r>  0.0006  0.0000  0.0707 </r>
       </set>
       <set comment="band 200">
        <r>  0.0002  0.0003  0.0035 </r>
        <r>  0.0047  0.0005  0.0063 </r>
        <r>  0.0046  0.0006  0.0126 </r>
        <r>  0.0046  0.0006  0.0121 </r>
        <r>  0.0041  0.0005  0.0062 </r>
        <r>  0.0003  0.0002  0.0033 </r>
        <r>  0.0000  0.0064  0.0001 </r>
        <r>  0.0000  0.0068  0.0001 </r>
        <r>  0.0001  0.0034  0.0000 </r>
        <r>  0.0000  0.0033  0.0000 </r>
        <r>  0.0002  0.0018  0.0002 </r>
        <r>  0.0002  0.0019  0.0002 </r>
        <r>  0.0000  0.0036  0.0003 </r>
        <r>  0.0000  0.0040  0.0004 </r>
        <r>  0.0000  0.0045  0.0007 </r>
        <r>  0.0002  0.0002  0.0004 </r>
        <r>  0.0002  0.0005  0.0012 </r>
        <r>  0.0001  0.0026  0.0003 </r>
        <r>  0.0001  0.0022  0.0002 </r>
        <r>  0.0002  0.0004  0.0013 </r>
        <r>  0.0003  0.0002  0.0006 </r>
        <r>  0.0000  0.0039  0.0008 </r>
        <r>  0.0020  0.0041  0.0020 </r>
        <r>  0.0000  0.0017  0.0035 </r>
        <r>  0.0000  0.0015  0.0006 </r>
        <r>  0.0026  0.0005  0.0013 </r>
        <r>  0.0015  0.0014  0.0031 </r>
        <r>  0.0001  0.0022  0.0002 </r>
        <r>  0.0001  0.0015  0.0003 </r>
        <r>  0.0001  0.0005  0.0005 </r>
        <r>  0.0001  0.0007  0.0006 </r>
        <r>  0.0001  0.0017  0.0003 </r>
        <r>  0.0002  0.0024  0.0003 </r>
        <r>  0.0014  0.0011  0.0032 </r>
        <r>  0.0000  0.0016  0.0033 </r>
        <r>  0.0024  0.0041  0.0021 </r>
        <r>  0.0030  0.0005  0.0014 </r>
        <r>  0.0001  0.0013  0.0005 </r>
        <r>  0.0000  0.0000  0.0399 </r>
       </set>
       <set comment="band 201">
        <r>  0.0001  0.0006  0.0034 </r>
        <r>  0.0047  0.0012  0.0039 </r>
        <r>  0.0000  0.0002  0.0094 </r>
        <r>  0.0000  0.0002  0.0097 </r>
        <r>  0.0051  0.0012  0.0036 </r>
        <r>  0.0001  0.0006  0.0036 </r>
        <r>  0.0000  0.0072  0.0002 </r>
        <r>  0.0000  0.0068  0.0002 </r>
        <r>  0.0000  0.0074  0.0000 </r>
        <r>  0.0000  0.0079  0.0000 </r>
        <r>  0.0000  0.0049  0.0002 </r>
        <r>  0.0000  0.0048  0.0002 </r>
        <r>  0.0000  0.0067  0.0003 </r>
        <r>  0.0000  0.0059  0.0002 </r>
        <r>  0.0000  0.0049  0.0006 </r>
        <r>  0.0021  0.0037  0.0023 </r>
        <r>  0.0009  0.0017  0.0018 </r>
        <r>  0.0002  0.0039  0.0011 </r>
        <r>  0.0002  0.0044  0.0012 </r>
        <r>  0.0008  0.0017  0.0016 </r>
        <r>  0.0020  0.0032  0.0022 </r>
        <r>  0.0000  0.0054  0.0006 </r>
        <r>  0.0003  0.0009  0.0003 </r>
        <r>  0.0005  0.0024  0.0008 </r>
        <r>  0.0000  0.0012  0.0009 </r>
        <r>  0.0016  0.0003  0.0014 </r>
        <r>  0.0002  0.0032  0.0008 </r>
        <r>  0.0004  0.0005  0.0003 </r>
        <r>  0.0006  0.0017  0.0013 </r>
        <r>  0.0000  0.0042  0.0007 </r>
        <r>  0.0000  0.0041  0.0006 </r>
        <r>  0.0006  0.0016  0.0013 </r>
        <r>  0.0004  0.0004  0.0003 </r>
        <r>  0.0003  0.0033  0.0008 </r>
        <r>  0.0006  0.0025  0.0009 </r>
        <r>  0.0002  0.0009  0.0003 </r>
        <r>  0.0013  0.0003  0.0013 </r>
        <r>  0.0000  0.0016  0.0011 </r>
        <r>  0.0000  0.0101  0.0001 </r>
       </set>
       <set comment="band 202">
        <r>  0.0073  0.0005  0.0144 </r>
        <r>  0.0002  0.0003  0.0078 </r>
        <r>  0.0000  0.0014  0.0119 </r>
        <r>  0.0000  0.0014  0.0121 </r>
        <r>  0.0003  0.0003  0.0079 </r>
        <r>  0.0076  0.0005  0.0154 </r>
        <r>  0.0001  0.0051  0.0002 </r>
        <r>  0.0001  0.0048  0.0002 </r>
        <r>  0.0000  0.0065  0.0000 </r>
        <r>  0.0000  0.0062  0.0000 </r>
        <r>  0.0000  0.0086  0.0001 </r>
        <r>  0.0000  0.0084  0.0001 </r>
        <r>  0.0000  0.0034  0.0002 </r>
        <r>  0.0000  0.0035  0.0002 </r>
        <r>  0.0003  0.0028  0.0014 </r>
        <r>  0.0009  0.0019  0.0013 </r>
        <r>  0.0005  0.0038  0.0002 </r>
        <r>  0.0006  0.0048  0.0016 </r>
        <r>  0.0006  0.0050  0.0016 </r>
        <r>  0.0005  0.0037  0.0001 </r>
        <r>  0.0010  0.0019  0.0012 </r>
        <r>  0.0003  0.0027  0.0013 </r>
        <r>  0.0026  0.0012  0.0027 </r>
        <r>  0.0000  0.0031  0.0009 </r>
        <r>  0.0012  0.0020  0.0012 </r>
        <r>  0.0005  0.0029  0.0009 </r>
        <r>  0.0000  0.0002  0.0003 </r>
        <r>  0.0002  0.0019  0.0007 </r>
        <r>  0.0001  0.0004  0.0004 </r>
        <r>  0.0000  0.0021  0.0022 </r>
        <r>  0.0000  0.0021  0.0021 </r>
        <r>  0.0001  0.0004  0.0004 </r>
        <r>  0.0002  0.0019  0.0007 </r>
        <r>  0.0000  0.0002  0.0003 </r>
        <r>  0.0001  0.0032  0.0009 </r>
        <r>  0.0025  0.0013  0.0027 </r>
        <r>  0.0004  0.0029  0.0009 </r>
        <r>  0.0011  0.0020  0.0011 </r>
        <r>  0.0000  0.0018  0.0000 </r>
       </set>
       <set comment="band 203">
        <r>  0.0052  0.0007  0.0135 </r>
        <r>  0.0001  0.0005  0.0074 </r>
        <r>  0.0004  0.0012  0.0045 </r>
        <r>  0.0011  0.0011  0.0048 </r>
        <r>  0.0001  0.0004  0.0066 </r>
        <r>  0.0048  0.0006  0.0129 </r>
        <r>  0.0001  0.0042  0.0001 </r>
        <r>  0.0001  0.0044  0.0001 </r>
        <r>  0.0000  0.0066  0.0003 </r>
        <r>  0.0000  0.0070  0.0002 </r>
        <r>  0.0001  0.0122  0.0002 </r>
        <r>  0.0001  0.0138  0.0002 </r>
        <r>  0.0000  0.0067  0.0003 </r>
        <r>  0.0000  0.0071  0.0003 </r>
        <r>  0.0009  0.0017  0.0019 </r>
        <r>  0.0008  0.0023  0.0018 </r>
        <r>  0.0002  0.0045  0.0004 </r>
        <r>  0.0012  0.0018  0.0028 </r>
        <r>  0.0009  0.0018  0.0025 </r>
        <r>  0.0003  0.0048  0.0003 </r>
        <r>  0.0008  0.0019  0.0018 </r>
        <r>  0.0013  0.0020  0.0022 </r>
        <r>  0.0001  0.0010  0.0011 </r>
        <r>  0.0000  0.0010  0.0006 </r>
        <r>  0.0004  0.0048  0.0007 </r>
        <r>  0.0005  0.0001  0.0003 </r>
        <r>  0.0002  0.0038  0.0005 </r>
        <r>  0.0007  0.0020  0.0012 </r>
        <r>  0.0000  0.0018  0.0003 </r>
        <r>  0.0014  0.0004  0.0014 </r>
        <r>  0.0010  0.0005  0.0011 </r>
        <r>  0.0000  0.0026  0.0002 </r>
        <r>  0.0006  0.0016  0.0011 </r>
        <r>  0.0001  0.0039  0.0004 </r>
        <r>  0.0001  0.0009  0.0006 </r>
        <r>  0.0000  0.0011  0.0011 </r>
        <r>  0.0006  0.0001  0.0004 </r>
        <r>  0.0004  0.0051  0.0008 </r>
        <r>  0.0000  0.0000  0.0267 </r>
       </set>
       <set comment="band 204">
        <r>  0.0000  0.0004  0.0048 </r>
        <r>  0.0057  0.0007  0.0148 </r>
        <r>  0.0055  0.0010  0.0050 </r>
        <r>  0.0051  0.0010  0.0047 </r>
        <r>  0.0061  0.0008  0.0149 </r>
        <r>  0.0000  0.0004  0.0051 </r>
        <r>  0.0000  0.0034  0.0002 </r>
        <r>  0.0000  0.0035  0.0002 </r>
        <r>  0.0000  0.0037  0.0001 </r>
        <r>  0.0000  0.0035  0.0001 </r>
        <r>  0.0000  0.0006  0.0003 </r>
        <r>  0.0000  0.0006  0.0004 </r>
        <r>  0.0000  0.0036  0.0002 </r>
        <r>  0.0000  0.0039  0.0002 </r>
        <r>  0.0010  0.0035  0.0007 </r>
        <r>  0.0001  0.0029  0.0011 </r>
        <r>  0.0005  0.0024  0.0006 </r>
        <r>  0.0002  0.0036  0.0004 </r>
        <r>  0.0002  0.0035  0.0005 </r>
        <r>  0.0006  0.0024  0.0007 </r>
        <r>  0.0001  0.0030  0.0010 </r>
        <r>  0.0009  0.0036  0.0006 </r>
        <r>  0.0016  0.0008  0.0010 </r>
        <r>  0.0000  0.0023  0.0034 </r>
        <r>  0.0000  0.0013  0.0004 </r>
        <r>  0.0019  0.0006  0.0024 </r>
        <r>  0.0014  0.0036  0.0027 </r>
        <r>  0.0000  0.0006  0.0005 </r>
        <r>  0.0005  0.0016  0.0006 </r>
        <r>  0.0001  0.0033  0.0009 </r>
        <r>  0.0001  0.0031  0.0009 </r>
        <r>  0.0005  0.0016  0.0006 </r>
        <r>  0.0000  0.0006  0.0005 </r>
        <r>  0.0013  0.0037  0.0027 </r>
        <r>  0.0000  0.0023  0.0034 </r>
        <r>  0.0017  0.0009  0.0011 </r>
        <r>  0.0019  0.0005  0.0023 </r>
        <r>  0.0000  0.0012  0.0004 </r>
        <r>  0.0008  0.0000  0.0244 </r>
       </set>
       <set comment="band 205">
        <r>  0.0002  0.0001  0.0086 </r>
        <r>  0.0042  0.0002  0.0099 </r>
        <r>  0.0071  0.0011  0.0122 </r>
        <r>  0.0071  0.0013  0.0097 </r>
        <r>  0.0028  0.0003  0.0080 </r>
        <r>  0.0000  0.0001  0.0087 </r>
        <r>  0.0000  0.0101  0.0000 </r>
        <r>  0.0000  0.0104  0.0000 </r>
        <r>  0.0000  0.0025  0.0000 </r>
        <r>  0.0000  0.0023  0.0000 </r>
        <r>  0.0000  0.0015  0.0001 </r>
        <r>  0.0000  0.0013  0.0001 </r>
        <r>  0.0000  0.0019  0.0001 </r>
        <r>  0.0000  0.0017  0.0002 </r>
        <r>  0.0018  0.0021  0.0015 </r>
        <r>  0.0001  0.0028  0.0006 </r>
        <r>  0.0018  0.0028  0.0016 </r>
        <r>  0.0001  0.0024  0.0003 </r>
        <r>  0.0000  0.0026  0.0002 </r>
        <r>  0.0013  0.0030  0.0012 </r>
        <r>  0.0001  0.0030  0.0007 </r>
        <r>  0.0020  0.0021  0.0016 </r>
        <r>  0.0001  0.0030  0.0011 </r>
        <r>  0.0008  0.0004  0.0017 </r>
        <r>  0.0002  0.0020  0.0002 </r>
        <r>  0.0002  0.0013  0.0015 </r>
        <r>  0.0020  0.0020  0.0009 </r>
        <r>  0.0002  0.0028  0.0002 </r>
        <r>  0.0004  0.0045  0.0008 </r>
        <r>  0.0016  0.0030  0.0024 </r>
        <r>  0.0020  0.0029  0.0024 </r>
        <r>  0.0005  0.0044  0.0010 </r>
        <r>  0.0003  0.0020  0.0003 </r>
        <r>  0.0024  0.0015  0.0013 </r>
        <r>  0.0008  0.0001  0.0016 </r>
        <r>  0.0000  0.0031  0.0014 </r>
        <r>  0.0003  0.0012  0.0017 </r>
        <r>  0.0002  0.0017  0.0002 </r>
        <r>  0.0000  0.0011  0.0000 </r>
       </set>
       <set comment="band 206">
        <r>  0.0012  0.0007  0.0163 </r>
        <r>  0.0031  0.0012  0.0226 </r>
        <r>  0.0001  0.0017  0.0130 </r>
        <r>  0.0004  0.0007  0.0141 </r>
        <r>  0.0043  0.0003  0.0152 </r>
        <r>  0.0007  0.0002  0.0076 </r>
        <r>  0.0000  0.0020  0.0002 </r>
        <r>  0.0000  0.0022  0.0003 </r>
        <r>  0.0000  0.0055  0.0003 </r>
        <r>  0.0000  0.0027  0.0001 </r>
        <r>  0.0000  0.0027  0.0005 </r>
        <r>  0.0001  0.0053  0.0005 </r>
        <r>  0.0000  0.0066  0.0006 </r>
        <r>  0.0000  0.0044  0.0002 </r>
        <r>  0.0006  0.0009  0.0015 </r>
        <r>  0.0005  0.0003  0.0007 </r>
        <r>  0.0018  0.0010  0.0027 </r>
        <r>  0.0004  0.0017  0.0019 </r>
        <r>  0.0007  0.0010  0.0012 </r>
        <r>  0.0011  0.0011  0.0017 </r>
        <r>  0.0005  0.0014  0.0012 </r>
        <r>  0.0010  0.0022  0.0012 </r>
        <r>  0.0007  0.0013  0.0025 </r>
        <r>  0.0000  0.0042  0.0008 </r>
        <r>  0.0000  0.0002  0.0006 </r>
        <r>  0.0013  0.0020  0.0032 </r>
        <r>  0.0007  0.0007  0.0020 </r>
        <r>  0.0001  0.0027  0.0002 </r>
        <r>  0.0003  0.0012  0.0006 </r>
        <r>  0.0003  0.0011  0.0010 </r>
        <r>  0.0009  0.0021  0.0021 </r>
        <r>  0.0005  0.0017  0.0007 </r>
        <r>  0.0001  0.0033  0.0002 </r>
        <r>  0.0004  0.0015  0.0020 </r>
        <r>  0.0000  0.0030  0.0015 </r>
        <r>  0.0002  0.0008  0.0008 </r>
        <r>  0.0005  0.0033  0.0014 </r>
        <r>  0.0003  0.0005  0.0008 </r>
        <r>  0.0000  0.0002  0.0109 </r>
       </set>
       <set comment="band 207">
        <r>  0.0001  0.0007  0.0061 </r>
        <r>  0.0014  0.0003  0.0218 </r>
        <r>  0.0006  0.0010  0.0234 </r>
        <r>  0.0010  0.0013  0.0158 </r>
        <r>  0.0013  0.0015  0.0079 </r>
        <r>  0.0005  0.0003  0.0079 </r>
        <r>  0.0000  0.0067  0.0002 </r>
        <r>  0.0000  0.0041  0.0001 </r>
        <r>  0.0000  0.0022  0.0004 </r>
        <r>  0.0000  0.0047  0.0002 </r>
        <r>  0.0002  0.0063  0.0008 </r>
        <r>  0.0000  0.0032  0.0005 </r>
        <r>  0.0001  0.0081  0.0005 </r>
        <r>  0.0001  0.0019  0.0007 </r>
        <r>  0.0005  0.0040  0.0012 </r>
        <r>  0.0001  0.0017  0.0010 </r>
        <r>  0.0003  0.0015  0.0021 </r>
        <r>  0.0003  0.0006  0.0007 </r>
        <r>  0.0005  0.0009  0.0008 </r>
        <r>  0.0010  0.0006  0.0016 </r>
        <r>  0.0001  0.0005  0.0011 </r>
        <r>  0.0002  0.0020  0.0023 </r>
        <r>  0.0004  0.0012  0.0026 </r>
        <r>  0.0000  0.0020  0.0039 </r>
        <r>  0.0001  0.0004  0.0006 </r>
        <r>  0.0012  0.0011  0.0018 </r>
        <r>  0.0009  0.0002  0.0017 </r>
        <r>  0.0001  0.0027  0.0003 </r>
        <r>  0.0002  0.0023  0.0002 </r>
        <r>  0.0006  0.0028  0.0014 </r>
        <r>  0.0003  0.0027  0.0015 </r>
        <r>  0.0000  0.0006  0.0003 </r>
        <r>  0.0001  0.0022  0.0005 </r>
        <r>  0.0016  0.0006  0.0023 </r>
        <r>  0.0000  0.0053  0.0016 </r>
        <r>  0.0000  0.0017  0.0011 </r>
        <r>  0.0006  0.0005  0.0015 </r>
        <r>  0.0002  0.0004  0.0009 </r>
        <r>  0.0001  0.0003  0.0306 </r>
       </set>
       <set comment="band 208">
        <r>  0.0011  0.0006  0.0099 </r>
        <r>  0.0002  0.0010  0.0142 </r>
        <r>  0.0018  0.0008  0.0241 </r>
        <r>  0.0017  0.0008  0.0260 </r>
        <r>  0.0005  0.0008  0.0175 </r>
        <r>  0.0011  0.0006  0.0088 </r>
        <r>  0.0001  0.0068  0.0002 </r>
        <r>  0.0000  0.0077  0.0002 </r>
        <r>  0.0000  0.0014  0.0004 </r>
        <r>  0.0000  0.0009  0.0004 </r>
        <r>  0.0000  0.0041  0.0003 </r>
        <r>  0.0000  0.0062  0.0004 </r>
        <r>  0.0001  0.0020  0.0006 </r>
        <r>  0.0000  0.0053  0.0003 </r>
        <r>  0.0001  0.0017  0.0016 </r>
        <r>  0.0002  0.0017  0.0008 </r>
        <r>  0.0001  0.0019  0.0012 </r>
        <r>  0.0014  0.0005  0.0015 </r>
        <r>  0.0014  0.0002  0.0017 </r>
        <r>  0.0001  0.0022  0.0015 </r>
        <r>  0.0001  0.0027  0.0007 </r>
        <r>  0.0003  0.0018  0.0013 </r>
        <r>  0.0002  0.0008  0.0019 </r>
        <r>  0.0000  0.0016  0.0010 </r>
        <r>  0.0006  0.0011  0.0009 </r>
        <r>  0.0002  0.0019  0.0024 </r>
        <r>  0.0013  0.0015  0.0026 </r>
        <r>  0.0001  0.0015  0.0008 </r>
        <r>  0.0000  0.0002  0.0005 </r>
        <r>  0.0001  0.0017  0.0018 </r>
        <r>  0.0001  0.0017  0.0016 </r>
        <r>  0.0000  0.0006  0.0003 </r>
        <r>  0.0000  0.0015  0.0008 </r>
        <r>  0.0011  0.0015  0.0027 </r>
        <r>  0.0000  0.0015  0.0014 </r>
        <r>  0.0005  0.0007  0.0021 </r>
        <r>  0.0006  0.0019  0.0021 </r>
        <r>  0.0008  0.0013  0.0010 </r>
        <r>  0.0001  0.0002  0.0128 </r>
       </set>
      </set>
     </set>
    </set>
   </array>
  </projected>
 </calculation>
 <structure name="finalpos" >
  <crystal>
   <varray name="basis" >
    <v>       8.42001800       0.00000000       8.07798100 </v>
    <v>       0.00000000      11.76380800       0.00000000 </v>
    <v>      -8.42001800       0.00000000       8.07798100 </v>
   </varray>
   <i name="volume">   1600.27186790 </i>
   <varray name="rec_basis" >
    <v>       0.05938230      -0.00000000       0.06189665 </v>
    <v>       0.00000000       0.08500649      -0.00000000 </v>
    <v>      -0.05938230       0.00000000       0.06189665 </v>
   </varray>
  </crystal>
  <varray name="positions" >
   <v>       0.27077600       0.24793300       0.19756200 </v>
   <v>       0.76831600       0.24587800       0.73845200 </v>
   <v>       0.21792300       0.76308200       0.76760700 </v>
   <v>       0.28225300       0.23747900       0.73254000 </v>
   <v>       0.73171600       0.75383500       0.76196100 </v>
   <v>       0.22917200       0.75209600       0.30263800 </v>
   <v>       0.99945500       0.99570900       0.00852100 </v>
   <v>       0.50071600       0.00440500       0.49146600 </v>
   <v>       0.50893900       0.99811900       0.00108900 </v>
   <v>       0.99093000       0.00202500       0.49891600 </v>
   <v>       0.49999200       0.50074200       0.99138800 </v>
   <v>       0.99982200       0.49975400       0.50864600 </v>
   <v>       0.00725600       0.50102700       0.00084000 </v>
   <v>       0.49279600       0.49934400       0.49914400 </v>
   <v>       0.47491300       0.74785900       0.94484500 </v>
   <v>       0.95913600       0.75016400       0.46549300 </v>
   <v>       0.98289500       0.24952800       0.97381100 </v>
   <v>       0.44050200       0.25150000       0.46745000 </v>
   <v>       0.05997500       0.74885400       0.03269200 </v>
   <v>       0.51761900       0.75081600       0.52621300 </v>
   <v>       0.54003200       0.25009100       0.03384900 </v>
   <v>       0.02526400       0.25248300       0.55507700 </v>
   <v>       0.25119200       0.46021200       0.94819600 </v>
   <v>       0.74589900       0.46760900       0.50844000 </v>
   <v>       0.44367200       0.52862200       0.24566400 </v>
   <v>       0.97572200       0.55445300       0.75134300 </v>
   <v>       0.54191500       0.03273200       0.75030600 </v>
   <v>       0.05898000       0.02942200       0.25451400 </v>
   <v>       0.75702400       0.93875800       0.03383500 </v>
   <v>       0.24540000       0.97077500       0.54530400 </v>
   <v>       0.25460700       0.02948900       0.95475400 </v>
   <v>       0.74289600       0.06099400       0.46607800 </v>
   <v>       0.44068700       0.97102800       0.24552500 </v>
   <v>       0.95765700       0.96713000       0.74980200 </v>
   <v>       0.75430000       0.53100200       0.99121000 </v>
   <v>       0.24893300       0.54020600       0.55207800 </v>
   <v>       0.52437200       0.44638400       0.74870500 </v>
   <v>       0.05634000       0.47132100       0.25433700 </v>
   <v>       0.74985900       0.49799300       0.24978000 </v>
  </varray>
 </structure>
</modeling>
