CsPbBr3 cubic bulk                      
           1
     8.420018    0.000000    8.077981
     0.000000   11.763808    0.000000
    -8.420018    0.000000    8.077981
   Cs   Pb   Br   Cs
   6   8  24   1
Direct configuration=     1
   0.27077600  0.24793300  0.19756200
   0.76831600  0.24587800  0.73845200
   0.21792300  0.76308200  0.76760700
   0.28225300  0.23747900  0.73254000
   0.73171600  0.75383500  0.76196100
   0.22917200  0.75209600  0.30263800
   0.99945500  0.99570900  0.00852100
   0.50071600  0.00440500  0.49146600
   0.50893900  0.99811900  0.00108900
   0.99093000  0.00202500  0.49891600
   0.49999200  0.50074200  0.99138800
   0.99982200  0.49975400  0.50864600
   0.00725600  0.50102700  0.00084000
   0.49279600  0.49934400  0.49914400
   0.47491300  0.74785900  0.94484500
   0.95913600  0.75016400  0.46549300
   0.98289500  0.24952800  0.97381100
   0.44050200  0.25150000  0.46745000
   0.05997500  0.74885400  0.03269200
   0.51761900  0.75081600  0.52621300
   0.54003200  0.25009100  0.03384900
   0.02526400  0.25248300  0.55507700
   0.25119200  0.46021200  0.94819600
   0.74589900  0.46760900  0.50844000
   0.44367200  0.52862200  0.24566400
   0.97572200  0.55445300  0.75134300
   0.54191500  0.03273200  0.75030600
   0.05898000  0.02942200  0.25451400
   0.75702400  0.93875800  0.03383500
   0.24540000  0.97077500  0.54530400
   0.25460700  0.02948900  0.95475400
   0.74289600  0.06099400  0.46607800
   0.44068700  0.97102800  0.24552500
   0.95765700  0.96713000  0.74980200
   0.75430000  0.53100200  0.99121000
   0.24893300  0.54020600  0.55207800
   0.52437200  0.44638400  0.74870500
   0.05634000  0.47132100  0.25433700
   0.74985900  0.49799300  0.24978000
