  39  39   1   0
  0.4089970E+02  0.1166870E-08  0.1172985E-08  0.1166870E-08  0.5000000E-15
   1.0000000000000000E-004
  CAR 
 CsPbBr3 cubic bulk                      
      8.04970249    -22.31207050  301      0.58576663      1.00000000
    -22.312  0.0000E+00  0.0000E+00
    -22.211  0.0000E+00  0.0000E+00
    -22.110  0.0000E+00  0.0000E+00
    -22.008  0.0000E+00  0.0000E+00
    -21.907  0.0000E+00  0.0000E+00
    -21.806  0.0000E+00  0.0000E+00
    -21.705  0.0000E+00  0.0000E+00
    -21.604  0.0000E+00  0.0000E+00
    -21.502  0.0000E+00  0.0000E+00
    -21.401  0.0000E+00  0.0000E+00
    -21.300  0.0000E+00  0.0000E+00
    -21.199  0.0000E+00  0.0000E+00
    -21.098  0.0000E+00  0.0000E+00
    -20.996  0.0000E+00  0.0000E+00
    -20.895  0.3916E+02  0.3963E+01
    -20.794  0.1983E+02  0.6007E+01
    -20.693  0.3556E+02  0.1160E+02
    -20.592  0.3952E+02  0.1600E+02
    -20.490  0.0000E+00  0.1600E+02
    -20.389  0.0000E+00  0.1600E+02
    -20.288  0.0000E+00  0.1600E+02
    -20.187  0.0000E+00  0.1600E+02
    -20.086  0.0000E+00  0.1600E+02
    -19.984  0.0000E+00  0.1600E+02
    -19.883  0.0000E+00  0.1600E+02
    -19.782  0.0000E+00  0.1600E+02
    -19.681  0.0000E+00  0.1600E+02
    -19.580  0.0000E+00  0.1600E+02
    -19.478  0.0000E+00  0.1600E+02
    -19.377  0.0000E+00  0.1600E+02
    -19.276  0.0000E+00  0.1600E+02
    -19.175  0.0000E+00  0.1600E+02
    -19.073  0.0000E+00  0.1600E+02
    -18.972  0.0000E+00  0.1600E+02
    -18.871  0.0000E+00  0.1600E+02
    -18.770  0.0000E+00  0.1600E+02
    -18.669  0.0000E+00  0.1600E+02
    -18.567  0.0000E+00  0.1600E+02
    -18.466  0.0000E+00  0.1600E+02
    -18.365  0.0000E+00  0.1600E+02
    -18.264  0.0000E+00  0.1600E+02
    -18.163  0.0000E+00  0.1600E+02
    -18.061  0.0000E+00  0.1600E+02
    -17.960  0.0000E+00  0.1600E+02
    -17.859  0.0000E+00  0.1600E+02
    -17.758  0.0000E+00  0.1600E+02
    -17.657  0.0000E+00  0.1600E+02
    -17.555  0.1795E+01  0.1618E+02
    -17.454  0.0000E+00  0.1800E+02
    -17.353  0.0000E+00  0.1800E+02
    -17.252  0.0000E+00  0.1800E+02
    -17.151  0.0000E+00  0.1800E+02
    -17.049  0.0000E+00  0.1800E+02
    -16.948  0.0000E+00  0.1800E+02
    -16.847  0.0000E+00  0.1800E+02
    -16.746  0.0000E+00  0.1800E+02
    -16.645  0.5512E+02  0.2358E+02
    -16.543  0.8955E+02  0.3506E+02
    -16.442  0.4136E+02  0.4219E+02
    -16.341  0.1701E+03  0.6072E+02
    -16.240  0.2263E+03  0.8591E+02
    -16.139  0.9881E+02  0.9600E+02
    -16.037  0.0000E+00  0.9600E+02
    -15.936  0.0000E+00  0.9600E+02
    -15.835  0.0000E+00  0.9600E+02
    -15.734  0.0000E+00  0.9600E+02
    -15.632  0.0000E+00  0.9600E+02
    -15.531  0.0000E+00  0.9600E+02
    -15.430  0.0000E+00  0.9600E+02
    -15.329  0.0000E+00  0.9600E+02
    -15.228  0.0000E+00  0.9600E+02
    -15.126  0.0000E+00  0.9600E+02
    -15.025  0.0000E+00  0.9600E+02
    -14.924  0.0000E+00  0.9600E+02
    -14.823  0.0000E+00  0.9600E+02
    -14.722  0.0000E+00  0.9600E+02
    -14.620  0.1976E+02  0.9800E+02
    -14.519  0.0000E+00  0.9800E+02
    -14.418  0.1076E-12  0.9800E+02
    -14.317  0.1832E+02  0.9985E+02
    -14.216  0.4212E+02  0.1045E+03
    -14.114  0.3338E+02  0.1086E+03
    -14.013  0.1097E+03  0.1204E+03
    -13.912  0.4397E+02  0.1267E+03
    -13.811  0.6787E+02  0.1356E+03
    -13.710  0.3091E+02  0.1396E+03
    -13.608  0.9707E+01  0.1420E+03
    -13.507  0.0000E+00  0.1420E+03
    -13.406  0.0000E+00  0.1420E+03
    -13.305  0.0000E+00  0.1420E+03
    -13.204  0.0000E+00  0.1420E+03
    -13.102  0.0000E+00  0.1420E+03
    -13.001  0.0000E+00  0.1420E+03
    -12.900  0.0000E+00  0.1420E+03
    -12.799  0.0000E+00  0.1420E+03
    -12.698  0.0000E+00  0.1420E+03
    -12.596  0.0000E+00  0.1420E+03
    -12.495  0.0000E+00  0.1420E+03
    -12.394  0.0000E+00  0.1420E+03
    -12.293  0.0000E+00  0.1420E+03
    -12.191  0.0000E+00  0.1420E+03
    -12.090  0.0000E+00  0.1420E+03
    -11.989  0.0000E+00  0.1420E+03
    -11.888  0.0000E+00  0.1420E+03
    -11.787  0.0000E+00  0.1420E+03
    -11.685  0.0000E+00  0.1420E+03
    -11.584  0.0000E+00  0.1420E+03
    -11.483  0.0000E+00  0.1420E+03
    -11.382  0.0000E+00  0.1420E+03
    -11.281  0.0000E+00  0.1420E+03
    -11.179  0.0000E+00  0.1420E+03
    -11.078  0.0000E+00  0.1420E+03
    -10.977  0.0000E+00  0.1420E+03
    -10.876  0.0000E+00  0.1420E+03
    -10.775  0.0000E+00  0.1420E+03
    -10.673  0.0000E+00  0.1420E+03
    -10.572  0.0000E+00  0.1420E+03
    -10.471  0.0000E+00  0.1420E+03
    -10.370  0.0000E+00  0.1420E+03
    -10.269  0.0000E+00  0.1420E+03
    -10.167  0.0000E+00  0.1420E+03
    -10.066  0.0000E+00  0.1420E+03
     -9.965  0.0000E+00  0.1420E+03
     -9.864  0.0000E+00  0.1420E+03
     -9.763  0.0000E+00  0.1420E+03
     -9.661  0.0000E+00  0.1420E+03
     -9.560  0.0000E+00  0.1420E+03
     -9.459  0.0000E+00  0.1420E+03
     -9.358  0.0000E+00  0.1420E+03
     -9.257  0.0000E+00  0.1420E+03
     -9.155  0.0000E+00  0.1420E+03
     -9.054  0.0000E+00  0.1420E+03
     -8.953  0.0000E+00  0.1420E+03
     -8.852  0.0000E+00  0.1420E+03
     -8.750  0.0000E+00  0.1420E+03
     -8.649  0.0000E+00  0.1420E+03
     -8.548  0.0000E+00  0.1420E+03
     -8.447  0.0000E+00  0.1420E+03
     -8.346  0.0000E+00  0.1420E+03
     -8.244  0.1155E-09  0.1420E+03
     -8.143  0.2470E+01  0.1422E+03
     -8.042  0.5386E+01  0.1428E+03
     -7.941  0.1617E+02  0.1446E+03
     -7.840  0.2470E+01  0.1450E+03
     -7.738  0.1772E+02  0.1468E+03
     -7.637  0.7569E+01  0.1485E+03
     -7.536  0.9998E+01  0.1498E+03
     -7.435  0.2223E+02  0.1525E+03
     -7.334  0.4931E+02  0.1575E+03
     -7.232  0.1202E+03  0.1719E+03
     -7.131  0.9915E+02  0.1828E+03
     -7.030  0.1660E+03  0.2028E+03
     -6.929  0.7438E+01  0.2048E+03
     -6.828  0.4940E+01  0.2055E+03
     -6.726  0.2470E+01  0.2058E+03
     -6.625  0.4065E-08  0.2058E+03
     -6.524  0.2470E+01  0.2060E+03
     -6.423  0.0000E+00  0.2060E+03
     -6.322  0.0000E+00  0.2060E+03
     -6.220  0.0000E+00  0.2060E+03
     -6.119  0.0000E+00  0.2060E+03
     -6.018  0.0000E+00  0.2060E+03
     -5.917  0.0000E+00  0.2060E+03
     -5.816  0.0000E+00  0.2060E+03
     -5.714  0.0000E+00  0.2060E+03
     -5.613  0.0000E+00  0.2060E+03
     -5.512  0.0000E+00  0.2060E+03
     -5.411  0.0000E+00  0.2060E+03
     -5.309  0.0000E+00  0.2060E+03
     -5.208  0.0000E+00  0.2060E+03
     -5.107  0.0000E+00  0.2060E+03
     -5.006  0.0000E+00  0.2060E+03
     -4.905  0.0000E+00  0.2060E+03
     -4.803  0.0000E+00  0.2060E+03
     -4.702  0.0000E+00  0.2060E+03
     -4.601  0.0000E+00  0.2060E+03
     -4.500  0.0000E+00  0.2060E+03
     -4.399  0.0000E+00  0.2060E+03
     -4.297  0.0000E+00  0.2060E+03
     -4.196  0.0000E+00  0.2060E+03
     -4.095  0.0000E+00  0.2060E+03
     -3.994  0.0000E+00  0.2060E+03
     -3.893  0.0000E+00  0.2060E+03
     -3.791  0.0000E+00  0.2060E+03
     -3.690  0.0000E+00  0.2060E+03
     -3.589  0.0000E+00  0.2060E+03
     -3.488  0.0000E+00  0.2060E+03
     -3.387  0.1190E+02  0.2072E+03
     -3.285  0.2093E+02  0.2101E+03
     -3.184  0.4204E+02  0.2153E+03
     -3.083  0.2442E+02  0.2187E+03
     -2.982  0.1226E+02  0.2210E+03
     -2.881  0.0000E+00  0.2210E+03
     -2.779  0.0000E+00  0.2210E+03
     -2.678  0.4478E+01  0.2215E+03
     -2.577  0.2972E+02  0.2253E+03
     -2.476  0.4170E+02  0.2300E+03
     -2.375  0.3030E+02  0.2338E+03
     -2.273  0.4426E+02  0.2390E+03
     -2.172  0.1822E+02  0.2423E+03
     -2.071  0.1225E+02  0.2440E+03
     -1.970  0.5243E+02  0.2498E+03
     -1.868  0.1786E+02  0.2523E+03
     -1.767  0.3669E+02  0.2570E+03
     -1.666  0.4628E+02  0.2624E+03
     -1.565  0.6722E+02  0.2701E+03
     -1.464  0.6780E+02  0.2786E+03
     -1.362  0.1010E+03  0.2902E+03
     -1.261  0.9132E+02  0.3022E+03
     -1.160  0.7794E+02  0.3129E+03
     -1.059  0.8301E+02  0.3237E+03
     -0.958  0.3167E+02  0.3282E+03
     -0.856  0.2821E+02  0.3316E+03
     -0.755  0.2223E+02  0.3345E+03
     -0.654  0.8248E+01  0.3353E+03
     -0.553  0.7829E+01  0.3368E+03
     -0.452  0.1352E+02  0.3384E+03
     -0.350  0.3278E+01  0.3393E+03
     -0.249  0.7731E+01  0.3403E+03
     -0.148  0.2470E+01  0.3410E+03
     -0.047  0.1059E+01  0.3411E+03
      0.054  0.3438E+01  0.3416E+03
      0.156  0.9881E+01  0.3430E+03
      0.257  0.2325E+01  0.3432E+03
      0.358  0.4940E+01  0.3437E+03
      0.459  0.1097E-02  0.3438E+03
      0.560  0.2469E+01  0.3440E+03
      0.662  0.0000E+00  0.3440E+03
      0.763  0.0000E+00  0.3440E+03
      0.864  0.0000E+00  0.3440E+03
      0.965  0.0000E+00  0.3440E+03
      1.066  0.0000E+00  0.3440E+03
      1.168  0.0000E+00  0.3440E+03
      1.269  0.0000E+00  0.3440E+03
      1.370  0.0000E+00  0.3440E+03
      1.471  0.0000E+00  0.3440E+03
      1.573  0.0000E+00  0.3440E+03
      1.674  0.0000E+00  0.3440E+03
      1.775  0.0000E+00  0.3440E+03
      1.876  0.0000E+00  0.3440E+03
      1.977  0.0000E+00  0.3440E+03
      2.079  0.0000E+00  0.3440E+03
      2.180  0.0000E+00  0.3440E+03
      2.281  0.0000E+00  0.3440E+03
      2.382  0.0000E+00  0.3440E+03
      2.483  0.0000E+00  0.3440E+03
      2.585  0.2410E+01  0.3442E+03
      2.686  0.7287E+01  0.3450E+03
      2.787  0.1108E+02  0.3461E+03
      2.888  0.4068E+01  0.3467E+03
      2.989  0.1468E+02  0.3482E+03
      3.091  0.1283E+02  0.3500E+03
      3.192  0.1703E+02  0.3522E+03
      3.293  0.1158E+02  0.3537E+03
      3.394  0.7520E+01  0.3555E+03
      3.495  0.1665E+02  0.3574E+03
      3.597  0.4903E+01  0.3580E+03
      3.698  0.0000E+00  0.3580E+03
      3.799  0.0000E+00  0.3580E+03
      3.900  0.0000E+00  0.3580E+03
      4.001  0.4220E-06  0.3580E+03
      4.103  0.1485E+02  0.3595E+03
      4.204  0.4937E+01  0.3602E+03
      4.305  0.1159E+02  0.3614E+03
      4.406  0.2199E+02  0.3645E+03
      4.507  0.2388E+02  0.3679E+03
      4.609  0.2612E+02  0.3709E+03
      4.710  0.2488E+02  0.3743E+03
      4.811  0.1707E+02  0.3767E+03
      4.912  0.1658E+02  0.3797E+03
      5.014  0.2470E+01  0.3802E+03
      5.115  0.0000E+00  0.3802E+03
      5.216  0.1965E+01  0.3804E+03
      5.317  0.2470E+01  0.3808E+03
      5.418  0.9764E+01  0.3817E+03
      5.520  0.4940E+01  0.3825E+03
      5.621  0.7690E+01  0.3833E+03
      5.722  0.1658E+02  0.3852E+03
      5.823  0.1310E+02  0.3871E+03
      5.924  0.2264E+02  0.3898E+03
      6.026  0.2038E+02  0.3926E+03
      6.127  0.1969E+02  0.3952E+03
      6.228  0.3820E+02  0.3996E+03
      6.329  0.4036E+02  0.4043E+03
      6.430  0.2263E+02  0.4073E+03
      6.532  0.3674E+02  0.4115E+03
      6.633  0.2928E+02  0.4152E+03
      6.734  0.7411E+01  0.4160E+03
      6.835  0.0000E+00  0.4160E+03
      6.936  0.0000E+00  0.4160E+03
      7.038  0.0000E+00  0.4160E+03
      7.139  0.0000E+00  0.4160E+03
      7.240  0.0000E+00  0.4160E+03
      7.341  0.0000E+00  0.4160E+03
      7.442  0.0000E+00  0.4160E+03
      7.544  0.0000E+00  0.4160E+03
      7.645  0.0000E+00  0.4160E+03
      7.746  0.0000E+00  0.4160E+03
      7.847  0.0000E+00  0.4160E+03
      7.948  0.0000E+00  0.4160E+03
      8.050  0.0000E+00  0.4160E+03
      8.04970249    -22.31207050  301      0.58576663      1.00000000
    -22.312  0.0000E+00  0.0000E+00  0.0000E+00
    -22.211  0.0000E+00  0.0000E+00  0.0000E+00
    -22.110  0.0000E+00  0.0000E+00  0.0000E+00
    -22.008  0.0000E+00  0.0000E+00  0.0000E+00
    -21.907  0.0000E+00  0.0000E+00  0.0000E+00
    -21.806  0.0000E+00  0.0000E+00  0.0000E+00
    -21.705  0.0000E+00  0.0000E+00  0.0000E+00
    -21.604  0.0000E+00  0.0000E+00  0.0000E+00
    -21.502  0.0000E+00  0.0000E+00  0.0000E+00
    -21.401  0.0000E+00  0.0000E+00  0.0000E+00
    -21.300  0.0000E+00  0.0000E+00  0.0000E+00
    -21.199  0.0000E+00  0.0000E+00  0.0000E+00
    -21.098  0.0000E+00  0.0000E+00  0.0000E+00
    -20.996  0.0000E+00  0.0000E+00  0.0000E+00
    -20.895  0.1846E-05  0.3704E-08  0.3392E-09
    -20.794  0.6787E-03  0.1883E-06  0.2629E-07
    -20.693  0.1754E+02  0.5186E-05  0.2378E-05
    -20.592  0.1973E-02  0.2210E-06  0.2874E-07
    -20.490  0.0000E+00  0.0000E+00  0.0000E+00
    -20.389  0.0000E+00  0.0000E+00  0.0000E+00
    -20.288  0.0000E+00  0.0000E+00  0.0000E+00
    -20.187  0.0000E+00  0.0000E+00  0.0000E+00
    -20.086  0.0000E+00  0.0000E+00  0.0000E+00
    -19.984  0.0000E+00  0.0000E+00  0.0000E+00
    -19.883  0.0000E+00  0.0000E+00  0.0000E+00
    -19.782  0.0000E+00  0.0000E+00  0.0000E+00
    -19.681  0.0000E+00  0.0000E+00  0.0000E+00
    -19.580  0.0000E+00  0.0000E+00  0.0000E+00
    -19.478  0.0000E+00  0.0000E+00  0.0000E+00
    -19.377  0.0000E+00  0.0000E+00  0.0000E+00
    -19.276  0.0000E+00  0.0000E+00  0.0000E+00
    -19.175  0.0000E+00  0.0000E+00  0.0000E+00
    -19.073  0.0000E+00  0.0000E+00  0.0000E+00
    -18.972  0.0000E+00  0.0000E+00  0.0000E+00
    -18.871  0.0000E+00  0.0000E+00  0.0000E+00
    -18.770  0.0000E+00  0.0000E+00  0.0000E+00
    -18.669  0.0000E+00  0.0000E+00  0.0000E+00
    -18.567  0.0000E+00  0.0000E+00  0.0000E+00
    -18.466  0.0000E+00  0.0000E+00  0.0000E+00
    -18.365  0.0000E+00  0.0000E+00  0.0000E+00
    -18.264  0.0000E+00  0.0000E+00  0.0000E+00
    -18.163  0.0000E+00  0.0000E+00  0.0000E+00
    -18.061  0.0000E+00  0.0000E+00  0.0000E+00
    -17.960  0.0000E+00  0.0000E+00  0.0000E+00
    -17.859  0.0000E+00  0.0000E+00  0.0000E+00
    -17.758  0.0000E+00  0.0000E+00  0.0000E+00
    -17.657  0.0000E+00  0.0000E+00  0.0000E+00
    -17.555  0.6803E-06  0.1292E-06  0.1372E-07
    -17.454  0.0000E+00  0.0000E+00  0.0000E+00
    -17.353  0.0000E+00  0.0000E+00  0.0000E+00
    -17.252  0.0000E+00  0.0000E+00  0.0000E+00
    -17.151  0.0000E+00  0.0000E+00  0.0000E+00
    -17.049  0.0000E+00  0.0000E+00  0.0000E+00
    -16.948  0.0000E+00  0.0000E+00  0.0000E+00
    -16.847  0.0000E+00  0.0000E+00  0.0000E+00
    -16.746  0.0000E+00  0.0000E+00  0.0000E+00
    -16.645  0.2746E-04  0.2375E-04  0.5423E-05
    -16.543  0.1980E-04  0.9437E-05  0.1338E-05
    -16.442  0.1487E-04  0.1960E-04  0.4779E-05
    -16.341  0.6580E-04  0.7562E-04  0.1227E-04
    -16.240  0.6035E-04  0.3169E-04  0.3746E-05
    -16.139  0.1228E-05  0.8247E-06  0.1018E-06
    -16.037  0.0000E+00  0.0000E+00  0.0000E+00
    -15.936  0.0000E+00  0.0000E+00  0.0000E+00
    -15.835  0.0000E+00  0.0000E+00  0.0000E+00
    -15.734  0.0000E+00  0.0000E+00  0.0000E+00
    -15.632  0.0000E+00  0.0000E+00  0.0000E+00
    -15.531  0.0000E+00  0.0000E+00  0.0000E+00
    -15.430  0.0000E+00  0.0000E+00  0.0000E+00
    -15.329  0.0000E+00  0.0000E+00  0.0000E+00
    -15.228  0.0000E+00  0.0000E+00  0.0000E+00
    -15.126  0.0000E+00  0.0000E+00  0.0000E+00
    -15.025  0.0000E+00  0.0000E+00  0.0000E+00
    -14.924  0.0000E+00  0.0000E+00  0.0000E+00
    -14.823  0.0000E+00  0.0000E+00  0.0000E+00
    -14.722  0.0000E+00  0.0000E+00  0.0000E+00
    -14.620  0.9957E-04  0.5399E-04  0.1972E-05
    -14.519  0.0000E+00  0.0000E+00  0.0000E+00
    -14.418  0.2919E-16  0.1602E-17  0.6330E-19
    -14.317  0.4016E-02  0.1293E-02  0.3884E-04
    -14.216  0.2275E-02  0.4502E-02  0.1643E-03
    -14.114  0.2574E-03  0.3396E-02  0.1724E-03
    -14.013  0.2056E-02  0.5630E-02  0.5370E-03
    -13.912  0.8232E-03  0.2547E-02  0.3133E-03
    -13.811  0.9584E-03  0.3074E-02  0.3901E-03
    -13.710  0.7131E-03  0.1577E-02  0.1645E-03
    -13.608  0.9403E-04  0.1514E-03  0.8447E-05
    -13.507  0.0000E+00  0.0000E+00  0.0000E+00
    -13.406  0.0000E+00  0.0000E+00  0.0000E+00
    -13.305  0.0000E+00  0.0000E+00  0.0000E+00
    -13.204  0.0000E+00  0.0000E+00  0.0000E+00
    -13.102  0.0000E+00  0.0000E+00  0.0000E+00
    -13.001  0.0000E+00  0.0000E+00  0.0000E+00
    -12.900  0.0000E+00  0.0000E+00  0.0000E+00
    -12.799  0.0000E+00  0.0000E+00  0.0000E+00
    -12.698  0.0000E+00  0.0000E+00  0.0000E+00
    -12.596  0.0000E+00  0.0000E+00  0.0000E+00
    -12.495  0.0000E+00  0.0000E+00  0.0000E+00
    -12.394  0.0000E+00  0.0000E+00  0.0000E+00
    -12.293  0.0000E+00  0.0000E+00  0.0000E+00
    -12.191  0.0000E+00  0.0000E+00  0.0000E+00
    -12.090  0.0000E+00  0.0000E+00  0.0000E+00
    -11.989  0.0000E+00  0.0000E+00  0.0000E+00
    -11.888  0.0000E+00  0.0000E+00  0.0000E+00
    -11.787  0.0000E+00  0.0000E+00  0.0000E+00
    -11.685  0.0000E+00  0.0000E+00  0.0000E+00
    -11.584  0.0000E+00  0.0000E+00  0.0000E+00
    -11.483  0.0000E+00  0.0000E+00  0.0000E+00
    -11.382  0.0000E+00  0.0000E+00  0.0000E+00
    -11.281  0.0000E+00  0.0000E+00  0.0000E+00
    -11.179  0.0000E+00  0.0000E+00  0.0000E+00
    -11.078  0.0000E+00  0.0000E+00  0.0000E+00
    -10.977  0.0000E+00  0.0000E+00  0.0000E+00
    -10.876  0.0000E+00  0.0000E+00  0.0000E+00
    -10.775  0.0000E+00  0.0000E+00  0.0000E+00
    -10.673  0.0000E+00  0.0000E+00  0.0000E+00
    -10.572  0.0000E+00  0.0000E+00  0.0000E+00
    -10.471  0.0000E+00  0.0000E+00  0.0000E+00
    -10.370  0.0000E+00  0.0000E+00  0.0000E+00
    -10.269  0.0000E+00  0.0000E+00  0.0000E+00
    -10.167  0.0000E+00  0.0000E+00  0.0000E+00
    -10.066  0.0000E+00  0.0000E+00  0.0000E+00
     -9.965  0.0000E+00  0.0000E+00  0.0000E+00
     -9.864  0.0000E+00  0.0000E+00  0.0000E+00
     -9.763  0.0000E+00  0.0000E+00  0.0000E+00
     -9.661  0.0000E+00  0.0000E+00  0.0000E+00
     -9.560  0.0000E+00  0.0000E+00  0.0000E+00
     -9.459  0.0000E+00  0.0000E+00  0.0000E+00
     -9.358  0.0000E+00  0.0000E+00  0.0000E+00
     -9.257  0.0000E+00  0.0000E+00  0.0000E+00
     -9.155  0.0000E+00  0.0000E+00  0.0000E+00
     -9.054  0.0000E+00  0.0000E+00  0.0000E+00
     -8.953  0.0000E+00  0.0000E+00  0.0000E+00
     -8.852  0.0000E+00  0.0000E+00  0.0000E+00
     -8.750  0.0000E+00  0.0000E+00  0.0000E+00
     -8.649  0.0000E+00  0.0000E+00  0.0000E+00
     -8.548  0.0000E+00  0.0000E+00  0.0000E+00
     -8.447  0.0000E+00  0.0000E+00  0.0000E+00
     -8.346  0.0000E+00  0.0000E+00  0.0000E+00
     -8.244  0.3174E-17  0.2350E-15  0.4262E-15
     -8.143  0.6789E-07  0.5025E-05  0.9114E-05
     -8.042  0.6103E-06  0.1904E-03  0.1761E-04
     -7.941  0.3191E-05  0.7246E-02  0.2658E-04
     -7.840  0.7364E-06  0.1798E-02  0.2869E-05
     -7.738  0.6191E-05  0.2274E-01  0.4056E-04
     -7.637  0.1787E-05  0.1726E-01  0.2471E-04
     -7.536  0.1451E-04  0.1765E-01  0.2462E-04
     -7.435  0.2344E-04  0.1061E+00  0.6719E-04
     -7.334  0.2418E-04  0.1233E+00  0.2947E-04
     -7.232  0.2538E-04  0.6338E+00  0.6044E-04
     -7.131  0.3761E-04  0.2916E+02  0.4730E-04
     -7.030  0.5484E-04  0.4096E+01  0.7477E-04
     -6.929  0.7806E-05  0.4018E-01  0.1518E-04
     -6.828  0.1803E-04  0.3651E-01  0.4816E-05
     -6.726  0.1795E-04  0.1135E-01  0.9573E-05
     -6.625  0.1818E-13  0.1064E-10  0.4168E-14
     -6.524  0.1105E-04  0.6464E-02  0.2532E-05
     -6.423  0.0000E+00  0.0000E+00  0.0000E+00
     -6.322  0.0000E+00  0.0000E+00  0.0000E+00
     -6.220  0.0000E+00  0.0000E+00  0.0000E+00
     -6.119  0.0000E+00  0.0000E+00  0.0000E+00
     -6.018  0.0000E+00  0.0000E+00  0.0000E+00
     -5.917  0.0000E+00  0.0000E+00  0.0000E+00
     -5.816  0.0000E+00  0.0000E+00  0.0000E+00
     -5.714  0.0000E+00  0.0000E+00  0.0000E+00
     -5.613  0.0000E+00  0.0000E+00  0.0000E+00
     -5.512  0.0000E+00  0.0000E+00  0.0000E+00
     -5.411  0.0000E+00  0.0000E+00  0.0000E+00
     -5.309  0.0000E+00  0.0000E+00  0.0000E+00
     -5.208  0.0000E+00  0.0000E+00  0.0000E+00
     -5.107  0.0000E+00  0.0000E+00  0.0000E+00
     -5.006  0.0000E+00  0.0000E+00  0.0000E+00
     -4.905  0.0000E+00  0.0000E+00  0.0000E+00
     -4.803  0.0000E+00  0.0000E+00  0.0000E+00
     -4.702  0.0000E+00  0.0000E+00  0.0000E+00
     -4.601  0.0000E+00  0.0000E+00  0.0000E+00
     -4.500  0.0000E+00  0.0000E+00  0.0000E+00
     -4.399  0.0000E+00  0.0000E+00  0.0000E+00
     -4.297  0.0000E+00  0.0000E+00  0.0000E+00
     -4.196  0.0000E+00  0.0000E+00  0.0000E+00
     -4.095  0.0000E+00  0.0000E+00  0.0000E+00
     -3.994  0.0000E+00  0.0000E+00  0.0000E+00
     -3.893  0.0000E+00  0.0000E+00  0.0000E+00
     -3.791  0.0000E+00  0.0000E+00  0.0000E+00
     -3.690  0.0000E+00  0.0000E+00  0.0000E+00
     -3.589  0.0000E+00  0.0000E+00  0.0000E+00
     -3.488  0.0000E+00  0.0000E+00  0.0000E+00
     -3.387  0.1829E-04  0.4190E-02  0.3686E-03
     -3.285  0.1162E-04  0.6475E-02  0.5947E-03
     -3.184  0.3745E-03  0.2536E-01  0.2356E-02
     -3.083  0.1740E-03  0.9277E-02  0.8927E-03
     -2.982  0.4971E-04  0.1991E-02  0.3275E-03
     -2.881  0.0000E+00  0.0000E+00  0.0000E+00
     -2.779  0.0000E+00  0.0000E+00  0.0000E+00
     -2.678  0.5568E-03  0.4242E-02  0.2515E-03
     -2.577  0.1411E-02  0.2935E-01  0.1335E-02
     -2.476  0.2112E-02  0.2844E-01  0.1659E-02
     -2.375  0.2122E-02  0.1449E-01  0.1709E-02
     -2.273  0.4354E-02  0.2090E-01  0.3806E-02
     -2.172  0.4929E-03  0.9241E-02  0.1880E-02
     -2.071  0.9411E-02  0.5671E-02  0.2052E-02
     -1.970  0.2656E-01  0.6609E-01  0.5213E-02
     -1.868  0.7292E-03  0.3074E-01  0.3361E-02
     -1.767  0.1519E-02  0.1247E+00  0.7428E-02
     -1.666  0.2315E-02  0.1023E+00  0.6829E-02
     -1.565  0.3315E-02  0.1013E+00  0.1561E-01
     -1.464  0.3583E-02  0.6168E-01  0.1610E-01
     -1.362  0.4940E-02  0.5733E-01  0.1965E-01
     -1.261  0.5472E-02  0.7253E-01  0.1329E-01
     -1.160  0.2207E-02  0.7590E-01  0.1146E-01
     -1.059  0.1220E-02  0.5275E-01  0.9935E-02
     -0.958  0.6383E-03  0.1321E-01  0.2622E-02
     -0.856  0.3894E-03  0.1650E-01  0.4424E-02
     -0.755  0.9872E-03  0.1532E-01  0.2776E-02
     -0.654  0.2266E-03  0.3877E-02  0.1198E-02
     -0.553  0.1110E-03  0.1440E-02  0.2504E-03
     -0.452  0.7261E-04  0.2308E-02  0.9936E-03
     -0.350  0.4883E-04  0.1132E-02  0.2291E-03
     -0.249  0.9639E-05  0.7312E-03  0.5971E-03
     -0.148  0.9834E-06  0.4705E-03  0.1653E-03
     -0.047  0.3968E-05  0.2003E-03  0.8992E-04
      0.054  0.8862E-06  0.2771E-03  0.5123E-04
      0.156  0.1175E-05  0.5304E-03  0.6299E-03
      0.257  0.6678E-06  0.1338E-03  0.6849E-04
      0.358  0.2902E-05  0.2566E-03  0.1840E-03
      0.459  0.2520E-10  0.4798E-07  0.6349E-07
      0.560  0.5671E-07  0.1080E-03  0.1429E-03
      0.662  0.0000E+00  0.0000E+00  0.0000E+00
      0.763  0.0000E+00  0.0000E+00  0.0000E+00
      0.864  0.0000E+00  0.0000E+00  0.0000E+00
      0.965  0.0000E+00  0.0000E+00  0.0000E+00
      1.066  0.0000E+00  0.0000E+00  0.0000E+00
      1.168  0.0000E+00  0.0000E+00  0.0000E+00
      1.269  0.0000E+00  0.0000E+00  0.0000E+00
      1.370  0.0000E+00  0.0000E+00  0.0000E+00
      1.471  0.0000E+00  0.0000E+00  0.0000E+00
      1.573  0.0000E+00  0.0000E+00  0.0000E+00
      1.674  0.0000E+00  0.0000E+00  0.0000E+00
      1.775  0.0000E+00  0.0000E+00  0.0000E+00
      1.876  0.0000E+00  0.0000E+00  0.0000E+00
      1.977  0.0000E+00  0.0000E+00  0.0000E+00
      2.079  0.0000E+00  0.0000E+00  0.0000E+00
      2.180  0.0000E+00  0.0000E+00  0.0000E+00
      2.281  0.0000E+00  0.0000E+00  0.0000E+00
      2.382  0.0000E+00  0.0000E+00  0.0000E+00
      2.483  0.0000E+00  0.0000E+00  0.0000E+00
      2.585  0.7693E-04  0.1241E-03  0.4794E-03
      2.686  0.1571E-03  0.3345E-03  0.2048E-02
      2.787  0.3031E-03  0.1036E-02  0.3262E-02
      2.888  0.1765E-03  0.1280E-03  0.1465E-02
      2.989  0.3713E-03  0.1888E-02  0.3833E-02
      3.091  0.8897E-04  0.1946E-02  0.2686E-02
      3.192  0.6046E-03  0.2788E-02  0.3289E-02
      3.293  0.4511E-03  0.2284E-02  0.2987E-02
      3.394  0.4937E-03  0.1508E-02  0.1133E-02
      3.495  0.1155E-02  0.2750E-02  0.2127E-02
      3.597  0.2059E-03  0.5629E-03  0.4113E-03
      3.698  0.0000E+00  0.0000E+00  0.0000E+00
      3.799  0.0000E+00  0.0000E+00  0.0000E+00
      3.900  0.0000E+00  0.0000E+00  0.0000E+00
      4.001  0.2800E-11  0.1048E-09  0.1315E-09
      4.103  0.1910E-03  0.2891E-02  0.6043E-02
      4.204  0.6100E-04  0.6320E-03  0.1580E-02
      4.305  0.6547E-04  0.9686E-03  0.5794E-02
      4.406  0.6435E-03  0.1699E-02  0.1130E-01
      4.507  0.1844E-02  0.5972E-02  0.1118E-01
      4.609  0.1961E-02  0.7059E-02  0.1401E-01
      4.710  0.3152E-02  0.4752E-02  0.7356E-02
      4.811  0.1355E-01  0.2799E-02  0.4616E-02
      4.912  0.4776E-02  0.2802E-02  0.6200E-02
      5.014  0.9045E-04  0.1237E-03  0.1446E-02
      5.115  0.0000E+00  0.0000E+00  0.0000E+00
      5.216  0.4289E-02  0.2887E-02  0.8191E-03
      5.317  0.4385E-02  0.8722E-03  0.1308E-02
      5.418  0.1216E-01  0.4920E-02  0.5210E-02
      5.520  0.1145E-01  0.8935E-03  0.3893E-02
      5.621  0.1320E-01  0.2743E-02  0.9020E-02
      5.722  0.7370E-02  0.3098E-02  0.1840E-01
      5.823  0.1513E-01  0.6972E-02  0.1336E-01
      5.924  0.7900E-02  0.5587E-02  0.4419E-01
      6.026  0.2056E-01  0.8658E-02  0.5290E-01
      6.127  0.5372E-01  0.1219E-01  0.7142E-01
      6.228  0.1636E-01  0.2445E-01  0.1524E+00
      6.329  0.4810E-01  0.1672E-01  0.4419E+00
      6.430  0.1356E-01  0.1036E-01  0.2729E+00
      6.532  0.2653E-01  0.2519E-01  0.3614E+00
      6.633  0.9604E-02  0.1679E-01  0.3164E+00
      6.734  0.1060E-01  0.5808E-02  0.1352E+00
      6.835  0.0000E+00  0.0000E+00  0.0000E+00
      6.936  0.0000E+00  0.0000E+00  0.0000E+00
      7.038  0.0000E+00  0.0000E+00  0.0000E+00
      7.139  0.0000E+00  0.0000E+00  0.0000E+00
      7.240  0.0000E+00  0.0000E+00  0.0000E+00
      7.341  0.0000E+00  0.0000E+00  0.0000E+00
      7.442  0.0000E+00  0.0000E+00  0.0000E+00
      7.544  0.0000E+00  0.0000E+00  0.0000E+00
      7.645  0.0000E+00  0.0000E+00  0.0000E+00
      7.746  0.0000E+00  0.0000E+00  0.0000E+00
      7.847  0.0000E+00  0.0000E+00  0.0000E+00
      7.948  0.0000E+00  0.0000E+00  0.0000E+00
      8.050  0.0000E+00  0.0000E+00  0.0000E+00
      8.04970249    -22.31207050  301      0.58576663      1.00000000
    -22.312  0.0000E+00  0.0000E+00  0.0000E+00
    -22.211  0.0000E+00  0.0000E+00  0.0000E+00
    -22.110  0.0000E+00  0.0000E+00  0.0000E+00
    -22.008  0.0000E+00  0.0000E+00  0.0000E+00
    -21.907  0.0000E+00  0.0000E+00  0.0000E+00
    -21.806  0.0000E+00  0.0000E+00  0.0000E+00
    -21.705  0.0000E+00  0.0000E+00  0.0000E+00
    -21.604  0.0000E+00  0.0000E+00  0.0000E+00
    -21.502  0.0000E+00  0.0000E+00  0.0000E+00
    -21.401  0.0000E+00  0.0000E+00  0.0000E+00
    -21.300  0.0000E+00  0.0000E+00  0.0000E+00
    -21.199  0.0000E+00  0.0000E+00  0.0000E+00
    -21.098  0.0000E+00  0.0000E+00  0.0000E+00
    -20.996  0.0000E+00  0.0000E+00  0.0000E+00
    -20.895  0.1754E+02  0.4092E-03  0.1892E-04
    -20.794  0.1406E-02  0.1130E-06  0.8908E-08
    -20.693  0.7153E-06  0.2180E-08  0.2759E-09
    -20.592  0.1057E-03  0.1222E-06  0.1707E-07
    -20.490  0.0000E+00  0.0000E+00  0.0000E+00
    -20.389  0.0000E+00  0.0000E+00  0.0000E+00
    -20.288  0.0000E+00  0.0000E+00  0.0000E+00
    -20.187  0.0000E+00  0.0000E+00  0.0000E+00
    -20.086  0.0000E+00  0.0000E+00  0.0000E+00
    -19.984  0.0000E+00  0.0000E+00  0.0000E+00
    -19.883  0.0000E+00  0.0000E+00  0.0000E+00
    -19.782  0.0000E+00  0.0000E+00  0.0000E+00
    -19.681  0.0000E+00  0.0000E+00  0.0000E+00
    -19.580  0.0000E+00  0.0000E+00  0.0000E+00
    -19.478  0.0000E+00  0.0000E+00  0.0000E+00
    -19.377  0.0000E+00  0.0000E+00  0.0000E+00
    -19.276  0.0000E+00  0.0000E+00  0.0000E+00
    -19.175  0.0000E+00  0.0000E+00  0.0000E+00
    -19.073  0.0000E+00  0.0000E+00  0.0000E+00
    -18.972  0.0000E+00  0.0000E+00  0.0000E+00
    -18.871  0.0000E+00  0.0000E+00  0.0000E+00
    -18.770  0.0000E+00  0.0000E+00  0.0000E+00
    -18.669  0.0000E+00  0.0000E+00  0.0000E+00
    -18.567  0.0000E+00  0.0000E+00  0.0000E+00
    -18.466  0.0000E+00  0.0000E+00  0.0000E+00
    -18.365  0.0000E+00  0.0000E+00  0.0000E+00
    -18.264  0.0000E+00  0.0000E+00  0.0000E+00
    -18.163  0.0000E+00  0.0000E+00  0.0000E+00
    -18.061  0.0000E+00  0.0000E+00  0.0000E+00
    -17.960  0.0000E+00  0.0000E+00  0.0000E+00
    -17.859  0.0000E+00  0.0000E+00  0.0000E+00
    -17.758  0.0000E+00  0.0000E+00  0.0000E+00
    -17.657  0.0000E+00  0.0000E+00  0.0000E+00
    -17.555  0.1492E-06  0.3965E-07  0.6450E-08
    -17.454  0.0000E+00  0.0000E+00  0.0000E+00
    -17.353  0.0000E+00  0.0000E+00  0.0000E+00
    -17.252  0.0000E+00  0.0000E+00  0.0000E+00
    -17.151  0.0000E+00  0.0000E+00  0.0000E+00
    -17.049  0.0000E+00  0.0000E+00  0.0000E+00
    -16.948  0.0000E+00  0.0000E+00  0.0000E+00
    -16.847  0.0000E+00  0.0000E+00  0.0000E+00
    -16.746  0.0000E+00  0.0000E+00  0.0000E+00
    -16.645  0.8406E-05  0.6887E-05  0.1377E-05
    -16.543  0.3528E-05  0.2197E-05  0.3378E-06
    -16.442  0.2465E-04  0.1214E-04  0.1704E-05
    -16.341  0.4490E-04  0.6423E-04  0.1148E-04
    -16.240  0.4675E-04  0.3971E-04  0.4992E-05
    -16.139  0.2696E-04  0.1782E-04  0.2094E-05
    -16.037  0.0000E+00  0.0000E+00  0.0000E+00
    -15.936  0.0000E+00  0.0000E+00  0.0000E+00
    -15.835  0.0000E+00  0.0000E+00  0.0000E+00
    -15.734  0.0000E+00  0.0000E+00  0.0000E+00
    -15.632  0.0000E+00  0.0000E+00  0.0000E+00
    -15.531  0.0000E+00  0.0000E+00  0.0000E+00
    -15.430  0.0000E+00  0.0000E+00  0.0000E+00
    -15.329  0.0000E+00  0.0000E+00  0.0000E+00
    -15.228  0.0000E+00  0.0000E+00  0.0000E+00
    -15.126  0.0000E+00  0.0000E+00  0.0000E+00
    -15.025  0.0000E+00  0.0000E+00  0.0000E+00
    -14.924  0.0000E+00  0.0000E+00  0.0000E+00
    -14.823  0.0000E+00  0.0000E+00  0.0000E+00
    -14.722  0.0000E+00  0.0000E+00  0.0000E+00
    -14.620  0.1655E-03  0.1250E-03  0.5365E-05
    -14.519  0.0000E+00  0.0000E+00  0.0000E+00
    -14.418  0.1399E-16  0.2500E-17  0.9397E-19
    -14.317  0.1116E-02  0.6302E-03  0.1698E-04
    -14.216  0.2821E-02  0.3027E-02  0.7383E-04
    -14.114  0.1047E-02  0.3493E-02  0.1279E-03
    -14.013  0.2612E-02  0.7405E-02  0.5368E-03
    -13.912  0.8902E-03  0.2411E-02  0.2437E-03
    -13.811  0.7470E-03  0.2825E-02  0.3628E-03
    -13.710  0.1494E-03  0.1136E-02  0.1923E-03
    -13.608  0.7187E-05  0.1474E-03  0.3323E-04
    -13.507  0.0000E+00  0.0000E+00  0.0000E+00
    -13.406  0.0000E+00  0.0000E+00  0.0000E+00
    -13.305  0.0000E+00  0.0000E+00  0.0000E+00