 vasp.5.4.4.18Apr17-6-g9f103f2a35 (build Jun 22 2020 09:27:21) complex           
 executed on tx2_gcc-7.3_libsci-1 date 2021.10.12  03:03:15
 running on   64 total cores
 distrk:  each k-point on   64 cores,    1 groups
 distr:  one band on NCORES_PER_BAND=   8 cores,    8 groups


--------------------------------------------------------------------------------------------------------


 INCAR:
 POTCAR:    PAW_PBE Cs_sv 08Apr2002               
 POTCAR:    PAW_PBE Pb_d 06Sep2000                
 POTCAR:    PAW_PBE Br 06Sep2000                  
 POTCAR:    PAW_PBE Cs_sv 08Apr2002               
   SHA256 =  c1463496f0f6037ed62c6012a8013a89ee9ad6ffb38599dcd6c079e7ed31779b Cs
   COPYR  = (c) Copyright 08Apr2002 Georg Kresse                                
   COPYR  = This file is part of the software VASP. Any use, copying, and all ot
   COPYR  = If you do not have a valid VASP license, you may not use, copy or di
   VRHFIN =Cs: 5s5p6s                                                           
   LEXCH  = PE                                                                  
   EATOM  =   555.6835 eV,   40.8416 Ry                                         
                                                                                
   TITEL  = PAW_PBE Cs_sv 08Apr2002                                             
   LULTRA =        F    use ultrasoft PP ?                                      
   IUNSCR =        1    unscreen: 0-lin 1-nonlin 2-no                           
   RPACOR =    2.200    partial core radius                                     
   POMASS =  132.900; ZVAL   =    9.000    mass and valenz                      
   RCORE  =    2.500    outmost cutoff radius                                   
   RWIGS  =    2.500; RWIGS  =    1.323    wigner-seitz radius (au A)           
   ENMAX  =  220.318; ENMIN  =  165.238 eV                                      
   RCLOC  =    2.207    cutoff for local pot                                    
   LCOR   =        T    correct aug charges                                     
   LPAW   =        T    paw PP                                                  
   EAUG   =  407.933                                                            
   DEXC   =    0.000                                                            
   RMAX   =    2.554    core radius for proj-oper                               
   RAUG   =    1.300    factor for augmentation sphere                          
   RDEP   =    2.590    radius for radial grids                                 
   RDEPT  =    2.117    core radius for aug-charge                              
                                                                                
   Atomic configuration                                                         
   13 entries                                                                   
     n  l   j            E        occ.                                          
     1  0  0.50    -35790.1377   2.0000                                         
     2  0  0.50     -5613.6201   2.0000                                         
     2  1  1.50     -5035.0101   6.0000                                         
     3  0  0.50     -1167.0767   2.0000                                         
     3  1  1.50      -980.9754   6.0000                                         
     3  2  2.50      -708.0703  10.0000                                         
     4  0  0.50      -220.2386   2.0000                                         
     4  1  1.50      -160.7596   6.0000                                         
     4  2  2.50       -74.2354  10.0000                                         
     5  0  0.50       -26.7287   2.0000                                         
     6  0  0.50        -2.0862   1.0000                                         
     5  1  1.50       -13.5159   6.0000                                         
     5  2  2.50        -0.4136   0.0000                                         
   Description                                                                  
     l       E           TYP  RCUT    TYP  RCUT                                 
     0    -26.7287425     23  1.900                                             
     0     -2.0862306     23  1.900                                             
     1    -13.5158719     23  2.500                                             
     1     -2.7211652     23  2.500                                             
     2     -0.4136171     23  2.500                                             
  local pseudopotential read in
  partial core-charges read in
  partial kinetic energy density read in
  atomic valenz-charges read in
  non local Contribution for L=           0  read in
    real space projection operators read in
  non local Contribution for L=           0  read in
    real space projection operators read in
  non local Contribution for L=           1  read in
    real space projection operators read in
  non local Contribution for L=           1  read in
    real space projection operators read in
  non local Contribution for L=           2  read in
    real space projection operators read in
    PAW grid and wavefunctions read in

   number of l-projection  operators is LMAX  =           5
   number of lm-projection operators is LMMAX =          13

 POTCAR:    PAW_PBE Pb_d 06Sep2000                
   SHA256 =  fb885b08f0fba73a15f6a6b0e39bd200c13ec96ef97cf3ecd8e63bade5137abd Pb
   COPYR  = (c) Copyright 06Sep2000 Georg Kresse                                
   COPYR  = This file is part of the software VASP. Any use, copying, and all ot
   COPYR  = If you do not have a valid VASP license, you may not use, copy or di
   VRHFIN =Pb:                                                                  
   LEXCH  = PE                                                                  
   EATOM  =  1661.6185 eV,  122.1255 Ry                                         
                                                                                
   TITEL  = PAW_PBE Pb_d 06Sep2000                                              
   LULTRA =        F    use ultrasoft PP ?                                      
   IUNSCR =        1    unscreen: 0-lin 1-nonlin 2-no                           
   RPACOR =    2.200    partial core radius                                     
   POMASS =  207.200; ZVAL   =   14.000    mass and valenz                      
   RCORE  =    2.500    outmost cutoff radius                                   
   RWIGS  =    3.260; RWIGS  =    1.725    wigner-seitz radius (au A)           
   ENMAX  =  237.835; ENMIN  =  178.376 eV                                      
   ICORE  =        3    local potential                                         
   LCOR   =        T    correct aug charges                                     
   LPAW   =        T    paw PP                                                  
   EAUG   =  391.914                                                            
   DEXC   =    0.000                                                            
   RMAX   =    2.565    core radius for proj-oper                               
   RAUG   =    1.300    factor for augmentation sphere                          
   RDEP   =    2.643    radius for radial grids                                 
   RDEPT  =    2.092    core radius for aug-charge                              
                                                                                
   Atomic configuration                                                         
   16 entries                                                                   
     n  l   j            E        occ.                                          
     1  0  0.50    -88091.8466   2.0000                                         
     2  0  0.50    -15753.4197   2.0000                                         
     2  1  1.50    -13508.1797   6.0000                                         
     3  0  0.50     -3781.7194   2.0000                                         
     3  1  1.50     -3138.2529   6.0000                                         
     3  2  2.50     -2483.2977  10.0000                                         
     4  0  0.50      -856.2895   2.0000                                         
     4  1  1.50      -645.4942   6.0000                                         
     4  2  2.50      -401.8768  10.0000                                         
     4  3  3.50      -132.9059  14.0000                                         
     5  0  0.50      -144.0950   2.0000                                         
     5  1  1.50       -85.7879   6.0000                                         
     5  2  2.50       -21.1769  10.0000                                         
     6  0  0.50       -12.0372   2.0000                                         
     6  1  1.50        -3.4971   2.0000                                         
     5  3  2.50        -2.7212   0.0000                                         
   Description                                                                  
     l       E           TYP  RCUT    TYP  RCUT                                 
     2    -21.1768523     23  2.500                                             
     2      1.3605826     23  2.500                                             
     0    -12.0371562     23  2.500                                             
     0     13.6058260     23  2.500                                             
     1     -3.4971339     23  2.500                                             
     1     13.6058260     23  2.500                                             
     3     -1.3605826      7  2.500                                             
  local pseudopotential read in
  partial core-charges read in
  partial kinetic energy density read in
  atomic valenz-charges read in
  non local Contribution for L=           2  read in
    real space projection operators read in
  non local Contribution for L=           2  read in
    real space projection operators read in
  non local Contribution for L=           0  read in
    real space projection operators read in
  non local Contribution for L=           0  read in
    real space projection operators read in
  non local Contribution for L=           1  read in
    real space projection operators read in
  non local Contribution for L=           1  read in
    real space projection operators read in
    PAW grid and wavefunctions read in

   number of l-projection  operators is LMAX  =           6
   number of lm-projection operators is LMMAX =          18

 POTCAR:    PAW_PBE Br 06Sep2000                  
   SHA256 =  96a73d2954943bbee26f4990d676cc6c3bf44b8dd2c75cd4b3b825d8403f0103 Br
   COPYR  = (c) Copyright 06Sep2000 Georg Kresse                                
   COPYR  = This file is part of the software VASP. Any use, copying, and all ot
   COPYR  = If you do not have a valid VASP license, you may not use, copy or di
   VRHFIN =Br: s2p5                                                             
   LEXCH  = PE                                                                  
   EATOM  =   368.4488 eV,   27.0802 Ry                                         
                                                                                
   TITEL  = PAW_PBE Br 06Sep2000                                                
   LULTRA =        F    use ultrasoft PP ?                                      
   IUNSCR =        1    unscreen: 0-lin 1-nonlin 2-no                           
   RPACOR =    1.900    partial core radius                                     
   POMASS =   79.904; ZVAL   =    7.000    mass and valenz                      
   RCORE  =    2.100    outmost cutoff radius                                   
   RWIGS  =    2.200; RWIGS  =    1.164    wigner-seitz radius (au A)           
   ENMAX  =  216.285; ENMIN  =  162.214 eV                                      
   ICORE  =        3    local potential                                         
   LCOR   =        T    correct aug charges                                     
   LPAW   =        T    paw PP                                                  
   EAUG   =  503.852                                                            
   DEXC   =    0.000                                                            
   RMAX   =    2.139    core radius for proj-oper                               
   RAUG   =    1.300    factor for augmentation sphere                          
   RDEP   =    2.186    radius for radial grids                                 
   RDEPT  =    1.890    core radius for aug-charge                              
                                                                                
   Atomic configuration                                                         
   10 entries                                                                   
     n  l   j            E        occ.                                          
     1  0  0.50    -13316.2796   2.0000                                         
     2  0  0.50     -1732.8239   2.0000                                         
     2  1  1.50     -1528.2193   6.0000                                         
     3  0  0.50      -238.0460   2.0000                                         
     3  1  1.50      -173.4609   6.0000                                         
     3  2  2.50       -66.7132  10.0000                                         
     4  0  0.50       -20.1334   2.0000                                         
     4  1  0.50        -7.8591   5.0000                                         
     4  2  2.50        -8.1635   0.0000                                         
     4  3  2.50        -8.1635   0.0000                                         
   Description                                                                  
     l       E           TYP  RCUT    TYP  RCUT                                 
     0    -20.1333652     23  2.100                                             
     0    -21.4939478     23  2.100                                             
     1     -7.8591052     23  2.100                                             
     1     -3.1608434     23  2.100                                             
     2     -8.1634956     23  2.100                                             
     3     -1.3605826      7  2.100                                             
  local pseudopotential read in
  partial core-charges read in
  partial kinetic energy density read in
  atomic valenz-charges read in
  non local Contribution for L=           0  read in
    real space projection operators read in
  non local Contribution for L=           0  read in
    real space projection operators read in
  non local Contribution for L=           1  read in
    real space projection operators read in
  non local Contribution for L=           1  read in
    real space projection operators read in
  non local Contribution for L=           2  read in
    real space projection operators read in
    PAW grid and wavefunctions read in

   number of l-projection  operators is LMAX  =           5
   number of lm-projection operators is LMMAX =          13

 Optimization of the real space projectors (new method)

 maximal supplied QI-value         = 15.12
 optimisation between [QCUT,QGAM] = [  8.77, 17.69] = [ 21.53, 87.61] Ry 
 Optimized for a Real-space Cutoff    1.85 Angstroem

   l    n(q)    QCUT    max X(q) W(low)/X(q) W(high)/X(q)  e(spline) 
   0     10     8.768    25.322    0.81E-04    0.51E-04    0.48E-06
   0     10     8.768    99.187    0.78E-04    0.50E-04    0.47E-06
   1      9     8.768    11.761    0.21E-03    0.20E-03    0.37E-06
   1      9     8.768     8.275    0.24E-03    0.22E-03    0.41E-06
   2      9     8.768     3.829    0.23E-04    0.15E-03    0.18E-06
 Optimization of the real space projectors (new method)

 maximal supplied QI-value         = 15.12
 optimisation between [QCUT,QGAM] = [  8.77, 17.69] = [ 21.53, 87.61] Ry 
 Optimized for a Real-space Cutoff    1.59 Angstroem

   l    n(q)    QCUT    max X(q) W(low)/X(q) W(high)/X(q)  e(spline) 
   2      7     8.768     3.846    0.48E-04    0.11E-03    0.11E-06
   2      7     8.768     8.593    0.20E-03    0.22E-04    0.24E-06
   0      8     8.768    20.082    0.68E-04    0.88E-04    0.41E-07
   0      8     8.768     8.597    0.89E-04    0.13E-03    0.59E-07
   1      8     8.768    33.223    0.15E-03    0.53E-04    0.87E-07
   1      8     8.768    15.899    0.14E-03    0.44E-04    0.78E-07
 Optimization of the real space projectors (new method)

 maximal supplied QI-value         = 17.95
 optimisation between [QCUT,QGAM] = [  8.80, 17.59] = [ 21.67, 86.68] Ry 
 Optimized for a Real-space Cutoff    1.59 Angstroem

   l    n(q)    QCUT    max X(q) W(low)/X(q) W(high)/X(q)  e(spline) 
   0      8     8.797   175.082    0.82E-04    0.14E-03    0.89E-07
   0      8     8.797   174.004    0.79E-04    0.14E-03    0.86E-07
   1      8     8.797    54.315    0.16E-03    0.14E-04    0.30E-06
   1      8     8.797    42.441    0.16E-03    0.14E-04    0.30E-06
   2      7     8.797     3.596    0.92E-04    0.15E-03    0.85E-07
  PAW_PBE Cs_sv 08Apr2002               :
 energy of atom  1       EATOM= -555.6835
 kinetic energy error for atom=    0.0069 (will be added to EATOM!!)
  PAW_PBE Pb_d 06Sep2000                :
 energy of atom  2       EATOM=-1661.6185
 kinetic energy error for atom=    0.0498 (will be added to EATOM!!)
  PAW_PBE Br 06Sep2000                  :
 energy of atom  3       EATOM= -368.4488
 kinetic energy error for atom=    0.0072 (will be added to EATOM!!)


 POSCAR: Cs8 Pb8 Br23                            
  positions in direct lattice
  No initial velocities read in

 METAGGA = SCAN     LMAXTAU =  6    LMIXTAU =  F

 exchange correlation table for  LEXCH =        8
   RHO(1)=    0.500       N(1)  =     2000
   RHO(2)=  100.500       N(2)  =     4000

 VTST: version 3.2, (02/03/18)

 CHAIN: initializing optimizer
 
 OPT: Using VASP Conjugate-Gradient optimizer
 CHAIN: Read ICHAIN            0

 POSCAR: Cs8 Pb8 Br23                            
  positions in direct lattice
  No initial velocities read in



--------------------------------------------------------------------------------------------------------


 ion  position               nearest neighbor table
   1  0.267  0.247  0.202-
   2  0.778  0.246  0.710-
   3  0.720  0.753  0.266-
   4  0.200  0.750  0.774-
   5  0.276  0.242  0.732-
   6  0.797  0.249  0.228-
   7  0.744  0.758  0.804-
   8  0.216  0.754  0.286-
   9  0.000  0.001  0.001-  19 2.97  21 2.97  29 2.99  32 2.99  35 3.00  30 3.00
  10  0.500  0.005  0.500-  20 2.95  31 2.99  34 2.99  33 2.99  28 2.99
  11  0.500  0.999  0.000-  30 2.99  32 2.99  22 3.01  17 3.01  28 3.02  34 3.04
  12  0.001  1.000  0.500-  23 2.98  18 2.98  35 2.98  29 3.00  33 3.01  31 3.03
  13  0.498  0.502  0.008-  17 2.97  24 2.97  22 2.98  26 2.98  36 2.98
  14  0.001  0.500  0.500-  23 2.97  18 2.97  27 3.01  38 3.01  25 3.03  37 3.04
  15  0.000  0.499  0.000-  19 2.96  21 2.97  38 3.00  27 3.01  36 3.01  24 3.03
  16  0.499  0.495  0.494-  39 2.24  26 2.91  20 2.92  25 2.97  37 2.99
  17  0.474  0.748  0.952-  13 2.97  11 3.01
  18  0.967  0.750  0.469-  14 2.97  12 2.98
  19  0.970  0.250  0.969-  15 2.96   9 2.97
  20  0.455  0.251  0.473-  16 2.92  10 2.95
  21  0.024  0.750  0.028-  15 2.97   9 2.97
  22  0.528  0.252  0.036-  13 2.98  11 3.01
  23  0.028  0.250  0.531-  14 2.97  12 2.98
  24  0.250  0.469  0.948-  13 2.97  15 3.03
  25  0.746  0.466  0.448-  16 2.97  14 3.03
  26  0.449  0.545  0.252-  16 2.91  13 2.98
  27  0.946  0.530  0.747-  14 3.01  15 3.01
  28  0.551  0.034  0.752-  10 2.99  11 3.02
  29  0.050  0.034  0.252-   9 2.99  12 3.00
  30  0.752  0.972  0.051-  11 2.99   9 3.00
  31  0.255  0.959  0.549-  10 2.99  12 3.03
  32  0.248  0.029  0.953-  11 2.99   9 2.99
  33  0.747  0.033  0.450-  10 2.99  12 3.01
  34  0.453  0.955  0.250-  10 2.99  11 3.04
  35  0.954  0.973  0.747-  12 2.98   9 3.00
  36  0.751  0.531  0.047-  13 2.98  15 3.01
  37  0.257  0.538  0.552-  16 2.99  14 3.04
  38  0.052  0.467  0.253-  15 3.00  14 3.01
  39  0.549  0.607  0.644-  16 2.24


IMPORTANT INFORMATION: All symmetrisations will be switched off!
NOSYMM: (Re-)initialisation of all symmetry stuff for point group C_1.



 KPOINTS: 1x1x1                                   

Automatic generation of k-mesh.
Space group operators:
 irot       det(A)        alpha          n_x          n_y          n_z        tau_x        tau_y        tau_z
    1     1.000000     0.000001     1.000000     0.000000     0.000000     0.000000     0.000000     0.000000
 
 Subroutine IBZKPT returns following result:
 ===========================================
 
 Found      8 irreducible k-points:
 
 Following reciprocal coordinates:
            Coordinates               Weight
  0.000000  0.000000  0.000000      1.000000
  0.500000  0.000000  0.000000      1.000000
  0.000000  0.500000  0.000000      1.000000
  0.500000  0.500000  0.000000      1.000000
  0.000000  0.000000  0.500000      1.000000
  0.500000  0.000000  0.500000      1.000000
  0.000000  0.500000  0.500000      1.000000
  0.500000  0.500000  0.500000      1.000000
 
 Following cartesian coordinates:
            Coordinates               Weight
 -0.000000  0.000000  0.000000      1.000000
  0.029563  0.000000  0.031093      1.000000
 -0.000000  0.042626  0.000000      1.000000
  0.029563  0.042626  0.031093      1.000000
 -0.029563  0.000000  0.031093      1.000000
  0.000000  0.000000  0.062187      1.000000
 -0.029563  0.042626  0.031093      1.000000
  0.000000  0.042626  0.062187      1.000000
 


--------------------------------------------------------------------------------------------------------




 Dimension of arrays:
   k-points           NKPTS =      8   k-points in BZ     NKDIM =      8   number of bands    NBANDS=    208
   number of dos      NEDOS =    301   number of ions     NIONS =     39
   non local maximal  LDIM  =      6   non local SUM 2l+1 LMDIM =     18
   total plane-waves  NPLWV = 343000
   max r-space proj   IRMAX =   5734   max aug-charges    IRDMAX=  91523
   dimension x,y,z NGX =    70 NGY =   70 NGZ =   70
   dimension x,y,z NGXF=   140 NGYF=  140 NGZF=  140
   support grid    NGXF=   280 NGYF=  280 NGZF=  280
   ions per type =               8   8  23
   NGX,Y,Z   is equivalent  to a cutoff of   9.97,  9.92,  9.97 a.u.
   NGXF,Y,Z  is equivalent  to a cutoff of  19.95, 19.84, 19.95 a.u.

 SYSTEM =  CsPbBr3 cubic bulk                      
 POSCAR =  Cs8 Pb8 Br23                            

 Startparameter for this run:
   NWRITE =      2    write-flag & timer
   PREC   = accura    normal or accurate (medium, high low for compatibility)
   ISTART =      0    job   : 0-new  1-cont  2-samecut
   ICHARG =      2    charge: 1-file 2-atom 10-const
   ISPIN  =      1    spin polarized calculation?
   LNONCOLLINEAR =      F non collinear calculations
   LSORBIT =      F    spin-orbit coupling
   INIWAV =      1    electr: 0-lowe 1-rand  2-diag
   LASPH  =      T    aspherical Exc in radial PAW
   METAGGA=      F    non-selfconsistent MetaGGA calc.

 Electronic Relaxation 1
   ENCUT  =  300.0 eV  22.05 Ry    4.70 a.u.  16.48 16.57 16.48*2*pi/ulx,y,z
   ENINI  =  300.0     initial cutoff
   ENAUG  =  503.9 eV  augmentation charge cutoff
   NELM   =    200;   NELMIN=  2; NELMDL= -5     # of ELM steps 
   EDIFF  = 0.1E-05   stopping-criterion for ELM
   LREAL  =      T    real-space projection
   NLSPLINE    = F    spline interpolate recip. space projectors
   LCOMPAT=      F    compatible to vasp.4.4
   GGA_COMPAT  = T    GGA compatible to vasp.4.4-vasp.4.6
   LMAXPAW     = -100 max onsite density
   LMAXMIX     =    2 max onsite mixed and CHGCAR
   VOSKOWN=      0    Vosko Wilk Nusair interpolation
   ROPT   =   -0.00025  -0.00025  -0.00025
 Ionic relaxation
   EDIFFG = -.1E-01   stopping-criterion for IOM
   NSW    =      0    number of steps for IOM
   NBLOCK =      1;   KBLOCK =      1    inner block; outer block 
   IBRION =     -1    ionic relax: 0-MD 1-quasi-New 2-CG
   NFREE  =      1    steps in history (QN), initial steepest desc. (CG)
   ISIF   =      2    stress and relaxation
   IWAVPR =     10    prediction:  0-non 1-charg 2-wave 3-comb
   ISYM   =      0    0-nonsym 1-usesym 2-fastsym
   LCORR  =      T    Harris-Foulkes like correction to forces

   POTIM  = 0.5000    time-step for ionic-motion
   TEIN   =    0.0    initial temperature
   TEBEG  =    0.0;   TEEND  =   0.0 temperature during run
   SMASS  =  -3.00    Nose mass-parameter (am)
   estimated Nose-frequenzy (Omega)   =  0.10E-29 period in steps =****** mass=  -0.311E-26a.u.
   SCALEE = 1.0000    scale energy and forces
   NPACO  =    256;   APACO  = 16.0  distance and # of slots for P.C.
   PSTRESS=    0.0 pullay stress

  Mass of Ions in am
   POMASS = 132.90207.20 79.90
  Ionic Valenz
   ZVAL   =   9.00 14.00  7.00
  Atomic Wigner-Seitz radii
   RWIGS  =  -1.00 -1.00 -1.00
  virtual crystal weights 
   VCA    =   1.00  1.00  1.00
   NELECT =     344.0000    total number of electrons
   NUPDOWN=       0.0000    fix difference up-down

 DOS related values:
   EMIN   =  10.00;   EMAX   =-10.00  energy-range for DOS
   EFERMI =   0.00
   ISMEAR =     0;   SIGMA  =   0.01  broadening in eV -4-tet -1-fermi 0-gaus

 Electronic relaxation 2 (details)
   IALGO  =     38    algorithm
   LDIAG  =      T    sub-space diagonalisation (order eigenvalues)
   LSUBROT=      F    optimize rotation matrix (better conditioning)
   TURBO    =      0    0=normal 1=particle mesh
   IRESTART =      0    0=no restart 2=restart with 2 vectors
   NREBOOT  =      0    no. of reboots
   NMIN     =      0    reboot dimension
   EREF     =   0.00    reference energy to select bands
   IMIX   =      4    mixing-type and parameters
     AMIX     =   0.40;   BMIX     =  1.00
     AMIX_MAG =   1.60;   BMIX_MAG =  1.00
     AMIN     =   0.10
     WC   =   100.;   INIMIX=   1;  MIXPRE=   1;  MAXMIX= -45

 Intra band minimization:
   WEIMIN = 0.0000     energy-eigenvalue tresh-hold
   EBREAK =  0.12E-08  absolut break condition
   DEPER  =   0.30     relativ break condition  

   TIME   =   0.40     timestep for ELM

  volume/ion in A,a.u.               =      40.90       276.00
  Fermi-wavevector in a.u.,A,eV,Ry     =   0.981747  1.855232 13.113654  0.963826
  Thomas-Fermi vector in A             =   2.112777

 Write flags
   LWAVE        =      F    write WAVECAR
   LDOWNSAMPLE  =      F    k-point downsampling of WAVECAR
   LCHARG       =      F    write CHGCAR
   LVTOT        =      F    write LOCPOT, total local potential
   LVHAR        =      T    write LOCPOT, Hartree potential only
   LELF         =      F    write electronic localiz. function (ELF)
   LORBIT       =     10    0 simple, 1 ext, 2 COOP (PROOUT), +10 PAW based schemes


 Dipole corrections
   LMONO  =      F    monopole corrections only (constant potential shift)
   LDIPOL =      F    correct potential (dipole corrections)
   IDIPOL =      0    1-x, 2-y, 3-z, 4-all directions 
   EPSILON=  1.0000000 bulk dielectric constant

 Exchange correlation treatment:
   GGA     =    --    GGA type
   LEXCH   =     8    internal setting for exchange type
   VOSKOWN=      0    Vosko Wilk Nusair interpolation
   LHFCALC =     F    Hartree Fock is set to
   LHFONE  =     F    Hartree Fock one center treatment
   AEXX    =    0.0000 exact exchange contribution

 Linear response parameters
   LEPSILON=     F    determine dielectric tensor
   LRPA    =     F    only Hartree local field effects (RPA)
   LNABLA  =     F    use nabla operator in PAW spheres
   LVEL    =     F    velocity operator in full k-point grid
   LINTERFAST=   F  fast interpolation
   KINTER  =     0    interpolate to denser k-point grid
   CSHIFT  =0.1000    complex shift for real part using Kramers Kronig
   OMEGAMAX=  -1.0    maximum frequency
   DEG_THRESHOLD= 0.2000000E-02 threshold for treating states as degnerate
   RTIME   =   -0.100 relaxation time in fs
  (WPLASMAI=    0.000 imaginary part of plasma frequency in eV, 0.658/RTIME)
   DFIELD  = 0.0000000 0.0000000 0.0000000 field for delta impulse in time

 Orbital magnetization related:
   ORBITALMAG=     F  switch on orbital magnetization
   LCHIMAG   =     F  perturbation theory with respect to B field
   DQ        =  0.001000  dq finite difference perturbation B field
   LLRAUG    =     F  two centre corrections for induced B field



--------------------------------------------------------------------------------------------------------


 Static calculation
 charge density and potential will be updated during run
 non-spin polarized calculation
 Variant of blocked Davidson
 Davidson routine will perform the subspace rotation
 perform sub-space diagonalisation
    after iterative eigenvector-optimisation
 modified Broyden-mixing scheme, WC =      100.0
 initial mixing is a Kerker type mixing with AMIX =  0.4000 and BMIX =      1.0000
 Hartree-type preconditioning will be used
 using additional bands           36
 real space projection scheme for non local part
 use partial core corrections
 calculate Harris-corrections to forces   (improved forces if not selfconsistent)
 use gradient corrections 
 use of overlap-Matrix (Vanderbilt PP)
 Gauss-broadening in eV      SIGMA  =   0.01


--------------------------------------------------------------------------------------------------------


  energy-cutoff  :      300.00
  volume of cell :     1595.09
      direct lattice vectors                 reciprocal lattice vectors
     8.456489000  0.000000000  8.040301000     0.059126193 -0.000000000  0.062186727
     0.000000000 11.729847000  0.000000000     0.000000000  0.085252604 -0.000000000
    -8.456489000  0.000000000  8.040301000    -0.059126193  0.000000000  0.062186727

  length of vectors
    11.668703715 11.729847000 11.668703715     0.085808482  0.085252604  0.085808482



 k-points in units of 2pi/SCALE and weight: 1x1x1                                   
  -0.00000000  0.00000000  0.00000000       0.125
   0.02956310  0.00000000  0.03109336       0.125
  -0.00000000  0.04262630  0.00000000       0.125
   0.02956310  0.04262630  0.03109336       0.125
  -0.02956310  0.00000000  0.03109336       0.125
   0.00000000  0.00000000  0.06218673       0.125
  -0.02956310  0.04262630  0.03109336       0.125
   0.00000000  0.04262630  0.06218673       0.125

 k-points in reciprocal lattice and weights: 1x1x1                                   
   0.00000000  0.00000000  0.00000000       0.125
   0.50000000  0.00000000  0.00000000       0.125
   0.00000000  0.50000000  0.00000000       0.125
   0.50000000  0.50000000  0.00000000       0.125
   0.00000000  0.00000000  0.50000000       0.125
   0.50000000  0.00000000  0.50000000       0.125
   0.00000000  0.50000000  0.50000000       0.125
   0.50000000  0.50000000  0.50000000       0.125

 position of ions in fractional coordinates (direct lattice) 
   0.26687300  0.24663800  0.20179000
   0.77785100  0.24638700  0.71045800
   0.71978800  0.75304100  0.26558200
   0.20047000  0.75048400  0.77444700
   0.27606000  0.24231700  0.73208900
   0.79708000  0.24927100  0.22750200
   0.74363700  0.75846600  0.80352700
   0.21560400  0.75370500  0.28602000
   0.00040200  0.00131500  0.00089100
   0.49958400  0.00485500  0.49952800
   0.50037700  0.99894600  0.00031300
   0.00051500  0.99961800  0.49953600
   0.49834500  0.50211800  0.00844100
   0.00120700  0.50002300  0.50033300
   0.00031800  0.49905000  0.00006900
   0.49933100  0.49495500  0.49418000
   0.47428600  0.74804900  0.95182700
   0.96673000  0.74959600  0.46946900
   0.96980000  0.25047800  0.96918900
   0.45455300  0.25096600  0.47306900
   0.02358400  0.75012000  0.02808400
   0.52843300  0.25157400  0.03629200
   0.02844800  0.24992900  0.53115000
   0.25013800  0.46852200  0.94755800
   0.74606100  0.46594200  0.44846600
   0.44864400  0.54484500  0.25236400
   0.94602100  0.52991500  0.74734300
   0.55111300  0.03426800  0.75169700
   0.05048600  0.03383800  0.25219200
   0.75225100  0.97171900  0.05087500
   0.25507500  0.95908300  0.54854100
   0.24815200  0.02858300  0.95260100
   0.74702300  0.03330200  0.44970500
   0.45329800  0.95544100  0.25032200
   0.95393500  0.97346000  0.74715800
   0.75129200  0.53102800  0.04736600
   0.25661000  0.53755100  0.55179400
   0.05211400  0.46727600  0.25250900
   0.54934100  0.60707600  0.64355800

 position of ions in cartesian coordinates  (Angst):
   0.55037367  2.89302600  3.76819159
   0.56990816  2.89008181 11.96645234
   3.84098804  8.83305571  7.92267140
  -4.85383019  8.80306250  7.83862613
  -3.85640422  2.84234134  8.10582141
   4.81663009  2.92391069  8.23794768
  -0.50645913  8.89669013 12.43966426
  -0.59547213  8.84084433  4.03320795
  -0.00413522  0.01542475  0.01039611
   0.00047356  0.05694841  8.03316121
   4.22878572 11.71748374  4.02569831
  -4.21996560 11.72536620  4.02056056
   4.14286779  5.88976732  4.07471198
  -4.22085353  5.86519329  4.03253256
   0.00210567  5.85378015  0.00311160
   0.04355937  5.80574642  7.98812749
  -4.03832021  8.77450032 11.46637778
   4.20508218  8.79264639 11.54747226
   0.00516691  2.93806862 15.59005520
  -0.15658035  2.94379278  7.45836009
  -0.03805420  8.79879283  0.41542627
   4.16178495  2.95092453  4.54055898
  -4.25109393  2.93162893  4.49933636
  -5.89772456  5.49569138  9.62983635
   2.51660884  5.46542837  9.60435663
   1.65983966  6.39094849  5.63631532
   1.68011832  6.21582187 13.61515626
  -1.69623639  0.40195840 10.47498455
  -1.70572457  0.39691456  2.43362223
   5.93117843 11.39811520  6.45737478
  -2.48169200 11.24989685  6.46131453
  -5.95716522  0.33527422  9.65441555
   2.51426640  0.39062736  9.62205334
   1.71646431 11.20717675  5.65731659
   1.74860743 11.41853686 13.67729975
   5.95274248  6.22887719  6.42145072
  -2.49622025  6.30539098  6.49981149
  -1.69463811  5.48107599  2.44926061
  -0.79674502  7.12090860  9.59126702



--------------------------------------------------------------------------------------------------------


 k-point  1 :   0.0000 0.0000 0.0000  plane waves:   18809
 k-point  2 :   0.5000 0.0000 0.0000  plane waves:   18808
 k-point  3 :   0.0000 0.5000 0.0000  plane waves:   18794
 k-point  4 :   0.5000 0.5000 0.0000  plane waves:   18804
 k-point  5 :   0.0000 0.0000 0.5000  plane waves:   18808
 k-point  6 :   0.5000 0.0000 0.5000  plane waves:   18790
 k-point  7 :   0.0000 0.5000 0.5000  plane waves:   18804
 k-point  8 :   0.5000 0.5000 0.5000  plane waves:   18800

 maximum and minimum number of plane-waves per node :      2389     2304

 maximum number of plane-waves:     18809
 maximum index in each direction: 
   IXMAX=   16   IYMAX=   16   IZMAX=   16
   IXMIN=  -16   IYMIN=  -17   IZMIN=  -16


 real space projection operators:
  total allocation   :      16724.62 KBytes
  max/ min on nodes  :       2186.81       1818.65


 parallel 3D FFT for wavefunctions:
    minimum data exchange during FFTs selected (reduces bandwidth)
 parallel 3D FFT for charge:
    minimum data exchange during FFTs selected (reduces bandwidth)


 total amount of memory used by VASP MPI-rank0    60648. kBytes
=======================================================================

   base      :      30000. kBytes
   nonlr-proj:       6483. kBytes
   fftplans  :       8423. kBytes
   grid      :       7465. kBytes
   one-center:         77. kBytes
   wavefun   :       8200. kBytes

     INWAV:  cpu time    0.0000: real time    0.0000
 Broyden mixing: mesh for mixing (old mesh)
   NGX = 33   NGY = 33   NGZ = 33
  (NGX  =140   NGY  =140   NGZ  =140)
  gives a total of  35937 points

 initial charge density was supplied:
 charge density of overlapping atoms calculated
 number of electron     345.0000000 magnetization 
 keeping initial charge density in first step


--------------------------------------------------------------------------------------------------------


 Maximum index for non-local projection operator          728
 Maximum index for augmentation-charges         2985 (set IRDMAX)


--------------------------------------------------------------------------------------------------------


 First call to EWALD:  gamma=   0.152
 Maximum number of real-space cells 3x 3x 3
 Maximum number of reciprocal cells 3x 3x 3

    FEWALD:  cpu time    0.0037: real time    0.0037


--------------------------------------- Iteration      1(   1)  ---------------------------------------


    POTLOK:  cpu time    0.2650: real time    0.2821
    SETDIJ:  cpu time    1.2024: real time    1.2025
     EDDAV:  cpu time   16.6870: real time   16.6942
       DOS:  cpu time    0.0007: real time    0.0007
    --------------------------------------------
      LOOP:  cpu time   18.1551: real time   18.1794

 eigenvalue-minimisations  :  3488
 total energy-change (2. order) : 0.1338173E+04  (-0.1105891E+05)
 number of electron     345.0000000 magnetization 
 augmentation part      345.0000000 magnetization 

 Free energy of the ion-electron system (eV)
  ---------------------------------------------------
  alpha Z        PSCENC =       872.70583573
  Ewald energy   TEWEN  =    -17883.01240634
  -Hartree energ DENC   =     -7466.55986045
  -exchange      EXHF   =         0.00000000
  -V(xc)+E(xc)   XCENC  =       908.76743902
  PAW double counting   =     21345.28103884   -22405.85761495
  entropy T*S    EENTRO =        -0.00006900
  eigenvalues    EBANDS =      -245.26979277
  atomic energy  EATOM  =     26212.11861568
  Solvation  Ediel_sol  =         0.00000000
  ---------------------------------------------------
  free energy    TOTEN  =      1338.17318577 eV

  energy without entropy =     1338.17325476  energy(sigma->0) =     1338.17322026


--------------------------------------------------------------------------------------------------------




--------------------------------------- Iteration      1(   2)  ---------------------------------------


     EDDAV:  cpu time   18.4572: real time   18.5086
       DOS:  cpu time    0.0004: real time    0.0004
    --------------------------------------------
      LOOP:  cpu time   18.4576: real time   18.5091

 eigenvalue-minimisations  :  4072
 total energy-change (2. order) :-0.2448934E+04  (-0.2366012E+04)
 number of electron     345.0000000 magnetization 
 augmentation part      345.0000000 magnetization 

 Free energy of the ion-electron system (eV)
  ---------------------------------------------------
  alpha Z        PSCENC =       872.70583573
  Ewald energy   TEWEN  =    -17883.01240634
  -Hartree energ DENC   =     -7466.55986045
  -exchange      EXHF   =         0.00000000
  -V(xc)+E(xc)   XCENC  =       908.76743902
  PAW double counting   =     21345.28103884   -22405.85761495
  entropy T*S    EENTRO =        -0.00000000
  eigenvalues    EBANDS =     -2694.20359862
  atomic energy  EATOM  =     26212.11861568
  Solvation  Ediel_sol  =         0.00000000
  ---------------------------------------------------
  free energy    TOTEN  =     -1110.76055109 eV

  energy without entropy =    -1110.76055109  energy(sigma->0) =    -1110.76055109


--------------------------------------------------------------------------------------------------------




--------------------------------------- Iteration      1(   3)  ---------------------------------------


     EDDAV:  cpu time   19.4600: real time   19.4941
       DOS:  cpu time    0.0004: real time    0.0004
    --------------------------------------------
      LOOP:  cpu time   19.4604: real time   19.4944

 eigenvalue-minimisations  :  4416
 total energy-change (2. order) :-0.3618241E+03  (-0.3598085E+03)
 number of electron     345.0000000 magnetization 
 augmentation part      345.0000000 magnetization 

 Free energy of the ion-electron system (eV)
  ---------------------------------------------------
  alpha Z        PSCENC =       872.70583573
  Ewald energy   TEWEN  =    -17883.01240634
  -Hartree energ DENC   =     -7466.55986045
  -exchange      EXHF   =         0.00000000
  -V(xc)+E(xc)   XCENC  =       908.76743902
  PAW double counting   =     21345.28103884   -22405.85761495
  entropy T*S    EENTRO =        -0.00000000
  eigenvalues    EBANDS =     -3056.02773422
  atomic energy  EATOM  =     26212.11861568
  Solvation  Ediel_sol  =         0.00000000
  ---------------------------------------------------
  free energy    TOTEN  =     -1472.58468668 eV

  energy without entropy =    -1472.58468668  energy(sigma->0) =    -1472.58468668


--------------------------------------------------------------------------------------------------------




--------------------------------------- Iteration      1(   4)  ---------------------------------------


     EDDAV:  cpu time   18.1679: real time   18.1710
       DOS:  cpu time    0.0004: real time    0.0004
    --------------------------------------------
      LOOP:  cpu time   18.1683: real time   18.1714

 eigenvalue-minimisations  :  3968
 total energy-change (2. order) :-0.1235120E+02  (-0.1231602E+02)
 number of electron     345.0000000 magnetization 
 augmentation part      345.0000000 magnetization 

 Free energy of the ion-electron system (eV)
  ---------------------------------------------------
  alpha Z        PSCENC =       872.70583573
  Ewald energy   TEWEN  =    -17883.01240634
  -Hartree energ DENC   =     -7466.55986045
  -exchange      EXHF   =         0.00000000
  -V(xc)+E(xc)   XCENC  =       908.76743902
  PAW double counting   =     21345.28103884   -22405.85761495
  entropy T*S    EENTRO =        -0.00000000
  eigenvalues    EBANDS =     -3068.37893092
  atomic energy  EATOM  =     26212.11861568
  Solvation  Ediel_sol  =         0.00000000
  ---------------------------------------------------
  free energy    TOTEN  =     -1484.93588338 eV

  energy without entropy =    -1484.93588338  energy(sigma->0) =    -1484.93588338


--------------------------------------------------------------------------------------------------------




--------------------------------------- Iteration      1(   5)  ---------------------------------------


     EDDAV:  cpu time   19.3775: real time   19.4377
       DOS:  cpu time    0.0004: real time    0.0004
    CHARGE:  cpu time    2.7071: real time    2.7072
    MIXING:  cpu time    0.0016: real time    0.0016
    --------------------------------------------
      LOOP:  cpu time   22.0866: real time   22.1470

 eigenvalue-minimisations  :  4400
 total energy-change (2. order) :-0.5375585E+00  (-0.5373038E+00)
 number of electron     343.9999999 magnetization 
 augmentation part       -5.0952623 magnetization 

 Broyden mixing:
  rms(total) = 0.11821E+01    rms(broyden)= 0.11816E+01
  rms(prec ) = 0.15250E+01
  weight for this iteration     100.00

 Free energy of the ion-electron system (eV)
  ---------------------------------------------------
  alpha Z        PSCENC =       872.70583573
  Ewald energy   TEWEN  =    -17883.01240634
  -Hartree energ DENC   =     -7466.55986045
  -exchange      EXHF   =         0.00000000
  -V(xc)+E(xc)   XCENC  =       908.76743902
  PAW double counting   =     21345.28103884   -22405.85761495
  entropy T*S    EENTRO =        -0.00000000
  eigenvalues    EBANDS =     -3068.91648946
  atomic energy  EATOM  =     26212.11861568
  Solvation  Ediel_sol  =         0.00000000
  ---------------------------------------------------
  free energy    TOTEN  =     -1485.47344192 eV

  energy without entropy =    -1485.47344192  energy(sigma->0) =    -1485.47344192


--------------------------------------------------------------------------------------------------------




--------------------------------------- Iteration      1(   6)  ---------------------------------------


    POTLOK:  cpu time    0.3071: real time    0.3131
    SETDIJ:  cpu time    1.1969: real time    1.1969
     EDDAV:  cpu time   19.0944: real time   19.0953
       DOS:  cpu time    0.0006: real time    0.0006
    CHARGE:  cpu time    2.6952: real time    2.6955
    MIXING:  cpu time    0.0015: real time    0.0015
    --------------------------------------------
      LOOP:  cpu time   23.2958: real time   23.3030

 eigenvalue-minimisations  :  4304
 total energy-change (2. order) : 0.7768507E+02  (-0.2337955E+01)
 number of electron     343.9999999 magnetization 
 augmentation part       -3.7105263 magnetization 

 Broyden mixing:
  rms(total) = 0.81679E+00    rms(broyden)= 0.81672E+00
  rms(prec ) = 0.97959E+00
  weight for this iteration     100.00

 eigenvalues of (default mixing * dielectric matrix)
  average eigenvalue GAMMA=   1.4182
  1.4182

 Free energy of the ion-electron system (eV)
  ---------------------------------------------------
  alpha Z        PSCENC =       872.70583573
  Ewald energy   TEWEN  =    -17883.01240634
  -Hartree energ DENC   =     -7448.87635240
  -exchange      EXHF   =         0.00000000
  -V(xc)+E(xc)   XCENC  =       936.82036742
  PAW double counting   =     21710.63962266   -22770.37617212
  entropy T*S    EENTRO =        -0.00000000
  eigenvalues    EBANDS =     -3037.80788202
  atomic energy  EATOM  =     26212.11861568
  Solvation  Ediel_sol  =         0.00000000
  ---------------------------------------------------
  free energy    TOTEN  =     -1407.78837138 eV

  energy without entropy =    -1407.78837138  energy(sigma->0) =    -1407.78837138


--------------------------------------------------------------------------------------------------------




--------------------------------------- Iteration      1(   7)  ---------------------------------------


    POTLOK:  cpu time    0.2868: real time    0.3095
    SETDIJ:  cpu time    1.2049: real time    1.2049
     EDDAV:  cpu time   18.8267: real time   18.8278
       DOS:  cpu time    0.0005: real time    0.0005
    CHARGE:  cpu time    2.6962: real time    2.6963
    MIXING:  cpu time    0.0017: real time    0.0017
    --------------------------------------------
      LOOP:  cpu time   23.0168: real time   23.0408

 eigenvalue-minimisations  :  4216
 total energy-change (2. order) : 0.5153936E+00  (-0.9133977E+00)
 number of electron     343.9999999 magnetization 
 augmentation part       -3.1275624 magnetization 

 Broyden mixing:
  rms(total) = 0.38738E+00    rms(broyden)= 0.38736E+00
  rms(prec ) = 0.42568E+00
  weight for this iteration     100.00

 eigenvalues of (default mixing * dielectric matrix)
  average eigenvalue GAMMA=   1.3762
  1.1227  1.6296

 Free energy of the ion-electron system (eV)
  ---------------------------------------------------
  alpha Z        PSCENC =       872.70583573
  Ewald energy   TEWEN  =    -17883.01240634
  -Hartree energ DENC   =     -7495.38533815
  -exchange      EXHF   =         0.00000000
  -V(xc)+E(xc)   XCENC  =       942.32412339
  PAW double counting   =     22448.63041808   -23507.21798572
  entropy T*S    EENTRO =        -0.00000000
  eigenvalues    EBANDS =     -2997.43624042
  atomic energy  EATOM  =     26212.11861568
  Solvation  Ediel_sol  =         0.00000000
  ---------------------------------------------------
  free energy    TOTEN  =     -1407.27297774 eV

  energy without entropy =    -1407.27297774  energy(sigma->0) =    -1407.27297774


--------------------------------------------------------------------------------------------------------




--------------------------------------- Iteration      1(   8)  ---------------------------------------


    POTLOK:  cpu time    0.2519: real time    0.3196
    SETDIJ:  cpu time    1.2075: real time    1.2075
     EDDAV:  cpu time   18.3661: real time   18.3669
       DOS:  cpu time    0.0005: real time    0.0005
    CHARGE:  cpu time    2.6998: real time    2.6999
    MIXING:  cpu time    0.0018: real time    0.0018
    --------------------------------------------
      LOOP:  cpu time   22.5275: real time   22.5962

 eigenvalue-minimisations  :  4064
 total energy-change (2. order) :-0.1634347E+00  (-0.4983598E-01)
 number of electron     343.9999999 magnetization 
 augmentation part       -3.2301737 magnetization 

 Broyden mixing:
  rms(total) = 0.22099E+00    rms(broyden)= 0.22098E+00
  rms(prec ) = 0.24740E+00
  weight for this iteration     100.00

 eigenvalues of (default mixing * dielectric matrix)
  average eigenvalue GAMMA=   1.6901
  1.1040  1.3633  2.6029

 Free energy of the ion-electron system (eV)
  ---------------------------------------------------
  alpha Z        PSCENC =       872.70583573
  Ewald energy   TEWEN  =    -17883.01240634
  -Hartree energ DENC   =     -7500.59973883
  -exchange      EXHF   =         0.00000000
  -V(xc)+E(xc)   XCENC  =       942.92328478
  PAW double counting   =     22709.18219023   -23768.39372037
  entropy T*S    EENTRO =        -0.00000000
  eigenvalues    EBANDS =     -2992.36047334
  atomic energy  EATOM  =     26212.11861568
  Solvation  Ediel_sol  =         0.00000000
  ---------------------------------------------------
  free energy    TOTEN  =     -1407.43641245 eV

  energy without entropy =    -1407.43641245  energy(sigma->0) =    -1407.43641245


--------------------------------------------------------------------------------------------------------




--------------------------------------- Iteration      1(   9)  ---------------------------------------


    POTLOK:  cpu time    0.3031: real time    0.3119
    SETDIJ:  cpu time    1.2062: real time    1.2062
     EDDAV:  cpu time   17.7789: real time   17.7801
       DOS:  cpu time    0.0005: real time    0.0005
    CHARGE:  cpu time    2.6990: real time    2.6991
    MIXING:  cpu time    0.0017: real time    0.0017
    --------------------------------------------
      LOOP:  cpu time   21.9895: real time   21.9995

 eigenvalue-minimisations  :  3856
 total energy-change (2. order) :-0.5521930E-01  (-0.1413572E-01)
 number of electron     343.9999999 magnetization 
 augmentation part       -3.2773915 magnetization 

 Broyden mixing:
  rms(total) = 0.42885E-01    rms(broyden)= 0.42882E-01
  rms(prec ) = 0.54765E-01
  weight for this iteration     100.00

 eigenvalues of (default mixing * dielectric matrix)
  average eigenvalue GAMMA=   1.4852
  2.5069  1.2827  1.2827  0.8687

 Free energy of the ion-electron system (eV)
  ---------------------------------------------------
  alpha Z        PSCENC =       872.70583573
  Ewald energy   TEWEN  =    -17883.01240634
  -Hartree energ DENC   =     -7506.22171652
  -exchange      EXHF   =         0.00000000
  -V(xc)+E(xc)   XCENC  =       944.53598797
  PAW double counting   =     23040.21638646   -24100.58912973
  entropy T*S    EENTRO =        -0.00000000
  eigenvalues    EBANDS =     -2987.24520500
  atomic energy  EATOM  =     26212.11861568
  Solvation  Ediel_sol  =         0.00000000
  ---------------------------------------------------
  free energy    TOTEN  =     -1407.49163174 eV

  energy without entropy =    -1407.49163174  energy(sigma->0) =    -1407.49163174


--------------------------------------------------------------------------------------------------------




--------------------------------------- Iteration      1(  10)  ---------------------------------------


    POTLOK:  cpu time    0.3128: real time    0.3203
    SETDIJ:  cpu time    1.2078: real time    1.2079
     EDDAV:  cpu time   20.2050: real time   20.2058
       DOS:  cpu time    0.0004: real time    0.0004
    CHARGE:  cpu time    2.6951: real time    2.6953
    MIXING:  cpu time    0.0017: real time    0.0017
    --------------------------------------------
      LOOP:  cpu time   24.4228: real time   24.4313

 eigenvalue-minimisations  :  4680
 total energy-change (2. order) :-0.2855138E-02  (-0.1824121E-02)
 number of electron     343.9999999 magnetization 
 augmentation part       -3.2649794 magnetization 

 Broyden mixing:
  rms(total) = 0.31250E-01    rms(broyden)= 0.31248E-01
  rms(prec ) = 0.40910E-01
  weight for this iteration     100.00

 eigenvalues of (default mixing * dielectric matrix)
  average eigenvalue GAMMA=   1.3417
  2.4244  1.3601  1.3601  0.7819  0.7819

 Free energy of the ion-electron system (eV)
  ---------------------------------------------------
  alpha Z        PSCENC =       872.70583573
  Ewald energy   TEWEN  =    -17883.01240634
  -Hartree energ DENC   =     -7504.64905148
  -exchange      EXHF   =         0.00000000
  -V(xc)+E(xc)   XCENC  =       944.44166336
  PAW double counting   =     23009.75314359   -24070.16043845
  entropy T*S    EENTRO =        -0.00000000
  eigenvalues    EBANDS =     -2988.69184898
  atomic energy  EATOM  =     26212.11861568
  Solvation  Ediel_sol  =         0.00000000
  ---------------------------------------------------
  free energy    TOTEN  =     -1407.49448688 eV

  energy without entropy =    -1407.49448688  energy(sigma->0) =    -1407.49448688


--------------------------------------------------------------------------------------------------------




--------------------------------------- Iteration      1(  11)  ---------------------------------------


    POTLOK:  cpu time    0.2644: real time    0.3171
    SETDIJ:  cpu time    1.1962: real time    1.1963
     EDDAV:  cpu time   18.2009: real time   18.2019
       DOS:  cpu time    0.0006: real time    0.0006
    CHARGE:  cpu time    2.7042: real time    2.7043
    MIXING:  cpu time    0.0017: real time    0.0017
    --------------------------------------------
      LOOP:  cpu time   22.3680: real time   22.4217

 eigenvalue-minimisations  :  4000
 total energy-change (2. order) :-0.2513999E-02  (-0.3353915E-03)
 number of electron     343.9999999 magnetization 
 augmentation part       -3.2632632 magnetization 

 Broyden mixing:
  rms(total) = 0.12408E-01    rms(broyden)= 0.12407E-01
  rms(prec ) = 0.20996E-01
  weight for this iteration     100.00

 eigenvalues of (default mixing * dielectric matrix)
  average eigenvalue GAMMA=   1.6305
  2.7934  2.7934  1.2364  1.2364  0.8617  0.8617

 Free energy of the ion-electron system (eV)
  ---------------------------------------------------
  alpha Z        PSCENC =       872.70583573
  Ewald energy   TEWEN  =    -17883.01240634
  -Hartree energ DENC   =     -7503.45855395
  -exchange      EXHF   =         0.00000000
  -V(xc)+E(xc)   XCENC  =       944.41532743
  PAW double counting   =     22989.40844175   -24049.96951027
  entropy T*S    EENTRO =        -0.00000000
  eigenvalues    EBANDS =     -2989.70475091
  atomic energy  EATOM  =     26212.11861568
  Solvation  Ediel_sol  =         0.00000000
  ---------------------------------------------------
  free energy    TOTEN  =     -1407.49700088 eV

  energy without entropy =    -1407.49700088  energy(sigma->0) =    -1407.49700088


--------------------------------------------------------------------------------------------------------




--------------------------------------- Iteration      1(  12)  ---------------------------------------


    POTLOK:  cpu time    0.2697: real time    0.3077
    SETDIJ:  cpu time    1.1969: real time    1.1970
     EDDAV:  cpu time   17.2506: real time   17.2514
       DOS:  cpu time    0.0004: real time    0.0004
    CHARGE:  cpu time    2.7021: real time    2.7022
    MIXING:  cpu time    0.0017: real time    0.0017
    --------------------------------------------
      LOOP:  cpu time   21.4215: real time   21.4604

 eigenvalue-minimisations  :  3680
 total energy-change (2. order) :-0.2113625E-02  (-0.4229828E-03)
 number of electron     343.9999999 magnetization 
 augmentation part       -3.2658034 magnetization 

 Broyden mixing:
  rms(total) = 0.10607E-01    rms(broyden)= 0.10607E-01
  rms(prec ) = 0.13269E-01
  weight for this iteration     100.00

 eigenvalues of (default mixing * dielectric matrix)
  average eigenvalue GAMMA=   1.6318
  3.1859  2.4755  1.3807  1.3807  0.9579  1.0211  1.0211

 Free energy of the ion-electron system (eV)
  ---------------------------------------------------
  alpha Z        PSCENC =       872.70583573
  Ewald energy   TEWEN  =    -17883.01240634
  -Hartree energ DENC   =     -7503.14712728
  -exchange      EXHF   =         0.00000000
  -V(xc)+E(xc)   XCENC  =       944.47318383
  PAW double counting   =     22981.20217607   -24041.95885726
  entropy T*S    EENTRO =        -0.00000000
  eigenvalues    EBANDS =     -2989.88053493
  atomic energy  EATOM  =     26212.11861568
  Solvation  Ediel_sol  =         0.00000000
  ---------------------------------------------------
  free energy    TOTEN  =     -1407.49911451 eV

  energy without entropy =    -1407.49911451  energy(sigma->0) =    -1407.49911451


--------------------------------------------------------------------------------------------------------




--------------------------------------- Iteration      1(  13)  ---------------------------------------


    POTLOK:  cpu time    0.2731: real time    0.3144
    SETDIJ:  cpu time    1.1954: real time    1.1954
     EDDAV:  cpu time   19.6064: real time   19.6073
       DOS:  cpu time    0.0004: real time    0.0004
    CHARGE:  cpu time    2.6994: real time    2.6995
    MIXING:  cpu time    0.0023: real time    0.0023
    --------------------------------------------
      LOOP:  cpu time   23.7769: real time   23.8193

 eigenvalue-minimisations  :  4488
 total energy-change (2. order) : 0.4062589E-03  (-0.1717866E-03)
 number of electron     343.9999999 magnetization 
 augmentation part       -3.2666378 magnetization 

 Broyden mixing:
  rms(total) = 0.49734E-02    rms(broyden)= 0.49727E-02
  rms(prec ) = 0.57841E-02
  weight for this iteration     100.00

 eigenvalues of (default mixing * dielectric matrix)
  average eigenvalue GAMMA=   1.5371
  3.2827  2.3211  1.7335  1.0829  1.0829  1.0977  1.0158  0.6803

 Free energy of the ion-electron system (eV)
  ---------------------------------------------------
  alpha Z        PSCENC =       872.70583573
  Ewald energy   TEWEN  =    -17883.01240634
  -Hartree energ DENC   =     -7504.24065100
  -exchange      EXHF   =         0.00000000
  -V(xc)+E(xc)   XCENC  =       944.53924480
  PAW double counting   =     22985.13256268   -24045.85065179
  entropy T*S    EENTRO =        -0.00000000
  eigenvalues    EBANDS =     -2988.89125800
  atomic energy  EATOM  =     26212.11861568
  Solvation  Ediel_sol  =         0.00000000
  ---------------------------------------------------
  free energy    TOTEN  =     -1407.49870825 eV

  energy without entropy =    -1407.49870825  energy(sigma->0) =    -1407.49870825


--------------------------------------------------------------------------------------------------------




--------------------------------------- Iteration      1(  14)  ---------------------------------------


    POTLOK:  cpu time    0.2546: real time    0.3160
    SETDIJ:  cpu time    1.1952: real time    1.1952
     EDDAV:  cpu time   17.7690: real time   17.7699
       DOS:  cpu time    0.0004: real time    0.0004
    CHARGE:  cpu time    2.7076: real time    2.7077
    MIXING:  cpu time    0.0018: real time    0.0018
    --------------------------------------------
      LOOP:  cpu time   21.9286: real time   21.9910

 eigenvalue-minimisations  :  3856
 total energy-change (2. order) :-0.1286146E-04  (-0.3857353E-04)
 number of electron     343.9999999 magnetization 
 augmentation part       -3.2663878 magnetization 

 Broyden mixing:
  rms(total) = 0.31258E-02    rms(broyden)= 0.31248E-02
  rms(prec ) = 0.39358E-02
  weight for this iteration     100.00

 eigenvalues of (default mixing * dielectric matrix)
  average eigenvalue GAMMA=   1.5519
  3.2241  2.1545  2.1545  1.1328  1.1328  1.1746  1.1746  0.9252  0.8941

 Free energy of the ion-electron system (eV)
  ---------------------------------------------------
  alpha Z        PSCENC =       872.70583573
  Ewald energy   TEWEN  =    -17883.01240634
  -Hartree energ DENC   =     -7504.39703580
  -exchange      EXHF   =         0.00000000
  -V(xc)+E(xc)   XCENC  =       944.54095646
  PAW double counting   =     22985.82967867   -24046.53157511
  entropy T*S    EENTRO =        -0.00000000
  eigenvalues    EBANDS =     -2988.75279040
  atomic energy  EATOM  =     26212.11861568
  Solvation  Ediel_sol  =         0.00000000
  ---------------------------------------------------
  free energy    TOTEN  =     -1407.49872111 eV

  energy without entropy =    -1407.49872111  energy(sigma->0) =    -1407.49872111


--------------------------------------------------------------------------------------------------------




--------------------------------------- Iteration      1(  15)  ---------------------------------------


    POTLOK:  cpu time    0.2689: real time    0.2843
    SETDIJ:  cpu time    1.1959: real time    1.1959
     EDDAV:  cpu time   17.2141: real time   17.2148
       DOS:  cpu time    0.0005: real time    0.0005
    CHARGE:  cpu time    2.7057: real time    2.7058
    MIXING:  cpu time    0.0018: real time    0.0019
    --------------------------------------------
      LOOP:  cpu time   21.3869: real time   21.4032

 eigenvalue-minimisations  :  3664
 total energy-change (2. order) :-0.1106004E-04  (-0.4153646E-05)
 number of electron     343.9999999 magnetization 
 augmentation part       -3.2661894 magnetization 

 Broyden mixing:
  rms(total) = 0.16062E-02    rms(broyden)= 0.16050E-02
  rms(prec ) = 0.21565E-02
  weight for this iteration     100.00

 eigenvalues of (default mixing * dielectric matrix)
  average eigenvalue GAMMA=   1.6348
  3.7767  2.4257  2.4257  1.3720  1.3720  1.1099  1.1099  0.8355  0.9603  0.9603

 Free energy of the ion-electron system (eV)
  ---------------------------------------------------
  alpha Z        PSCENC =       872.70583573
  Ewald energy   TEWEN  =    -17883.01240634
  -Hartree energ DENC   =     -7504.50086705
  -exchange      EXHF   =         0.00000000
  -V(xc)+E(xc)   XCENC  =       944.54127259
  PAW double counting   =     22985.63522300   -24046.33351958
  entropy T*S    EENTRO =        -0.00000000
  eigenvalues    EBANDS =     -2988.65288621
  atomic energy  EATOM  =     26212.11861568
  Solvation  Ediel_sol  =         0.00000000
  ---------------------------------------------------
  free energy    TOTEN  =     -1407.49873217 eV

  energy without entropy =    -1407.49873217  energy(sigma->0) =    -1407.49873217


--------------------------------------------------------------------------------------------------------




--------------------------------------- Iteration      1(  16)  ---------------------------------------


    POTLOK:  cpu time    0.3056: real time    0.3173
    SETDIJ:  cpu time    1.1935: real time    1.1935
     EDDAV:  cpu time   18.1525: real time   18.1533
       DOS:  cpu time    0.0004: real time    0.0004
    CHARGE:  cpu time    2.6984: real time    2.6985
    MIXING:  cpu time    0.0024: real time    0.0024
    --------------------------------------------
      LOOP:  cpu time   22.3528: real time   22.3654

 eigenvalue-minimisations  :  3984
 total energy-change (2. order) :-0.3698399E-04  (-0.3833050E-05)
 number of electron     343.9999999 magnetization 
 augmentation part       -3.2658782 magnetization 

 Broyden mixing:
  rms(total) = 0.89934E-03    rms(broyden)= 0.89715E-03
  rms(prec ) = 0.10393E-02
  weight for this iteration     100.00

 eigenvalues of (default mixing * dielectric matrix)
  average eigenvalue GAMMA=   1.6946
  4.2748  2.8146  2.3456  1.8591  1.1159  1.1159  1.1524  1.1524  0.8153  0.9974
  0.9974

 Free energy of the ion-electron system (eV)
  ---------------------------------------------------
  alpha Z        PSCENC =       872.70583573
  Ewald energy   TEWEN  =    -17883.01240634
  -Hartree energ DENC   =     -7504.54467735
  -exchange      EXHF   =         0.00000000
  -V(xc)+E(xc)   XCENC  =       944.53330962
  PAW double counting   =     22985.11842911   -24045.80986705
  entropy T*S    EENTRO =        -0.00000000
  eigenvalues    EBANDS =     -2988.60800856
  atomic energy  EATOM  =     26212.11861568
  Solvation  Ediel_sol  =         0.00000000
  ---------------------------------------------------
  free energy    TOTEN  =     -1407.49876915 eV

  energy without entropy =    -1407.49876915  energy(sigma->0) =    -1407.49876915


--------------------------------------------------------------------------------------------------------




--------------------------------------- Iteration      1(  17)  ---------------------------------------


    POTLOK:  cpu time    0.2873: real time    0.3147
    SETDIJ:  cpu time    1.1918: real time    1.1918
     EDDAV:  cpu time   18.5186: real time   18.5194
       DOS:  cpu time    0.0004: real time    0.0004
    CHARGE:  cpu time    2.6990: real time    2.6991
    MIXING:  cpu time    0.0019: real time    0.0019
    --------------------------------------------
      LOOP:  cpu time   22.6990: real time   22.7272

 eigenvalue-minimisations  :  4104
 total energy-change (2. order) :-0.4069143E-06  (-0.1051808E-05)
 number of electron     343.9999999 magnetization 
 augmentation part       -3.2658081 magnetization 

 Broyden mixing:
  rms(total) = 0.52825E-03    rms(broyden)= 0.52458E-03
  rms(prec ) = 0.57412E-03
  weight for this iteration     100.00

 eigenvalues of (default mixing * dielectric matrix)
  average eigenvalue GAMMA=   1.6156
  4.2900  2.9149  2.2205  1.9974  1.1854  1.1854  1.1700  1.1700  0.9792  0.9792
  0.7985  0.4962

 Free energy of the ion-electron system (eV)
  ---------------------------------------------------
  alpha Z        PSCENC =       872.70583573
  Ewald energy   TEWEN  =    -17883.01240634
  -Hartree energ DENC   =     -7504.53680790
  -exchange      EXHF   =         0.00000000
  -V(xc)+E(xc)   XCENC  =       944.53053041
  PAW double counting   =     22985.27908582   -24045.96595919
  entropy T*S    EENTRO =        -0.00000000
  eigenvalues    EBANDS =     -2988.61766378
  atomic energy  EATOM  =     26212.11861568
  Solvation  Ediel_sol  =         0.00000000
  ---------------------------------------------------
  free energy    TOTEN  =     -1407.49876956 eV

  energy without entropy =    -1407.49876956  energy(sigma->0) =    -1407.49876956


--------------------------------------------------------------------------------------------------------




--------------------------------------- Iteration      1(  18)  ---------------------------------------


    POTLOK:  cpu time    0.2840: real time    0.3007
    SETDIJ:  cpu time    1.1946: real time    1.1947
     EDDAV:  cpu time   15.8670: real time   15.8677
       DOS:  cpu time    0.0004: real time    0.0004
    CHARGE:  cpu time    2.6988: real time    2.6989
    MIXING:  cpu time    0.0021: real time    0.0021
    --------------------------------------------
      LOOP:  cpu time   20.0469: real time   20.0645

 eigenvalue-minimisations  :  3184
 total energy-change (2. order) : 0.1063361E-05  (-0.3382403E-06)
 number of electron     343.9999999 magnetization 
 augmentation part       -3.2658497 magnetization 

 Broyden mixing:
  rms(total) = 0.32891E-03    rms(broyden)= 0.32301E-03
  rms(prec ) = 0.36513E-03
  weight for this iteration     100.00

 eigenvalues of (default mixing * dielectric matrix)
  average eigenvalue GAMMA=   1.5928
  4.4728  2.8541  2.5020  1.8413  1.1772  1.1772  1.1634  1.1634  1.0057  1.0057
  0.8039  0.7696  0.7696

 Free energy of the ion-electron system (eV)
  ---------------------------------------------------
  alpha Z        PSCENC =       872.70583573
  Ewald energy   TEWEN  =    -17883.01240634
  -Hartree energ DENC   =     -7504.53157590
  -exchange      EXHF   =         0.00000000
  -V(xc)+E(xc)   XCENC  =       944.53006657
  PAW double counting   =     22985.31749235   -24046.00528215
  entropy T*S    EENTRO =        -0.00000000
  eigenvalues    EBANDS =     -2988.62151444
  atomic energy  EATOM  =     26212.11861568
  Solvation  Ediel_sol  =         0.00000000
  ---------------------------------------------------
  free energy    TOTEN  =     -1407.49876850 eV

  energy without entropy =    -1407.49876850  energy(sigma->0) =    -1407.49876850


--------------------------------------------------------------------------------------------------------




--------------------------------------- Iteration      1(  19)  ---------------------------------------


    POTLOK:  cpu time    0.2603: real time    0.3123
    SETDIJ:  cpu time    1.1933: real time    1.1934
     EDDAV:  cpu time   13.4187: real time   13.4194
       DOS:  cpu time    0.0004: real time    0.0004
    CHARGE:  cpu time    2.6912: real time    2.6915
    MIXING:  cpu time    0.0021: real time    0.0021
    --------------------------------------------
      LOOP:  cpu time   17.5659: real time   17.6190

 eigenvalue-minimisations  :  2320
 total energy-change (2. order) : 0.5408673E-05  (-0.8798807E-07)
 number of electron     343.9999999 magnetization 
 augmentation part       -3.2658767 magnetization 

 Broyden mixing:
  rms(total) = 0.24253E-03    rms(broyden)= 0.23449E-03
  rms(prec ) = 0.25962E-03
  weight for this iteration     100.00

 eigenvalues of (default mixing * dielectric matrix)
  average eigenvalue GAMMA=   1.5878
  4.6328  2.8191  2.6399  1.7704  1.2117  1.2117  1.0710  1.0710  1.1835  1.1835
  1.1145  0.9837  0.8062  0.5305

 Free energy of the ion-electron system (eV)
  ---------------------------------------------------
  alpha Z        PSCENC =       872.70583573
  Ewald energy   TEWEN  =    -17883.01240634
  -Hartree energ DENC   =     -7504.53653415
  -exchange      EXHF   =         0.00000000
  -V(xc)+E(xc)   XCENC  =       944.53025060
  PAW double counting   =     22985.45694647   -24046.14262989
  entropy T*S    EENTRO =        -0.00000000
  eigenvalues    EBANDS =     -2988.61884119
  atomic energy  EATOM  =     26212.11861568
  Solvation  Ediel_sol  =         0.00000000
  ---------------------------------------------------
  free energy    TOTEN  =     -1407.49876309 eV

  energy without entropy =    -1407.49876309  energy(sigma->0) =    -1407.49876309


--------------------------------------------------------------------------------------------------------




--------------------------------------- Iteration      1(  20)  ---------------------------------------


    POTLOK:  cpu time    0.2851: real time    0.3173
    SETDIJ:  cpu time    1.1944: real time    1.1945
     EDDAV:  cpu time   12.7045: real time   12.7051
       DOS:  cpu time    0.0004: real time    0.0004
    CHARGE:  cpu time    2.6943: real time    2.6944
    MIXING:  cpu time    0.0021: real time    0.0021
    --------------------------------------------
      LOOP:  cpu time   16.8808: real time   16.9138

 eigenvalue-minimisations  :  2072
 total energy-change (2. order) : 0.1236246E-05  (-0.2130224E-07)
 number of electron     343.9999999 magnetization 
 augmentation part       -3.2658885 magnetization 

 Broyden mixing:
  rms(total) = 0.15493E-03    rms(broyden)= 0.14202E-03
  rms(prec ) = 0.15371E-03
  weight for this iteration     100.00

 eigenvalues of (default mixing * dielectric matrix)
  average eigenvalue GAMMA=   1.6087
  4.7200  2.9653  2.5547  1.9950  1.9950  1.1755  1.1755  1.2016  1.2016  0.9632
  0.9345  0.9345  0.7784  0.7675  0.7675

 Free energy of the ion-electron system (eV)
  ---------------------------------------------------
  alpha Z        PSCENC =       872.70583573
  Ewald energy   TEWEN  =    -17883.01240634
  -Hartree energ DENC   =     -7504.53797035
  -exchange      EXHF   =         0.00000000
  -V(xc)+E(xc)   XCENC  =       944.53026312
  PAW double counting   =     22985.49432443   -24046.17996416
  entropy T*S    EENTRO =        -0.00000000
  eigenvalues    EBANDS =     -2988.61745996
  atomic energy  EATOM  =     26212.11861568
  Solvation  Ediel_sol  =         0.00000000
  ---------------------------------------------------
  free energy    TOTEN  =     -1407.49876185 eV

  energy without entropy =    -1407.49876185  energy(sigma->0) =    -1407.49876185


--------------------------------------------------------------------------------------------------------




--------------------------------------- Iteration      1(  21)  ---------------------------------------


    POTLOK:  cpu time    0.2936: real time    0.3178
    SETDIJ:  cpu time    1.1955: real time    1.1955
     EDDAV:  cpu time   12.5349: real time   12.5354
       DOS:  cpu time    0.0004: real time    0.0004
    --------------------------------------------
      LOOP:  cpu time   14.0244: real time   14.0491

 eigenvalue-minimisations  :  2008
 total energy-change (2. order) :-0.2550182E-06  (-0.1556826E-07)
 number of electron     343.9999999 magnetization 
 augmentation part       -3.2658885 magnetization 

 Free energy of the ion-electron system (eV)
  ---------------------------------------------------
  alpha Z        PSCENC =       872.70583573
  Ewald energy   TEWEN  =    -17883.01240634
  -Hartree energ DENC   =     -7504.53939914
  -exchange      EXHF   =         0.00000000
  -V(xc)+E(xc)   XCENC  =       944.53033474
  PAW double counting   =     22985.47339624   -24046.15910553
  entropy T*S    EENTRO =        -0.00000000
  eigenvalues    EBANDS =     -2988.61603349
  atomic energy  EATOM  =     26212.11861568
  Solvation  Ediel_sol  =         0.00000000
  ---------------------------------------------------
  free energy    TOTEN  =     -1407.49876211 eV

  energy without entropy =    -1407.49876211  energy(sigma->0) =    -1407.49876211


--------------------------------------------------------------------------------------------------------




 average (electrostatic) potential at core
  the test charge radii are     1.1312  1.1541  1.0178
  (the norm of the test charge is              1.0000)
       1 -55.2105       2 -55.4093       3 -55.3863       4 -55.1299       5 -55.3462
       6 -55.1287       7 -55.2220       8 -55.1653       9-101.5966      10-101.8998
      11-101.6945      12-101.6212      13-101.9269      14-101.5383      15-101.6196
      16-101.4380      17 -69.0293      18 -68.9661      19 -69.0279      20 -69.2702
      21 -69.0164      22 -69.0790      23 -68.9611      24 -69.0518      25 -68.8192
      26 -69.2027      27 -68.9268      28 -69.0581      29 -68.9710      30 -68.9939
      31 -69.0118      32 -68.9986      33 -69.0413      34 -69.0372      35 -68.9930
      36 -69.0676      37 -68.8028      38 -68.8949      39 -69.9512



 E-fermi :   0.5858     XC(G=0):  -7.9499     alpha+bet : -6.9586


 k-point     1 :       0.0000    0.0000    0.0000
  band No.  band energies     occupation 
      1     -20.9320      2.00000
      2     -20.9099      2.00000
      3     -20.8718      2.00000
      4     -20.7750      2.00000
      5     -20.7387      2.00000
      6     -20.6987      2.00000
      7     -20.6618      2.00000
      8     -20.6579      2.00000
      9     -17.5460      2.00000
     10     -16.6762      2.00000
     11     -16.6719      2.00000
     12     -16.6452      2.00000
     13     -16.6432      2.00000
     14     -16.5929      2.00000
     15     -16.5879      2.00000
     16     -16.5613      2.00000
     17     -16.5543      2.00000
     18     -16.5450      2.00000
     19     -16.5257      2.00000
     20     -16.4697      2.00000
     21     -16.4567      2.00000
     22     -16.4380      2.00000
     23     -16.4171      2.00000
     24     -16.4048      2.00000
     25     -16.3942      2.00000
     26     -16.3610      2.00000
     27     -16.3578      2.00000
     28     -16.3543      2.00000
     29     -16.3525      2.00000
     30     -16.3488      2.00000
     31     -16.3416      2.00000
     32     -16.3168      2.00000
     33     -16.3043      2.00000
     34     -16.2875      2.00000
     35     -16.2870      2.00000
     36     -16.2819      2.00000
     37     -16.2811      2.00000
     38     -16.2719      2.00000
     39     -16.2690      2.00000
     40     -16.2678      2.00000
     41     -16.2643      2.00000
     42     -16.2625      2.00000
     43     -16.2516      2.00000
     44     -16.2063      2.00000
     45     -16.2003      2.00000
     46     -16.1973      2.00000
     47     -16.1874      2.00000
     48     -16.1774      2.00000
     49     -14.6587      2.00000
     50     -14.3653      2.00000
     51     -14.2604      2.00000
     52     -14.2249      2.00000
     53     -14.1463      2.00000
     54     -14.0931      2.00000
     55     -14.0817      2.00000
     56     -14.0800      2.00000
     57     -14.0677      2.00000
     58     -14.0592      2.00000
     59     -14.0439      2.00000
     60     -14.0372      2.00000
     61     -14.0239      2.00000
     62     -14.0168      2.00000
     63     -14.0082      2.00000
     64     -13.9373      2.00000
     65     -13.9187      2.00000
     66     -13.9005      2.00000
     67     -13.8407      2.00000
     68     -13.7800      2.00000
     69     -13.7665      2.00000
     70     -13.7053      2.00000
     71     -13.6201      2.00000
     72      -8.1986      2.00000
     73      -7.8849      2.00000
     74      -7.7669      2.00000
     75      -7.6963      2.00000
     76      -7.4136      2.00000
     77      -7.3640      2.00000
     78      -7.3452      2.00000
     79      -7.3223      2.00000
     80      -7.3025      2.00000
     81      -7.2974      2.00000
     82      -7.2831      2.00000
     83      -7.2687      2.00000
     84      -7.2568      2.00000
     85      -7.2440      2.00000
     86      -7.2053      2.00000
     87      -7.1941      2.00000
     88      -7.1725      2.00000
     89      -7.1569      2.00000
     90      -7.1446      2.00000
     91      -7.1319      2.00000
     92      -7.1311      2.00000
     93      -7.1071      2.00000
     94      -7.0937      2.00000
     95      -7.0842      2.00000
     96      -7.0831      2.00000
     97      -7.0721      2.00000
     98      -7.0696      2.00000
     99      -7.0646      2.00000
    100      -7.0533      2.00000
    101      -7.0482      2.00000
    102      -7.0206      2.00000
    103      -6.5833      2.00000
    104      -3.4028      2.00000
    105      -3.3721      2.00000
    106      -3.3439      2.00000
    107      -3.2851      2.00000
    108      -3.2604      2.00000
    109      -3.2324      2.00000
    110      -3.1995      2.00000
    111      -3.1777      2.00000
    112      -3.1545      2.00000
    113      -3.0889      2.00000
    114      -3.0695      2.00000
    115      -3.0087      2.00000
    116      -2.4803      2.00000
    117      -2.2813      2.00000
    118      -2.1143      2.00000
    119      -2.1116      2.00000
    120      -2.0816      2.00000
    121      -1.9746      2.00000
    122      -1.9630      2.00000
    123      -1.9221      2.00000
    124      -1.8613      2.00000
    125      -1.8413      2.00000
    126      -1.8088      2.00000
    127      -1.7351      2.00000
    128      -1.6983      2.00000
    129      -1.6795      2.00000
    130      -1.6656      2.00000
    131      -1.6057      2.00000
    132      -1.5818      2.00000
    133      -1.5519      2.00000
    134      -1.5349      2.00000
    135      -1.5114      2.00000
    136      -1.4931      2.00000
    137      -1.4895      2.00000
    138      -1.4667      2.00000
    139      -1.4589      2.00000
    140      -1.4381      2.00000
    141      -1.4180      2.00000
    142      -1.4043      2.00000
    143      -1.3975      2.00000
    144      -1.3800      2.00000
    145      -1.3574      2.00000
    146      -1.3511      2.00000
    147      -1.3396      2.00000
    148      -1.3328      2.00000
    149      -1.3227      2.00000
    150      -1.3176      2.00000
    151      -1.3102      2.00000
    152      -1.2898      2.00000
    153      -1.2619      2.00000
    154      -1.2444      2.00000
    155      -1.2311      2.00000
    156      -1.1999      2.00000
[...]


--------------------------------------------------------------------------------------------------------


 soft charge-density along one line, spin component           1
         0         1         2         3         4         5         6         7         8         9
 total charge-density along one line

 pseudopotential strength for first ion, spin component:           1
 17.940  -4.696   0.000   0.001   0.000  -0.000  -0.001  -0.001
 -4.696   1.238  -0.000  -0.000  -0.000   0.000   0.000   0.000
  0.000  -0.000   2.251  -0.000   0.000  -2.690   0.000  -0.000
  0.001  -0.000  -0.000   2.252  -0.001   0.000  -2.691   0.001
  0.000  -0.000   0.000  -0.001   2.251  -0.000   0.001  -2.689
 -0.000   0.000  -2.690   0.000  -0.000   3.181  -0.000   0.000
 -0.001   0.000   0.000  -2.691   0.001  -0.000   3.182  -0.001
 -0.001   0.000  -0.000   0.001  -2.689   0.000  -0.001   3.180
  0.000  -0.000   0.001   0.000   0.000  -0.002  -0.000  -0.000
 -0.000   0.000   0.001   0.000   0.000  -0.002  -0.000  -0.000
  0.001  -0.000  -0.000  -0.001  -0.000   0.000   0.001   0.000
 -0.001   0.000   0.000   0.000   0.002  -0.000  -0.000  -0.002
 -0.000   0.000  -0.000   0.000  -0.001   0.000  -0.000   0.001
 total augmentation occupancy for first ion, spin component:           1
  1.912  -0.138  -0.000   0.000   0.000   0.000   0.001   0.000   0.000  -0.000   0.001  -0.001  -0.000
 -0.138   0.114   0.001   0.002   0.002  -0.001  -0.003   0.000   0.000   0.001  -0.003   0.005   0.001
 -0.000   0.001   2.016  -0.000   0.000   0.004  -0.000   0.000   0.003   0.003  -0.000   0.000  -0.000
  0.000   0.002  -0.000   2.020  -0.002  -0.000   0.006  -0.001   0.000   0.000  -0.003   0.001  -0.000
  0.000   0.002   0.000  -0.002   2.016   0.000  -0.001   0.003   0.000   0.000  -0.000   0.002  -0.002
  0.000  -0.001   0.004  -0.000   0.000   0.008   0.000   0.000  -0.002  -0.003   0.000  -0.000   0.000
  0.001  -0.003  -0.000   0.006  -0.001   0.000   0.007   0.001  -0.000  -0.000   0.002  -0.000   0.001
  0.000   0.000   0.000  -0.001   0.003   0.000   0.001   0.009  -0.000  -0.000  -0.001  -0.001   0.002
  0.000   0.000   0.003   0.000   0.000  -0.002  -0.000  -0.000   0.006   0.002  -0.000   0.000   0.000
 -0.000   0.001   0.003   0.000   0.000  -0.003  -0.000  -0.000   0.002   0.004   0.000  -0.000   0.000
  0.001  -0.003  -0.000  -0.003  -0.000   0.000   0.002  -0.001  -0.000   0.000   0.005  -0.002  -0.001
 -0.001   0.005   0.000   0.001   0.002  -0.000  -0.000  -0.001   0.000  -0.000  -0.002   0.004   0.001
 -0.000   0.001  -0.000  -0.000  -0.002   0.000   0.001   0.002   0.000   0.000  -0.001   0.001   0.004


------------------------ aborting loop because EDIFF is reached ----------------------------------------





 total charge     

# of ion       s       p       d       tot
------------------------------------------
    1        1.785   4.716   0.018   6.520
    2        1.785   4.716   0.017   6.518
    3        1.785   4.716   0.017   6.518
    4        1.786   4.717   0.018   6.521
    5        1.785   4.716   0.017   6.519
    6        1.785   4.717   0.018   6.520
    7        1.788   4.718   0.023   6.529
    8        1.786   4.717   0.019   6.522
    9        1.554   0.422   9.835  11.811
   10        1.531   0.437   9.828  11.795
   11        1.554   0.410   9.832  11.796
   12        1.554   0.416   9.834  11.804
   13        1.535   0.430   9.829  11.794
   14        1.554   0.413   9.833  11.800
   15        1.554   0.417   9.834  11.805
   16        1.522   0.691   9.879  12.092
   17        1.614   3.280   0.006   4.900
   18        1.614   3.285   0.007   4.906
   19        1.615   3.285   0.007   4.907
   20        1.621   3.258   0.009   4.888
   21        1.614   3.286   0.007   4.908
   22        1.614   3.279   0.006   4.900
   23        1.614   3.285   0.007   4.906
   24        1.614   3.279   0.006   4.899
   25        1.614   3.282   0.006   4.903
   26        1.620   3.262   0.008   4.890
   27        1.614   3.281   0.006   4.901
   28        1.614   3.278   0.006   4.898
   29        1.614   3.284   0.006   4.904
   30        1.614   3.284   0.006   4.905
   31        1.614   3.278   0.006   4.898
   32        1.614   3.284   0.006   4.904
   33        1.614   3.279   0.006   4.899
   34        1.614   3.276   0.006   4.896
   35        1.614   3.285   0.006   4.905
   36        1.614   3.280   0.006   4.900
   37        1.614   3.281   0.006   4.901
   38        1.614   3.280   0.006   4.900
   39        1.631   3.375   0.036   5.041
--------------------------------------------------
tot         63.799 116.892  79.028 259.719

    CHARGE:  cpu time    0.3910: real time    0.3910
    FORLOC:  cpu time    0.0111: real time    0.0111
    FORNL :  cpu time    1.9236: real time    1.9236
    STRESS:  cpu time   49.7667: real time   49.7689
    FORCOR:  cpu time    0.2421: real time    0.2421
    FORHAR:  cpu time    0.0277: real time    0.0276
    MIXING:  cpu time    0.0021: real time    0.0021
    OFIELD:  cpu time    0.0001: real time    0.0001

  FORCE on cell =-STRESS in cart. coord.  units (eV):
  Direction    XX          YY          ZZ          XY          YZ          ZX
  --------------------------------------------------------------------------------------
  Alpha Z   872.70584   872.70584   872.70584
  Ewald   -5970.67451 -5984.93176 -5927.48526  -105.84291   223.82831   106.89565
  Hartree  2527.33691  2457.19318  2520.00752   -56.50425   111.79341    90.65297
  E(xc)   -1450.21880 -1450.05357 -1450.03472    -0.02717     0.21598     0.02230
  Local   -2952.98848 -2864.14725 -2985.92274   160.51877  -331.37692  -201.55008
  n-local  1751.99025  1755.12530  1756.77295    -3.53254     6.67950    -2.52289
  augment   818.15163   816.54002   816.79694     0.15477    -0.35535     0.96768
  Kinetic  4399.94036  4399.77653  4402.59847     1.98244    -1.96306     1.03935
  Fock        0.00000     0.00000     0.00000     0.00000     0.00000     0.00000
  -------------------------------------------------------------------------------------
  Total      -3.75681     2.20828     5.43899    -3.25089     8.82187    -4.49503
  in kB      -3.77351     2.21809     5.46316    -3.26534     8.86108    -4.51501
  external pressure =        1.30 kB  Pullay stress =        0.00 kB


 VOLUME and BASIS-vectors are now :
 -----------------------------------------------------------------------------
  energy-cutoff  :      300.00
  volume of cell :     1595.09
      direct lattice vectors                 reciprocal lattice vectors
     8.456489000  0.000000000  8.040301000     0.059126193 -0.000000000  0.062186727
     0.000000000 11.729847000  0.000000000     0.000000000  0.085252604 -0.000000000
    -8.456489000  0.000000000  8.040301000    -0.059126193  0.000000000  0.062186727

  length of vectors
    11.668703715 11.729847000 11.668703715     0.085808482  0.085252604  0.085808482


 FORCES acting on ions
    electron-ion (+dipol)            ewald-force                    non-local-force                 convergence-correction
 -----------------------------------------------------------------------------------------------
   0.153E+02 -.585E+01 -.330E+02   -.154E+02 0.583E+01 0.329E+02   0.335E-01 0.530E-01 0.898E-01   -.981E-04 0.183E-03 0.179E-03
   0.658E+02 -.293E+02 0.232E+02   -.652E+02 0.290E+02 -.228E+02   -.555E+00 0.401E+00 -.401E+00   0.286E-03 0.824E-04 -.178E-03
   0.281E+02 0.490E+01 -.109E+02   -.277E+02 -.485E+01 0.109E+02   -.417E+00 -.847E-01 -.185E-01   -.301E-04 -.204E-03 0.324E-04
   -.508E+02 0.778E+01 -.212E+02   0.508E+02 -.781E+01 0.213E+02   0.436E-01 0.998E-02 -.508E-01   0.174E-03 -.132E-03 -.141E-03
   -.953E+01 -.253E+02 -.211E+02   0.934E+01 0.251E+02 0.207E+02   0.174E+00 0.209E+00 0.323E+00   0.107E-03 0.666E-04 -.213E-03
   0.431E+02 -.629E+01 0.247E+02   -.430E+02 0.632E+01 -.247E+02   -.940E-01 -.346E-02 -.625E-02   -.252E-03 0.213E-03 0.153E-03
   -.236E+02 0.104E+02 0.534E+02   0.235E+02 -.102E+02 -.529E+02   0.129E+00 0.806E-01 -.104E+00   0.561E-04 -.459E-04 0.694E-04
   -.397E+02 0.496E+01 -.250E+02   0.395E+02 -.496E+01 0.248E+02   0.159E+00 -.371E-01 0.185E+00   -.235E-03 -.207E-03 0.184E-03
   -.101E+01 -.136E+01 0.168E+01   0.104E+01 0.119E+01 -.188E+01   -.261E-01 0.164E+00 0.203E+00   0.340E-04 0.188E-04 0.123E-04
   -.446E+01 0.953E+02 -.256E+02   0.464E+01 -.999E+02 0.267E+02   -.258E+00 0.510E+01 -.117E+01   -.118E-03 0.126E-02 -.285E-03
   -.149E+01 -.688E+01 0.383E+01   0.120E+01 0.695E+01 -.374E+01   0.272E+00 -.103E+00 -.894E-01   -.198E-04 -.168E-05 -.283E-04
   0.289E+01 0.735E+01 0.129E+01   -.259E+01 -.739E+01 -.122E+01   -.299E+00 0.426E-01 -.678E-01   0.542E-04 0.810E-04 0.848E-04
   -.777E+02 0.247E+02 0.462E+02   0.812E+02 -.254E+02 -.484E+02   -.388E+01 0.870E+00 0.239E+01   -.122E-02 0.231E-03 0.786E-03
   0.523E+01 -.458E+01 -.534E+01   -.515E+01 0.459E+01 0.539E+01   -.729E-01 -.140E-01 -.797E-01   0.861E-04 -.861E-04 -.975E-05
   -.399E+01 0.278E+01 0.595E+01   0.422E+01 -.260E+01 -.572E+01   -.230E+00 -.176E+00 -.200E+00   0.192E-04 -.121E-04 0.810E-04
   -.132E+02 0.285E+02 0.255E+02   0.196E+02 -.394E+02 -.384E+02   -.358E+01 0.647E+01 0.758E+01   0.243E-03 -.411E-03 -.354E-03
   -.649E+01 0.948E+01 0.444E+02   0.655E+01 -.943E+01 -.448E+02   -.694E-01 -.104E-01 0.404E+00   -.894E-04 -.217E-04 -.187E-04
   0.249E+02 0.235E+01 0.370E+02   -.251E+02 -.235E+01 -.372E+02   0.136E+00 0.412E-01 0.213E+00   0.130E-04 -.122E-03 0.113E-03
   -.856E+01 -.642E+01 0.432E+02   0.869E+01 0.640E+01 -.434E+02   -.107E+00 0.760E-02 0.252E+00   0.423E-05 0.616E-04 0.391E-04
   0.409E+01 0.577E+00 0.214E+02   -.394E+01 -.356E+00 -.217E+02   -.210E+00 -.140E+01 0.437E+00   0.555E-04 0.811E-04 0.386E-04
   0.991E+01 0.565E+01 -.338E+02   -.101E+02 -.566E+01 0.340E+02   0.134E+00 0.129E-01 -.199E+00   0.383E-04 -.692E-04 0.350E-05
   -.260E+02 -.118E+02 -.209E+02   0.261E+02 0.118E+02 0.212E+02   -.817E-01 0.228E-01 -.283E+00   -.790E-04 0.419E-04 0.653E-04
   -.121E+02 -.438E+01 -.330E+02   0.122E+02 0.439E+01 0.332E+02   -.130E+00 -.421E-01 -.181E+00   0.564E-04 0.113E-03 -.476E-04
   -.468E+02 0.151E+02 0.209E+02   0.470E+02 -.153E+02 -.212E+02   -.158E+00 0.143E+00 0.281E+00   -.301E-04 0.591E-04 -.410E-05
   -.942E+01 0.124E+02 0.253E+02   0.961E+01 -.125E+02 -.254E+02   0.703E-01 0.361E-01 0.250E+00   0.315E-04 -.975E-04 -.243E-04
   0.186E+02 -.388E+02 0.212E+02   -.189E+02 0.388E+02 -.213E+02   0.113E+01 0.276E+00 -.662E+00   -.249E-04 -.138E-03 0.825E-04
   0.275E+02 -.109E+02 0.384E+02   -.277E+02 0.111E+02 -.387E+02   0.164E+00 -.155E+00 0.254E+00   0.169E-03 -.631E-04 -.491E-04
   -.274E+02 -.181E+02 -.117E+02   0.276E+02 0.182E+02 0.119E+02   -.181E+00 -.116E+00 -.240E+00   -.308E-04 0.643E-04 -.123E-03
   -.167E+02 -.165E+02 -.332E+02   0.169E+02 0.167E+02 0.335E+02   -.174E+00 -.198E+00 -.255E+00   -.976E-04 0.356E-04 0.544E-04
   0.304E+02 0.835E+01 -.155E+02   -.306E+02 -.846E+01 0.158E+02   0.179E+00 0.110E+00 -.255E+00   -.225E-04 0.735E-04 -.322E-06
   0.949E+00 0.351E+02 -.410E+02   -.118E+01 -.353E+02 0.412E+02   0.221E+00 0.198E+00 -.183E+00   -.134E-04 0.240E-04 -.438E-04
   -.329E+02 -.121E+02 0.141E+02   0.331E+02 0.122E+02 -.144E+02   -.189E+00 -.119E+00 0.228E+00   0.304E-04 -.253E-04 -.911E-05
   0.229E+01 -.283E+01 0.351E+02   -.205E+01 0.299E+01 -.354E+02   -.239E+00 -.157E+00 0.230E+00   -.341E-05 0.170E-03 0.274E-04
   0.243E+02 0.364E+02 0.684E+01   -.244E+02 -.367E+02 -.711E+01   0.159E+00 0.222E+00 0.259E+00   -.819E-05 0.933E-04 0.511E-04
   0.185E+02 0.142E+02 0.328E+02   -.187E+02 -.144E+02 -.329E+02   0.175E+00 0.138E+00 0.167E+00   0.138E-03 0.485E-04 -.893E-05
   0.219E+02 -.393E+01 0.296E+01   -.221E+02 0.409E+01 -.273E+01   0.161E+00 -.149E+00 -.246E+00   -.844E-04 -.906E-04 0.846E-04
   0.182E+02 -.234E+02 -.384E+02   -.183E+02 0.236E+02 0.387E+02   -.985E-01 -.198E+00 -.473E+00   0.317E-04 -.656E-04 -.979E-04
   -.197E+02 0.142E+02 -.309E+02   0.199E+02 -.144E+02 0.311E+02   -.160E+00 0.178E+00 -.274E+00   -.112E-03 0.336E-05 0.113E-03
   0.782E+02 -.125E+03 -.139E+03   -.805E+02 0.128E+03 0.143E+03   -.103E+01 0.160E+01 0.198E+01   0.916E-04 -.216E-03 -.236E-03
 -----------------------------------------------------------------------------------------------
   0.890E+01 -.135E+02 -.103E+02   0.568E-13 -.284E-13 0.142E-12   -.890E+01 0.134E+02 0.103E+02   -.847E-03 0.995E-03 0.382E-03


 POSITION                                       TOTAL-FORCE (eV/Angst)
 -----------------------------------------------------------------------------------
      0.55037      2.89303      3.76819        -0.022744      0.035213      0.024785
      0.56991      2.89008     11.96645         0.049867      0.012384     -0.005696
      3.84099      8.83306      7.92267         0.027186     -0.042413     -0.002465
     -4.85383      8.80306      7.83863         0.014169     -0.021440     -0.016562
     -3.85640      2.84234      8.10582        -0.004223     -0.026763     -0.063743
      4.81663      2.92391      8.23795        -0.022826      0.030367      0.022610
     -0.50646      8.89669     12.43966         0.044149      0.210305      0.351013
     -0.59547      8.84084      4.03321        -0.010116     -0.029121     -0.025866
     -0.00414      0.01542      0.01040        -0.005001     -0.003127      0.005488
      0.00047      0.05695      8.03316        -0.071852      0.428020     -0.136629
      4.22879     11.71748      4.02570        -0.015848     -0.035656      0.001322
     -4.21997     11.72537      4.02056         0.015698      0.005175      0.004474
      4.14287      5.88977      4.07471        -0.399260      0.193714      0.209138
     -4.22085      5.86519      4.03253         0.015087     -0.005371     -0.013528
      0.00211      5.85378      0.00311         0.003136      0.005832      0.025165
      0.04356      5.80575      7.98813         2.869517     -4.555105     -5.457694
     -4.03832      8.77450     11.46638        -0.010545      0.018898      0.017701
      4.20508      8.79265     11.54747        -0.005957      0.040112     -0.014266
      0.00517      2.93807     15.59006         0.004537     -0.002000     -0.014041
     -0.15658      2.94379      7.45836        -0.074057     -1.203520      0.165674
     -0.03805      8.79879      0.41543        -0.004988      0.007854      0.000408
      4.16178      2.95092      4.54056         0.022757      0.013427     -0.015885
     -4.25109      2.93163      4.49934        -0.016602     -0.037711      0.014937
     -5.89772      5.49569      9.62984         0.027671     -0.007134      0.004244
      2.51661      5.46543      9.60436         0.254273     -0.076247      0.110317
      1.65984      6.39095      5.63632         0.873562      0.168228     -0.785929
      1.68012      6.21582     13.61516        -0.037779     -0.000918      0.016915
     -1.69624      0.40196     10.47498         0.003264      0.027192      0.002724
     -1.70572      0.39691      2.43362        -0.001558     -0.002565     -0.004546
      5.93118     11.39812      6.45737        -0.013035     -0.001550     -0.004532
     -2.48169     11.24990      6.46131         0.004530     -0.016496      0.004478
     -5.95717      0.33527      9.65442         0.005267      0.000366      0.009963
      2.51427      0.39063      9.62205        -0.023033      0.000819     -0.009149
      1.71646     11.20718      5.65732        -0.006289     -0.008268      0.016240
      1.74861     11.41854     13.67730        -0.003563      0.011342     -0.004973
      5.95274      6.22888      6.42145        -0.000350      0.001217     -0.036769
     -2.49622      6.30539      6.49981        -0.268939      0.007689     -0.224564
     -1.69464      5.48108      2.44926         0.030545      0.003407     -0.025230
     -0.79675      7.12091      9.59127        -3.246653      4.853839      5.854472
 -----------------------------------------------------------------------------------
    total drift:                                0.005750     -0.042773      0.010887


--------------------------------------------------------------------------------------------------------



  FREE ENERGIE OF THE ION-ELECTRON SYSTEM (eV)
  ---------------------------------------------------
  free  energy   TOTEN  =     -1407.49876211 eV

  energy  without entropy=    -1407.49876211  energy(sigma->0) =    -1407.49876211



--------------------------------------------------------------------------------------------------------


    POTLOK:  cpu time    1.4284: real time    1.4285


--------------------------------------------------------------------------------------------------------


 stress matrix after NEB project (eV)
     -3.75681     -3.25074     -4.49503
     -3.25089      2.20828      8.82173
     -4.49520      8.82187      5.43899
  FORCES: max atom, RMS     8.268939    1.831993
  FORCE total and by dimension   11.440790    5.854472
  Stress total and by dimension   16.302419    8.821871
     LOOP+:  cpu time  491.1109: real time  491.8511
    4ORBIT:  cpu time    0.0000: real time    0.0000



 total charge     

# of ion       s       p       d       tot
------------------------------------------
    1        1.785   4.716   0.018   6.520
    2        1.785   4.716   0.017   6.518
    3        1.785   4.716   0.017   6.518
    4        1.786   4.717   0.018   6.521
    5        1.785   4.716   0.017   6.519
    6        1.785   4.717   0.018   6.520
    7        1.788   4.718   0.023   6.529
    8        1.786   4.717   0.019   6.522
    9        1.554   0.422   9.835  11.811
   10        1.531   0.437   9.828  11.795
   11        1.554   0.410   9.832  11.796
   12        1.554   0.416   9.834  11.804
   13        1.535   0.430   9.829  11.794
   14        1.554   0.413   9.833  11.800
   15        1.554   0.417   9.834  11.805
   16        1.522   0.691   9.879  12.092
   17        1.614   3.280   0.006   4.900
   18        1.614   3.285   0.007   4.906
   19        1.615   3.285   0.007   4.907
   20        1.621   3.258   0.009   4.888
   21        1.614   3.286   0.007   4.908
   22        1.614   3.279   0.006   4.900
   23        1.614   3.285   0.007   4.906
   24        1.614   3.279   0.006   4.899
   25        1.614   3.282   0.006   4.903
   26        1.620   3.262   0.008   4.890
   27        1.614   3.281   0.006   4.901
   28        1.614   3.278   0.006   4.898
   29        1.614   3.284   0.006   4.904
   30        1.614   3.284   0.006   4.905
   31        1.614   3.278   0.006   4.898
   32        1.614   3.284   0.006   4.904
   33        1.614   3.279   0.006   4.899
   34        1.614   3.276   0.006   4.896
   35        1.614   3.285   0.006   4.905
   36        1.614   3.280   0.006   4.900
   37        1.614   3.281   0.006   4.901
   38        1.614   3.280   0.006   4.900
   39        1.631   3.375   0.036   5.041
--------------------------------------------------
tot         63.799 116.892  79.028 259.719


 total amount of memory used by VASP MPI-rank0    60648. kBytes
=======================================================================

   base      :      30000. kBytes
   nonlr-proj:       6483. kBytes
   fftplans  :       8423. kBytes
   grid      :       7465. kBytes
   one-center:         77. kBytes
   wavefun   :       8200. kBytes

  
  
 General timing and accounting informations for this job:
 ========================================================
  
                  Total CPU time used (sec):      503.485
                            User time (sec):      502.129
                          System time (sec):        1.356
                         Elapsed time (sec):      504.956
  
                   Maximum memory used (kb):       77992.
                   Average memory used (kb):           0.
  
                          Minor page faults:        20949
                          Major page faults:            2
                 Voluntary context switches:         1770
