  20  20   1   0
  0.4066809E+02  0.8226833E-09  0.1199908E-08  0.8239540E-09  0.5000000E-15
   1.0000000000000000E-004
  CAR 
 CsPbBr3 cubic bulk                      
      8.46206319    -22.29732973  301      0.49025386      1.00000000
    -22.297  0.0000E+00  0.0000E+00
    -22.195  0.0000E+00  0.0000E+00
    -22.092  0.0000E+00  0.0000E+00
    -21.990  0.0000E+00  0.0000E+00
    -21.887  0.0000E+00  0.0000E+00
    -21.785  0.0000E+00  0.0000E+00
    -21.682  0.0000E+00  0.0000E+00
    -21.580  0.0000E+00  0.0000E+00
    -21.477  0.0000E+00  0.0000E+00
    -21.375  0.0000E+00  0.0000E+00
    -21.272  0.0000E+00  0.0000E+00
    -21.169  0.0000E+00  0.0000E+00
    -21.067  0.0000E+00  0.0000E+00
    -20.964  0.0000E+00  0.0000E+00
    -20.862  0.7802E+02  0.8000E+01
    -20.759  0.0000E+00  0.8000E+01
    -20.657  0.0000E+00  0.8000E+01
    -20.554  0.0000E+00  0.8000E+01
    -20.452  0.0000E+00  0.8000E+01
    -20.349  0.0000E+00  0.8000E+01
    -20.247  0.0000E+00  0.8000E+01
    -20.144  0.0000E+00  0.8000E+01
    -20.042  0.0000E+00  0.8000E+01
    -19.939  0.0000E+00  0.8000E+01
    -19.837  0.0000E+00  0.8000E+01
    -19.734  0.0000E+00  0.8000E+01
    -19.632  0.0000E+00  0.8000E+01
    -19.529  0.0000E+00  0.8000E+01
    -19.426  0.0000E+00  0.8000E+01
    -19.324  0.0000E+00  0.8000E+01
    -19.221  0.0000E+00  0.8000E+01
    -19.119  0.0000E+00  0.8000E+01
    -19.016  0.0000E+00  0.8000E+01
    -18.914  0.0000E+00  0.8000E+01
    -18.811  0.0000E+00  0.8000E+01
    -18.709  0.0000E+00  0.8000E+01
    -18.606  0.0000E+00  0.8000E+01
    -18.504  0.0000E+00  0.8000E+01
    -18.401  0.0000E+00  0.8000E+01
    -18.299  0.0000E+00  0.8000E+01
    -18.196  0.0000E+00  0.8000E+01
    -18.094  0.0000E+00  0.8000E+01
    -17.991  0.0000E+00  0.8000E+01
    -17.888  0.0000E+00  0.8000E+01
    -17.786  0.0000E+00  0.8000E+01
    -17.683  0.0000E+00  0.8000E+01
    -17.581  0.0000E+00  0.8000E+01
    -17.478  0.0000E+00  0.8000E+01
    -17.376  0.0000E+00  0.8000E+01
    -17.273  0.0000E+00  0.8000E+01
    -17.171  0.0000E+00  0.8000E+01
    -17.068  0.0000E+00  0.8000E+01
    -16.966  0.0000E+00  0.8000E+01
    -16.863  0.0000E+00  0.8000E+01
    -16.761  0.0000E+00  0.8000E+01
    -16.658  0.0000E+00  0.8000E+01
    -16.556  0.1860E-03  0.8000E+01
    -16.453  0.1387E+03  0.2222E+02
    -16.351  0.2336E+03  0.4795E+02
    -16.248  0.0000E+00  0.4800E+02
    -16.145  0.0000E+00  0.4800E+02
    -16.043  0.0000E+00  0.4800E+02
    -15.940  0.0000E+00  0.4800E+02
    -15.838  0.0000E+00  0.4800E+02
    -15.735  0.0000E+00  0.4800E+02
    -15.633  0.0000E+00  0.4800E+02
    -15.530  0.0000E+00  0.4800E+02
    -15.428  0.0000E+00  0.4800E+02
    -15.325  0.0000E+00  0.4800E+02
    -15.223  0.0000E+00  0.4800E+02
    -15.120  0.0000E+00  0.4800E+02
    -15.018  0.0000E+00  0.4800E+02
    -14.915  0.0000E+00  0.4800E+02
    -14.813  0.0000E+00  0.4800E+02
    -14.710  0.0000E+00  0.4800E+02
    -14.607  0.0000E+00  0.4800E+02
    -14.505  0.0000E+00  0.4800E+02
    -14.402  0.6637E-07  0.4800E+02
    -14.300  0.7396E+01  0.4876E+02
    -14.197  0.2278E+02  0.5111E+02
    -14.095  0.3149E+02  0.5478E+02
    -13.992  0.5162E+02  0.6040E+02
    -13.890  0.2914E+02  0.6521E+02
    -13.787  0.3580E+02  0.7111E+02
    -13.685  0.0000E+00  0.7200E+02
    -13.582  0.0000E+00  0.7200E+02
    -13.480  0.0000E+00  0.7200E+02
    -13.377  0.0000E+00  0.7200E+02
    -13.275  0.0000E+00  0.7200E+02
    -13.172  0.0000E+00  0.7200E+02
    -13.070  0.0000E+00  0.7200E+02
    -12.967  0.0000E+00  0.7200E+02
    -12.864  0.0000E+00  0.7200E+02
    -12.762  0.0000E+00  0.7200E+02
    -12.659  0.0000E+00  0.7200E+02
    -12.557  0.0000E+00  0.7200E+02
    -12.454  0.0000E+00  0.7200E+02
    -12.352  0.0000E+00  0.7200E+02
    -12.249  0.0000E+00  0.7200E+02
    -12.147  0.0000E+00  0.7200E+02
    -12.044  0.0000E+00  0.7200E+02
    -11.942  0.0000E+00  0.7200E+02
    -11.839  0.0000E+00  0.7200E+02
    -11.737  0.0000E+00  0.7200E+02
    -11.634  0.0000E+00  0.7200E+02
    -11.532  0.0000E+00  0.7200E+02
    -11.429  0.0000E+00  0.7200E+02
    -11.326  0.0000E+00  0.7200E+02
    -11.224  0.0000E+00  0.7200E+02
    -11.121  0.0000E+00  0.7200E+02
    -11.019  0.0000E+00  0.7200E+02
    -10.916  0.0000E+00  0.7200E+02
    -10.814  0.0000E+00  0.7200E+02
    -10.711  0.0000E+00  0.7200E+02
    -10.609  0.0000E+00  0.7200E+02
    -10.506  0.0000E+00  0.7200E+02
    -10.404  0.0000E+00  0.7200E+02
    -10.301  0.0000E+00  0.7200E+02
    -10.199  0.0000E+00  0.7200E+02
    -10.096  0.0000E+00  0.7200E+02
     -9.994  0.0000E+00  0.7200E+02
     -9.891  0.0000E+00  0.7200E+02
     -9.789  0.0000E+00  0.7200E+02
     -9.686  0.0000E+00  0.7200E+02
     -9.583  0.0000E+00  0.7200E+02
     -9.481  0.0000E+00  0.7200E+02
     -9.378  0.0000E+00  0.7200E+02
     -9.276  0.0000E+00  0.7200E+02
     -9.173  0.0000E+00  0.7200E+02
     -9.071  0.0000E+00  0.7200E+02
     -8.968  0.0000E+00  0.7200E+02
     -8.866  0.0000E+00  0.7200E+02
     -8.763  0.0000E+00  0.7200E+02
     -8.661  0.0000E+00  0.7200E+02
     -8.558  0.0000E+00  0.7200E+02
     -8.456  0.0000E+00  0.7200E+02
     -8.353  0.0000E+00  0.7200E+02
     -8.251  0.5785E-11  0.7200E+02
     -8.148  0.1084E+01  0.7211E+02
     -8.045  0.2166E-13  0.7211E+02
     -7.943  0.6502E+01  0.7278E+02
     -7.840  0.4145E+01  0.7320E+02
     -7.738  0.9612E+01  0.7421E+02
     -7.635  0.6162E+01  0.7485E+02
     -7.533  0.5284E+01  0.7565E+02
     -7.430  0.4335E+01  0.7644E+02
     -7.328  0.2235E+02  0.7874E+02
     -7.225  0.1952E+03  0.1018E+03
     -7.123  0.5418E+01  0.1028E+03
     -7.020  0.4335E+01  0.1032E+03
     -6.918  0.5847E+01  0.1038E+03
     -6.815  0.0000E+00  0.1039E+03
     -6.713  0.0000E+00  0.1039E+03
     -6.610  0.1432E+00  0.1039E+03
     -6.508  0.0000E+00  0.1040E+03
     -6.405  0.0000E+00  0.1040E+03
     -6.302  0.0000E+00  0.1040E+03
     -6.200  0.0000E+00  0.1040E+03
     -6.097  0.0000E+00  0.1040E+03
     -5.995  0.0000E+00  0.1040E+03
     -5.892  0.0000E+00  0.1040E+03
     -5.790  0.0000E+00  0.1040E+03
     -5.687  0.0000E+00  0.1040E+03
     -5.585  0.0000E+00  0.1040E+03
     -5.482  0.0000E+00  0.1040E+03
     -5.380  0.0000E+00  0.1040E+03
     -5.277  0.0000E+00  0.1040E+03
     -5.175  0.0000E+00  0.1040E+03
     -5.072  0.0000E+00  0.1040E+03
     -4.970  0.0000E+00  0.1040E+03
     -4.867  0.0000E+00  0.1040E+03
     -4.764  0.0000E+00  0.1040E+03
     -4.662  0.0000E+00  0.1040E+03
     -4.559  0.0000E+00  0.1040E+03
     -4.457  0.0000E+00  0.1040E+03
     -4.354  0.0000E+00  0.1040E+03
     -4.252  0.0000E+00  0.1040E+03
     -4.149  0.0000E+00  0.1040E+03
     -4.047  0.0000E+00  0.1040E+03
     -3.944  0.0000E+00  0.1040E+03
     -3.842  0.0000E+00  0.1040E+03
     -3.739  0.0000E+00  0.1040E+03
     -3.637  0.0000E+00  0.1040E+03
     -3.534  0.0000E+00  0.1040E+03
     -3.432  0.0000E+00  0.1040E+03
     -3.329  0.1062E+01  0.1041E+03
     -3.227  0.1311E+02  0.1055E+03
     -3.124  0.1437E+02  0.1077E+03
     -3.021  0.7551E+01  0.1089E+03
     -2.919  0.1295E+02  0.1102E+03
     -2.816  0.1105E+02  0.1116E+03
     -2.714  0.8586E+01  0.1138E+03
     -2.611  0.0000E+00  0.1140E+03
     -2.509  0.8535E+01  0.1149E+03
     -2.406  0.1270E+02  0.1164E+03
     -2.304  0.3007E+01  0.1181E+03
     -2.201  0.1195E+02  0.1194E+03
     -2.099  0.2447E+02  0.1224E+03
     -1.996  0.2566E+02  0.1256E+03
     -1.894  0.7542E+01  0.1271E+03
     -1.791  0.9852E+01  0.1281E+03
     -1.689  0.3618E+02  0.1327E+03
     -1.586  0.1043E+02  0.1348E+03
     -1.483  0.3348E+02  0.1390E+03
     -1.381  0.5113E+02  0.1460E+03
     -1.278  0.4975E+02  0.1535E+03
     -1.176  0.3784E+02  0.1599E+03
     -1.073  0.4570E+02  0.1665E+03
     -0.971  0.6501E+01  0.1680E+03
     -0.868  0.2353E+02  0.1704E+03
     -0.766  0.3602E-10  0.1710E+03
     -0.663  0.9857E+01  0.1720E+03
     -0.561  0.1734E+02  0.1742E+03
     -0.458  0.4291E+01  0.1747E+03
     -0.356  0.0000E+00  0.1747E+03
     -0.253  0.2667E-09  0.1747E+03
     -0.151  0.9741E+01  0.1757E+03
     -0.048  0.4724E+00  0.1757E+03
      0.054  0.0000E+00  0.1759E+03
      0.157  0.0000E+00  0.1759E+03
      0.260  0.0000E+00  0.1759E+03
      0.362  0.3868E-01  0.1759E+03
      0.465  0.0000E+00  0.1760E+03
      0.567  0.0000E+00  0.1760E+03
      0.670  0.0000E+00  0.1760E+03
      0.772  0.0000E+00  0.1760E+03
      0.875  0.0000E+00  0.1760E+03
      0.977  0.0000E+00  0.1760E+03
      1.080  0.0000E+00  0.1760E+03
      1.182  0.0000E+00  0.1760E+03
      1.285  0.0000E+00  0.1760E+03
      1.387  0.0000E+00  0.1760E+03
      1.490  0.0000E+00  0.1760E+03
      1.592  0.0000E+00  0.1760E+03
      1.695  0.0000E+00  0.1760E+03
      1.798  0.0000E+00  0.1760E+03
      1.900  0.0000E+00  0.1760E+03
      2.003  0.0000E+00  0.1760E+03
      2.105  0.0000E+00  0.1760E+03
      2.208  0.0000E+00  0.1760E+03
      2.310  0.0000E+00  0.1760E+03
      2.413  0.0000E+00  0.1760E+03
      2.515  0.0000E+00  0.1760E+03
      2.618  0.1074E+01  0.1761E+03
      2.720  0.7459E-14  0.1761E+03
      2.823  0.6502E+01  0.1768E+03
      2.925  0.4335E+01  0.1772E+03
      3.028  0.4335E+01  0.1777E+03
      3.130  0.8669E+01  0.1786E+03
      3.233  0.1337E+02  0.1799E+03
      3.335  0.3391E-08  0.1801E+03
      3.438  0.5380E+01  0.1807E+03
      3.541  0.2056E+01  0.1809E+03
      3.643  0.2187E+01  0.1811E+03
      3.746  0.7798E+01  0.1821E+03
      3.848  0.5362E+01  0.1830E+03
      3.951  0.8669E+01  0.1842E+03
      4.053  0.1150E+02  0.1854E+03
      4.156  0.2167E+01  0.1858E+03
      4.258  0.6546E+01  0.1864E+03
      4.361  0.8645E+01  0.1880E+03
      4.463  0.1043E-02  0.1880E+03
      4.566  0.1726E+02  0.1898E+03
      4.668  0.2432E-07  0.1898E+03
      4.771  0.3234E+01  0.1901E+03
      4.873  0.4335E+01  0.1906E+03
      4.976  0.3230E+00  0.1906E+03
      5.079  0.1084E+02  0.1919E+03
      5.181  0.1436E+02  0.1934E+03
      5.284  0.1254E+02  0.1950E+03
      5.386  0.2839E+01  0.1953E+03
      5.489  0.2566E+01  0.1957E+03
      5.591  0.4334E+01  0.1962E+03
      5.694  0.6079E+01  0.1968E+03
      5.796  0.1449E+02  0.1986E+03
      5.899  0.2563E+00  0.1991E+03
      6.001  0.2067E+02  0.2018E+03
      6.104  0.4338E+01  0.2028E+03
      6.206  0.1853E+02  0.2048E+03
      6.309  0.1192E+02  0.2061E+03
      6.411  0.2071E+02  0.2082E+03
      6.514  0.2190E+02  0.2106E+03
      6.616  0.2323E+02  0.2132E+03
      6.719  0.2737E+02  0.2169E+03
      6.822  0.2469E+02  0.2198E+03
      6.924  0.1941E+02  0.2223E+03
      7.027  0.6500E+01  0.2233E+03
      7.129  0.6502E+01  0.2240E+03
      7.232  0.0000E+00  0.2240E+03
      7.334  0.0000E+00  0.2240E+03
      7.437  0.0000E+00  0.2240E+03
      7.539  0.0000E+00  0.2240E+03
      7.642  0.0000E+00  0.2240E+03
      7.744  0.0000E+00  0.2240E+03
      7.847  0.0000E+00  0.2240E+03
      7.949  0.0000E+00  0.2240E+03
      8.052  0.0000E+00  0.2240E+03
      8.154  0.0000E+00  0.2240E+03
      8.257  0.0000E+00  0.2240E+03
      8.360  0.0000E+00  0.2240E+03
      8.462  0.0000E+00  0.2240E+03
      8.46206319    -22.29732973  301      0.49025386      1.00000000
    -22.297  0.0000E+00  0.0000E+00  0.0000E+00
    -22.195  0.0000E+00  0.0000E+00  0.0000E+00
    -22.092  0.0000E+00  0.0000E+00  0.0000E+00
    -21.990  0.0000E+00  0.0000E+00  0.0000E+00
    -21.887  0.0000E+00  0.0000E+00  0.0000E+00
    -21.785  0.0000E+00  0.0000E+00  0.0000E+00
    -21.682  0.0000E+00  0.0000E+00  0.0000E+00
    -21.580  0.0000E+00  0.0000E+00  0.0000E+00
    -21.477  0.0000E+00  0.0000E+00  0.0000E+00
    -21.375  0.0000E+00  0.0000E+00  0.0000E+00
    -21.272  0.0000E+00  0.0000E+00  0.0000E+00
    -21.169  0.0000E+00  0.0000E+00  0.0000E+00
    -21.067  0.0000E+00  0.0000E+00  0.0000E+00
    -20.964  0.0000E+00  0.0000E+00  0.0000E+00
    -20.862  0.1731E+02  0.5644E-05  0.6172E-05
    -20.759  0.0000E+00  0.0000E+00  0.0000E+00
    -20.657  0.0000E+00  0.0000E+00  0.0000E+00
    -20.554  0.0000E+00  0.0000E+00  0.0000E+00
    -20.452  0.0000E+00  0.0000E+00  0.0000E+00
    -20.349  0.0000E+00  0.0000E+00  0.0000E+00
    -20.247  0.0000E+00  0.0000E+00  0.0000E+00
    -20.144  0.0000E+00  0.0000E+00  0.0000E+00
    -20.042  0.0000E+00  0.0000E+00  0.0000E+00
    -19.939  0.0000E+00  0.0000E+00  0.0000E+00
    -19.837  0.0000E+00  0.0000E+00  0.0000E+00
    -19.734  0.0000E+00  0.0000E+00  0.0000E+00
    -19.632  0.0000E+00  0.0000E+00  0.0000E+00
    -19.529  0.0000E+00  0.0000E+00  0.0000E+00
    -19.426  0.0000E+00  0.0000E+00  0.0000E+00
    -19.324  0.0000E+00  0.0000E+00  0.0000E+00
    -19.221  0.0000E+00  0.0000E+00  0.0000E+00
    -19.119  0.0000E+00  0.0000E+00  0.0000E+00
    -19.016  0.0000E+00  0.0000E+00  0.0000E+00
    -18.914  0.0000E+00  0.0000E+00  0.0000E+00
    -18.811  0.0000E+00  0.0000E+00  0.0000E+00
    -18.709  0.0000E+00  0.0000E+00  0.0000E+00
    -18.606  0.0000E+00  0.0000E+00  0.0000E+00
    -18.504  0.0000E+00  0.0000E+00  0.0000E+00
    -18.401  0.0000E+00  0.0000E+00  0.0000E+00
    -18.299  0.0000E+00  0.0000E+00  0.0000E+00
    -18.196  0.0000E+00  0.0000E+00  0.0000E+00
    -18.094  0.0000E+00  0.0000E+00  0.0000E+00
    -17.991  0.0000E+00  0.0000E+00  0.0000E+00
    -17.888  0.0000E+00  0.0000E+00  0.0000E+00
    -17.786  0.0000E+00  0.0000E+00  0.0000E+00
    -17.683  0.0000E+00  0.0000E+00  0.0000E+00
    -17.581  0.0000E+00  0.0000E+00  0.0000E+00
    -17.478  0.0000E+00  0.0000E+00  0.0000E+00
    -17.376  0.0000E+00  0.0000E+00  0.0000E+00
    -17.273  0.0000E+00  0.0000E+00  0.0000E+00
    -17.171  0.0000E+00  0.0000E+00  0.0000E+00
    -17.068  0.0000E+00  0.0000E+00  0.0000E+00
    -16.966  0.0000E+00  0.0000E+00  0.0000E+00
    -16.863  0.0000E+00  0.0000E+00  0.0000E+00
    -16.761  0.0000E+00  0.0000E+00  0.0000E+00
    -16.658  0.0000E+00  0.0000E+00  0.0000E+00
    -16.556  0.5271E-09  0.2079E-09  0.2843E-10
    -16.453  0.1080E-03  0.9572E-04  0.1704E-04
    -16.351  0.5123E-04  0.2952E-04  0.3536E-05
    -16.248  0.0000E+00  0.0000E+00  0.0000E+00
    -16.145  0.0000E+00  0.0000E+00  0.0000E+00
    -16.043  0.0000E+00  0.0000E+00  0.0000E+00
    -15.940  0.0000E+00  0.0000E+00  0.0000E+00
    -15.838  0.0000E+00  0.0000E+00  0.0000E+00
    -15.735  0.0000E+00  0.0000E+00  0.0000E+00
    -15.633  0.0000E+00  0.0000E+00  0.0000E+00
    -15.530  0.0000E+00  0.0000E+00  0.0000E+00
    -15.428  0.0000E+00  0.0000E+00  0.0000E+00
    -15.325  0.0000E+00  0.0000E+00  0.0000E+00
    -15.223  0.0000E+00  0.0000E+00  0.0000E+00
    -15.120  0.0000E+00  0.0000E+00  0.0000E+00
    -15.018  0.0000E+00  0.0000E+00  0.0000E+00
    -14.915  0.0000E+00  0.0000E+00  0.0000E+00
    -14.813  0.0000E+00  0.0000E+00  0.0000E+00
    -14.710  0.0000E+00  0.0000E+00  0.0000E+00
    -14.607  0.0000E+00  0.0000E+00  0.0000E+00
    -14.505  0.0000E+00  0.0000E+00  0.0000E+00
    -14.402  0.2369E-10  0.8439E-13  0.7630E-13
    -14.300  0.1905E-02  0.4735E-03  0.1141E-04
    -14.197  0.2590E-02  0.3441E-02  0.7767E-04
    -14.095  0.4215E-03  0.3936E-02  0.2080E-03
    -13.992  0.3111E-02  0.6342E-02  0.4740E-03
    -13.890  0.3374E-03  0.2123E-02  0.2512E-03
    -13.787  0.1032E-02  0.2425E-02  0.3147E-03
    -13.685  0.0000E+00  0.0000E+00  0.0000E+00
    -13.582  0.0000E+00  0.0000E+00  0.0000E+00
    -13.480  0.0000E+00  0.0000E+00  0.0000E+00
    -13.377  0.0000E+00  0.0000E+00  0.0000E+00
    -13.275  0.0000E+00  0.0000E+00  0.0000E+00
    -13.172  0.0000E+00  0.0000E+00  0.0000E+00
    -13.070  0.0000E+00  0.0000E+00  0.0000E+00
    -12.967  0.0000E+00  0.0000E+00  0.0000E+00
    -12.864  0.0000E+00  0.0000E+00  0.0000E+00
    -12.762  0.0000E+00  0.0000E+00  0.0000E+00
    -12.659  0.0000E+00  0.0000E+00  0.0000E+00
    -12.557  0.0000E+00  0.0000E+00  0.0000E+00
    -12.454  0.0000E+00  0.0000E+00  0.0000E+00
    -12.352  0.0000E+00  0.0000E+00  0.0000E+00
    -12.249  0.0000E+00  0.0000E+00  0.0000E+00
    -12.147  0.0000E+00  0.0000E+00  0.0000E+00
    -12.044  0.0000E+00  0.0000E+00  0.0000E+00
    -11.942  0.0000E+00  0.0000E+00  0.0000E+00
    -11.839  0.0000E+00  0.0000E+00  0.0000E+00
    -11.737  0.0000E+00  0.0000E+00  0.0000E+00
    -11.634  0.0000E+00  0.0000E+00  0.0000E+00
    -11.532  0.0000E+00  0.0000E+00  0.0000E+00
    -11.429  0.0000E+00  0.0000E+00  0.0000E+00
    -11.326  0.0000E+00  0.0000E+00  0.0000E+00
    -11.224  0.0000E+00  0.0000E+00  0.0000E+00
    -11.121  0.0000E+00  0.0000E+00  0.0000E+00
    -11.019  0.0000E+00  0.0000E+00  0.0000E+00
    -10.916  0.0000E+00  0.0000E+00  0.0000E+00
    -10.814  0.0000E+00  0.0000E+00  0.0000E+00
    -10.711  0.0000E+00  0.0000E+00  0.0000E+00
    -10.609  0.0000E+00  0.0000E+00  0.0000E+00
    -10.506  0.0000E+00  0.0000E+00  0.0000E+00
    -10.404  0.0000E+00  0.0000E+00  0.0000E+00
    -10.301  0.0000E+00  0.0000E+00  0.0000E+00
    -10.199  0.0000E+00  0.0000E+00  0.0000E+00
    -10.096  0.0000E+00  0.0000E+00  0.0000E+00
     -9.994  0.0000E+00  0.0000E+00  0.0000E+00
     -9.891  0.0000E+00  0.0000E+00  0.0000E+00
     -9.789  0.0000E+00  0.0000E+00  0.0000E+00
     -9.686  0.0000E+00  0.0000E+00  0.0000E+00
     -9.583  0.0000E+00  0.0000E+00  0.0000E+00
     -9.481  0.0000E+00  0.0000E+00  0.0000E+00
     -9.378  0.0000E+00  0.0000E+00  0.0000E+00
     -9.276  0.0000E+00  0.0000E+00  0.0000E+00
     -9.173  0.0000E+00  0.0000E+00  0.0000E+00
     -9.071  0.0000E+00  0.0000E+00  0.0000E+00
     -8.968  0.0000E+00  0.0000E+00  0.0000E+00
     -8.866  0.0000E+00  0.0000E+00  0.0000E+00
     -8.763  0.0000E+00  0.0000E+00  0.0000E+00
     -8.661  0.0000E+00  0.0000E+00  0.0000E+00
     -8.558  0.0000E+00  0.0000E+00  0.0000E+00
     -8.456  0.0000E+00  0.0000E+00  0.0000E+00
     -8.353  0.0000E+00  0.0000E+00  0.0000E+00
     -8.251  0.7902E-29  0.2770E-15  0.1803E-16
     -8.148  0.1480E-17  0.5190E-04  0.3378E-05
     -8.045  0.2984E-20  0.1352E-16  0.5351E-19
     -7.943  0.3003E-06  0.4229E-02  0.2176E-04
     -7.840  0.2742E-17  0.3325E-02  0.2762E-04
     -7.738  0.9776E-05  0.2138E-01  0.2946E-04
     -7.635  0.6082E-05  0.1512E-01  0.3153E-04
     -7.533  0.1739E-05  0.6195E-01  0.1002E-04
     -7.430  0.1671E-09  0.4602E-01  0.2715E-04
     -7.328  0.4899E-04  0.2176E+01  0.3086E-04
     -7.225  0.4567E-04  0.3658E+02  0.6990E-04
     -7.123  0.1145E-04  0.3859E+00  0.1696E-04
     -7.020  0.2494E-04  0.9830E-01  0.1572E-04
     -6.918  0.4843E-04  0.2980E-01  0.1896E-04
     -6.815  0.0000E+00  0.0000E+00  0.0000E+00
     -6.713  0.0000E+00  0.0000E+00  0.0000E+00
     -6.610  0.1547E-05  0.2436E-03  0.2406E-06
     -6.508  0.0000E+00  0.0000E+00  0.0000E+00
     -6.405  0.0000E+00  0.0000E+00  0.0000E+00
     -6.302  0.0000E+00  0.0000E+00  0.0000E+00
     -6.200  0.0000E+00  0.0000E+00  0.0000E+00
     -6.097  0.0000E+00  0.0000E+00  0.0000E+00
     -5.995  0.0000E+00  0.0000E+00  0.0000E+00
     -5.892  0.0000E+00  0.0000E+00  0.0000E+00
     -5.790  0.0000E+00  0.0000E+00  0.0000E+00
     -5.687  0.0000E+00  0.0000E+00  0.0000E+00
     -5.585  0.0000E+00  0.0000E+00  0.0000E+00
     -5.482  0.0000E+00  0.0000E+00  0.0000E+00
     -5.380  0.0000E+00  0.0000E+00  0.0000E+00
     -5.277  0.0000E+00  0.0000E+00  0.0000E+00
     -5.175  0.0000E+00  0.0000E+00  0.0000E+00
     -5.072  0.0000E+00  0.0000E+00  0.0000E+00
     -4.970  0.0000E+00  0.0000E+00  0.0000E+00
     -4.867  0.0000E+00  0.0000E+00  0.0000E+00
     -4.764  0.0000E+00  0.0000E+00  0.0000E+00
     -4.662  0.0000E+00  0.0000E+00  0.0000E+00
     -4.559  0.0000E+00  0.0000E+00  0.0000E+00
     -4.457  0.0000E+00  0.0000E+00  0.0000E+00
     -4.354  0.0000E+00  0.0000E+00  0.0000E+00
     -4.252  0.0000E+00  0.0000E+00  0.0000E+00
     -4.149  0.0000E+00  0.0000E+00  0.0000E+00
     -4.047  0.0000E+00  0.0000E+00  0.0000E+00
     -3.944  0.0000E+00  0.0000E+00  0.0000E+00
     -3.842  0.0000E+00  0.0000E+00  0.0000E+00
     -3.739  0.0000E+00  0.0000E+00  0.0000E+00
     -3.637  0.0000E+00  0.0000E+00  0.0000E+00
     -3.534  0.0000E+00  0.0000E+00  0.0000E+00
     -3.432  0.0000E+00  0.0000E+00  0.0000E+00
     -3.329  0.1482E-04  0.1953E-02  0.3739E-04
     -3.227  0.9844E-04  0.1584E-01  0.1146E-02
     -3.124  0.4576E-04  0.7948E-02  0.1495E-02
     -3.021  0.5166E-04  0.4777E-02  0.6305E-03
     -2.919  0.3030E-03  0.1612E-01  0.9131E-03
     -2.816  0.1687E-03  0.1078E-01  0.5567E-03
     -2.714  0.1516E-03  0.6277E-02  0.6663E-03
     -2.611  0.0000E+00  0.0000E+00  0.0000E+00
     -2.509  0.1287E-03  0.1562E-01  0.1231E-02
     -2.406  0.1229E-02  0.1108E-01  0.1343E-02
     -2.304  0.3629E-03  0.1834E-02  0.2444E-03
     -2.201  0.3668E-02  0.9773E-02  0.1152E-02
     -2.099  0.1465E-01  0.2706E-01  0.2669E-02
     -1.996  0.1632E-01  0.3375E-01  0.5476E-02
     -1.894  0.1080E-02  0.3179E-01  0.8402E-03
     -1.791  0.4664E-03  0.6228E-01  0.2183E-02
     -1.689  0.2260E-02  0.9950E-01  0.1163E-01
     -1.586  0.7248E-03  0.3047E-01  0.2918E-02
     -1.483  0.3780E-02  0.4330E-01  0.1204E-01
     -1.381  0.4785E-02  0.7999E-01  0.1804E-01
     -1.278  0.3813E-02  0.6186E-01  0.1042E-01
     -1.176  0.2282E-02  0.5238E-01  0.8551E-02
     -1.073  0.1850E-02  0.5809E-01  0.1045E-01
     -0.971  0.3160E-03  0.2365E-02  0.2130E-02
     -0.868  0.1126E-02  0.2813E-01  0.6400E-02
     -0.766  0.2311E-14  0.2012E-13  0.2828E-14
     -0.663  0.5053E-03  0.4874E-02  0.6817E-03
     -0.561  0.3937E-03  0.4836E-02  0.1759E-02
     -0.458  0.8384E-16  0.2726E-02  0.2261E-04
     -0.356  0.0000E+00  0.0000E+00  0.0000E+00
     -0.253  0.2740E-25  0.1355E-13  0.2778E-13
     -0.151  0.3535E-06  0.8940E-03  0.1453E-02
     -0.048  0.2241E-06  0.3014E-04  0.3363E-04
      0.054  0.0000E+00  0.0000E+00  0.0000E+00
      0.157  0.0000E+00  0.0000E+00  0.0000E+00
      0.260  0.0000E+00  0.0000E+00  0.0000E+00
      0.362  0.1481E-18  0.3593E-09  0.1345E-05
      0.465  0.0000E+00  0.0000E+00  0.0000E+00
      0.567  0.0000E+00  0.0000E+00  0.0000E+00
      0.670  0.0000E+00  0.0000E+00  0.0000E+00
      0.772  0.0000E+00  0.0000E+00  0.0000E+00
      0.875  0.0000E+00  0.0000E+00  0.0000E+00
      0.977  0.0000E+00  0.0000E+00  0.0000E+00
      1.080  0.0000E+00  0.0000E+00  0.0000E+00
      1.182  0.0000E+00  0.0000E+00  0.0000E+00
      1.285  0.0000E+00  0.0000E+00  0.0000E+00
      1.387  0.0000E+00  0.0000E+00  0.0000E+00
      1.490  0.0000E+00  0.0000E+00  0.0000E+00
      1.592  0.0000E+00  0.0000E+00  0.0000E+00
      1.695  0.0000E+00  0.0000E+00  0.0000E+00
      1.798  0.0000E+00  0.0000E+00  0.0000E+00
      1.900  0.0000E+00  0.0000E+00  0.0000E+00
      2.003  0.0000E+00  0.0000E+00  0.0000E+00
      2.105  0.0000E+00  0.0000E+00  0.0000E+00
      2.208  0.0000E+00  0.0000E+00  0.0000E+00
      2.310  0.0000E+00  0.0000E+00  0.0000E+00
      2.413  0.0000E+00  0.0000E+00  0.0000E+00
      2.515  0.0000E+00  0.0000E+00  0.0000E+00
      2.618  0.3261E-05  0.8682E-04  0.5561E-03
      2.720  0.2513E-29  0.7747E-19  0.7792E-17
      2.823  0.1728E-03  0.6392E-03  0.3504E-02
      2.925  0.2585E-05  0.1098E-02  0.1464E-02
      3.028  0.2424E-03  0.3398E-03  0.2208E-02
      3.130  0.3290E-03  0.3857E-02  0.1484E-02
      3.233  0.9224E-03  0.4954E-02  0.3142E-02
      3.335  0.2881E-14  0.6825E-12  0.3885E-12
      3.438  0.8284E-03  0.1301E-02  0.1866E-02
      3.541  0.1782E-17  0.4392E-03  0.1939E-02
      3.643  0.1095E-14  0.5370E-03  0.1155E-02
      3.746  0.4141E-03  0.1365E-02  0.6625E-02
      3.848  0.2945E-03  0.1561E-02  0.4119E-02
      3.951  0.1038E-02  0.6462E-03  0.4194E-02
      4.053  0.3799E-03  0.2710E-02  0.3553E-02
      4.156  0.1046E-05  0.1553E-03  0.2661E-02
      4.258  0.3642E-03  0.1632E-02  0.3527E-02
      4.361  0.2082E-05  0.4052E-02  0.5917E-02
      4.463  0.1437E-06  0.1722E-06  0.4277E-06
      4.566  0.3159E-02  0.4701E-02  0.8069E-02
      4.668  0.2020E-10  0.9360E-11  0.1524E-10
      4.771  0.1349E-01  0.8367E-03  0.1926E-02
      4.873  0.2533E-13  0.2434E-03  0.7187E-02
      4.976  0.2853E-14  0.7527E-04  0.3274E-03
      5.079  0.9403E-03  0.3676E-02  0.1326E-01
      5.181  0.2056E-01  0.9927E-02  0.1382E-01
      5.284  0.6035E-02  0.7253E-02  0.1026E-01
      5.386  0.6912E-02  0.1139E-02  0.3363E-02
      5.489  0.1487E-02  0.1133E-03  0.4617E-02
      5.591  0.6614E-15  0.2871E-03  0.1888E-01
      5.694  0.6111E-02  0.1210E-02  0.1173E-01
      5.796  0.1887E-02  0.2154E-02  0.5087E-01
      5.899  0.1781E-02  0.2496E-03  0.2065E-02
      6.001  0.3892E-01  0.8684E-02  0.8356E-01
      6.104  0.1147E-01  0.2874E-02  0.1074E+00
      6.206  0.8035E-01  0.3539E-01  0.2696E+00
      6.309  0.4011E-01  0.1664E-01  0.2646E+00
      6.411  0.4331E-01  0.2584E-01  0.4615E+00
      6.514  0.5364E-01  0.1796E-01  0.5666E+00
      6.616  0.3253E-01  0.4820E-01  0.5976E+00
      6.719  0.3458E-01  0.5017E-01  0.8646E+00
      6.822  0.7481E-02  0.4200E-01  0.8391E+00
      6.924  0.1313E-01  0.6142E-01  0.6468E+00
      7.027  0.7913E-02  0.2790E-01  0.1738E+00
      7.129  0.1801E-02  0.1409E-01  0.2358E+00
      7.232  0.0000E+00  0.0000E+00  0.0000E+00
      7.334  0.0000E+00  0.0000E+00  0.0000E+00
      7.437  0.0000E+00  0.0000E+00  0.0000E+00
      7.539  0.0000E+00  0.0000E+00  0.0000E+00
      7.642  0.0000E+00  0.0000E+00  0.0000E+00
      7.744  0.0000E+00  0.0000E+00  0.0000E+00
      7.847  0.0000E+00  0.0000E+00  0.0000E+00
      7.949  0.0000E+00  0.0000E+00  0.0000E+00
      8.052  0.0000E+00  0.0000E+00  0.0000E+00
      8.154  0.0000E+00  0.0000E+00  0.0000E+00
      8.257  0.0000E+00  0.0000E+00  0.0000E+00
      8.360  0.0000E+00  0.0000E+00  0.0000E+00
      8.462  0.0000E+00  0.0000E+00  0.0000E+00
      8.46206319    -22.29732973  301      0.49025386      1.00000000
    -22.297  0.0000E+00  0.0000E+00  0.0000E+00
    -22.195  0.0000E+00  0.0000E+00  0.0000E+00
    -22.092  0.0000E+00  0.0000E+00  0.0000E+00
    -21.990  0.0000E+00  0.0000E+00  0.0000E+00
    -21.887  0.0000E+00  0.0000E+00  0.0000E+00
    -21.785  0.0000E+00  0.0000E+00  0.0000E+00
    -21.682  0.0000E+00  0.0000E+00  0.0000E+00
    -21.580  0.0000E+00  0.0000E+00  0.0000E+00
    -21.477  0.0000E+00  0.0000E+00  0.0000E+00
    -21.375  0.0000E+00  0.0000E+00  0.0000E+00
    -21.272  0.0000E+00  0.0000E+00  0.0000E+00
    -21.169  0.0000E+00  0.0000E+00  0.0000E+00
    -21.067  0.0000E+00  0.0000E+00  0.0000E+00
    -20.964  0.0000E+00  0.0000E+00  0.0000E+00
    -20.862  0.1731E+02  0.5644E-05  0.6203E-05
    -20.759  0.0000E+00  0.0000E+00  0.0000E+00
    -20.657  0.0000E+00  0.0000E+00  0.0000E+00
    -20.554  0.0000E+00  0.0000E+00  0.0000E+00
    -20.452  0.0000E+00  0.0000E+00  0.0000E+00
    -20.349  0.0000E+00  0.0000E+00  0.0000E+00
    -20.247  0.0000E+00  0.0000E+00  0.0000E+00
    -20.144  0.0000E+00  0.0000E+00  0.0000E+00
    -20.042  0.0000E+00  0.0000E+00  0.0000E+00
    -19.939  0.0000E+00  0.0000E+00  0.0000E+00
    -19.837  0.0000E+00  0.0000E+00  0.0000E+00
    -19.734  0.0000E+00  0.0000E+00  0.0000E+00
    -19.632  0.0000E+00  0.0000E+00  0.0000E+00
    -19.529  0.0000E+00  0.0000E+00  0.0000E+00
    -19.426  0.0000E+00  0.0000E+00  0.0000E+00
    -19.324  0.0000E+00  0.0000E+00  0.0000E+00
    -19.221  0.0000E+00  0.0000E+00  0.0000E+00
    -19.119  0.0000E+00  0.0000E+00  0.0000E+00
    -19.016  0.0000E+00  0.0000E+00  0.0000E+00
    -18.914  0.0000E+00  0.0000E+00  0.0000E+00
    -18.811  0.0000E+00  0.0000E+00  0.0000E+00
    -18.709  0.0000E+00  0.0000E+00  0.0000E+00
    -18.606  0.0000E+00  0.0000E+00  0.0000E+00
    -18.504  0.0000E+00  0.0000E+00  0.0000E+00
    -18.401  0.0000E+00  0.0000E+00  0.0000E+00
    -18.299  0.0000E+00  0.0000E+00  0.0000E+00
    -18.196  0.0000E+00  0.0000E+00  0.0000E+00
    -18.094  0.0000E+00  0.0000E+00  0.0000E+00
    -17.991  0.0000E+00  0.0000E+00  0.0000E+00
    -17.888  0.0000E+00  0.0000E+00  0.0000E+00
    -17.786  0.0000E+00  0.0000E+00  0.0000E+00
    -17.683  0.0000E+00  0.0000E+00  0.0000E+00
    -17.581  0.0000E+00  0.0000E+00  0.0000E+00
    -17.478  0.0000E+00  0.0000E+00  0.0000E+00
    -17.376  0.0000E+00  0.0000E+00  0.0000E+00
    -17.273  0.0000E+00  0.0000E+00  0.0000E+00
    -17.171  0.0000E+00  0.0000E+00  0.0000E+00
    -17.068  0.0000E+00  0.0000E+00  0.0000E+00
    -16.966  0.0000E+00  0.0000E+00  0.0000E+00
    -16.863  0.0000E+00  0.0000E+00  0.0000E+00
    -16.761  0.0000E+00  0.0000E+00  0.0000E+00
    -16.658  0.0000E+00  0.0000E+00  0.0000E+00
    -16.556  0.4367E-09  0.2036E-09  0.2757E-10
    -16.453  0.1060E-03  0.9421E-04  0.1714E-04
    -16.351  0.5120E-04  0.2931E-04  0.3529E-05
    -16.248  0.0000E+00  0.0000E+00  0.0000E+00
    -16.145  0.0000E+00  0.0000E+00  0.0000E+00
    -16.043  0.0000E+00  0.0000E+00  0.0000E+00
    -15.940  0.0000E+00  0.0000E+00  0.0000E+00
    -15.838  0.0000E+00  0.0000E+00  0.0000E+00
    -15.735  0.0000E+00  0.0000E+00  0.0000E+00
    -15.633  0.0000E+00  0.0000E+00  0.0000E+00
    -15.530  0.0000E+00  0.0000E+00  0.0000E+00
    -15.428  0.0000E+00  0.0000E+00  0.0000E+00
    -15.325  0.0000E+00  0.0000E+00  0.0000E+00
    -15.223  0.0000E+00  0.0000E+00  0.0000E+00
    -15.120  0.0000E+00  0.0000E+00  0.0000E+00
    -15.018  0.0000E+00  0.0000E+00  0.0000E+00
    -14.915  0.0000E+00  0.0000E+00  0.0000E+00
    -14.813  0.0000E+00  0.0000E+00  0.0000E+00
    -14.710  0.0000E+00  0.0000E+00  0.0000E+00
    -14.607  0.0000E+00  0.0000E+00  0.0000E+00
    -14.505  0.0000E+00  0.0000E+00  0.0000E+00
    -14.402  0.2369E-10  0.8439E-13  0.7630E-13
    -14.300  0.1905E-02  0.4735E-03  0.1141E-04
    -14.197  0.3310E-02  0.2659E-02  0.7372E-04
    -14.095  0.4075E-03  0.6772E-02  0.2340E-03
    -13.992  0.1204E-02  0.3416E-02  0.4227E-03
    -13.890  0.1229E-02  0.3341E-02  0.2936E-03
    -13.787  0.1092E-02  0.2277E-02  0.2400E-03
    -13.685  0.0000E+00  0.0000E+00  0.0000E+00
    -13.582  0.0000E+00  0.0000E+00  0.0000E+00
    -13.480  0.0000E+00  0.0000E+00  0.0000E+00
    -13.377  0.0000E+00  0.0000E+00  0.0000E+00
    -13.275  0.0000E+00  0.0000E+00  0.0000E+00
    -13.172  0.0000E+00  0.0000E+00  0.0000E+00