 running on   64 total cores
 distrk:  each k-point on   64 cores,    1 groups
 distr:  one band on    8 cores,    8 groups
 using from now: INCAR     
 vasp.5.4.4.18Apr17-6-g9f103f2a35 (build Jun 29 2021 11:06:51) complex           
 POSCAR found type information on POSCAR  Cs Pb Br
 POSCAR found :  3 types and      20 ions
 scaLAPACK will be used
 LDA part: xc-table for Pade appr. of Perdew
 POSCAR found type information on POSCAR  Cs Pb Br
 POSCAR found :  3 types and      20 ions
 POSCAR, INCAR and KPOINTS ok, starting setup
 FFT: planning ...
 WAVECAR not read
 entering main loop
       N       E                     dE             d eps       ncg     rms          rms(c)
DAV:   1     0.658639680125E+03    0.65864E+03   -0.55959E+04  1824   0.919E+02
DAV:   2    -0.572868448371E+03   -0.12315E+04   -0.11741E+04  2176   0.285E+02
DAV:   3    -0.748951519287E+03   -0.17608E+03   -0.17489E+03  2440   0.128E+02
DAV:   4    -0.754449539488E+03   -0.54980E+01   -0.54771E+01  2144   0.297E+01
DAV:   5    -0.754707106326E+03   -0.25757E+00   -0.25741E+00  2384   0.520E+00    0.699E+00
DAV:   6    -0.714973900150E+03    0.39733E+02   -0.11794E+01  2376   0.283E+01    0.499E+00
DAV:   7    -0.714734348201E+03    0.23955E+00   -0.38240E+00  2264   0.479E+00    0.258E+00
DAV:   8    -0.714830471987E+03   -0.96124E-01   -0.18097E-01  2128   0.169E+00    0.147E+00
DAV:   9    -0.714872417468E+03   -0.41945E-01   -0.84797E-02  1960   0.119E+00    0.318E-01
DAV:  10    -0.714873323492E+03   -0.90602E-03   -0.48731E-03  2584   0.321E-01    0.187E-01
DAV:  11    -0.714874915462E+03   -0.15920E-02   -0.16927E-03  2008   0.169E-01    0.683E-02
DAV:  12    -0.714875000213E+03   -0.84751E-04   -0.45351E-04  2072   0.946E-02    0.233E-02
DAV:  13    -0.714875004168E+03   -0.39550E-05   -0.42859E-05  2248   0.254E-02    0.693E-03
DAV:  14    -0.714875015683E+03   -0.11515E-04   -0.29940E-06  1736   0.617E-03    0.187E-03
DAV:  15    -0.714875017662E+03   -0.19793E-05   -0.42531E-07  1272   0.309E-03    0.561E-04
DAV:  16    -0.714875015946E+03    0.17165E-05   -0.12548E-07  1184   0.181E-03    0.367E-04
DAV:  17    -0.714875015060E+03    0.88606E-06   -0.34102E-08  1128   0.993E-04
   1 F= -.71487502E+03 E0= -.71487502E+03  d E =-.442278E-61
Application 1866225 resources: utime ~7616s, stime ~64s, Rss ~76260, inblocks ~1328, outblocks ~50896
