<?xml version="1.0" encoding="ISO-8859-1"?>
<modeling>
 <generator>
  <i name="program" type="string">vasp </i>
  <i name="version" type="string">5.4.4.18Apr17-6-g9f103f2a35  </i>
  <i name="subversion" type="string">(build Jun 29 2021 11:06:51) complex            parallel </i>
  <i name="platform" type="string">tx2_gcc-7.3_libsci-18.07_cray-fftw-3.3.8 </i>
  <i name="date" type="string">2021 09 21 </i>
  <i name="time" type="string">08:32:47 </i>
 </generator>
 <incar>
  <i type="string" name="SYSTEM"> CsPbBr3 cubic bulk</i>
  <i type="string" name="PREC">accurate</i>
  <i type="string" name="ALGO"> Normal   ! Electronic minimisation algo</i>
  <i type="logical" name="ADDGRID"> T  </i>
  <i type="int" name="NELM">   200</i>
  <i type="int" name="IBRION">     2</i>
  <i name="EDIFF">      0.00000100</i>
  <i name="EDIFFG">     -0.01000000</i>
  <i type="int" name="NSW">     0</i>
  <i type="int" name="ISIF">     3</i>
  <i type="int" name="ISYM">     2</i>
  <i name="ENCUT">    300.00000000</i>
  <i name="POTIM">      0.50000000</i>
  <i type="string" name="LREAL"> AUTO</i>
  <i type="int" name="ISMEAR">     0</i>
  <i name="SIGMA">      0.01000000</i>
  <i name="PSTRESS">      0.00000000</i>
  <i type="logical" name="LWAVE"> F  </i>
  <i type="logical" name="LCHARG"> F  </i>
  <i type="logical" name="LVHAR"> T  </i>
  <i type="int" name="LORBIT">    10</i>
  <i type="logical" name="LASPH"> T  </i>
  <v type="int" name="KPOINT_BSE">    -1     0     0     0</v>
  <i type="int" name="NELM">   200</i>
  <i type="string" name="METAGGA"> SCAN       ! PBE exchange-correlation</i>
  <i type="logical" name="LASPH"> T  </i>
 </incar>
 <structure name="primitive_cell" >
  <crystal>
   <varray name="basis" >
    <v>       8.22683325       0.00000000       0.00000000 </v>
    <v>       0.00000000      11.99908394       0.00000000 </v>
    <v>       0.00000000       0.00000000       8.23954016 </v>
   </varray>
   <i name="volume">    813.36178032 </i>
   <varray name="rec_basis" >
    <v>       0.12155345       0.00000000       0.00000000 </v>
    <v>       0.00000000       0.08333970       0.00000000 </v>
    <v>       0.00000000       0.00000000       0.12136600 </v>
   </varray>
  </crystal>
  <varray name="positions" >
   <v>       0.05009026       0.25000000       0.49149110 </v>
   <v>      -0.19609566       0.02808171       0.30366553 </v>
   <v>      -0.19609566       0.47191829       0.30366553 </v>
   <v>       0.49880752       0.25000000      -0.44762867 </v>
   <v>      -0.00119248       0.25000000      -0.05237133 </v>
   <v>       0.19609566      -0.47191829      -0.30366553 </v>
   <v>       0.19609566      -0.02808171      -0.30366553 </v>
   <v>       0.30390434       0.47191829       0.19633447 </v>
   <v>       0.30390434       0.02808171       0.19633447 </v>
   <v>      -0.50000000       0.00000000      -0.50000000 </v>
   <v>      -0.50000000      -0.50000000      -0.50000000 </v>
   <v>       0.00000000       0.00000000       0.00000000 </v>
   <v>       0.00000000      -0.50000000       0.00000000 </v>
   <v>      -0.30390434      -0.02808171      -0.19633447 </v>
   <v>      -0.30390434      -0.47191829      -0.19633447 </v>
   <v>      -0.44990974       0.25000000       0.00850890 </v>
   <v>      -0.05009026      -0.25000000      -0.49149110 </v>
   <v>       0.00119248      -0.25000000       0.05237133 </v>
   <v>      -0.49880752      -0.25000000       0.44762867 </v>
   <v>       0.44990974      -0.25000000      -0.00850890 </v>
  </varray>
 </structure>
 <varray name="primitive_index" >
  <v type="int" >        1 </v>
  <v type="int" >       15 </v>
  <v type="int" >       20 </v>
  <v type="int" >       12 </v>
  <v type="int" >       10 </v>
  <v type="int" >       14 </v>
  <v type="int" >       18 </v>
  <v type="int" >       13 </v>
  <v type="int" >       17 </v>
  <v type="int" >        6 </v>
  <v type="int" >        7 </v>
  <v type="int" >        5 </v>
  <v type="int" >        8 </v>
  <v type="int" >       16 </v>
  <v type="int" >       19 </v>
  <v type="int" >        3 </v>
  <v type="int" >        4 </v>
  <v type="int" >       11 </v>
  <v type="int" >        9 </v>
  <v type="int" >        2 </v>
 </varray>
 <kpoints>
  <generation param="Gamma">
   <v type="int" name="divisions">       3        2        3 </v>
   <v name="usershift">      0.00000000       0.00000000       0.00000000 </v>
   <v name="genvec1">      0.33333333       0.00000000       0.00000000 </v>
   <v name="genvec2">      0.00000000       0.50000000       0.00000000 </v>
   <v name="genvec3">      0.00000000       0.00000000       0.33333333 </v>
   <v name="shift">      0.00000000       0.00000000       0.00000000 </v>
  </generation>
  <varray name="kpointlist" >
   <v>       0.00000000       0.00000000       0.00000000 </v>
   <v>       0.33333333       0.00000000       0.00000000 </v>
   <v>       0.00000000       0.50000000       0.00000000 </v>
   <v>       0.33333333       0.50000000       0.00000000 </v>
   <v>       0.00000000       0.00000000       0.33333333 </v>
   <v>       0.33333333       0.00000000       0.33333333 </v>
   <v>       0.00000000       0.50000000       0.33333333 </v>
   <v>       0.33333333       0.50000000       0.33333333 </v>
  </varray>
  <varray name="weights" >
   <v>       0.05555556 </v>
   <v>       0.11111111 </v>
   <v>       0.05555556 </v>
   <v>       0.11111111 </v>
   <v>       0.11111111 </v>
   <v>       0.22222222 </v>
   <v>       0.11111111 </v>
   <v>       0.22222222 </v>
  </varray>
 </kpoints>
 <parameters>
  <separator name="general" >
   <i type="string" name="SYSTEM">CsPbBr3 cubic bulk</i>
   <i type="logical" name="LCOMPAT"> F  </i>
  </separator>
  <separator name="electronic" >
   <i type="string" name="PREC">accura</i>
   <i name="ENMAX">    300.00000000</i>
   <i name="ENAUG">    503.85200000</i>
   <i name="EDIFF">      0.00000100</i>
   <i type="int" name="IALGO">    38</i>
   <i type="int" name="IWAVPR">    10</i>
   <i type="int" name="NBANDS">   112</i>
   <i name="NELECT">    176.00000000</i>
   <i type="int" name="TURBO">     0</i>
   <i type="int" name="IRESTART">     0</i>
   <i type="int" name="NREBOOT">     0</i>
   <i type="int" name="NMIN">     0</i>
   <i name="EREF">      0.00000000</i>
   <separator name="electronic smearing" >
    <i type="int" name="ISMEAR">     0</i>
    <i name="SIGMA">      0.01000000</i>
    <i name="KSPACING">      0.50000000</i>
    <i type="logical" name="KGAMMA"> T  </i>
   </separator>
   <separator name="electronic projectors" >
    <i type="logical" name="LREAL"> T  </i>
    <v name="ROPT">     -0.00025000     -0.00025000     -0.00025000</v>
    <i type="int" name="LMAXPAW">  -100</i>
    <i type="int" name="LMAXMIX">     2</i>
    <i type="logical" name="NLSPLINE"> F  </i>
   </separator>
   <separator name="electronic startup" >
    <i type="int" name="ISTART">     0</i>
    <i type="int" name="ICHARG">     2</i>
    <i type="int" name="INIWAV">     1</i>
   </separator>
   <separator name="electronic spin" >
    <i type="int" name="ISPIN">     1</i>
    <i type="logical" name="LNONCOLLINEAR"> F  </i>
    <v name="MAGMOM">      1.00000000      1.00000000      1.00000000      1.00000000      1.00000000      1.00000000      1.00000000      1.00000000      1.00000000      1.00000000      1.00000000      1.00000000      1.00000000      1.00000000      1.00000000      1.00000000      1.00000000      1.00000000      1.00000000      1.00000000
</v>
    <i name="NUPDOWN">     -1.00000000</i>
    <i type="logical" name="LSORBIT"> F  </i>
    <v name="SAXIS">      0.00000000      0.00000000      1.00000000</v>
    <i type="logical" name="LSPIRAL"> F  </i>
    <v name="QSPIRAL">      0.00000000      0.00000000      0.00000000</v>
    <i type="logical" name="LZEROZ"> F  </i>
   </separator>
   <separator name="electronic exchange-correlation" >
    <i type="logical" name="LASPH"> T  </i>
    <i type="logical" name="LMETAGGA"> F  </i>
   </separator>
   <separator name="electronic convergence" >
    <i type="int" name="NELM">   200</i>
    <i type="int" name="NELMDL">    -5</i>
    <i type="int" name="NELMIN">     2</i>
    <i name="ENINI">    300.00000000</i>
    <separator name="electronic convergence detail" >
     <i type="logical" name="LDIAG"> T  </i>
     <i type="logical" name="LSUBROT"> F  </i>
     <i name="WEIMIN">      0.00000000</i>
     <i name="EBREAK">      0.00000000</i>
     <i name="DEPER">      0.30000000</i>
     <i type="int" name="NRMM">     4</i>
     <i name="TIME">      0.40000000</i>
    </separator>
   </separator>
   <separator name="electronic mixer" >
    <i name="AMIX">      0.40000000</i>
    <i name="BMIX">      1.00000000</i>
    <i name="AMIN">      0.10000000</i>
    <i name="AMIX_MAG">      1.60000000</i>
    <i name="BMIX_MAG">      1.00000000</i>
    <separator name="electronic mixer details" >
     <i type="int" name="IMIX">     4</i>
     <i type="logical" name="MIXFIRST"> F  </i>
     <i type="int" name="MAXMIX">   -45</i>
     <i name="WC">    100.00000000</i>
     <i type="int" name="INIMIX">     1</i>
     <i type="int" name="MIXPRE">     1</i>
     <i type="int" name="MREMOVE">     5</i>
    </separator>
   </separator>
   <separator name="electronic dipolcorrection" >
    <i type="logical" name="LDIPOL"> F  </i>
    <i type="logical" name="LMONO"> F  </i>
    <i type="int" name="IDIPOL">     0</i>
    <i name="EPSILON">      1.00000000</i>
    <v name="DIPOL">   -100.00000000   -100.00000000   -100.00000000</v>
    <i name="EFIELD">      0.00000000</i>
   </separator>
  </separator>
  <separator name="grids" >
   <i type="int" name="NGX">    48</i>
   <i type="int" name="NGY">    70</i>
   <i type="int" name="NGZ">    48</i>
   <i type="int" name="NGXF">    96</i>
   <i type="int" name="NGYF">   140</i>
   <i type="int" name="NGZF">    96</i>
   <i type="logical" name="ADDGRID"> T  </i>
  </separator>
  <separator name="ionic" >
   <i type="int" name="NSW">     0</i>
   <i type="int" name="IBRION">    -1</i>
   <i type="int" name="MDALGO">     0</i>
   <i type="int" name="ISIF">     3</i>
   <i name="PSTRESS">      0.00000000</i>
   <i name="EDIFFG">     -0.01000000</i>
   <i type="int" name="NFREE">     1</i>
   <i name="POTIM">      0.50000000</i>
   <i name="SMASS">     -3.00000000</i>
   <i name="SCALEE">      1.00000000</i>
  </separator>
  <separator name="ionic md" >
   <i name="TEBEG">      0.00010000</i>
   <i name="TEEND">      0.00010000</i>
   <i type="int" name="NBLOCK">     1</i>
   <i type="int" name="KBLOCK">     1</i>
   <i type="int" name="NPACO">   256</i>
   <i name="APACO">     16.00000000</i>
  </separator>
  <separator name="symmetry" >
   <i type="int" name="ISYM">     2</i>
   <i name="SYMPREC">      0.00001000</i>
  </separator>
  <separator name="dos" >
   <i type="int" name="LORBIT">    10</i>
   <v name="RWIGS">     -1.00000000     -1.00000000     -1.00000000</v>
   <i type="int" name="NEDOS">   301</i>
   <i name="EMIN">     10.00000000</i>
   <i name="EMAX">    -10.00000000</i>
   <i name="EFERMI">      0.00000000</i>
  </separator>
  <separator name="writing" >
   <i type="int" name="NWRITE">     2</i>
   <i type="logical" name="LWAVE"> F  </i>
   <i type="logical" name="LDOWNSAMPLE"> F  </i>
   <i type="logical" name="LCHARG"> F  </i>
   <i type="logical" name="LPARD"> F  </i>
   <i type="logical" name="LVTOT"> F  </i>
   <i type="logical" name="LVHAR"> T  </i>
   <i type="logical" name="LELF"> F  </i>
   <i type="logical" name="LOPTICS"> F  </i>
   <v name="STM">      0.00000000      0.00000000      0.00000000      0.00000000      0.00000000      0.00000000      0.00000000</v>
  </separator>
  <separator name="performance" >
   <i type="int" name="NPAR">     8</i>
   <i type="int" name="NSIM">     4</i>
   <i type="int" name="NBLK">    -1</i>
   <i type="logical" name="LPLANE"> T  </i>
   <i type="logical" name="LSCALAPACK"> T  </i>
   <i type="logical" name="LSCAAWARE"> F  </i>
   <i type="logical" name="LSCALU"> F  </i>
   <i type="logical" name="LASYNC"> F  </i>
   <i type="logical" name="LORBITALREAL"> F  </i>
  </separator>
  <separator name="miscellaneous" >
   <i type="int" name="IDIOT">     3</i>
   <i type="int" name="ISPECIAL">     0</i>
   <i type="logical" name="LMUSIC"> F  </i>
   <v name="POMASS">    132.90000000    207.20000000     79.90400000</v>
   <v name="DARWINR">      0.00000000      0.00000000      0.00000000</v>
   <v name="DARWINV">      1.00000000      1.00000000      1.00000000</v>
   <i type="logical" name="LCORR"> T  </i>
  </separator>
  <i type="logical" name="GGA_COMPAT"> T  </i>
  <i type="logical" name="LBERRY"> F  </i>
  <i type="int" name="ICORELEVEL">     0</i>
  <i type="logical" name="LDAU"> F  </i>
  <i type="int" name="I_CONSTRAINED_M">     0</i>
  <separator name="electronic exchange-correlation" >
   <i type="string" name="GGA">--</i>
   <i type="int" name="VOSKOWN">     0</i>
   <i type="logical" name="LHFCALC"> F  </i>
   <i type="string" name="PRECFOCK"></i>
   <i type="logical" name="LSYMGRAD"> F  </i>
   <i type="logical" name="LHFONE"> F  </i>
   <i type="logical" name="LRHFCALC"> F  </i>
   <i type="logical" name="LTHOMAS"> F  </i>
   <i type="logical" name="LMODELHF"> F  </i>
   <i name="ENCUT4O">     -1.00000000</i>
   <i type="int" name="EXXOEP">     0</i>
   <i type="int" name="FOURORBIT">     0</i>
   <i name="AEXX">      0.00000000</i>
   <i name="HFALPHA">      0.00000000</i>
   <i name="MCALPHA">      0.00000000</i>
   <i name="ALDAX">      1.00000000</i>
   <i name="AGGAX">      1.00000000</i>
   <i name="ALDAC">      1.00000000</i>
   <i name="AGGAC">      1.00000000</i>
   <i type="int" name="NKREDX">     1</i>
   <i type="int" name="NKREDY">     1</i>
   <i type="int" name="NKREDZ">     1</i>
   <i type="logical" name="SHIFTRED"> F  </i>
   <i type="logical" name="ODDONLY"> F  </i>
   <i type="logical" name="EVENONLY"> F  </i>
   <i type="int" name="LMAXFOCK">     0</i>
   <i type="int" name="NMAXFOCKAE">     0</i>
   <i type="logical" name="LFOCKAEDFT"> F  </i>
   <i name="HFSCREEN">      0.00000000</i>
   <i name="HFSCREENC">      0.00000000</i>
   <i type="int" name="NBANDSGWLOW">     0</i>
  </separator>
  <separator name="vdW DFT" >
   <i type="logical" name="LUSE_VDW"> F  </i>
   <i name="Zab_VDW">     -0.84910000</i>
   <i name="PARAM1">      0.12340000</i>
   <i name="PARAM2">      1.00000000</i>
   <i name="PARAM3">      0.00000000</i>
  </separator>
  <separator name="model GW" >
   <i type="int" name="MODEL_GW">     0</i>
   <i name="MODEL_EPS0">     24.40085341</i>
   <i name="MODEL_ALPHA">      1.00000000</i>
  </separator>
  <separator name="linear response parameters" >
   <i type="logical" name="LEPSILON"> F  </i>
   <i type="logical" name="LRPA"> F  </i>
   <i type="logical" name="LNABLA"> F  </i>
   <i type="logical" name="LVEL"> F  </i>
   <i type="int" name="KINTER">     0</i>
   <i name="CSHIFT">      0.10000000</i>
   <i name="OMEGAMAX">     -1.00000000</i>
   <i name="DEG_THRESHOLD">      0.00200000</i>
   <i name="RTIME">     -0.10000000</i>
   <i name="WPLASMAI">      0.00000000</i>
   <v name="DFIELD">      0.00000000      0.00000000      0.00000000</v>
   <v name="WPLASMA">      0.00000000      0.00000000      0.00000000      0.00000000      0.00000000      0.00000000      0.00000000      0.00000000      0.00000000</v>
  </separator>
  <separator name="orbital magnetization" >
   <i type="logical" name="NUCIND"> F  </i>
   <v name="MAGPOS">      0.00000000      0.00000000      0.00000000</v>
   <i type="logical" name="LNICSALL"> T  </i>
   <i type="logical" name="ORBITALMAG"> F  </i>
   <i type="logical" name="LMAGBLOCH"> F  </i>
   <i type="logical" name="LCHIMAG"> F  </i>
   <i type="logical" name="LGAUGE"> T  </i>
   <i type="int" name="MAGATOM">     0</i>
   <v name="MAGDIPOL">      0.00000000      0.00000000      0.00000000</v>
   <v name="AVECCONST">      0.00000000      0.00000000      0.00000000</v>
  </separator>
  <separator name="response functions" >
   <i type="logical" name="LADDER"> F  </i>
   <i type="logical" name="LRPAFORCE"> F  </i>
   <i type="logical" name="LFXC"> F  </i>
   <i type="logical" name="LHARTREE"> T  </i>
   <i type="int" name="IBSE">     0</i>
   <v type="int" name="KPOINT">    -1     0     0     0</v>
   <i type="logical" name="LTCTE"> F  </i>
   <i type="logical" name="LTETE"> F  </i>
   <i type="logical" name="LTRIPLET"> F  </i>
   <i type="logical" name="LFXCEPS"> F  </i>
   <i type="logical" name="LFXHEG"> F  </i>
   <i type="int" name="NATURALO">     2</i>
   <i type="logical" name="L2ORDER"> F  </i>
   <i type="logical" name="LMP2LT"> F  </i>
   <i type="logical" name="LUSEW"> F  </i>
   <i name="ENCUTGW">     -2.00000000</i>
   <i name="ENCUTGWSOFT">     -2.00000000</i>
   <i name="ENCUTLF">     -1.00000000</i>
   <i type="int" name="LMAXMP2">    -1</i>
   <i name="SCISSOR">      0.00000000</i>
   <i type="int" name="NOMEGA">     0</i>
   <i type="int" name="NOMEGAR">     0</i>
   <i type="int" name="NBANDSGW">    -1</i>
   <i type="int" name="NBANDSO">    -1</i>
   <i type="int" name="NBANDSV">    -1</i>
   <i type="int" name="NELM">   200</i>
   <i type="int" name="NELMHF">     1</i>
   <i type="int" name="DIM">     3</i>
   <i type="int" name="ANTIRES">     0</i>
   <i name="OMEGAMAX">    -30.00000000</i>
   <i name="OMEGAMIN">    -30.00000000</i>
   <i name="OMEGATL">   -200.00000000</i>
   <i type="int" name="OMEGAGRID">   140</i>
   <i name="CSHIFT">     -0.10000000</i>
   <i type="logical" name="SELFENERGY"> F  </i>
   <i type="logical" name="LSPECTRAL"> F  </i>
   <i type="logical" name="LSPECTRALGW"> F  </i>
   <i type="logical" name="LSINGLES"> F  </i>
   <i type="logical" name="LFERMIGW"> F  </i>
   <i type="logical" name="ODDONLYGW"> F  </i>
   <i type="logical" name="EVENONLYGW"> F  </i>
   <i type="int" name="NKREDLFX">     1</i>
   <i type="int" name="NKREDLFY">     1</i>
   <i type="int" name="NKREDLFZ">     1</i>
   <i type="int" name="MAXMEM">  2800</i>
   <i type="int" name="TELESCOPE">     0</i>
   <i type="int" name="TAUPAR">     1</i>
   <i type="int" name="OMEGAPAR">    -1</i>
   <i name="LAMBDA">      1.00000000</i>
  </separator>
  <separator name="External order field" >
   <i name="OFIELD_KAPPA">      0.00000000</i>
   <v name="OFIELD_K">      0.00000000      0.00000000      0.00000000</v>
   <i name="OFIELD_Q6_NEAR">      0.00000000</i>
   <i name="OFIELD_Q6_FAR">      0.00000000</i>
   <i name="OFIELD_A">      0.00000000</i>
  </separator>
 </parameters>
 <atominfo>
  <atoms>      20 </atoms>
  <types>       3 </types>
  <array name="atoms" >
   <dimension dim="1">ion</dimension>
   <field type="string">element</field>
   <field type="int">atomtype</field>
   <set>
    <rc><c>Cs</c><c>   1</c></rc>
    <rc><c>Cs</c><c>   1</c></rc>
    <rc><c>Cs</c><c>   1</c></rc>
    <rc><c>Cs</c><c>   1</c></rc>
    <rc><c>Pb</c><c>   2</c></rc>
    <rc><c>Pb</c><c>   2</c></rc>
    <rc><c>Pb</c><c>   2</c></rc>
    <rc><c>Pb</c><c>   2</c></rc>
    <rc><c>Br</c><c>   3</c></rc>
    <rc><c>Br</c><c>   3</c></rc>
    <rc><c>Br</c><c>   3</c></rc>
    <rc><c>Br</c><c>   3</c></rc>
    <rc><c>Br</c><c>   3</c></rc>
    <rc><c>Br</c><c>   3</c></rc>
    <rc><c>Br</c><c>   3</c></rc>
    <rc><c>Br</c><c>   3</c></rc>
    <rc><c>Br</c><c>   3</c></rc>
    <rc><c>Br</c><c>   3</c></rc>
    <rc><c>Br</c><c>   3</c></rc>
    <rc><c>Br</c><c>   3</c></rc>
   </set>
  </array>
  <array name="atomtypes" >
   <dimension dim="1">type</dimension>
   <field type="int">atomspertype</field>
   <field type="string">element</field>
   <field>mass</field>
   <field>valence</field>
   <field type="string">pseudopotential</field>
   <set>
    <rc><c>   4</c><c>Cs</c><c>    132.90000000</c><c>      9.00000000</c><c>  PAW_PBE Cs_sv 08Apr2002               </c></rc>
    <rc><c>   4</c><c>Pb</c><c>    207.20000000</c><c>     14.00000000</c><c>  PAW_PBE Pb_d 06Sep2000                </c></rc>
    <rc><c>  12</c><c>Br</c><c>     79.90400000</c><c>      7.00000000</c><c>  PAW_PBE Br 06Sep2000                  </c></rc>
   </set>
  </array>
 </atominfo>
 <structure name="initialpos" >
  <crystal>
   <varray name="basis" >
    <v>       8.22683325       0.00000000       0.00000000 </v>
    <v>       0.00000000      11.99908394       0.00000000 </v>
    <v>       0.00000000       0.00000000       8.23954016 </v>
   </varray>
   <i name="volume">    813.36178032 </i>
   <varray name="rec_basis" >
    <v>       0.12155345       0.00000000       0.00000000 </v>
    <v>       0.00000000       0.08333970       0.00000000 </v>
    <v>       0.00000000       0.00000000       0.12136600 </v>
   </varray>
  </crystal>
  <varray name="positions" >
   <v>       0.05009026       0.25000000       0.49149110 </v>
   <v>       0.44990974       0.75000000       0.99149110 </v>
   <v>       0.55009026       0.25000000       0.00850890 </v>
   <v>       0.94990974       0.75000000       0.50850890 </v>
   <v>       0.00000000       0.00000000       0.00000000 </v>
   <v>       0.50000000       0.00000000       0.50000000 </v>
   <v>       0.50000000       0.50000000       0.50000000 </v>
   <v>       0.00000000       0.50000000       0.00000000 </v>
   <v>       0.50119248       0.75000000       0.44762867 </v>
   <v>       0.99880752       0.25000000       0.94762867 </v>
   <v>       0.00119248       0.75000000       0.05237133 </v>
   <v>       0.49880752       0.25000000       0.55237133 </v>
   <v>       0.30390434       0.47191829       0.19633447 </v>
   <v>       0.19609566       0.52808171       0.69633447 </v>
   <v>       0.80390434       0.02808171       0.30366553 </v>
   <v>       0.69609566       0.97191829       0.80366553 </v>
   <v>       0.30390434       0.02808171       0.19633447 </v>
   <v>       0.19609566       0.97191829       0.69633447 </v>
   <v>       0.69609566       0.52808171       0.80366553 </v>
   <v>       0.80390434       0.47191829       0.30366553 </v>
  </varray>
 </structure>
 <calculation>
  <scstep>
   <time name="dav">    3.95    3.95</time>
   <time name="total">    5.18    5.18</time>
   <energy>
    <i name="alphaZ">    443.60202617 </i>
    <i name="ewald">  -9187.65851955 </i>
    <i name="hartreedc">  -3677.53249835 </i>
    <i name="XCdc">    461.71311061 </i>
    <i name="pawpsdc">  10816.98087266 </i>
    <i name="pawaedc"> -11353.96092700 </i>
    <i name="eentropy">     -0.00000582 </i>
    <i name="bandstr">   -134.78447787 </i>
    <i name="atom">  13290.28009929 </i>
    <i name="e_fr_energy">    658.63968013 </i>
    <i name="e_wo_entrp">    658.63968595 </i>
    <i name="e_0_energy">    658.63968304 </i>
   </energy>
  </scstep>
  <scstep>
   <time name="dav">    4.48    4.49</time>
   <time name="total">    4.48    4.49</time>
   <energy>
    <i name="e_fr_energy">   -572.86844837 </i>
    <i name="e_wo_entrp">   -572.86844837 </i>
    <i name="e_0_energy">   -572.86844837 </i>
   </energy>
  </scstep>
  <scstep>
   <time name="dav">    4.79    4.83</time>
   <time name="total">    4.79    4.83</time>
   <energy>
    <i name="e_fr_energy">   -748.95151929 </i>
    <i name="e_wo_entrp">   -748.95151929 </i>
    <i name="e_0_energy">   -748.95151929 </i>
   </energy>
  </scstep>
  <scstep>
   <time name="dav">    4.41    4.42</time>
   <time name="total">    4.41    4.43</time>
   <energy>
    <i name="e_fr_energy">   -754.44953949 </i>
    <i name="e_wo_entrp">   -754.44953949 </i>
    <i name="e_0_energy">   -754.44953949 </i>
   </energy>
  </scstep>
  <scstep>
   <time name="dav">    4.72    4.76</time>
   <time name="total">    5.59    5.63</time>
   <energy>
    <i name="e_fr_energy">   -754.70710633 </i>
    <i name="e_wo_entrp">   -754.70710633 </i>
    <i name="e_0_energy">   -754.70710633 </i>
   </energy>
  </scstep>
  <scstep>
   <time name="dav">    4.68    4.68</time>
   <time name="total">    6.74    6.78</time>
   <energy>
    <i name="e_fr_energy">   -714.97390015 </i>
    <i name="e_wo_entrp">   -714.97390015 </i>
    <i name="e_0_energy">   -714.97390015 </i>
   </energy>
  </scstep>
  <scstep>
   <time name="dav">    4.53    4.53</time>
   <time name="total">    6.64    6.64</time>
   <energy>
    <i name="e_fr_energy">   -714.73434820 </i>
    <i name="e_wo_entrp">   -714.73434820 </i>
    <i name="e_0_energy">   -714.73434820 </i>
   </energy>
  </scstep>
  <scstep>
   <time name="dav">    4.35    4.35</time>
   <time name="total">    6.42    6.45</time>
   <energy>
    <i name="e_fr_energy">   -714.83047199 </i>
    <i name="e_wo_entrp">   -714.83047199 </i>
    <i name="e_0_energy">   -714.83047199 </i>
   </energy>
  </scstep>
  <scstep>
   <time name="dav">    4.12    4.12</time>
   <time name="total">    6.20    6.22</time>
   <energy>
    <i name="e_fr_energy">   -714.87241747 </i>
    <i name="e_wo_entrp">   -714.87241747 </i>
    <i name="e_0_energy">   -714.87241747 </i>
   </energy>
  </scstep>
  <scstep>
   <time name="dav">    4.95    4.95</time>
   <time name="total">    7.05    7.07</time>
   <energy>
    <i name="e_fr_energy">   -714.87332349 </i>
    <i name="e_wo_entrp">   -714.87332349 </i>
    <i name="e_0_energy">   -714.87332349 </i>
   </energy>
  </scstep>
  <scstep>
   <time name="dav">    4.18    4.18</time>
   <time name="total">    6.26    6.28</time>
   <energy>
    <i name="e_fr_energy">   -714.87491546 </i>
    <i name="e_wo_entrp">   -714.87491546 </i>
    <i name="e_0_energy">   -714.87491546 </i>
   </energy>
  </scstep>
  <scstep>
   <time name="dav">    4.27    4.27</time>
   <time name="total">    6.35    6.36</time>
   <energy>
    <i name="e_fr_energy">   -714.87500021 </i>
    <i name="e_wo_entrp">   -714.87500021 </i>
    <i name="e_0_energy">   -714.87500021 </i>
   </energy>
  </scstep>
  <scstep>
   <time name="dav">    4.51    4.51</time>
   <time name="total">    6.56    6.58</time>
   <energy>
    <i name="e_fr_energy">   -714.87500417 </i>
    <i name="e_wo_entrp">   -714.87500417 </i>
    <i name="e_0_energy">   -714.87500417 </i>
   </energy>
  </scstep>
  <scstep>
   <time name="dav">    3.87    3.87</time>
   <time name="total">    5.92    5.97</time>
   <energy>
    <i name="e_fr_energy">   -714.87501568 </i>
    <i name="e_wo_entrp">   -714.87501568 </i>
    <i name="e_0_energy">   -714.87501568 </i>
   </energy>
  </scstep>
  <scstep>
   <time name="dav">    3.29    3.29</time>
   <time name="total">    5.34    5.39</time>
   <energy>
    <i name="e_fr_energy">   -714.87501766 </i>
    <i name="e_wo_entrp">   -714.87501766 </i>
    <i name="e_0_energy">   -714.87501766 </i>
   </energy>
  </scstep>
  <scstep>
   <time name="dav">    3.17    3.17</time>
   <time name="total">    5.27    5.28</time>
   <energy>
    <i name="e_fr_energy">   -714.87501595 </i>
    <i name="e_wo_entrp">   -714.87501595 </i>
    <i name="e_0_energy">   -714.87501595 </i>
   </energy>
  </scstep>
  <scstep>
   <time name="dav">    3.10    3.10</time>
   <time name="total">    4.34    4.35</time>
   <energy>
    <i name="alphaZ">    443.60202617 </i>
    <i name="ewald">  -9187.65851955 </i>
    <i name="hartreedc">  -3690.79603826 </i>
    <i name="XCdc">    481.11575183 </i>
    <i name="pawpsdc">  11518.72738727 </i>
    <i name="pawaedc"> -12054.57907953 </i>
    <i name="eentropy">     -0.00000000 </i>
    <i name="bandstr">  -1515.56664228 </i>
    <i name="atom">  13290.28009929 </i>
    <i name="e_fr_energy">   -714.87501506 </i>
    <i name="e_wo_entrp">   -714.87501506 </i>
    <i name="e_0_energy">   -714.87501506 </i>
   </energy>
  </scstep>
  <structure>
   <crystal>
    <varray name="basis" >
     <v>       8.22683325       0.00000000       0.00000000 </v>
     <v>       0.00000000      11.99908394       0.00000000 </v>
     <v>       0.00000000       0.00000000       8.23954016 </v>
    </varray>
    <i name="volume">    813.36178032 </i>
    <varray name="rec_basis" >
     <v>       0.12155345       0.00000000       0.00000000 </v>
     <v>       0.00000000       0.08333970       0.00000000 </v>
     <v>       0.00000000       0.00000000       0.12136600 </v>
    </varray>
   </crystal>
   <varray name="positions" >
    <v>       0.05009026       0.25000000       0.49149110 </v>
    <v>       0.44990974       0.75000000       0.99149110 </v>
    <v>       0.55009026       0.25000000       0.00850890 </v>
    <v>       0.94990974       0.75000000       0.50850890 </v>
    <v>       0.00000000       0.00000000       0.00000000 </v>
    <v>       0.50000000       0.00000000       0.50000000 </v>
    <v>       0.50000000       0.50000000       0.50000000 </v>
    <v>       0.00000000       0.50000000       0.00000000 </v>
    <v>       0.50119248       0.75000000       0.44762867 </v>
    <v>       0.99880752       0.25000000       0.94762867 </v>
    <v>       0.00119248       0.75000000       0.05237133 </v>
    <v>       0.49880752       0.25000000       0.55237133 </v>
    <v>       0.30390434       0.47191829       0.19633447 </v>
    <v>       0.19609566       0.52808171       0.69633447 </v>
    <v>       0.80390434       0.02808171       0.30366553 </v>
    <v>       0.69609566       0.97191829       0.80366553 </v>
    <v>       0.30390434       0.02808171       0.19633447 </v>
    <v>       0.19609566       0.97191829       0.69633447 </v>
    <v>       0.69609566       0.52808171       0.80366553 </v>
    <v>       0.80390434       0.47191829       0.30366553 </v>
   </varray>
  </structure>
  <varray name="forces" >
   <v>      -0.00049376      -0.00000000       0.00046068 </v>
   <v>       0.00049376       0.00000000       0.00046068 </v>
   <v>      -0.00049376       0.00000000      -0.00046068 </v>
   <v>       0.00049376       0.00000000      -0.00046068 </v>
   <v>      -0.00000000       0.00000000       0.00000000 </v>
   <v>      -0.00000000       0.00000000       0.00000000 </v>
   <v>      -0.00000000       0.00000000       0.00000000 </v>
   <v>      -0.00000000       0.00000000       0.00000000 </v>
   <v>      -0.00483394      -0.00000000      -0.01134331 </v>
   <v>       0.00483394       0.00000000      -0.01134331 </v>
   <v>      -0.00483394       0.00000000       0.01134331 </v>
   <v>       0.00483394      -0.00000000       0.01134331 </v>
   <v>      -0.00750634      -0.00375282       0.00706329 </v>
   <v>       0.00750634       0.00375282       0.00706329 </v>
   <v>      -0.00750634       0.00375282      -0.00706329 </v>
   <v>       0.00750634      -0.00375282      -0.00706329 </v>
   <v>      -0.00750634       0.00375282       0.00706329 </v>
   <v>       0.00750634      -0.00375282       0.00706329 </v>
   <v>       0.00750634       0.00375282      -0.00706329 </v>
   <v>      -0.00750634      -0.00375282      -0.00706329 </v>
  </varray>
  <varray name="stress" >
   <v>      -1.87821952       0.00000000       0.00000000 </v>
   <v>       0.00000000      -7.54226664       0.00000000 </v>
   <v>       0.00000000       0.00000000      -4.75791490 </v>
  </varray>
  <energy>
   <i name="e_fr_energy">   -714.87501506 </i>
   <i name="e_wo_entrp">   -714.87501506 </i>
   <i name="e_0_energy">     -0.00000000 </i>
  </energy>
  <time name="totalsc">  113.16  113.60</time>
  <eigenvalues>
   <array>
    <dimension dim="1">band</dimension>
    <dimension dim="2">kpoint</dimension>
    <dimension dim="3">spin</dimension>
    <field>eigene</field>
    <field>occ</field>
    <set>
     <set comment="spin 1">
      <set comment="kpoint 1">
       <r>  -20.8992    1.0000 </r>
       <r>  -20.8976    1.0000 </r>
       <r>  -20.8962    1.0000 </r>
       <r>  -20.8950    1.0000 </r>
       <r>  -16.5275    1.0000 </r>
       <r>  -16.5274    1.0000 </r>
       <r>  -16.5241    1.0000 </r>
       <r>  -16.4963    1.0000 </r>
       <r>  -16.4780    1.0000 </r>
       <r>  -16.4448    1.0000 </r>
       <r>  -16.4384    1.0000 </r>
       <r>  -16.4382    1.0000 </r>
       <r>  -16.3820    1.0000 </r>
       <r>  -16.3816    1.0000 </r>
       <r>  -16.3810    1.0000 </r>
       <r>  -16.3804    1.0000 </r>
       <r>  -16.3770    1.0000 </r>
       <r>  -16.3764    1.0000 </r>
       <r>  -16.3763    1.0000 </r>
       <r>  -16.3755    1.0000 </r>
       <r>  -16.3691    1.0000 </r>
       <r>  -16.3689    1.0000 </r>
       <r>  -16.3674    1.0000 </r>
       <r>  -16.3673    1.0000 </r>
       <r>  -14.3650    1.0000 </r>
       <r>  -14.2119    1.0000 </r>
       <r>  -14.0567    1.0000 </r>
       <r>  -14.0509    1.0000 </r>
       <r>  -14.0468    1.0000 </r>
       <r>  -14.0384    1.0000 </r>
       <r>  -14.0166    1.0000 </r>
       <r>  -14.0105    1.0000 </r>
       <r>  -13.9646    1.0000 </r>
       <r>  -13.7840    1.0000 </r>
       <r>  -13.7820    1.0000 </r>
       <r>  -13.7788    1.0000 </r>
       <r>   -8.2025    1.0000 </r>
       <r>   -7.7458    1.0000 </r>
       <r>   -7.3314    1.0000 </r>
       <r>   -7.3272    1.0000 </r>
       <r>   -7.3215    1.0000 </r>
       <r>   -7.3056    1.0000 </r>
       <r>   -7.2921    1.0000 </r>
       <r>   -7.2911    1.0000 </r>
       <r>   -7.2840    1.0000 </r>
       <r>   -7.2744    1.0000 </r>
       <r>   -7.2713    1.0000 </r>
       <r>   -7.2710    1.0000 </r>
       <r>   -7.2571    1.0000 </r>
       <r>   -7.2528    1.0000 </r>
       <r>   -7.1581    1.0000 </r>
       <r>   -6.6021    1.0000 </r>
       <r>   -3.3436    1.0000 </r>
       <r>   -3.2940    1.0000 </r>
       <r>   -3.2776    1.0000 </r>
       <r>   -3.2578    1.0000 </r>
       <r>   -3.1747    1.0000 </r>
       <r>   -3.0380    1.0000 </r>
       <r>   -2.1801    1.0000 </r>
       <r>   -1.9653    1.0000 </r>
       <r>   -1.9586    1.0000 </r>
       <r>   -1.9059    1.0000 </r>
       <r>   -1.8646    1.0000 </r>
       <r>   -1.7506    1.0000 </r>
       <r>   -1.6249    1.0000 </r>
       <r>   -1.5758    1.0000 </r>
       <r>   -1.5544    1.0000 </r>
       <r>   -1.5415    1.0000 </r>
       <r>   -1.4692    1.0000 </r>
       <r>   -1.4538    1.0000 </r>
       <r>   -1.4422    1.0000 </r>
       <r>   -1.4140    1.0000 </r>
       <r>   -1.3927    1.0000 </r>
       <r>   -1.3620    1.0000 </r>
       <r>   -1.3399    1.0000 </r>
       <r>   -1.3120    1.0000 </r>
       <r>   -1.3054    1.0000 </r>
       <r>   -1.2895    1.0000 </r>
       <r>   -1.1749    1.0000 </r>
       <r>   -1.1685    1.0000 </r>
       <r>   -1.1145    1.0000 </r>
       <r>   -1.1029    1.0000 </r>
       <r>   -1.0361    1.0000 </r>
       <r>   -0.9979    1.0000 </r>
       <r>   -0.8747    1.0000 </r>
       <r>   -0.6958    1.0000 </r>
       <r>   -0.1670    1.0000 </r>
       <r>    0.3748    1.0000 </r>
       <r>    2.6009    0.0000 </r>
       <r>    2.7748    0.0000 </r>
       <r>    2.7775    0.0000 </r>
       <r>    3.1592    0.0000 </r>
       <r>    3.2013    0.0000 </r>
       <r>    3.3766    0.0000 </r>
       <r>    4.7558    0.0000 </r>
       <r>    5.4910    0.0000 </r>
       <r>    5.7656    0.0000 </r>
       <r>    5.7913    0.0000 </r>
       <r>    5.9122    0.0000 </r>
       <r>    5.9679    0.0000 </r>
       <r>    6.0050    0.0000 </r>
       <r>    6.1227    0.0000 </r>
       <r>    6.2438    0.0000 </r>
       <r>    6.3549    0.0000 </r>
       <r>    6.3747    0.0000 </r>
       <r>    6.3965    0.0000 </r>
       <r>    6.4195    0.0000 </r>
       <r>    6.6601    0.0000 </r>
       <r>    6.7240    0.0000 </r>
       <r>    6.7499    0.0000 </r>
       <r>    6.8033    0.0000 </r>
       <r>    6.9118    0.0000 </r>
      </set>
      <set comment="kpoint 2">
       <r>  -20.8983    1.0000 </r>
       <r>  -20.8970    1.0000 </r>
       <r>  -20.8968    1.0000 </r>
       <r>  -20.8956    1.0000 </r>
       <r>  -16.5169    1.0000 </r>
       <r>  -16.5064    1.0000 </r>
       <r>  -16.5064    1.0000 </r>
       <r>  -16.5030    1.0000 </r>
       <r>  -16.4694    1.0000 </r>
       <r>  -16.4619    1.0000 </r>
       <r>  -16.4619    1.0000 </r>
       <r>  -16.4529    1.0000 </r>
       <r>  -16.3818    1.0000 </r>
       <r>  -16.3814    1.0000 </r>
       <r>  -16.3812    1.0000 </r>
       <r>  -16.3806    1.0000 </r>
       <r>  -16.3769    1.0000 </r>
       <r>  -16.3766    1.0000 </r>
       <r>  -16.3761    1.0000 </r>
       <r>  -16.3758    1.0000 </r>
       <r>  -16.3687    1.0000 </r>
       <r>  -16.3686    1.0000 </r>
       <r>  -16.3678    1.0000 </r>
       <r>  -16.3678    1.0000 </r>
       <r>  -14.3138    1.0000 </r>
       <r>  -14.1788    1.0000 </r>
       <r>  -14.1716    1.0000 </r>
       <r>  -14.0850    1.0000 </r>
       <r>  -14.0173    1.0000 </r>
       <r>  -14.0142    1.0000 </r>
       <r>  -13.9874    1.0000 </r>
       <r>  -13.9837    1.0000 </r>
       <r>  -13.8675    1.0000 </r>
       <r>  -13.8505    1.0000 </r>
       <r>  -13.8504    1.0000 </r>
       <r>  -13.7988    1.0000 </r>
       <r>   -7.9868    1.0000 </r>
       <r>   -7.5265    1.0000 </r>
       <r>   -7.5004    1.0000 </r>
       <r>   -7.3292    1.0000 </r>
       <r>   -7.3090    1.0000 </r>
       <r>   -7.3071    1.0000 </r>
       <r>   -7.2964    1.0000 </r>
       <r>   -7.2834    1.0000 </r>
       <r>   -7.2830    1.0000 </r>
       <r>   -7.2786    1.0000 </r>
       <r>   -7.2650    1.0000 </r>
       <r>   -7.2647    1.0000 </r>
       <r>   -7.2574    1.0000 </r>
       <r>   -7.2548    1.0000 </r>
       <r>   -7.2486    1.0000 </r>
       <r>   -6.9544    1.0000 </r>
       <r>   -3.2238    1.0000 </r>
       <r>   -3.1139    1.0000 </r>
       <r>   -3.0374    1.0000 </r>
       <r>   -2.9330    1.0000 </r>
       <r>   -2.7490    1.0000 </r>
       <r>   -2.7251    1.0000 </r>
       <r>   -2.2654    1.0000 </r>
       <r>   -2.1198    1.0000 </r>
       <r>   -2.1185    1.0000 </r>
       <r>   -2.0082    1.0000 </r>
       <r>   -1.9871    1.0000 </r>
       <r>   -1.9415    1.0000 </r>
       <r>   -1.8470    1.0000 </r>
       <r>   -1.7306    1.0000 </r>
       <r>   -1.6945    1.0000 </r>
       <r>   -1.6534    1.0000 </r>
       <r>   -1.4910    1.0000 </r>
       <r>   -1.4411    1.0000 </r>
       <r>   -1.4391    1.0000 </r>
       <r>   -1.3933    1.0000 </r>
       <r>   -1.3782    1.0000 </r>
       <r>   -1.3753    1.0000 </r>
       <r>   -1.3533    1.0000 </r>
       <r>   -1.3374    1.0000 </r>
       <r>   -1.2629    1.0000 </r>
       <r>   -1.2562    1.0000 </r>
       <r>   -1.2510    1.0000 </r>
       <r>   -1.2345    1.0000 </r>
       <r>   -1.1761    1.0000 </r>
       <r>   -1.1709    1.0000 </r>
       <r>   -1.0640    1.0000 </r>
       <r>   -1.0605    1.0000 </r>
       <r>   -0.8746    1.0000 </r>
       <r>   -0.7148    1.0000 </r>
       <r>   -0.6002    1.0000 </r>
       <r>   -0.1859    1.0000 </r>
       <r>    2.7935    0.0000 </r>
       <r>    3.1719    0.0000 </r>
       <r>    3.5968    0.0000 </r>
       <r>    3.6598    0.0000 </r>
       <r>    3.9140    0.0000 </r>
       <r>    4.0301    0.0000 </r>
       <r>    5.0556    0.0000 </r>
       <r>    5.1056    0.0000 </r>
       <r>    5.1546    0.0000 </r>
       <r>    5.4394    0.0000 </r>
       <r>    5.6264    0.0000 </r>
       <r>    5.6907    0.0000 </r>
       <r>    5.9589    0.0000 </r>
       <r>    6.0805    0.0000 </r>
       <r>    6.2664    0.0000 </r>
       <r>    6.2840    0.0000 </r>
       <r>    6.3621    0.0000 </r>
       <r>    6.4362    0.0000 </r>
       <r>    6.4547    0.0000 </r>
       <r>    6.6083    0.0000 </r>
       <r>    6.7491    0.0000 </r>
       <r>    6.9237    0.0000 </r>
       <r>    6.9335    0.0000 </r>
       <r>    7.0639    0.0000 </r>
      </set>
      <set comment="kpoint 3">
       <r>  -20.8984    1.0000 </r>
       <r>  -20.8984    1.0000 </r>
       <r>  -20.8955    1.0000 </r>
       <r>  -20.8955    1.0000 </r>
       <r>  -16.5275    1.0000 </r>
       <r>  -16.5275    1.0000 </r>
       <r>  -16.5013    1.0000 </r>
       <r>  -16.5013    1.0000 </r>
       <r>  -16.4708    1.0000 </r>
       <r>  -16.4708    1.0000 </r>
       <r>  -16.4383    1.0000 </r>
       <r>  -16.4383    1.0000 </r>
       <r>  -16.3817    1.0000 </r>
       <r>  -16.3817    1.0000 </r>
       <r>  -16.3808    1.0000 </r>
       <r>  -16.3808    1.0000 </r>
       <r>  -16.3766    1.0000 </r>
       <r>  -16.3766    1.0000 </r>
       <r>  -16.3760    1.0000 </r>
       <r>  -16.3760    1.0000 </r>
       <r>  -16.3690    1.0000 </r>
       <r>  -16.3690    1.0000 </r>
       <r>  -16.3673    1.0000 </r>
       <r>  -16.3673    1.0000 </r>
       <r>  -14.3117    1.0000 </r>
       <r>  -14.3117    1.0000 </r>
       <r>  -14.0537    1.0000 </r>
       <r>  -14.0537    1.0000 </r>
       <r>  -14.0424    1.0000 </r>
       <r>  -14.0424    1.0000 </r>
       <r>  -13.9874    1.0000 </r>
       <r>  -13.9874    1.0000 </r>
       <r>  -13.8743    1.0000 </r>
       <r>  -13.8743    1.0000 </r>
       <r>  -13.7830    1.0000 </r>
       <r>  -13.7830    1.0000 </r>
       <r>   -7.9914    1.0000 </r>
       <r>   -7.9914    1.0000 </r>
       <r>   -7.3254    1.0000 </r>
       <r>   -7.3254    1.0000 </r>
       <r>   -7.3151    1.0000 </r>
       <r>   -7.3151    1.0000 </r>
       <r>   -7.2802    1.0000 </r>
       <r>   -7.2802    1.0000 </r>
       <r>   -7.2776    1.0000 </r>
       <r>   -7.2776    1.0000 </r>
       <r>   -7.2746    1.0000 </r>
       <r>   -7.2746    1.0000 </r>
       <r>   -7.2649    1.0000 </r>
       <r>   -7.2649    1.0000 </r>
       <r>   -6.9213    1.0000 </r>
       <r>   -6.9213    1.0000 </r>
       <r>   -3.3022    1.0000 </r>
       <r>   -3.3022    1.0000 </r>
       <r>   -3.2459    1.0000 </r>
       <r>   -3.2459    1.0000 </r>
       <r>   -2.4985    1.0000 </r>
       <r>   -2.4985    1.0000 </r>
       <r>   -2.3071    1.0000 </r>
       <r>   -2.3071    1.0000 </r>
       <r>   -2.0753    1.0000 </r>
       <r>   -2.0753    1.0000 </r>
       <r>   -1.8271    1.0000 </r>
       <r>   -1.8271    1.0000 </r>
       <r>   -1.8185    1.0000 </r>
       <r>   -1.8185    1.0000 </r>
       <r>   -1.5169    1.0000 </r>
       <r>   -1.5169    1.0000 </r>
       <r>   -1.4856    1.0000 </r>
       <r>   -1.4856    1.0000 </r>
       <r>   -1.3583    1.0000 </r>
       <r>   -1.3583    1.0000 </r>
       <r>   -1.3545    1.0000 </r>
       <r>   -1.3545    1.0000 </r>
       <r>   -1.3396    1.0000 </r>
       <r>   -1.3396    1.0000 </r>
       <r>   -1.2562    1.0000 </r>
       <r>   -1.2562    1.0000 </r>
       <r>   -1.2108    1.0000 </r>
       <r>   -1.2108    1.0000 </r>
       <r>   -1.1458    1.0000 </r>
       <r>   -1.1458    1.0000 </r>
       <r>   -1.1098    1.0000 </r>
       <r>   -1.1098    1.0000 </r>
       <r>   -0.8895    1.0000 </r>
       <r>   -0.8895    1.0000 </r>
       <r>   -0.0425    1.0000 </r>
       <r>   -0.0425    1.0000 </r>
       <r>    2.9745    0.0000 </r>
       <r>    2.9745    0.0000 </r>
       <r>    2.9865    0.0000 </r>
       <r>    2.9865    0.0000 </r>
       <r>    4.1166    0.0000 </r>
       <r>    4.1166    0.0000 </r>
       <r>    4.7079    0.0000 </r>
       <r>    4.7079    0.0000 </r>
       <r>    5.3896    0.0000 </r>
       <r>    5.3896    0.0000 </r>
       <r>    5.9915    0.0000 </r>
       <r>    5.9915    0.0000 </r>
       <r>    6.0176    0.0000 </r>
       <r>    6.0176    0.0000 </r>
       <r>    6.1305    0.0000 </r>
       <r>    6.1305    0.0000 </r>
       <r>    6.3433    0.0000 </r>
       <r>    6.3433    0.0000 </r>
       <r>    6.6687    0.0000 </r>
       <r>    6.6687    0.0000 </r>
       <r>    6.7506    0.0000 </r>
       <r>    6.7507    0.0000 </r>
       <r>    6.7946    0.0000 </r>
       <r>    6.7994    0.0000 </r>
      </set>
      <set comment="kpoint 4">
       <r>  -20.8977    1.0000 </r>
       <r>  -20.8977    1.0000 </r>
       <r>  -20.8963    1.0000 </r>
       <r>  -20.8963    1.0000 </r>
       <r>  -16.5064    1.0000 </r>
       <r>  -16.5064    1.0000 </r>
       <r>  -16.4935    1.0000 </r>
       <r>  -16.4935    1.0000 </r>
       <r>  -16.4782    1.0000 </r>
       <r>  -16.4782    1.0000 </r>
       <r>  -16.4619    1.0000 </r>
       <r>  -16.4619    1.0000 </r>
       <r>  -16.3816    1.0000 </r>
       <r>  -16.3816    1.0000 </r>
       <r>  -16.3810    1.0000 </r>
       <r>  -16.3810    1.0000 </r>
       <r>  -16.3765    1.0000 </r>
       <r>  -16.3765    1.0000 </r>
       <r>  -16.3762    1.0000 </r>
       <r>  -16.3762    1.0000 </r>
       <r>  -16.3686    1.0000 </r>
       <r>  -16.3686    1.0000 </r>
       <r>  -16.3678    1.0000 </r>
       <r>  -16.3678    1.0000 </r>
       <r>  -14.2654    1.0000 </r>
       <r>  -14.2654    1.0000 </r>
       <r>  -14.1489    1.0000 </r>
       <r>  -14.1489    1.0000 </r>
       <r>  -13.9863    1.0000 </r>
       <r>  -13.9863    1.0000 </r>
       <r>  -13.9233    1.0000 </r>
       <r>  -13.9233    1.0000 </r>
       <r>  -13.8843    1.0000 </r>
       <r>  -13.8843    1.0000 </r>
       <r>  -13.8505    1.0000 </r>
       <r>  -13.8505    1.0000 </r>
       <r>   -7.7742    1.0000 </r>
       <r>   -7.7742    1.0000 </r>
       <r>   -7.3374    1.0000 </r>
       <r>   -7.3374    1.0000 </r>
       <r>   -7.3050    1.0000 </r>
       <r>   -7.3050    1.0000 </r>
       <r>   -7.2946    1.0000 </r>
       <r>   -7.2946    1.0000 </r>
       <r>   -7.2776    1.0000 </r>
       <r>   -7.2776    1.0000 </r>
       <r>   -7.2702    1.0000 </r>
       <r>   -7.2702    1.0000 </r>
       <r>   -7.2673    1.0000 </r>
       <r>   -7.2673    1.0000 </r>
       <r>   -7.1963    1.0000 </r>
       <r>   -7.1963    1.0000 </r>
       <r>   -2.9875    1.0000 </r>
       <r>   -2.9875    1.0000 </r>
       <r>   -2.8150    1.0000 </r>
       <r>   -2.8150    1.0000 </r>
       <r>   -2.4270    1.0000 </r>
       <r>   -2.4270    1.0000 </r>
       <r>   -2.4025    1.0000 </r>
       <r>   -2.4025    1.0000 </r>
       <r>   -2.1966    1.0000 </r>
       <r>   -2.1966    1.0000 </r>
       <r>   -2.0609    1.0000 </r>
       <r>   -2.0609    1.0000 </r>
       <r>   -1.7607    1.0000 </r>
       <r>   -1.7607    1.0000 </r>
       <r>   -1.7103    1.0000 </r>
       <r>   -1.7103    1.0000 </r>
       <r>   -1.5885    1.0000 </r>
       <r>   -1.5885    1.0000 </r>
       <r>   -1.5065    1.0000 </r>
       <r>   -1.5065    1.0000 </r>
       <r>   -1.3837    1.0000 </r>
       <r>   -1.3837    1.0000 </r>
       <r>   -1.3593    1.0000 </r>
       <r>   -1.3593    1.0000 </r>
       <r>   -1.2063    1.0000 </r>
       <r>   -1.2063    1.0000 </r>
       <r>   -1.1745    1.0000 </r>
       <r>   -1.1745    1.0000 </r>
       <r>   -1.1330    1.0000 </r>
       <r>   -1.1330    1.0000 </r>
       <r>   -1.1287    1.0000 </r>
       <r>   -1.1287    1.0000 </r>
       <r>   -0.8783    1.0000 </r>
       <r>   -0.8783    1.0000 </r>
       <r>   -0.6216    1.0000 </r>
       <r>   -0.6216    1.0000 </r>
       <r>    3.7494    0.0000 </r>
       <r>    3.7494    0.0000 </r>
       <r>    3.8187    0.0000 </r>
       <r>    3.8187    0.0000 </r>
       <r>    4.2731    0.0000 </r>
       <r>    4.2731    0.0000 </r>
       <r>    4.5496    0.0000 </r>
       <r>    4.5496    0.0000 </r>
       <r>    5.1758    0.0000 </r>
       <r>    5.1758    0.0000 </r>
       <r>    5.2748    0.0000 </r>
       <r>    5.2748    0.0000 </r>
       <r>    5.9222    0.0000 </r>
       <r>    5.9222    0.0000 </r>
       <r>    6.2010    0.0000 </r>
       <r>    6.2010    0.0000 </r>
       <r>    6.4402    0.0000 </r>
       <r>    6.4402    0.0000 </r>
       <r>    6.5630    0.0000 </r>
       <r>    6.5630    0.0000 </r>
       <r>    6.6195    0.0000 </r>
       <r>    6.6195    0.0000 </r>
       <r>    6.8159    0.0000 </r>
       <r>    6.8159    0.0000 </r>
      </set>
      <set comment="kpoint 5">
       <r>  -20.8984    1.0000 </r>
       <r>  -20.8971    1.0000 </r>
       <r>  -20.8967    1.0000 </r>
       <r>  -20.8956    1.0000 </r>
       <r>  -16.5169    1.0000 </r>
       <r>  -16.5064    1.0000 </r>
       <r>  -16.5064    1.0000 </r>
       <r>  -16.5030    1.0000 </r>
       <r>  -16.4694    1.0000 </r>
       <r>  -16.4619    1.0000 </r>
       <r>  -16.4618    1.0000 </r>
       <r>  -16.4529    1.0000 </r>
       <r>  -16.3818    1.0000 </r>
       <r>  -16.3814    1.0000 </r>
       <r>  -16.3812    1.0000 </r>
       <r>  -16.3807    1.0000 </r>
       <r>  -16.3768    1.0000 </r>
       <r>  -16.3766    1.0000 </r>
       <r>  -16.3760    1.0000 </r>
       <r>  -16.3757    1.0000 </r>
       <r>  -16.3687    1.0000 </r>
       <r>  -16.3686    1.0000 </r>
       <r>  -16.3678    1.0000 </r>
       <r>  -16.3678    1.0000 </r>
       <r>  -14.3151    1.0000 </r>
       <r>  -14.1835    1.0000 </r>
       <r>  -14.1744    1.0000 </r>
       <r>  -14.0939    1.0000 </r>
       <r>  -14.0168    1.0000 </r>
       <r>  -14.0151    1.0000 </r>
       <r>  -13.9789    1.0000 </r>
       <r>  -13.9743    1.0000 </r>
       <r>  -13.8711    1.0000 </r>
       <r>  -13.8472    1.0000 </r>
       <r>  -13.8472    1.0000 </r>
       <r>  -13.8001    1.0000 </r>
       <r>   -7.9848    1.0000 </r>
       <r>   -7.5281    1.0000 </r>
       <r>   -7.4839    1.0000 </r>
       <r>   -7.3204    1.0000 </r>
       <r>   -7.3130    1.0000 </r>
       <r>   -7.3052    1.0000 </r>
       <r>   -7.3017    1.0000 </r>
       <r>   -7.2952    1.0000 </r>
       <r>   -7.2931    1.0000 </r>
       <r>   -7.2793    1.0000 </r>
       <r>   -7.2712    1.0000 </r>
       <r>   -7.2691    1.0000 </r>
       <r>   -7.2582    1.0000 </r>
       <r>   -7.2509    1.0000 </r>
       <r>   -7.2460    1.0000 </r>
       <r>   -6.9564    1.0000 </r>
       <r>   -3.2246    1.0000 </r>
       <r>   -3.1125    1.0000 </r>
       <r>   -2.9983    1.0000 </r>
       <r>   -2.8969    1.0000 </r>
       <r>   -2.7991    1.0000 </r>
       <r>   -2.7493    1.0000 </r>
       <r>   -2.3075    1.0000 </r>
       <r>   -2.1265    1.0000 </r>
       <r>   -2.1176    1.0000 </r>
       <r>   -2.0239    1.0000 </r>
       <r>   -1.9877    1.0000 </r>
       <r>   -1.9452    1.0000 </r>
       <r>   -1.8147    1.0000 </r>
       <r>   -1.7275    1.0000 </r>
       <r>   -1.6624    1.0000 </r>
       <r>   -1.6575    1.0000 </r>
       <r>   -1.4945    1.0000 </r>
       <r>   -1.4718    1.0000 </r>
       <r>   -1.4671    1.0000 </r>
       <r>   -1.4139    1.0000 </r>
       <r>   -1.3697    1.0000 </r>
       <r>   -1.3606    1.0000 </r>
       <r>   -1.3457    1.0000 </r>
       <r>   -1.3240    1.0000 </r>
       <r>   -1.2754    1.0000 </r>
       <r>   -1.2686    1.0000 </r>
       <r>   -1.2072    1.0000 </r>
       <r>   -1.2062    1.0000 </r>
       <r>   -1.1399    1.0000 </r>
       <r>   -1.1122    1.0000 </r>
       <r>   -1.0506    1.0000 </r>
       <r>   -1.0339    1.0000 </r>
       <r>   -0.9326    1.0000 </r>
       <r>   -0.7188    1.0000 </r>
       <r>   -0.6115    1.0000 </r>
       <r>   -0.2083    1.0000 </r>
       <r>    2.7894    0.0000 </r>
       <r>    3.1644    0.0000 </r>
       <r>    3.5290    0.0000 </r>
       <r>    3.6992    0.0000 </r>
       <r>    3.8849    0.0000 </r>
       <r>    4.0568    0.0000 </r>
       <r>    4.9834    0.0000 </r>
       <r>    5.1579    0.0000 </r>
       <r>    5.1907    0.0000 </r>
       <r>    5.3283    0.0000 </r>
       <r>    5.6291    0.0000 </r>
       <r>    5.7014    0.0000 </r>
       <r>    5.9510    0.0000 </r>
       <r>    6.0185    0.0000 </r>
       <r>    6.0679    0.0000 </r>
       <r>    6.2708    0.0000 </r>
       <r>    6.4515    0.0000 </r>
       <r>    6.5486    0.0000 </r>
       <r>    6.6315    0.0000 </r>
       <r>    6.7006    0.0000 </r>
       <r>    6.7339    0.0000 </r>
       <r>    6.7562    0.0000 </r>
       <r>    6.8170    0.0000 </r>
       <r>    7.0032    0.0000 </r>
      </set>
      <set comment="kpoint 6">
       <r>  -20.8979    1.0000 </r>
       <r>  -20.8972    1.0000 </r>
       <r>  -20.8966    1.0000 </r>
       <r>  -20.8959    1.0000 </r>
       <r>  -16.5247    1.0000 </r>
       <r>  -16.5146    1.0000 </r>
       <r>  -16.5056    1.0000 </r>
       <r>  -16.4871    1.0000 </r>
       <r>  -16.4842    1.0000 </r>
       <r>  -16.4652    1.0000 </r>
       <r>  -16.4550    1.0000 </r>
       <r>  -16.4429    1.0000 </r>
       <r>  -16.3817    1.0000 </r>
       <r>  -16.3815    1.0000 </r>
       <r>  -16.3811    1.0000 </r>
       <r>  -16.3808    1.0000 </r>
       <r>  -16.3768    1.0000 </r>
       <r>  -16.3767    1.0000 </r>
       <r>  -16.3760    1.0000 </r>
       <r>  -16.3758    1.0000 </r>
       <r>  -16.3684    1.0000 </r>
       <r>  -16.3683    1.0000 </r>
       <r>  -16.3680    1.0000 </r>
       <r>  -16.3679    1.0000 </r>
       <r>  -14.2619    1.0000 </r>
       <r>  -14.1596    1.0000 </r>
       <r>  -14.1313    1.0000 </r>
       <r>  -14.0603    1.0000 </r>
       <r>  -14.0597    1.0000 </r>
       <r>  -14.0175    1.0000 </r>
       <r>  -14.0142    1.0000 </r>
       <r>  -14.0006    1.0000 </r>
       <r>  -13.9509    1.0000 </r>
       <r>  -13.9064    1.0000 </r>
       <r>  -13.8027    1.0000 </r>
       <r>  -13.7709    1.0000 </r>
       <r>   -7.8525    1.0000 </r>
       <r>   -7.6049    1.0000 </r>
       <r>   -7.3981    1.0000 </r>
       <r>   -7.3085    1.0000 </r>
       <r>   -7.3038    1.0000 </r>
       <r>   -7.2963    1.0000 </r>
       <r>   -7.2935    1.0000 </r>
       <r>   -7.2822    1.0000 </r>
       <r>   -7.2776    1.0000 </r>
       <r>   -7.2761    1.0000 </r>
       <r>   -7.2686    1.0000 </r>
       <r>   -7.2659    1.0000 </r>
       <r>   -7.2581    1.0000 </r>
       <r>   -7.2554    1.0000 </r>
       <r>   -7.2324    1.0000 </r>
       <r>   -7.0694    1.0000 </r>
       <r>   -3.2336    1.0000 </r>
       <r>   -3.2156    1.0000 </r>
       <r>   -3.1744    1.0000 </r>
       <r>   -3.0943    1.0000 </r>
       <r>   -2.8412    1.0000 </r>
       <r>   -2.7140    1.0000 </r>
       <r>   -2.2486    1.0000 </r>
       <r>   -2.1346    1.0000 </r>
       <r>   -2.0998    1.0000 </r>
       <r>   -2.0889    1.0000 </r>
       <r>   -1.9931    1.0000 </r>
       <r>   -1.7591    1.0000 </r>
       <r>   -1.7516    1.0000 </r>
       <r>   -1.6665    1.0000 </r>
       <r>   -1.5642    1.0000 </r>
       <r>   -1.5447    1.0000 </r>
       <r>   -1.4665    1.0000 </r>
       <r>   -1.4645    1.0000 </r>
       <r>   -1.4312    1.0000 </r>
       <r>   -1.4226    1.0000 </r>
       <r>   -1.4111    1.0000 </r>
       <r>   -1.3815    1.0000 </r>
       <r>   -1.3632    1.0000 </r>
       <r>   -1.3163    1.0000 </r>
       <r>   -1.3053    1.0000 </r>
       <r>   -1.2931    1.0000 </r>
       <r>   -1.2845    1.0000 </r>
       <r>   -1.2642    1.0000 </r>
       <r>   -1.2357    1.0000 </r>
       <r>   -1.1683    1.0000 </r>
       <r>   -1.0884    1.0000 </r>
       <r>   -1.0562    1.0000 </r>
       <r>   -0.8874    1.0000 </r>
       <r>   -0.6962    1.0000 </r>
       <r>   -0.4746    1.0000 </r>
       <r>   -0.1747    1.0000 </r>
       <r>    2.8845    0.0000 </r>
       <r>    3.0541    0.0000 </r>
       <r>    3.0665    0.0000 </r>
       <r>    3.4212    0.0000 </r>
       <r>    3.8862    0.0000 </r>
       <r>    4.2078    0.0000 </r>
       <r>    4.8263    0.0000 </r>
       <r>    5.2248    0.0000 </r>
       <r>    5.5161    0.0000 </r>
       <r>    5.7843    0.0000 </r>
       <r>    5.8087    0.0000 </r>
       <r>    5.9522    0.0000 </r>
       <r>    5.9873    0.0000 </r>
       <r>    6.2474    0.0000 </r>
       <r>    6.3513    0.0000 </r>
       <r>    6.4623    0.0000 </r>
       <r>    6.6073    0.0000 </r>
       <r>    6.6232    0.0000 </r>
       <r>    6.6431    0.0000 </r>
       <r>    6.6463    0.0000 </r>
       <r>    6.8333    0.0000 </r>
       <r>    6.8757    0.0000 </r>
       <r>    7.0023    0.0000 </r>
       <r>    7.0628    0.0000 </r>
      </set>
      <set comment="kpoint 7">
       <r>  -20.8977    1.0000 </r>
       <r>  -20.8977    1.0000 </r>
       <r>  -20.8962    1.0000 </r>
       <r>  -20.8962    1.0000 </r>
       <r>  -16.5064    1.0000 </r>
       <r>  -16.5064    1.0000 </r>
       <r>  -16.4935    1.0000 </r>
       <r>  -16.4935    1.0000 </r>
       <r>  -16.4783    1.0000 </r>
       <r>  -16.4783    1.0000 </r>
       <r>  -16.4619    1.0000 </r>
       <r>  -16.4619    1.0000 </r>
       <r>  -16.3815    1.0000 </r>
       <r>  -16.3815    1.0000 </r>
       <r>  -16.3810    1.0000 </r>
       <r>  -16.3810    1.0000 </r>
       <r>  -16.3765    1.0000 </r>
       <r>  -16.3765    1.0000 </r>
       <r>  -16.3761    1.0000 </r>
       <r>  -16.3761    1.0000 </r>
       <r>  -16.3686    1.0000 </r>
       <r>  -16.3686    1.0000 </r>
       <r>  -16.3678    1.0000 </r>
       <r>  -16.3678    1.0000 </r>
       <r>  -14.2671    1.0000 </r>
       <r>  -14.2671    1.0000 </r>
       <r>  -14.1544    1.0000 </r>
       <r>  -14.1544    1.0000 </r>
       <r>  -13.9775    1.0000 </r>
       <r>  -13.9775    1.0000 </r>
       <r>  -13.9267    1.0000 </r>
       <r>  -13.9267    1.0000 </r>
       <r>  -13.8850    1.0000 </r>
       <r>  -13.8850    1.0000 </r>
       <r>  -13.8473    1.0000 </r>
       <r>  -13.8473    1.0000 </r>
       <r>   -7.7733    1.0000 </r>
       <r>   -7.7733    1.0000 </r>
       <r>   -7.3232    1.0000 </r>
       <r>   -7.3232    1.0000 </r>
       <r>   -7.3168    1.0000 </r>
       <r>   -7.3168    1.0000 </r>
       <r>   -7.2928    1.0000 </r>
       <r>   -7.2928    1.0000 </r>
       <r>   -7.2730    1.0000 </r>
       <r>   -7.2730    1.0000 </r>
       <r>   -7.2692    1.0000 </r>
       <r>   -7.2692    1.0000 </r>
       <r>   -7.2579    1.0000 </r>
       <r>   -7.2579    1.0000 </r>
       <r>   -7.2217    1.0000 </r>
       <r>   -7.2217    1.0000 </r>
       <r>   -2.9524    1.0000 </r>
       <r>   -2.9524    1.0000 </r>
       <r>   -2.8450    1.0000 </r>
       <r>   -2.8450    1.0000 </r>
       <r>   -2.4489    1.0000 </r>
       <r>   -2.4489    1.0000 </r>
       <r>   -2.4036    1.0000 </r>
       <r>   -2.4036    1.0000 </r>
       <r>   -2.2243    1.0000 </r>
       <r>   -2.2243    1.0000 </r>
       <r>   -2.0628    1.0000 </r>
       <r>   -2.0628    1.0000 </r>
       <r>   -1.7548    1.0000 </r>
       <r>   -1.7548    1.0000 </r>
       <r>   -1.6871    1.0000 </r>
       <r>   -1.6871    1.0000 </r>
       <r>   -1.5623    1.0000 </r>
       <r>   -1.5623    1.0000 </r>
       <r>   -1.4830    1.0000 </r>
       <r>   -1.4830    1.0000 </r>
       <r>   -1.3991    1.0000 </r>
       <r>   -1.3991    1.0000 </r>
       <r>   -1.3244    1.0000 </r>
       <r>   -1.3244    1.0000 </r>
       <r>   -1.2085    1.0000 </r>
       <r>   -1.2085    1.0000 </r>
       <r>   -1.1682    1.0000 </r>
       <r>   -1.1682    1.0000 </r>
       <r>   -1.1546    1.0000 </r>
       <r>   -1.1546    1.0000 </r>
       <r>   -1.0921    1.0000 </r>
       <r>   -1.0921    1.0000 </r>
       <r>   -0.8995    1.0000 </r>
       <r>   -0.8995    1.0000 </r>
       <r>   -0.6492    1.0000 </r>
       <r>   -0.6492    1.0000 </r>
       <r>    3.6932    0.0000 </r>
       <r>    3.6932    0.0000 </r>
       <r>    3.8532    0.0000 </r>
       <r>    3.8532    0.0000 </r>
       <r>    4.2584    0.0000 </r>
       <r>    4.2584    0.0000 </r>
       <r>    4.5484    0.0000 </r>
       <r>    4.5484    0.0000 </r>
       <r>    5.1545    0.0000 </r>
       <r>    5.1545    0.0000 </r>
       <r>    5.2578    0.0000 </r>
       <r>    5.2578    0.0000 </r>
       <r>    5.9103    0.0000 </r>
       <r>    5.9103    0.0000 </r>
       <r>    6.1603    0.0000 </r>
       <r>    6.1603    0.0000 </r>
       <r>    6.4852    0.0000 </r>
       <r>    6.4852    0.0000 </r>
       <r>    6.5130    0.0000 </r>
       <r>    6.5130    0.0000 </r>
       <r>    6.6991    0.0000 </r>
       <r>    6.6991    0.0000 </r>
       <r>    6.8869    0.0000 </r>
       <r>    6.8869    0.0000 </r>
      </set>
      <set comment="kpoint 8">
       <r>  -20.8973    1.0000 </r>
       <r>  -20.8973    1.0000 </r>
       <r>  -20.8966    1.0000 </r>
       <r>  -20.8966    1.0000 </r>
       <r>  -16.5121    1.0000 </r>
       <r>  -16.5121    1.0000 </r>
       <r>  -16.4975    1.0000 </r>
       <r>  -16.4975    1.0000 </r>
       <r>  -16.4730    1.0000 </r>
       <r>  -16.4730    1.0000 </r>
       <r>  -16.4578    1.0000 </r>
       <r>  -16.4578    1.0000 </r>
       <r>  -16.3815    1.0000 </r>
       <r>  -16.3815    1.0000 </r>
       <r>  -16.3812    1.0000 </r>
       <r>  -16.3812    1.0000 </r>
       <r>  -16.3765    1.0000 </r>
       <r>  -16.3765    1.0000 </r>
       <r>  -16.3763    1.0000 </r>
       <r>  -16.3763    1.0000 </r>
       <r>  -16.3684    1.0000 </r>
       <r>  -16.3684    1.0000 </r>
       <r>  -16.3679    1.0000 </r>
       <r>  -16.3679    1.0000 </r>
       <r>  -14.2177    1.0000 </r>
       <r>  -14.2177    1.0000 </r>
       <r>  -14.1211    1.0000 </r>
       <r>  -14.1211    1.0000 </r>
       <r>  -14.0589    1.0000 </r>
       <r>  -14.0589    1.0000 </r>
       <r>  -13.9615    1.0000 </r>
       <r>  -13.9615    1.0000 </r>
       <r>  -13.8680    1.0000 </r>
       <r>  -13.8680    1.0000 </r>
       <r>  -13.8400    1.0000 </r>
       <r>  -13.8400    1.0000 </r>
       <r>   -7.6393    1.0000 </r>
       <r>   -7.6393    1.0000 </r>
       <r>   -7.3992    1.0000 </r>
       <r>   -7.3992    1.0000 </r>
       <r>   -7.3047    1.0000 </r>
       <r>   -7.3047    1.0000 </r>
       <r>   -7.2941    1.0000 </r>
       <r>   -7.2941    1.0000 </r>
       <r>   -7.2703    1.0000 </r>
       <r>   -7.2703    1.0000 </r>
       <r>   -7.2661    1.0000 </r>
       <r>   -7.2661    1.0000 </r>
       <r>   -7.2616    1.0000 </r>
       <r>   -7.2616    1.0000 </r>
       <r>   -7.2364    1.0000 </r>
       <r>   -7.2364    1.0000 </r>
       <r>   -3.1818    1.0000 </r>
       <r>   -3.1818    1.0000 </r>
       <r>   -2.8055    1.0000 </r>
       <r>   -2.8055    1.0000 </r>
       <r>   -2.5217    1.0000 </r>
       <r>   -2.5217    1.0000 </r>
       <r>   -2.3986    1.0000 </r>
       <r>   -2.3986    1.0000 </r>
       <r>   -2.1731    1.0000 </r>
       <r>   -2.1731    1.0000 </r>
       <r>   -2.0186    1.0000 </r>
       <r>   -2.0186    1.0000 </r>
       <r>   -1.7750    1.0000 </r>
       <r>   -1.7750    1.0000 </r>
       <r>   -1.6910    1.0000 </r>
       <r>   -1.6910    1.0000 </r>
       <r>   -1.5346    1.0000 </r>
       <r>   -1.5346    1.0000 </r>
       <r>   -1.4381    1.0000 </r>
       <r>   -1.4381    1.0000 </r>
       <r>   -1.3840    1.0000 </r>
       <r>   -1.3840    1.0000 </r>
       <r>   -1.2876    1.0000 </r>
       <r>   -1.2876    1.0000 </r>
       <r>   -1.2685    1.0000 </r>
       <r>   -1.2685    1.0000 </r>
       <r>   -1.2160    1.0000 </r>
       <r>   -1.2160    1.0000 </r>
       <r>   -1.1432    1.0000 </r>
       <r>   -1.1432    1.0000 </r>
       <r>   -1.0922    1.0000 </r>
       <r>   -1.0922    1.0000 </r>
       <r>   -0.8674    1.0000 </r>
       <r>   -0.8674    1.0000 </r>
       <r>   -0.5934    1.0000 </r>
       <r>   -0.5934    1.0000 </r>
       <r>    3.2272    0.0000 </r>
       <r>    3.2272    0.0000 </r>
       <r>    4.0218    0.0000 </r>
       <r>    4.0218    0.0000 </r>
       <r>    4.3413    0.0000 </r>
       <r>    4.3413    0.0000 </r>
       <r>    4.4893    0.0000 </r>
       <r>    4.4893    0.0000 </r>
       <r>    5.0364    0.0000 </r>
       <r>    5.0364    0.0000 </r>
       <r>    5.7843    0.0000 </r>
       <r>    5.7843    0.0000 </r>
       <r>    6.1841    0.0000 </r>
       <r>    6.1841    0.0000 </r>
       <r>    6.3520    0.0000 </r>
       <r>    6.3520    0.0000 </r>
       <r>    6.5842    0.0000 </r>
       <r>    6.5842    0.0000 </r>
       <r>    6.6411    0.0000 </r>
       <r>    6.6411    0.0000 </r>
       <r>    6.8038    0.0000 </r>
       <r>    6.8038    0.0000 </r>
       <r>    6.9113    0.0000 </r>
       <r>    6.9113    0.0000 </r>
      </set>
     </set>
    </set>
   </array>
  </eigenvalues>
  <separator name="orbital magnetization" >
   <v name="MAGDIPOLOUT">      0.00000000      0.00000000      0.00000000</v>
  </separator>
  <dos>
   <i name="efermi">      0.49025386 </i>
   <total>
    <array>
     <dimension dim="1">gridpoints</dimension>
     <dimension dim="2">spin</dimension>
     <field>energy</field>
     <field>total</field>
     <field>integrated</field>
     <set>
      <set comment="spin 1">
       <r>   -22.2973     0.0000     0.0000 </r>
       <r>   -22.1948     0.0000     0.0000 </r>
       <r>   -22.0923     0.0000     0.0000 </r>
       <r>   -21.9897     0.0000     0.0000 </r>
       <r>   -21.8872     0.0000     0.0000 </r>
       <r>   -21.7847     0.0000     0.0000 </r>
       <r>   -21.6821     0.0000     0.0000 </r>
       <r>   -21.5796     0.0000     0.0000 </r>
       <r>   -21.4771     0.0000     0.0000 </r>
       <r>   -21.3745     0.0000     0.0000 </r>
       <r>   -21.2720     0.0000     0.0000 </r>
       <r>   -21.1695     0.0000     0.0000 </r>
       <r>   -21.0670     0.0000     0.0000 </r>
       <r>   -20.9644     0.0000     0.0000 </r>
       <r>   -20.8619    78.0249     8.0000 </r>
       <r>   -20.7594     0.0000     8.0000 </r>
       <r>   -20.6568     0.0000     8.0000 </r>
       <r>   -20.5543     0.0000     8.0000 </r>
       <r>   -20.4518     0.0000     8.0000 </r>
       <r>   -20.3492     0.0000     8.0000 </r>
       <r>   -20.2467     0.0000     8.0000 </r>
       <r>   -20.1442     0.0000     8.0000 </r>
       <r>   -20.0416     0.0000     8.0000 </r>
       <r>   -19.9391     0.0000     8.0000 </r>
       <r>   -19.8366     0.0000     8.0000 </r>
       <r>   -19.7340     0.0000     8.0000 </r>
       <r>   -19.6315     0.0000     8.0000 </r>
       <r>   -19.5290     0.0000     8.0000 </r>
       <r>   -19.4265     0.0000     8.0000 </r>
       <r>   -19.3239     0.0000     8.0000 </r>
       <r>   -19.2214     0.0000     8.0000 </r>
       <r>   -19.1189     0.0000     8.0000 </r>
       <r>   -19.0163     0.0000     8.0000 </r>
       <r>   -18.9138     0.0000     8.0000 </r>
       <r>   -18.8113     0.0000     8.0000 </r>
       <r>   -18.7087     0.0000     8.0000 </r>
       <r>   -18.6062     0.0000     8.0000 </r>
       <r>   -18.5037     0.0000     8.0000 </r>
       <r>   -18.4011     0.0000     8.0000 </r>
       <r>   -18.2986     0.0000     8.0000 </r>
       <r>   -18.1961     0.0000     8.0000 </r>
       <r>   -18.0935     0.0000     8.0000 </r>
       <r>   -17.9910     0.0000     8.0000 </r>
       <r>   -17.8885     0.0000     8.0000 </r>
       <r>   -17.7860     0.0000     8.0000 </r>
       <r>   -17.6834     0.0000     8.0000 </r>
       <r>   -17.5809     0.0000     8.0000 </r>
       <r>   -17.4784     0.0000     8.0000 </r>
       <r>   -17.3758     0.0000     8.0000 </r>
       <r>   -17.2733     0.0000     8.0000 </r>
       <r>   -17.1708     0.0000     8.0000 </r>
       <r>   -17.0682     0.0000     8.0000 </r>
       <r>   -16.9657     0.0000     8.0000 </r>
       <r>   -16.8632     0.0000     8.0000 </r>
       <r>   -16.7606     0.0000     8.0000 </r>
       <r>   -16.6581     0.0000     8.0000 </r>
       <r>   -16.5556     0.0002     8.0000 </r>
       <r>   -16.4530   138.6702    22.2181 </r>
       <r>   -16.3505   233.5723    47.9485 </r>
       <r>   -16.2480     0.0000    48.0000 </r>
       <r>   -16.1455     0.0000    48.0000 </r>
       <r>   -16.0429     0.0000    48.0000 </r>
       <r>   -15.9404     0.0000    48.0000 </r>
       <r>   -15.8379     0.0000    48.0000 </r>
       <r>   -15.7353     0.0000    48.0000 </r>
       <r>   -15.6328     0.0000    48.0000 </r>
       <r>   -15.5303     0.0000    48.0000 </r>
       <r>   -15.4277     0.0000    48.0000 </r>
       <r>   -15.3252     0.0000    48.0000 </r>
       <r>   -15.2227     0.0000    48.0000 </r>
       <r>   -15.1201     0.0000    48.0000 </r>
       <r>   -15.0176     0.0000    48.0000 </r>
       <r>   -14.9151     0.0000    48.0000 </r>
       <r>   -14.8125     0.0000    48.0000 </r>
       <r>   -14.7100     0.0000    48.0000 </r>
       <r>   -14.6075     0.0000    48.0000 </r>
       <r>   -14.5050     0.0000    48.0000 </r>
       <r>   -14.4024     0.0000    48.0000 </r>
       <r>   -14.2999     7.3958    48.7583 </r>
       <r>   -14.1974    22.7833    51.1138 </r>
       <r>   -14.0948    31.4942    54.7849 </r>
       <r>   -13.9923    51.6247    60.4043 </r>
       <r>   -13.8898    29.1367    65.2097 </r>
       <r>   -13.7872    35.7985    71.1149 </r>
       <r>   -13.6847     0.0000    72.0000 </r>
       <r>   -13.5822     0.0000    72.0000 </r>
       <r>   -13.4796     0.0000    72.0000 </r>
       <r>   -13.3771     0.0000    72.0000 </r>
       <r>   -13.2746     0.0000    72.0000 </r>
       <r>   -13.1720     0.0000    72.0000 </r>
       <r>   -13.0695     0.0000    72.0000 </r>
       <r>   -12.9670     0.0000    72.0000 </r>
       <r>   -12.8644     0.0000    72.0000 </r>
       <r>   -12.7619     0.0000    72.0000 </r>
       <r>   -12.6594     0.0000    72.0000 </r>
       <r>   -12.5569     0.0000    72.0000 </r>
       <r>   -12.4543     0.0000    72.0000 </r>
       <r>   -12.3518     0.0000    72.0000 </r>
       <r>   -12.2493     0.0000    72.0000 </r>
       <r>   -12.1467     0.0000    72.0000 </r>
       <r>   -12.0442     0.0000    72.0000 </r>
       <r>   -11.9417     0.0000    72.0000 </r>
       <r>   -11.8391     0.0000    72.0000 </r>
       <r>   -11.7366     0.0000    72.0000 </r>
       <r>   -11.6341     0.0000    72.0000 </r>
       <r>   -11.5315     0.0000    72.0000 </r>
       <r>   -11.4290     0.0000    72.0000 </r>
       <r>   -11.3265     0.0000    72.0000 </r>
       <r>   -11.2239     0.0000    72.0000 </r>
       <r>   -11.1214     0.0000    72.0000 </r>
       <r>   -11.0189     0.0000    72.0000 </r>
       <r>   -10.9164     0.0000    72.0000 </r>
       <r>   -10.8138     0.0000    72.0000 </r>
       <r>   -10.7113     0.0000    72.0000 </r>
       <r>   -10.6088     0.0000    72.0000 </r>
       <r>   -10.5062     0.0000    72.0000 </r>
       <r>   -10.4037     0.0000    72.0000 </r>
       <r>   -10.3012     0.0000    72.0000 </r>
       <r>   -10.1986     0.0000    72.0000 </r>
       <r>   -10.0961     0.0000    72.0000 </r>
       <r>    -9.9936     0.0000    72.0000 </r>
       <r>    -9.8910     0.0000    72.0000 </r>
       <r>    -9.7885     0.0000    72.0000 </r>
       <r>    -9.6860     0.0000    72.0000 </r>
       <r>    -9.5834     0.0000    72.0000 </r>
       <r>    -9.4809     0.0000    72.0000 </r>
       <r>    -9.3784     0.0000    72.0000 </r>
       <r>    -9.2759     0.0000    72.0000 </r>
       <r>    -9.1733     0.0000    72.0000 </r>
       <r>    -9.0708     0.0000    72.0000 </r>
       <r>    -8.9683     0.0000    72.0000 </r>
       <r>    -8.8657     0.0000    72.0000 </r>
       <r>    -8.7632     0.0000    72.0000 </r>
       <r>    -8.6607     0.0000    72.0000 </r>
       <r>    -8.5581     0.0000    72.0000 </r>
       <r>    -8.4556     0.0000    72.0000 </r>
       <r>    -8.3531     0.0000    72.0000 </r>
       <r>    -8.2505     0.0000    72.0000 </r>
       <r>    -8.1480     1.0837    72.1111 </r>
       <r>    -8.0455     0.0000    72.1111 </r>
       <r>    -7.9429     6.5021    72.7778 </r>
       <r>    -7.8404     4.1453    73.2028 </r>
       <r>    -7.7379     9.6120    74.2078 </r>
       <r>    -7.6354     6.1619    74.8540 </r>
       <r>    -7.5328     5.2838    75.6529 </r>
       <r>    -7.4303     4.3348    76.4445 </r>
       <r>    -7.3278    22.3488    78.7359 </r>
       <r>    -7.2252   195.2265   101.7956 </r>
       <r>    -7.1227     5.4183   102.7778 </r>
       <r>    -7.0202     4.3347   103.2222 </r>
       <r>    -6.9176     5.8473   103.8218 </r>
       <r>    -6.8151     0.0000   103.8889 </r>
       <r>    -6.7126     0.0000   103.8889 </r>
       <r>    -6.6100     0.1432   103.9036 </r>
       <r>    -6.5075     0.0000   104.0000 </r>
       <r>    -6.4050     0.0000   104.0000 </r>
       <r>    -6.3024     0.0000   104.0000 </r>
       <r>    -6.1999     0.0000   104.0000 </r>
       <r>    -6.0974     0.0000   104.0000 </r>
       <r>    -5.9949     0.0000   104.0000 </r>
       <r>    -5.8923     0.0000   104.0000 </r>
       <r>    -5.7898     0.0000   104.0000 </r>
       <r>    -5.6873     0.0000   104.0000 </r>
       <r>    -5.5847     0.0000   104.0000 </r>
       <r>    -5.4822     0.0000   104.0000 </r>
       <r>    -5.3797     0.0000   104.0000 </r>
       <r>    -5.2771     0.0000   104.0000 </r>
       <r>    -5.1746     0.0000   104.0000 </r>
       <r>    -5.0721     0.0000   104.0000 </r>
       <r>    -4.9695     0.0000   104.0000 </r>
       <r>    -4.8670     0.0000   104.0000 </r>
       <r>    -4.7645     0.0000   104.0000 </r>
       <r>    -4.6619     0.0000   104.0000 </r>
       <r>    -4.5594     0.0000   104.0000 </r>
       <r>    -4.4569     0.0000   104.0000 </r>
       <r>    -4.3544     0.0000   104.0000 </r>
       <r>    -4.2518     0.0000   104.0000 </r>
       <r>    -4.1493     0.0000   104.0000 </r>
       <r>    -4.0468     0.0000   104.0000 </r>
       <r>    -3.9442     0.0000   104.0000 </r>
       <r>    -3.8417     0.0000   104.0000 </r>
       <r>    -3.7392     0.0000   104.0000 </r>
       <r>    -3.6366     0.0000   104.0000 </r>
       <r>    -3.5341     0.0000   104.0000 </r>
       <r>    -3.4316     0.0000   104.0000 </r>
       <r>    -3.3290     1.0624   104.1089 </r>
       <r>    -3.2265    13.1068   105.4550 </r>
       <r>    -3.1240    14.3694   107.6955 </r>
       <r>    -3.0214     7.5508   108.8853 </r>
       <r>    -2.9189    12.9541   110.2172 </r>
       <r>    -2.8164    11.0547   111.5779 </r>
       <r>    -2.7138     8.5859   113.7692 </r>
       <r>    -2.6113     0.0000   114.0000 </r>
       <r>    -2.5088     8.5346   114.8751 </r>
       <r>    -2.4063    12.7020   116.4135 </r>
       <r>    -2.3037     3.0067   118.0861 </r>
       <r>    -2.2012    11.9524   119.4477 </r>
       <r>    -2.0987    24.4682   122.3977 </r>
       <r>    -1.9961    25.6620   125.6313 </r>
       <r>    -1.8936     7.5417   127.1066 </r>
       <r>    -1.7911     9.8516   128.1212 </r>
       <r>    -1.6885    36.1775   132.7093 </r>
       <r>    -1.5860    10.4258   134.8468 </r>
       <r>    -1.4835    33.4777   138.9882 </r>
       <r>    -1.3809    51.1322   146.0204 </r>
       <r>    -1.2784    49.7533   153.5459 </r>
       <r>    -1.1759    37.8434   159.8801 </r>
       <r>    -1.0733    45.7041   166.4639 </r>
       <r>    -0.9708     6.5006   168.0000 </r>
       <r>    -0.8683    23.5274   170.4123 </r>
       <r>    -0.7658     0.0000   171.0000 </r>
       <r>    -0.6632     9.8570   172.0107 </r>
       <r>    -0.5607    17.3389   174.2222 </r>
       <r>    -0.4582     4.2907   174.6622 </r>
       <r>    -0.3556     0.0000   174.6667 </r>
       <r>    -0.2531     0.0000   174.6667 </r>
       <r>    -0.1506     9.7408   175.6654 </r>
       <r>    -0.0480     0.4724   175.7151 </r>
       <r>     0.0545     0.0000   175.8889 </r>
       <r>     0.1570     0.0000   175.8889 </r>
       <r>     0.2596     0.0000   175.8889 </r>
       <r>     0.3621     0.0387   175.8929 </r>
       <r>     0.4646     0.0000   176.0000 </r>
       <r>     0.5672     0.0000   176.0000 </r>
       <r>     0.6697     0.0000   176.0000 </r>
       <r>     0.7722     0.0000   176.0000 </r>
       <r>     0.8747     0.0000   176.0000 </r>
       <r>     0.9773     0.0000   176.0000 </r>
       <r>     1.0798     0.0000   176.0000 </r>
       <r>     1.1823     0.0000   176.0000 </r>
       <r>     1.2849     0.0000   176.0000 </r>
       <r>     1.3874     0.0000   176.0000 </r>
       <r>     1.4899     0.0000   176.0000 </r>
       <r>     1.5925     0.0000   176.0000 </r>
       <r>     1.6950     0.0000   176.0000 </r>
       <r>     1.7975     0.0000   176.0000 </r>
       <r>     1.9001     0.0000   176.0000 </r>
       <r>     2.0026     0.0000   176.0000 </r>
       <r>     2.1051     0.0000   176.0000 </r>
       <r>     2.2077     0.0000   176.0000 </r>
       <r>     2.3102     0.0000   176.0000 </r>
       <r>     2.4127     0.0000   176.0000 </r>
       <r>     2.5152     0.0000   176.0000 </r>
       <r>     2.6178     1.0745   176.1102 </r>
       <r>     2.7203     0.0000   176.1111 </r>
       <r>     2.8228     6.5020   176.7778 </r>
       <r>     2.9254     4.3347   177.2222 </r>
       <r>     3.0279     4.3352   177.6667 </r>
       <r>     3.1304     8.6690   178.5556 </r>
       <r>     3.2330    13.3672   179.9261 </r>
       <r>     3.3355     0.0000   180.1111 </r>
       <r>     3.4380     5.3803   180.6628 </r>
       <r>     3.5406     2.0561   180.8775 </r>
       <r>     3.6431     2.1870   181.1131 </r>
       <r>     3.7456     7.7980   182.1329 </r>
       <r>     3.8482     5.3624   182.9943 </r>
       <r>     3.9507     8.6694   184.2222 </r>
       <r>     4.0532    11.4954   185.4009 </r>
       <r>     4.1557     2.1674   185.7778 </r>
       <r>     4.2583     6.5462   186.4490 </r>
       <r>     4.3608     8.6445   187.9974 </r>
       <r>     4.4633     0.0010   188.0001 </r>
       <r>     4.5659    17.2627   189.7701 </r>
       <r>     4.6684     0.0000   189.7778 </r>
       <r>     4.7709     3.2336   190.1093 </r>
       <r>     4.8735     4.3347   190.5556 </r>
       <r>     4.9760     0.3230   190.5887 </r>
       <r>     5.0785    10.8357   191.8888 </r>
       <r>     5.1811    14.3648   193.3617 </r>
       <r>     5.2836    12.5420   194.9526 </r>
       <r>     5.3861     2.8388   195.2911 </r>
       <r>     5.4887     2.5660   195.7075 </r>
       <r>     5.5912     4.3345   196.2222 </r>
       <r>     5.6937     6.0791   196.8455 </r>
       <r>     5.7962    14.4869   198.5965 </r>
       <r>     5.8988     0.2563   199.1374 </r>
       <r>     6.0013    20.6693   201.7861 </r>
       <r>     6.1038     4.3380   202.7781 </r>
       <r>     6.2064    18.5308   204.7889 </r>
       <r>     6.3089    11.9200   206.1111 </r>
       <r>     6.4114    20.7088   208.2344 </r>
       <r>     6.5140    21.8974   210.5786 </r>
       <r>     6.6165    23.2312   213.1597 </r>
       <r>     6.7190    27.3711   216.9178 </r>
       <r>     6.8216    24.6904   219.7538 </r>
       <r>     6.9241    19.4052   222.3230 </r>
       <r>     7.0266     6.4998   223.3331 </r>
       <r>     7.1292     6.5021   224.0000 </r>
       <r>     7.2317     0.0000   224.0000 </r>
       <r>     7.3342     0.0000   224.0000 </r>
       <r>     7.4368     0.0000   224.0000 </r>
       <r>     7.5393     0.0000   224.0000 </r>
       <r>     7.6418     0.0000   224.0000 </r>
       <r>     7.7443     0.0000   224.0000 </r>
       <r>     7.8469     0.0000   224.0000 </r>
       <r>     7.9494     0.0000   224.0000 </r>
       <r>     8.0519     0.0000   224.0000 </r>
       <r>     8.1545     0.0000   224.0000 </r>
       <r>     8.2570     0.0000   224.0000 </r>
       <r>     8.3595     0.0000   224.0000 </r>
       <r>     8.4621     0.0000   224.0000 </r>
      </set>
     </set>
    </array>
   </total>
   <partial>
    <array>
     <dimension dim="1">gridpoints</dimension>
     <dimension dim="2">spin</dimension>
     <dimension dim="3">ion</dimension>
     <field>energy</field>
     <field>  s  </field>
     <field>  p  </field>
     <field>  d  </field>
     <set>
      <set comment="ion 1">
       <set comment="spin 1">
        <r>   -22.2973     0.0000     0.0000     0.0000 </r>
        <r>   -22.1948     0.0000     0.0000     0.0000 </r>
        <r>   -22.0923     0.0000     0.0000     0.0000 </r>
        <r>   -21.9897     0.0000     0.0000     0.0000 </r>
        <r>   -21.8872     0.0000     0.0000     0.0000 </r>
[...]
        <r>  0.0000  0.0001  0.0004 </r>
        <r>  0.0002  0.0119  0.0003 </r>
        <r>  0.0005  0.0141  0.0004 </r>
        <r>  0.0026  0.1653  0.0018 </r>
        <r>  0.0029  0.1587  0.0017 </r>
        <r>  0.0003  0.0064  0.0018 </r>
        <r>  0.0003  0.0049  0.0006 </r>
        <r>  0.0001  0.0026  0.0015 </r>
        <r>  0.0010  0.0069  0.0008 </r>
        <r>  0.0131  0.0336  0.0071 </r>
        <r>  0.0008  0.0132  0.0008 </r>
        <r>  0.0001  0.0012  0.0001 </r>
        <r>  0.0009  0.0021  0.0008 </r>
        <r>  0.0010  0.0033  0.0004 </r>
        <r>  0.0001  0.0009  0.0000 </r>
        <r>  0.0131  0.0324  0.0075 </r>
        <r>  0.0009  0.0134  0.0008 </r>
       </set>
       <set comment="band 93">
        <r>  0.0000  0.0001  0.0002 </r>
        <r>  0.0004  0.0001  0.0005 </r>
        <r>  0.0000  0.0001  0.0006 </r>
        <r>  0.0000  0.0009  0.0012 </r>
        <r>  0.0026  0.1033  0.0012 </r>
        <r>  0.0021  0.0735  0.0010 </r>
        <r>  0.0028  0.0601  0.0011 </r>
        <r>  0.0031  0.0846  0.0014 </r>
        <r>  0.0093  0.0010  0.0037 </r>
        <r>  0.0001  0.0705  0.0003 </r>
        <r>  0.0115  0.0019  0.0049 </r>
        <r>  0.0001  0.0551  0.0003 </r>
        <r>  0.0005  0.0066  0.0008 </r>
        <r>  0.0000  0.0011  0.0017 </r>
        <r>  0.0000  0.0010  0.0021 </r>
        <r>  0.0007  0.0045  0.0013 </r>
        <r>  0.0006  0.0075  0.0009 </r>
        <r>  0.0000  0.0013  0.0020 </r>
        <r>  0.0006  0.0035  0.0011 </r>
        <r>  0.0000  0.0009  0.0017 </r>
       </set>
       <set comment="band 94">
        <r>  0.0000  0.0009  0.0012 </r>
        <r>  0.0000  0.0001  0.0006 </r>
        <r>  0.0004  0.0001  0.0005 </r>
        <r>  0.0000  0.0001  0.0002 </r>
        <r>  0.0031  0.0846  0.0014 </r>
        <r>  0.0028  0.0601  0.0011 </r>
        <r>  0.0021  0.0735  0.0010 </r>
        <r>  0.0026  0.1033  0.0012 </r>
        <r>  0.0001  0.0551  0.0003 </r>
        <r>  0.0115  0.0019  0.0049 </r>
        <r>  0.0001  0.0705  0.0003 </r>
        <r>  0.0093  0.0010  0.0037 </r>
        <r>  0.0007  0.0045  0.0013 </r>
        <r>  0.0000  0.0010  0.0021 </r>
        <r>  0.0000  0.0011  0.0017 </r>
        <r>  0.0005  0.0066  0.0008 </r>
        <r>  0.0006  0.0035  0.0011 </r>
        <r>  0.0000  0.0009  0.0017 </r>
        <r>  0.0006  0.0075  0.0009 </r>
        <r>  0.0000  0.0013  0.0020 </r>
       </set>
       <set comment="band 95">
        <r>  0.0000  0.0001  0.0006 </r>
        <r>  0.0001  0.0011  0.0006 </r>
        <r>  0.0000  0.0002  0.0003 </r>
        <r>  0.0003  0.0002  0.0002 </r>
        <r>  0.0028  0.0611  0.0012 </r>
        <r>  0.0034  0.0834  0.0014 </r>
        <r>  0.0026  0.1080  0.0011 </r>
        <r>  0.0020  0.0771  0.0010 </r>
        <r>  0.0118  0.0007  0.0053 </r>
        <r>  0.0001  0.0526  0.0004 </r>
        <r>  0.0095  0.0005  0.0041 </r>
        <r>  0.0001  0.0671  0.0001 </r>
        <r>  0.0003  0.0031  0.0020 </r>
        <r>  0.0002  0.0053  0.0005 </r>
        <r>  0.0003  0.0068  0.0006 </r>
        <r>  0.0001  0.0035  0.0017 </r>
        <r>  0.0003  0.0025  0.0016 </r>
        <r>  0.0001  0.0039  0.0004 </r>
        <r>  0.0001  0.0042  0.0022 </r>
        <r>  0.0003  0.0081  0.0006 </r>
       </set>
       <set comment="band 96">
        <r>  0.0003  0.0002  0.0002 </r>
        <r>  0.0000  0.0002  0.0003 </r>
        <r>  0.0001  0.0011  0.0006 </r>
        <r>  0.0000  0.0001  0.0006 </r>
        <r>  0.0020  0.0771  0.0010 </r>
        <r>  0.0026  0.1080  0.0011 </r>
        <r>  0.0034  0.0834  0.0014 </r>
        <r>  0.0028  0.0611  0.0012 </r>
        <r>  0.0001  0.0671  0.0001 </r>
        <r>  0.0095  0.0005  0.0041 </r>
        <r>  0.0001  0.0526  0.0004 </r>
        <r>  0.0118  0.0007  0.0053 </r>
        <r>  0.0001  0.0035  0.0017 </r>
        <r>  0.0003  0.0068  0.0006 </r>
        <r>  0.0002  0.0053  0.0005 </r>
        <r>  0.0003  0.0031  0.0020 </r>
        <r>  0.0001  0.0042  0.0022 </r>
        <r>  0.0003  0.0081  0.0006 </r>
        <r>  0.0003  0.0025  0.0016 </r>
        <r>  0.0001  0.0039  0.0004 </r>
       </set>
       <set comment="band 97">
        <r>  0.0000  0.0001  0.0019 </r>
        <r>  0.0001  0.0005  0.0010 </r>
        <r>  0.0000  0.0001  0.0027 </r>
        <r>  0.0002  0.0004  0.0006 </r>
        <r>  0.0030  0.0717  0.0008 </r>
        <r>  0.0017  0.0716  0.0008 </r>
        <r>  0.0022  0.0742  0.0009 </r>
        <r>  0.0013  0.0838  0.0012 </r>
        <r>  0.0002  0.0039  0.0005 </r>
        <r>  0.0002  0.0042  0.0027 </r>
        <r>  0.0014  0.0035  0.0009 </r>
        <r>  0.0000  0.0009  0.0026 </r>
        <r>  0.0033  0.0432  0.0019 </r>
        <r>  0.0000  0.0006  0.0023 </r>
        <r>  0.0000  0.0009  0.0022 </r>
        <r>  0.0039  0.0388  0.0015 </r>
        <r>  0.0031  0.0395  0.0015 </r>
        <r>  0.0000  0.0007  0.0022 </r>
        <r>  0.0041  0.0424  0.0018 </r>
        <r>  0.0000  0.0008  0.0023 </r>
       </set>
       <set comment="band 98">
        <r>  0.0002  0.0004  0.0006 </r>
        <r>  0.0000  0.0001  0.0027 </r>
        <r>  0.0001  0.0005  0.0010 </r>
        <r>  0.0000  0.0001  0.0019 </r>
        <r>  0.0013  0.0838  0.0012 </r>
        <r>  0.0022  0.0742  0.0009 </r>
        <r>  0.0017  0.0716  0.0008 </r>
        <r>  0.0030  0.0717  0.0008 </r>
        <r>  0.0000  0.0009  0.0026 </r>
        <r>  0.0014  0.0035  0.0009 </r>
        <r>  0.0002  0.0042  0.0027 </r>
        <r>  0.0002  0.0039  0.0005 </r>
        <r>  0.0039  0.0388  0.0015 </r>
        <r>  0.0000  0.0009  0.0022 </r>
        <r>  0.0000  0.0006  0.0023 </r>
        <r>  0.0033  0.0432  0.0019 </r>
        <r>  0.0041  0.0424  0.0018 </r>
        <r>  0.0000  0.0008  0.0023 </r>
        <r>  0.0031  0.0395  0.0015 </r>
        <r>  0.0000  0.0007  0.0022 </r>
       </set>
       <set comment="band 99">
        <r>  0.0000  0.0000  0.0041 </r>
        <r>  0.0001  0.0002  0.0016 </r>
        <r>  0.0000  0.0001  0.0010 </r>
        <r>  0.0001  0.0002  0.0008 </r>
        <r>  0.0000  0.0484  0.0005 </r>
        <r>  0.0001  0.0483  0.0007 </r>
        <r>  0.0000  0.1070  0.0005 </r>
        <r>  0.0000  0.1062  0.0003 </r>
        <r>  0.0004  0.0016  0.0007 </r>
        <r>  0.0000  0.0003  0.0037 </r>
        <r>  0.0000  0.0031  0.0004 </r>
        <r>  0.0000  0.0008  0.0037 </r>
        <r>  0.0000  0.0014  0.0033 </r>
        <r>  0.0000  0.0710  0.0020 </r>
        <r>  0.0001  0.0309  0.0009 </r>
        <r>  0.0000  0.0006  0.0018 </r>
        <r>  0.0000  0.0006  0.0016 </r>
        <r>  0.0000  0.0315  0.0013 </r>
        <r>  0.0000  0.0013  0.0036 </r>
        <r>  0.0000  0.0704  0.0016 </r>
       </set>
       <set comment="band 100">
        <r>  0.0001  0.0002  0.0008 </r>
        <r>  0.0000  0.0001  0.0010 </r>
        <r>  0.0001  0.0002  0.0016 </r>
        <r>  0.0000  0.0000  0.0041 </r>
        <r>  0.0000  0.1062  0.0003 </r>
        <r>  0.0000  0.1070  0.0005 </r>
        <r>  0.0001  0.0483  0.0007 </r>
        <r>  0.0000  0.0484  0.0005 </r>
        <r>  0.0000  0.0008  0.0037 </r>
        <r>  0.0000  0.0031  0.0004 </r>
        <r>  0.0000  0.0003  0.0037 </r>
        <r>  0.0004  0.0016  0.0007 </r>
        <r>  0.0000  0.0006  0.0018 </r>
        <r>  0.0001  0.0309  0.0009 </r>
        <r>  0.0000  0.0710  0.0020 </r>
        <r>  0.0000  0.0014  0.0033 </r>
        <r>  0.0000  0.0013  0.0036 </r>
        <r>  0.0000  0.0704  0.0016 </r>
        <r>  0.0000  0.0006  0.0016 </r>
        <r>  0.0000  0.0315  0.0013 </r>
       </set>
       <set comment="band 101">
        <r>  0.0141  0.0056  0.0043 </r>
        <r>  0.0002  0.0011  0.0119 </r>
        <r>  0.0136  0.0054  0.0037 </r>
        <r>  0.0002  0.0012  0.0104 </r>
        <r>  0.0001  0.0052  0.0002 </r>
        <r>  0.0002  0.0097  0.0002 </r>
        <r>  0.0003  0.0093  0.0002 </r>
        <r>  0.0002  0.0049  0.0002 </r>
        <r>  0.0000  0.0071  0.0003 </r>
        <r>  0.0044  0.0089  0.0033 </r>
        <r>  0.0001  0.0062  0.0002 </r>
        <r>  0.0038  0.0089  0.0031 </r>
        <r>  0.0022  0.0048  0.0020 </r>
        <r>  0.0040  0.0014  0.0013 </r>
        <r>  0.0037  0.0032  0.0021 </r>
        <r>  0.0005  0.0048  0.0005 </r>
        <r>  0.0016  0.0046  0.0015 </r>
        <r>  0.0024  0.0011  0.0012 </r>
        <r>  0.0011  0.0050  0.0010 </r>
        <r>  0.0053  0.0035  0.0022 </r>
       </set>
       <set comment="band 102">
        <r>  0.0002  0.0012  0.0104 </r>
        <r>  0.0136  0.0054  0.0037 </r>
        <r>  0.0002  0.0011  0.0119 </r>
        <r>  0.0141  0.0056  0.0043 </r>
        <r>  0.0002  0.0049  0.0002 </r>
        <r>  0.0003  0.0093  0.0002 </r>
        <r>  0.0002  0.0097  0.0002 </r>
        <r>  0.0001  0.0052  0.0002 </r>
        <r>  0.0038  0.0089  0.0031 </r>
        <r>  0.0001  0.0062  0.0002 </r>
        <r>  0.0044  0.0089  0.0033 </r>
        <r>  0.0000  0.0071  0.0003 </r>
        <r>  0.0005  0.0048  0.0005 </r>
        <r>  0.0037  0.0032  0.0021 </r>
        <r>  0.0040  0.0014  0.0013 </r>
        <r>  0.0022  0.0048  0.0020 </r>
        <r>  0.0011  0.0050  0.0010 </r>
        <r>  0.0053  0.0035  0.0022 </r>
        <r>  0.0016  0.0046  0.0015 </r>
        <r>  0.0024  0.0011  0.0012 </r>
       </set>
       <set comment="band 103">
        <r>  0.0000  0.0002  0.0076 </r>
        <r>  0.0013  0.0014  0.0614 </r>
        <r>  0.0000  0.0009  0.0007 </r>
        <r>  0.0058  0.0017  0.0407 </r>
        <r>  0.0001  0.0049  0.0003 </r>
        <r>  0.0000  0.0014  0.0002 </r>
        <r>  0.0000  0.0015  0.0003 </r>
        <r>  0.0001  0.0050  0.0003 </r>
        <r>  0.0001  0.0119  0.0060 </r>
        <r>  0.0000  0.0011  0.0006 </r>
        <r>  0.0006  0.0103  0.0056 </r>
        <r>  0.0000  0.0001  0.0001 </r>
        <r>  0.0006  0.0039  0.0011 </r>
        <r>  0.0012  0.0029  0.0017 </r>
        <r>  0.0004  0.0015  0.0013 </r>
        <r>  0.0003  0.0028  0.0020 </r>
        <r>  0.0005  0.0041  0.0012 </r>
        <r>  0.0013  0.0028  0.0016 </r>
        <r>  0.0004  0.0026  0.0020 </r>
        <r>  0.0003  0.0015  0.0014 </r>
       </set>
       <set comment="band 104">
        <r>  0.0058  0.0017  0.0407 </r>
        <r>  0.0000  0.0009  0.0007 </r>
        <r>  0.0013  0.0014  0.0614 </r>
        <r>  0.0000  0.0002  0.0076 </r>
        <r>  0.0001  0.0050  0.0003 </r>
        <r>  0.0000  0.0015  0.0003 </r>
        <r>  0.0000  0.0014  0.0002 </r>
        <r>  0.0001  0.0049  0.0003 </r>
        <r>  0.0000  0.0001  0.0001 </r>
        <r>  0.0006  0.0103  0.0056 </r>
        <r>  0.0000  0.0011  0.0006 </r>
        <r>  0.0001  0.0119  0.0060 </r>
        <r>  0.0003  0.0028  0.0020 </r>
        <r>  0.0004  0.0015  0.0013 </r>
        <r>  0.0012  0.0029  0.0017 </r>
        <r>  0.0006  0.0039  0.0011 </r>
        <r>  0.0004  0.0026  0.0020 </r>
        <r>  0.0003  0.0015  0.0014 </r>
        <r>  0.0005  0.0041  0.0012 </r>
        <r>  0.0013  0.0028  0.0016 </r>
       </set>
       <set comment="band 105">
        <r>  0.0008  0.0005  0.0240 </r>
        <r>  0.0043  0.0026  0.0226 </r>
        <r>  0.0018  0.0014  0.0311 </r>
        <r>  0.0020  0.0005  0.0325 </r>
        <r>  0.0001  0.0019  0.0005 </r>
        <r>  0.0002  0.0041  0.0004 </r>
        <r>  0.0000  0.0059  0.0010 </r>
        <r>  0.0000  0.0129  0.0002 </r>
        <r>  0.0009  0.0054  0.0025 </r>
        <r>  0.0002  0.0034  0.0010 </r>
        <r>  0.0006  0.0064  0.0017 </r>
        <r>  0.0004  0.0026  0.0017 </r>
        <r>  0.0011  0.0022  0.0030 </r>
        <r>  0.0032  0.0014  0.0034 </r>
        <r>  0.0001  0.0016  0.0019 </r>
        <r>  0.0003  0.0036  0.0018 </r>
        <r>  0.0005  0.0019  0.0018 </r>
        <r>  0.0005  0.0014  0.0019 </r>
        <r>  0.0009  0.0039  0.0029 </r>
        <r>  0.0028  0.0016  0.0034 </r>
       </set>
       <set comment="band 106">
        <r>  0.0020  0.0005  0.0325 </r>
        <r>  0.0018  0.0014  0.0311 </r>
        <r>  0.0043  0.0026  0.0226 </r>
        <r>  0.0008  0.0005  0.0240 </r>
        <r>  0.0000  0.0129  0.0002 </r>
        <r>  0.0000  0.0059  0.0010 </r>
        <r>  0.0002  0.0041  0.0004 </r>
        <r>  0.0001  0.0019  0.0005 </r>
        <r>  0.0004  0.0026  0.0017 </r>
        <r>  0.0006  0.0064  0.0017 </r>
        <r>  0.0002  0.0034  0.0010 </r>
        <r>  0.0009  0.0054  0.0025 </r>
        <r>  0.0003  0.0036  0.0018 </r>
        <r>  0.0001  0.0016  0.0019 </r>
        <r>  0.0032  0.0014  0.0034 </r>
        <r>  0.0011  0.0022  0.0030 </r>
        <r>  0.0009  0.0039  0.0029 </r>
        <r>  0.0028  0.0016  0.0034 </r>
        <r>  0.0005  0.0019  0.0018 </r>
        <r>  0.0005  0.0014  0.0019 </r>
       </set>
       <set comment="band 107">
        <r>  0.0003  0.0026  0.0315 </r>
        <r>  0.0012  0.0018  0.0246 </r>
        <r>  0.0008  0.0013  0.0298 </r>
        <r>  0.0004  0.0035  0.0309 </r>
        <r>  0.0001  0.0012  0.0007 </r>
        <r>  0.0000  0.0035  0.0002 </r>
        <r>  0.0000  0.0055  0.0012 </r>
        <r>  0.0000  0.0106  0.0018 </r>
        <r>  0.0001  0.0036  0.0009 </r>
        <r>  0.0007  0.0039  0.0015 </r>
        <r>  0.0010  0.0038  0.0018 </r>
        <r>  0.0001  0.0034  0.0011 </r>
        <r>  0.0024  0.0021  0.0038 </r>
        <r>  0.0011  0.0029  0.0052 </r>
        <r>  0.0003  0.0027  0.0016 </r>
        <r>  0.0003  0.0023  0.0023 </r>
        <r>  0.0003  0.0021  0.0019 </r>
        <r>  0.0002  0.0028  0.0017 </r>
        <r>  0.0024  0.0023  0.0042 </r>
        <r>  0.0012  0.0029  0.0051 </r>
       </set>
       <set comment="band 108">
        <r>  0.0004  0.0035  0.0309 </r>
        <r>  0.0008  0.0013  0.0298 </r>
        <r>  0.0012  0.0018  0.0246 </r>
        <r>  0.0003  0.0026  0.0315 </r>
        <r>  0.0000  0.0106  0.0018 </r>
        <r>  0.0000  0.0055  0.0012 </r>
        <r>  0.0000  0.0035  0.0002 </r>
        <r>  0.0001  0.0012  0.0007 </r>
        <r>  0.0001  0.0034  0.0011 </r>
        <r>  0.0010  0.0038  0.0018 </r>
        <r>  0.0007  0.0039  0.0015 </r>
        <r>  0.0001  0.0036  0.0009 </r>
        <r>  0.0003  0.0023  0.0023 </r>
        <r>  0.0003  0.0027  0.0016 </r>
        <r>  0.0011  0.0029  0.0052 </r>
        <r>  0.0024  0.0021  0.0038 </r>
        <r>  0.0024  0.0023  0.0042 </r>
        <r>  0.0012  0.0029  0.0051 </r>
        <r>  0.0003  0.0021  0.0019 </r>
        <r>  0.0002  0.0028  0.0017 </r>
       </set>
       <set comment="band 109">
        <r>  0.0002  0.0024  0.0304 </r>
        <r>  0.0004  0.0053  0.0246 </r>
        <r>  0.0003  0.0038  0.0209 </r>
        <r>  0.0003  0.0033  0.0368 </r>
        <r>  0.0000  0.0021  0.0009 </r>
        <r>  0.0001  0.0007  0.0003 </r>
        <r>  0.0000  0.0118  0.0007 </r>
        <r>  0.0000  0.0060  0.0002 </r>
        <r>  0.0027  0.0056  0.0024 </r>
        <r>  0.0002  0.0051  0.0013 </r>
        <r>  0.0003  0.0064  0.0017 </r>
        <r>  0.0018  0.0046  0.0017 </r>
        <r>  0.0027  0.0061  0.0030 </r>
        <r>  0.0002  0.0070  0.0027 </r>
        <r>  0.0002  0.0017  0.0028 </r>
        <r>  0.0002  0.0005  0.0014 </r>
        <r>  0.0002  0.0005  0.0011 </r>
        <r>  0.0002  0.0020  0.0034 </r>
        <r>  0.0027  0.0061  0.0033 </r>
        <r>  0.0001  0.0067  0.0022 </r>
       </set>
       <set comment="band 110">
        <r>  0.0003  0.0033  0.0368 </r>
        <r>  0.0003  0.0038  0.0209 </r>
        <r>  0.0004  0.0053  0.0246 </r>
        <r>  0.0002  0.0024  0.0304 </r>
        <r>  0.0000  0.0060  0.0002 </r>
        <r>  0.0000  0.0118  0.0007 </r>
        <r>  0.0001  0.0007  0.0003 </r>
        <r>  0.0000  0.0021  0.0009 </r>
        <r>  0.0018  0.0046  0.0017 </r>
        <r>  0.0003  0.0064  0.0017 </r>
        <r>  0.0002  0.0051  0.0013 </r>
        <r>  0.0027  0.0056  0.0024 </r>
        <r>  0.0002  0.0005  0.0014 </r>
        <r>  0.0002  0.0017  0.0028 </r>
        <r>  0.0002  0.0070  0.0027 </r>
        <r>  0.0027  0.0061  0.0030 </r>
        <r>  0.0027  0.0061  0.0034 </r>
        <r>  0.0001  0.0067  0.0022 </r>
        <r>  0.0002  0.0005  0.0011 </r>
        <r>  0.0002  0.0020  0.0034 </r>
       </set>
       <set comment="band 111">
        <r>  0.0016  0.0042  0.0359 </r>
        <r>  0.0003  0.0010  0.0182 </r>
        <r>  0.0006  0.0013  0.0219 </r>
        <r>  0.0008  0.0022  0.0441 </r>
        <r>  0.0000  0.0058  0.0004 </r>
        <r>  0.0000  0.0116  0.0005 </r>
        <r>  0.0001  0.0028  0.0024 </r>
        <r>  0.0001  0.0032  0.0022 </r>
        <r>  0.0005  0.0037  0.0018 </r>
        <r>  0.0010  0.0063  0.0034 </r>
        <r>  0.0005  0.0032  0.0027 </r>
        <r>  0.0010  0.0070  0.0026 </r>
        <r>  0.0004  0.0043  0.0033 </r>
        <r>  0.0001  0.0026  0.0040 </r>
        <r>  0.0002  0.0050  0.0013 </r>
        <r>  0.0002  0.0008  0.0022 </r>
        <r>  0.0003  0.0016  0.0025 </r>
        <r>  0.0002  0.0051  0.0006 </r>
        <r>  0.0003  0.0035  0.0030 </r>
        <r>  0.0001  0.0025  0.0047 </r>
       </set>
       <set comment="band 112">
        <r>  0.0008  0.0022  0.0441 </r>
        <r>  0.0006  0.0013  0.0219 </r>
        <r>  0.0003  0.0010  0.0181 </r>
        <r>  0.0016  0.0042  0.0360 </r>
        <r>  0.0001  0.0032  0.0022 </r>
        <r>  0.0001  0.0028  0.0024 </r>
        <r>  0.0000  0.0115  0.0005 </r>
        <r>  0.0000  0.0058  0.0004 </r>
        <r>  0.0010  0.0070  0.0025 </r>
        <r>  0.0005  0.0032  0.0027 </r>
        <r>  0.0010  0.0063  0.0034 </r>
        <r>  0.0005  0.0037  0.0018 </r>
        <r>  0.0001  0.0008  0.0022 </r>
        <r>  0.0002  0.0051  0.0013 </r>
        <r>  0.0001  0.0026  0.0040 </r>
        <r>  0.0004  0.0043  0.0033 </r>
        <r>  0.0003  0.0036  0.0030 </r>
        <r>  0.0001  0.0025  0.0047 </r>
        <r>  0.0003  0.0016  0.0025 </r>
        <r>  0.0002  0.0051  0.0006 </r>
       </set>
      </set>
     </set>
    </set>
   </array>
  </projected>
 </calculation>
 <structure name="finalpos" >
  <crystal>
   <varray name="basis" >
    <v>       8.22683325       0.00000000       0.00000000 </v>
    <v>       0.00000000      11.99908394       0.00000000 </v>
    <v>       0.00000000       0.00000000       8.23954016 </v>
   </varray>
   <i name="volume">    813.36178032 </i>
   <varray name="rec_basis" >
    <v>       0.12155345       0.00000000       0.00000000 </v>
    <v>       0.00000000       0.08333970       0.00000000 </v>
    <v>       0.00000000       0.00000000       0.12136600 </v>
   </varray>
  </crystal>
  <varray name="positions" >
   <v>       0.05009026       0.25000000       0.49149110 </v>
   <v>       0.44990974       0.75000000       0.99149110 </v>
   <v>       0.55009026       0.25000000       0.00850890 </v>
   <v>       0.94990974       0.75000000       0.50850890 </v>
   <v>       0.00000000       0.00000000       0.00000000 </v>
   <v>       0.50000000       0.00000000       0.50000000 </v>
   <v>       0.50000000       0.50000000       0.50000000 </v>
   <v>       0.00000000       0.50000000       0.00000000 </v>
   <v>       0.50119248       0.75000000       0.44762867 </v>
   <v>       0.99880752       0.25000000       0.94762867 </v>
   <v>       0.00119248       0.75000000       0.05237133 </v>
   <v>       0.49880752       0.25000000       0.55237133 </v>
   <v>       0.30390434       0.47191829       0.19633447 </v>
   <v>       0.19609566       0.52808171       0.69633447 </v>
   <v>       0.80390434       0.02808171       0.30366553 </v>
   <v>       0.69609566       0.97191829       0.80366553 </v>
   <v>       0.30390434       0.02808171       0.19633447 </v>
   <v>       0.19609566       0.97191829       0.69633447 </v>
   <v>       0.69609566       0.52808171       0.80366553 </v>
   <v>       0.80390434       0.47191829       0.30366553 </v>
  </varray>
 </structure>
</modeling>
