CsPbBr3 cubic bulk                      
           1
     8.226833    0.000000    0.000000
     0.000000   11.999084    0.000000
     0.000000    0.000000    8.239540
   Cs   Pb   Br
   4   4  12
Direct configuration=     1
   0.05009026  0.25000000  0.49149110
   0.44990974  0.75000000  0.99149110
   0.55009026  0.25000000  0.00850890
   0.94990974  0.75000000  0.50850890
   0.00000000  0.00000000  0.00000000
   0.50000000  0.00000000  0.50000000
   0.50000000  0.50000000  0.50000000
   0.00000000  0.50000000  0.00000000
   0.50119248  0.75000000  0.44762867
   0.99880752  0.25000000  0.94762867
   0.00119248  0.75000000  0.05237133
   0.49880752  0.25000000  0.55237133
   0.30390434  0.47191829  0.19633447
   0.19609566  0.52808171  0.69633447
   0.80390434  0.02808171  0.30366553
   0.69609566  0.97191829  0.80366553
   0.30390434  0.02808171  0.19633447
   0.19609566  0.97191829  0.69633447
   0.69609566  0.52808171  0.80366553
   0.80390434  0.47191829  0.30366553
