  10  10   1   0
  0.4034605E+02  0.8176535E-09  0.8419515E-09  0.8419515E-09  0.5000000E-15
   1.0000000000000000E-004
  CAR 
 CsPbBr3 cubic bulk                      
      8.59371132    -22.29783495  301      0.69062406      1.00000000
    -22.298  0.0000E+00  0.0000E+00
    -22.195  0.0000E+00  0.0000E+00
    -22.092  0.0000E+00  0.0000E+00
    -21.989  0.0000E+00  0.0000E+00
    -21.886  0.0000E+00  0.0000E+00
    -21.783  0.0000E+00  0.0000E+00
    -21.680  0.0000E+00  0.0000E+00
    -21.577  0.0000E+00  0.0000E+00
    -21.474  0.0000E+00  0.0000E+00
    -21.371  0.0000E+00  0.0000E+00
    -21.268  0.0000E+00  0.0000E+00
    -21.165  0.0000E+00  0.0000E+00
    -21.062  0.0000E+00  0.0000E+00
    -20.959  0.0000E+00  0.0000E+00
    -20.856  0.3885E+02  0.4000E+01
    -20.753  0.0000E+00  0.4000E+01
    -20.650  0.0000E+00  0.4000E+01
    -20.547  0.0000E+00  0.4000E+01
    -20.444  0.0000E+00  0.4000E+01
    -20.341  0.0000E+00  0.4000E+01
    -20.238  0.0000E+00  0.4000E+01
    -20.135  0.0000E+00  0.4000E+01
    -20.032  0.0000E+00  0.4000E+01
    -19.929  0.0000E+00  0.4000E+01
    -19.827  0.0000E+00  0.4000E+01
    -19.724  0.0000E+00  0.4000E+01
    -19.621  0.0000E+00  0.4000E+01
    -19.518  0.0000E+00  0.4000E+01
    -19.415  0.0000E+00  0.4000E+01
    -19.312  0.0000E+00  0.4000E+01
    -19.209  0.0000E+00  0.4000E+01
    -19.106  0.0000E+00  0.4000E+01
    -19.003  0.0000E+00  0.4000E+01
    -18.900  0.0000E+00  0.4000E+01
    -18.797  0.0000E+00  0.4000E+01
    -18.694  0.0000E+00  0.4000E+01
    -18.591  0.0000E+00  0.4000E+01
    -18.488  0.0000E+00  0.4000E+01
    -18.385  0.0000E+00  0.4000E+01
    -18.282  0.0000E+00  0.4000E+01
    -18.179  0.0000E+00  0.4000E+01
    -18.076  0.0000E+00  0.4000E+01
    -17.973  0.0000E+00  0.4000E+01
    -17.870  0.0000E+00  0.4000E+01
    -17.767  0.0000E+00  0.4000E+01
    -17.664  0.0000E+00  0.4000E+01
    -17.561  0.0000E+00  0.4000E+01
    -17.458  0.0000E+00  0.4000E+01
    -17.355  0.0000E+00  0.4000E+01
    -17.252  0.0000E+00  0.4000E+01
    -17.149  0.0000E+00  0.4000E+01
    -17.046  0.0000E+00  0.4000E+01
    -16.943  0.0000E+00  0.4000E+01
    -16.840  0.0000E+00  0.4000E+01
    -16.737  0.0000E+00  0.4000E+01
    -16.634  0.0000E+00  0.4000E+01
    -16.531  0.0000E+00  0.4000E+01
    -16.428  0.2223E-01  0.4002E+01
    -16.325  0.6565E+02  0.1135E+02
    -16.222  0.1100E+03  0.2333E+02
    -16.120  0.0000E+00  0.2400E+02
    -16.017  0.0000E+00  0.2400E+02
    -15.914  0.0000E+00  0.2400E+02
    -15.811  0.0000E+00  0.2400E+02
    -15.708  0.0000E+00  0.2400E+02
    -15.605  0.0000E+00  0.2400E+02
    -15.502  0.0000E+00  0.2400E+02
    -15.399  0.0000E+00  0.2400E+02
    -15.296  0.0000E+00  0.2400E+02
    -15.193  0.0000E+00  0.2400E+02
    -15.090  0.0000E+00  0.2400E+02
    -14.987  0.0000E+00  0.2400E+02
    -14.884  0.0000E+00  0.2400E+02
    -14.781  0.0000E+00  0.2400E+02
    -14.678  0.0000E+00  0.2400E+02
    -14.575  0.0000E+00  0.2400E+02
    -14.472  0.0000E+00  0.2400E+02
    -14.369  0.2946E-02  0.2400E+02
    -14.266  0.4461E+01  0.2453E+02
    -14.163  0.6825E+01  0.2537E+02
    -14.060  0.1416E+02  0.2746E+02
    -13.957  0.1950E+02  0.2949E+02
    -13.854  0.1295E+02  0.3244E+02
    -13.751  0.2875E+02  0.3541E+02
    -13.648  0.5755E+01  0.3600E+02
    -13.545  0.0000E+00  0.3600E+02
    -13.442  0.0000E+00  0.3600E+02
    -13.339  0.0000E+00  0.3600E+02
    -13.236  0.0000E+00  0.3600E+02
    -13.133  0.0000E+00  0.3600E+02
    -13.030  0.0000E+00  0.3600E+02
    -12.927  0.0000E+00  0.3600E+02
    -12.824  0.0000E+00  0.3600E+02
    -12.721  0.0000E+00  0.3600E+02
    -12.618  0.0000E+00  0.3600E+02
    -12.516  0.0000E+00  0.3600E+02
    -12.413  0.0000E+00  0.3600E+02
    -12.310  0.0000E+00  0.3600E+02
    -12.207  0.0000E+00  0.3600E+02
    -12.104  0.0000E+00  0.3600E+02
    -12.001  0.0000E+00  0.3600E+02
    -11.898  0.0000E+00  0.3600E+02
    -11.795  0.0000E+00  0.3600E+02
    -11.692  0.0000E+00  0.3600E+02
    -11.589  0.0000E+00  0.3600E+02
    -11.486  0.0000E+00  0.3600E+02
    -11.383  0.0000E+00  0.3600E+02
    -11.280  0.0000E+00  0.3600E+02
    -11.177  0.0000E+00  0.3600E+02
    -11.074  0.0000E+00  0.3600E+02
    -10.971  0.0000E+00  0.3600E+02
    -10.868  0.0000E+00  0.3600E+02
    -10.765  0.0000E+00  0.3600E+02
    -10.662  0.0000E+00  0.3600E+02
    -10.559  0.0000E+00  0.3600E+02
    -10.456  0.0000E+00  0.3600E+02
    -10.353  0.0000E+00  0.3600E+02
    -10.250  0.0000E+00  0.3600E+02
    -10.147  0.0000E+00  0.3600E+02
    -10.044  0.0000E+00  0.3600E+02
     -9.941  0.0000E+00  0.3600E+02
     -9.838  0.0000E+00  0.3600E+02
     -9.735  0.0000E+00  0.3600E+02
     -9.632  0.0000E+00  0.3600E+02
     -9.529  0.0000E+00  0.3600E+02
     -9.426  0.0000E+00  0.3600E+02
     -9.323  0.0000E+00  0.3600E+02
     -9.220  0.0000E+00  0.3600E+02
     -9.117  0.0000E+00  0.3600E+02
     -9.014  0.0000E+00  0.3600E+02
     -8.911  0.0000E+00  0.3600E+02
     -8.809  0.0000E+00  0.3600E+02
     -8.706  0.0000E+00  0.3600E+02
     -8.603  0.0000E+00  0.3600E+02
     -8.500  0.0000E+00  0.3600E+02
     -8.397  0.0000E+00  0.3600E+02
     -8.294  0.0000E+00  0.3600E+02
     -8.191  0.1037E+00  0.3601E+02
     -8.088  0.0000E+00  0.3607E+02
     -7.985  0.0000E+00  0.3607E+02
     -7.882  0.6113E-06  0.3607E+02
     -7.779  0.1007E+02  0.3711E+02
     -7.676  0.0000E+00  0.3711E+02
     -7.573  0.0000E+00  0.3711E+02
     -7.470  0.1394E-01  0.3711E+02
     -7.367  0.1295E+02  0.3889E+02
     -7.264  0.6728E+02  0.4582E+02
     -7.161  0.1295E+02  0.5089E+02
     -7.058  0.1058E-09  0.5089E+02
     -6.955  0.8203E+01  0.5173E+02
     -6.852  0.0000E+00  0.5193E+02
     -6.749  0.0000E+00  0.5193E+02
     -6.646  0.0000E+00  0.5193E+02
     -6.543  0.0000E+00  0.5193E+02
     -6.440  0.6269E+00  0.5199E+02
     -6.337  0.0000E+00  0.5200E+02
     -6.234  0.0000E+00  0.5200E+02
     -6.131  0.0000E+00  0.5200E+02
     -6.028  0.0000E+00  0.5200E+02
     -5.925  0.0000E+00  0.5200E+02
     -5.822  0.0000E+00  0.5200E+02
     -5.719  0.0000E+00  0.5200E+02
     -5.616  0.0000E+00  0.5200E+02
     -5.513  0.0000E+00  0.5200E+02
     -5.410  0.0000E+00  0.5200E+02
     -5.307  0.0000E+00  0.5200E+02
     -5.205  0.0000E+00  0.5200E+02
     -5.102  0.0000E+00  0.5200E+02
     -4.999  0.0000E+00  0.5200E+02
     -4.896  0.0000E+00  0.5200E+02
     -4.793  0.0000E+00  0.5200E+02
     -4.690  0.0000E+00  0.5200E+02
     -4.587  0.0000E+00  0.5200E+02
     -4.484  0.0000E+00  0.5200E+02
     -4.381  0.0000E+00  0.5200E+02
     -4.278  0.0000E+00  0.5200E+02
     -4.175  0.0000E+00  0.5200E+02
     -4.072  0.0000E+00  0.5200E+02
     -3.969  0.0000E+00  0.5200E+02
     -3.866  0.0000E+00  0.5200E+02
     -3.763  0.0000E+00  0.5200E+02
     -3.660  0.0000E+00  0.5200E+02
     -3.557  0.0000E+00  0.5200E+02
     -3.454  0.0000E+00  0.5200E+02
     -3.351  0.1390E+01  0.5214E+02
     -3.248  0.4316E+01  0.5259E+02
     -3.145  0.1222E+02  0.5385E+02
     -3.042  0.5848E-05  0.5400E+02
     -2.939  0.7206E+01  0.5474E+02
     -2.836  0.7752E+01  0.5598E+02
     -2.733  0.4312E+01  0.5652E+02
     -2.630  0.1288E+02  0.5784E+02
     -2.527  0.1053E+01  0.5796E+02
     -2.424  0.0000E+00  0.5800E+02
     -2.321  0.0000E+00  0.5800E+02
     -2.218  0.1040E+01  0.5811E+02
     -2.115  0.1023E+02  0.5994E+02
     -2.012  0.1584E+02  0.6230E+02
     -1.909  0.6783E+01  0.6344E+02
     -1.806  0.7193E+00  0.6356E+02
     -1.703  0.2441E+02  0.6607E+02
     -1.600  0.7723E+01  0.6702E+02
     -1.498  0.1379E+01  0.6755E+02
     -1.395  0.1993E+02  0.7057E+02
     -1.292  0.3175E+02  0.7445E+02
     -1.189  0.2742E+02  0.7808E+02
     -1.086  0.1822E+02  0.8084E+02
     -0.983  0.1796E+02  0.8296E+02
     -0.880  0.7140E+01  0.8399E+02
     -0.777  0.4112E+01  0.8472E+02
     -0.674  0.2789E+00  0.8514E+02
     -0.571  0.4316E+01  0.8600E+02
     -0.468  0.8632E+01  0.8689E+02
     -0.365  0.4316E+01  0.8733E+02
     -0.262  0.1439E+01  0.8748E+02
     -0.159  0.0000E+00  0.8748E+02
     -0.056  0.0000E+00  0.8748E+02
      0.047  0.4316E+01  0.8793E+02
      0.150  0.0000E+00  0.8793E+02
      0.253  0.0000E+00  0.8793E+02
      0.356  0.0000E+00  0.8793E+02
      0.459  0.0000E+00  0.8793E+02
      0.562  0.7764E-03  0.8793E+02
      0.665  0.0000E+00  0.8800E+02
      0.768  0.0000E+00  0.8800E+02
      0.871  0.0000E+00  0.8800E+02
      0.974  0.0000E+00  0.8800E+02
      1.077  0.0000E+00  0.8800E+02
      1.180  0.0000E+00  0.8800E+02
      1.283  0.0000E+00  0.8800E+02
      1.386  0.0000E+00  0.8800E+02
      1.489  0.0000E+00  0.8800E+02
      1.592  0.0000E+00  0.8800E+02
      1.695  0.0000E+00  0.8800E+02
      1.798  0.0000E+00  0.8800E+02
      1.901  0.0000E+00  0.8800E+02
      2.004  0.0000E+00  0.8800E+02
      2.106  0.0000E+00  0.8800E+02
      2.209  0.0000E+00  0.8800E+02
      2.312  0.0000E+00  0.8800E+02
      2.415  0.0000E+00  0.8800E+02
      2.518  0.0000E+00  0.8800E+02
      2.621  0.0000E+00  0.8800E+02
      2.724  0.3772E-02  0.8800E+02
      2.827  0.2109E-01  0.8808E+02
      2.930  0.7194E+00  0.8822E+02
      3.033  0.0000E+00  0.8822E+02
      3.136  0.8191E+01  0.8907E+02
      3.239  0.0000E+00  0.8911E+02
      3.342  0.2576E-04  0.8911E+02
      3.445  0.8632E+01  0.9000E+02
      3.548  0.4313E-13  0.9000E+02
      3.651  0.4316E+01  0.9044E+02
      3.754  0.3328E-11  0.9044E+02
      3.857  0.6563E+01  0.9112E+02
      3.960  0.3741E+00  0.9137E+02
      4.063  0.3599E+01  0.9244E+02
      4.166  0.4316E+01  0.9311E+02
      4.269  0.4316E+01  0.9356E+02
      4.372  0.4316E+01  0.9400E+02
      4.475  0.0000E+00  0.9400E+02
      4.578  0.0000E+00  0.9400E+02
      4.681  0.0000E+00  0.9400E+02
      4.784  0.7194E+00  0.9407E+02
      4.887  0.0000E+00  0.9407E+02
      4.990  0.5375E-08  0.9407E+02
      5.093  0.5861E+01  0.9468E+02
      5.196  0.5361E+01  0.9566E+02
      5.299  0.0000E+00  0.9600E+02
      5.402  0.1298E-02  0.9600E+02
      5.505  0.1295E+02  0.9733E+02
      5.608  0.2215E-01  0.9734E+02
      5.711  0.5287E+01  0.9817E+02
      5.813  0.3939E-04  0.9852E+02
      5.916  0.1417E+01  0.9866E+02
      6.019  0.1439E+02  0.1001E+03
      6.122  0.4101E+01  0.1006E+03
      6.225  0.4214E+01  0.1010E+03
      6.328  0.7822E+01  0.1024E+03
      6.431  0.2877E+01  0.1032E+03
      6.534  0.1596E+02  0.1048E+03
      6.637  0.7199E+01  0.1056E+03
      6.740  0.1558E+02  0.1074E+03
      6.843  0.1682E+02  0.1096E+03
      6.946  0.1007E+02  0.1107E+03
      7.049  0.4316E+01  0.1111E+03
      7.152  0.7193E+01  0.1119E+03
      7.255  0.1439E+01  0.1120E+03
      7.358  0.0000E+00  0.1120E+03
      7.461  0.0000E+00  0.1120E+03
      7.564  0.0000E+00  0.1120E+03
      7.667  0.0000E+00  0.1120E+03
      7.770  0.0000E+00  0.1120E+03
      7.873  0.0000E+00  0.1120E+03
      7.976  0.0000E+00  0.1120E+03
      8.079  0.0000E+00  0.1120E+03
      8.182  0.0000E+00  0.1120E+03
      8.285  0.0000E+00  0.1120E+03
      8.388  0.0000E+00  0.1120E+03
      8.491  0.0000E+00  0.1120E+03
      8.594  0.0000E+00  0.1120E+03
      8.59371132    -22.29783495  301      0.69062406      1.00000000
    -22.298  0.0000E+00  0.0000E+00  0.0000E+00
    -22.195  0.0000E+00  0.0000E+00  0.0000E+00
    -22.092  0.0000E+00  0.0000E+00  0.0000E+00
    -21.989  0.0000E+00  0.0000E+00  0.0000E+00
    -21.886  0.0000E+00  0.0000E+00  0.0000E+00
    -21.783  0.0000E+00  0.0000E+00  0.0000E+00
    -21.680  0.0000E+00  0.0000E+00  0.0000E+00
    -21.577  0.0000E+00  0.0000E+00  0.0000E+00
    -21.474  0.0000E+00  0.0000E+00  0.0000E+00
    -21.371  0.0000E+00  0.0000E+00  0.0000E+00
    -21.268  0.0000E+00  0.0000E+00  0.0000E+00
    -21.165  0.0000E+00  0.0000E+00  0.0000E+00
    -21.062  0.0000E+00  0.0000E+00  0.0000E+00
    -20.959  0.0000E+00  0.0000E+00  0.0000E+00
    -20.856  0.1724E+02  0.6275E-06  0.2879E-05
    -20.753  0.0000E+00  0.0000E+00  0.0000E+00
    -20.650  0.0000E+00  0.0000E+00  0.0000E+00
    -20.547  0.0000E+00  0.0000E+00  0.0000E+00
    -20.444  0.0000E+00  0.0000E+00  0.0000E+00
    -20.341  0.0000E+00  0.0000E+00  0.0000E+00
    -20.238  0.0000E+00  0.0000E+00  0.0000E+00
    -20.135  0.0000E+00  0.0000E+00  0.0000E+00
    -20.032  0.0000E+00  0.0000E+00  0.0000E+00
    -19.929  0.0000E+00  0.0000E+00  0.0000E+00
    -19.827  0.0000E+00  0.0000E+00  0.0000E+00
    -19.724  0.0000E+00  0.0000E+00  0.0000E+00
    -19.621  0.0000E+00  0.0000E+00  0.0000E+00
    -19.518  0.0000E+00  0.0000E+00  0.0000E+00
    -19.415  0.0000E+00  0.0000E+00  0.0000E+00
    -19.312  0.0000E+00  0.0000E+00  0.0000E+00
    -19.209  0.0000E+00  0.0000E+00  0.0000E+00
    -19.106  0.0000E+00  0.0000E+00  0.0000E+00
    -19.003  0.0000E+00  0.0000E+00  0.0000E+00
    -18.900  0.0000E+00  0.0000E+00  0.0000E+00
    -18.797  0.0000E+00  0.0000E+00  0.0000E+00
    -18.694  0.0000E+00  0.0000E+00  0.0000E+00
    -18.591  0.0000E+00  0.0000E+00  0.0000E+00
    -18.488  0.0000E+00  0.0000E+00  0.0000E+00
    -18.385  0.0000E+00  0.0000E+00  0.0000E+00
    -18.282  0.0000E+00  0.0000E+00  0.0000E+00
    -18.179  0.0000E+00  0.0000E+00  0.0000E+00
    -18.076  0.0000E+00  0.0000E+00  0.0000E+00
    -17.973  0.0000E+00  0.0000E+00  0.0000E+00
    -17.870  0.0000E+00  0.0000E+00  0.0000E+00
    -17.767  0.0000E+00  0.0000E+00  0.0000E+00
    -17.664  0.0000E+00  0.0000E+00  0.0000E+00
    -17.561  0.0000E+00  0.0000E+00  0.0000E+00
    -17.458  0.0000E+00  0.0000E+00  0.0000E+00
    -17.355  0.0000E+00  0.0000E+00  0.0000E+00
    -17.252  0.0000E+00  0.0000E+00  0.0000E+00
    -17.149  0.0000E+00  0.0000E+00  0.0000E+00
    -17.046  0.0000E+00  0.0000E+00  0.0000E+00
    -16.943  0.0000E+00  0.0000E+00  0.0000E+00
    -16.840  0.0000E+00  0.0000E+00  0.0000E+00
    -16.737  0.0000E+00  0.0000E+00  0.0000E+00
    -16.634  0.0000E+00  0.0000E+00  0.0000E+00
    -16.531  0.0000E+00  0.0000E+00  0.0000E+00
    -16.428  0.9144E-07  0.3984E-07  0.7559E-08
    -16.325  0.9551E-04  0.9744E-04  0.1575E-04
    -16.222  0.3254E-04  0.2050E-04  0.2318E-05
    -16.120  0.0000E+00  0.0000E+00  0.0000E+00
    -16.017  0.0000E+00  0.0000E+00  0.0000E+00
    -15.914  0.0000E+00  0.0000E+00  0.0000E+00
    -15.811  0.0000E+00  0.0000E+00  0.0000E+00
    -15.708  0.0000E+00  0.0000E+00  0.0000E+00
    -15.605  0.0000E+00  0.0000E+00  0.0000E+00
    -15.502  0.0000E+00  0.0000E+00  0.0000E+00
    -15.399  0.0000E+00  0.0000E+00  0.0000E+00
    -15.296  0.0000E+00  0.0000E+00  0.0000E+00
    -15.193  0.0000E+00  0.0000E+00  0.0000E+00
    -15.090  0.0000E+00  0.0000E+00  0.0000E+00
    -14.987  0.0000E+00  0.0000E+00  0.0000E+00
    -14.884  0.0000E+00  0.0000E+00  0.0000E+00
    -14.781  0.0000E+00  0.0000E+00  0.0000E+00
    -14.678  0.0000E+00  0.0000E+00  0.0000E+00
    -14.575  0.0000E+00  0.0000E+00  0.0000E+00
    -14.472  0.0000E+00  0.0000E+00  0.0000E+00
    -14.369  0.1881E-05  0.5711E-09  0.3870E-08
    -14.266  0.1586E-02  0.7766E-03  0.2477E-04
    -14.163  0.1426E-02  0.1834E-02  0.4962E-04
    -14.060  0.2568E-03  0.4489E-02  0.2117E-03
    -13.957  0.1651E-02  0.3806E-02  0.2831E-03
    -13.854  0.3040E-03  0.2680E-02  0.2022E-03
    -13.751  0.1576E-02  0.3189E-02  0.4532E-03
    -13.648  0.3437E-03  0.6657E-03  0.7459E-04
    -13.545  0.0000E+00  0.0000E+00  0.0000E+00
    -13.442  0.0000E+00  0.0000E+00  0.0000E+00
    -13.339  0.0000E+00  0.0000E+00  0.0000E+00
    -13.236  0.0000E+00  0.0000E+00  0.0000E+00
    -13.133  0.0000E+00  0.0000E+00  0.0000E+00
    -13.030  0.0000E+00  0.0000E+00  0.0000E+00
    -12.927  0.0000E+00  0.0000E+00  0.0000E+00
    -12.824  0.0000E+00  0.0000E+00  0.0000E+00
    -12.721  0.0000E+00  0.0000E+00  0.0000E+00
    -12.618  0.0000E+00  0.0000E+00  0.0000E+00
    -12.516  0.0000E+00  0.0000E+00  0.0000E+00
    -12.413  0.0000E+00  0.0000E+00  0.0000E+00
    -12.310  0.0000E+00  0.0000E+00  0.0000E+00
    -12.207  0.0000E+00  0.0000E+00  0.0000E+00
    -12.104  0.0000E+00  0.0000E+00  0.0000E+00
    -12.001  0.0000E+00  0.0000E+00  0.0000E+00
    -11.898  0.0000E+00  0.0000E+00  0.0000E+00
    -11.795  0.0000E+00  0.0000E+00  0.0000E+00
    -11.692  0.0000E+00  0.0000E+00  0.0000E+00
    -11.589  0.0000E+00  0.0000E+00  0.0000E+00
    -11.486  0.0000E+00  0.0000E+00  0.0000E+00
    -11.383  0.0000E+00  0.0000E+00  0.0000E+00
    -11.280  0.0000E+00  0.0000E+00  0.0000E+00
    -11.177  0.0000E+00  0.0000E+00  0.0000E+00
    -11.074  0.0000E+00  0.0000E+00  0.0000E+00
    -10.971  0.0000E+00  0.0000E+00  0.0000E+00
    -10.868  0.0000E+00  0.0000E+00  0.0000E+00
    -10.765  0.0000E+00  0.0000E+00  0.0000E+00
    -10.662  0.0000E+00  0.0000E+00  0.0000E+00
    -10.559  0.0000E+00  0.0000E+00  0.0000E+00
    -10.456  0.0000E+00  0.0000E+00  0.0000E+00
    -10.353  0.0000E+00  0.0000E+00  0.0000E+00
    -10.250  0.0000E+00  0.0000E+00  0.0000E+00
    -10.147  0.0000E+00  0.0000E+00  0.0000E+00
    -10.044  0.0000E+00  0.0000E+00  0.0000E+00
     -9.941  0.0000E+00  0.0000E+00  0.0000E+00
     -9.838  0.0000E+00  0.0000E+00  0.0000E+00
     -9.735  0.0000E+00  0.0000E+00  0.0000E+00
     -9.632  0.0000E+00  0.0000E+00  0.0000E+00
     -9.529  0.0000E+00  0.0000E+00  0.0000E+00
     -9.426  0.0000E+00  0.0000E+00  0.0000E+00
     -9.323  0.0000E+00  0.0000E+00  0.0000E+00
     -9.220  0.0000E+00  0.0000E+00  0.0000E+00
     -9.117  0.0000E+00  0.0000E+00  0.0000E+00
     -9.014  0.0000E+00  0.0000E+00  0.0000E+00
     -8.911  0.0000E+00  0.0000E+00  0.0000E+00
     -8.809  0.0000E+00  0.0000E+00  0.0000E+00
     -8.706  0.0000E+00  0.0000E+00  0.0000E+00
     -8.603  0.0000E+00  0.0000E+00  0.0000E+00
     -8.500  0.0000E+00  0.0000E+00  0.0000E+00
     -8.397  0.0000E+00  0.0000E+00  0.0000E+00
     -8.294  0.0000E+00  0.0000E+00  0.0000E+00
     -8.191  0.2014E-15  0.2442E-04  0.6268E-09
     -8.088  0.0000E+00  0.0000E+00  0.0000E+00
     -7.985  0.0000E+00  0.0000E+00  0.0000E+00
     -7.882  0.2146E-13  0.2159E-08  0.1770E-11
     -7.779  0.2476E-04  0.3337E-01  0.2149E-04
     -7.676  0.0000E+00  0.0000E+00  0.0000E+00
     -7.573  0.0000E+00  0.0000E+00  0.0000E+00
     -7.470  0.1743E-09  0.6783E-03  0.9220E-07
     -7.367  0.5255E-04  0.4962E+00  0.8803E-04
     -7.264  0.9923E-05  0.2571E+02  0.2872E-04
     -7.161  0.4248E-05  0.4515E+01  0.1240E-04
     -7.058  0.1158E-14  0.1091E-11  0.1354E-14
     -6.955  0.1068E-03  0.8003E-01  0.8406E-04
     -6.852  0.0000E+00  0.0000E+00  0.0000E+00
     -6.749  0.0000E+00  0.0000E+00  0.0000E+00
     -6.646  0.0000E+00  0.0000E+00  0.0000E+00
     -6.543  0.0000E+00  0.0000E+00  0.0000E+00
     -6.440  0.1633E-04  0.1627E-05  0.4906E-05
     -6.337  0.0000E+00  0.0000E+00  0.0000E+00
     -6.234  0.0000E+00  0.0000E+00  0.0000E+00
     -6.131  0.0000E+00  0.0000E+00  0.0000E+00
     -6.028  0.0000E+00  0.0000E+00  0.0000E+00
     -5.925  0.0000E+00  0.0000E+00  0.0000E+00
     -5.822  0.0000E+00  0.0000E+00  0.0000E+00
     -5.719  0.0000E+00  0.0000E+00  0.0000E+00
     -5.616  0.0000E+00  0.0000E+00  0.0000E+00
     -5.513  0.0000E+00  0.0000E+00  0.0000E+00
     -5.410  0.0000E+00  0.0000E+00  0.0000E+00
     -5.307  0.0000E+00  0.0000E+00  0.0000E+00
     -5.205  0.0000E+00  0.0000E+00  0.0000E+00
     -5.102  0.0000E+00  0.0000E+00  0.0000E+00
     -4.999  0.0000E+00  0.0000E+00  0.0000E+00
     -4.896  0.0000E+00  0.0000E+00  0.0000E+00
     -4.793  0.0000E+00  0.0000E+00  0.0000E+00
     -4.690  0.0000E+00  0.0000E+00  0.0000E+00
     -4.587  0.0000E+00  0.0000E+00  0.0000E+00
     -4.484  0.0000E+00  0.0000E+00  0.0000E+00
     -4.381  0.0000E+00  0.0000E+00  0.0000E+00
     -4.278  0.0000E+00  0.0000E+00  0.0000E+00
     -4.175  0.0000E+00  0.0000E+00  0.0000E+00
     -4.072  0.0000E+00  0.0000E+00  0.0000E+00
     -3.969  0.0000E+00  0.0000E+00  0.0000E+00
     -3.866  0.0000E+00  0.0000E+00  0.0000E+00
     -3.763  0.0000E+00  0.0000E+00  0.0000E+00
     -3.660  0.0000E+00  0.0000E+00  0.0000E+00
     -3.557  0.0000E+00  0.0000E+00  0.0000E+00
     -3.454  0.0000E+00  0.0000E+00  0.0000E+00
     -3.351  0.3595E-07  0.5763E-02  0.2903E-04
     -3.248  0.2536E-06  0.5930E-02  0.7081E-03
     -3.145  0.7506E-06  0.1265E-01  0.1910E-02
     -3.042  0.1226E-09  0.1564E-07  0.4399E-09
     -2.939  0.1008E-03  0.2077E-01  0.4668E-03
     -2.836  0.1180E-03  0.1778E-01  0.1319E-02
     -2.733  0.5514E-06  0.4661E-02  0.8352E-03
     -2.630  0.1209E-02  0.1413E-01  0.2462E-02
     -2.527  0.2085E-03  0.7920E-03  0.3492E-03
     -2.424  0.0000E+00  0.0000E+00  0.0000E+00
     -2.321  0.0000E+00  0.0000E+00  0.0000E+00
     -2.218  0.5618E-05  0.4615E-02  0.1548E-03
     -2.115  0.5331E-02  0.3105E-01  0.1847E-02
     -2.012  0.1738E-01  0.4510E-01  0.6080E-02
     -1.909  0.7686E-02  0.3404E-01  0.1494E-02
     -1.806  0.1125E-14  0.1027E-01  0.1449E-05
     -1.703  0.2788E-02  0.1949E+00  0.1437E-01
     -1.600  0.5196E-03  0.4099E-01  0.6098E-02
     -1.498  0.9132E-03  0.3539E-02  0.7160E-03
     -1.395  0.2014E-02  0.5282E-01  0.1064E-01
     -1.292  0.8871E-02  0.4312E-01  0.1998E-01
     -1.189  0.2584E-02  0.7600E-01  0.1448E-01
     -1.086  0.7529E-03  0.3812E-01  0.1154E-01
     -0.983  0.1206E-02  0.4033E-01  0.6508E-02
     -0.880  0.1224E-03  0.9167E-02  0.4013E-02
     -0.777  0.8214E-03  0.4030E-02  0.2718E-02
     -0.674  0.6625E-04  0.4367E-03  0.4689E-04
     -0.571  0.1394E-05  0.2230E-02  0.1067E-02
     -0.468  0.1887E-03  0.3768E-02  0.7681E-03
     -0.365  0.1990E-03  0.2795E-02  0.3044E-03
     -0.262  0.7708E-04  0.2488E-03  0.2016E-04
     -0.159  0.0000E+00  0.0000E+00  0.0000E+00
     -0.056  0.0000E+00  0.0000E+00  0.0000E+00
      0.047  0.4503E-04  0.7195E-03  0.8340E-03
      0.150  0.0000E+00  0.0000E+00  0.0000E+00
      0.253  0.0000E+00  0.0000E+00  0.0000E+00
      0.356  0.0000E+00  0.0000E+00  0.0000E+00
      0.459  0.0000E+00  0.0000E+00  0.0000E+00
      0.562  0.7020E-19  0.8626E-08  0.2156E-10
      0.665  0.0000E+00  0.0000E+00  0.0000E+00
      0.768  0.0000E+00  0.0000E+00  0.0000E+00
      0.871  0.0000E+00  0.0000E+00  0.0000E+00
      0.974  0.0000E+00  0.0000E+00  0.0000E+00
      1.077  0.0000E+00  0.0000E+00  0.0000E+00
      1.180  0.0000E+00  0.0000E+00  0.0000E+00
      1.283  0.0000E+00  0.0000E+00  0.0000E+00
      1.386  0.0000E+00  0.0000E+00  0.0000E+00
      1.489  0.0000E+00  0.0000E+00  0.0000E+00
      1.592  0.0000E+00  0.0000E+00  0.0000E+00
      1.695  0.0000E+00  0.0000E+00  0.0000E+00
      1.798  0.0000E+00  0.0000E+00  0.0000E+00
      1.901  0.0000E+00  0.0000E+00  0.0000E+00
      2.004  0.0000E+00  0.0000E+00  0.0000E+00
      2.106  0.0000E+00  0.0000E+00  0.0000E+00
      2.209  0.0000E+00  0.0000E+00  0.0000E+00
      2.312  0.0000E+00  0.0000E+00  0.0000E+00
      2.415  0.0000E+00  0.0000E+00  0.0000E+00
      2.518  0.0000E+00  0.0000E+00  0.0000E+00
      2.621  0.0000E+00  0.0000E+00  0.0000E+00
      2.724  0.1058E-06  0.1030E-08  0.9828E-05
      2.827  0.1905E-12  0.1159E-07  0.2294E-04
      2.930  0.7772E-06  0.9215E-07  0.8332E-03
      3.033  0.0000E+00  0.0000E+00  0.0000E+00
      3.136  0.9637E-03  0.1338E-02  0.7063E-02
      3.239  0.0000E+00  0.0000E+00  0.0000E+00
      3.342  0.2370E-08  0.2152E-07  0.1139E-07
      3.445  0.4470E-03  0.6572E-02  0.3500E-02
      3.548  0.6922E-18  0.1023E-16  0.1001E-15
      3.651  0.6927E-04  0.1015E-02  0.1003E-01
      3.754  0.4083E-15  0.2973E-14  0.8381E-14
      3.857  0.1878E-02  0.2436E-02  0.8702E-02
      3.960  0.3360E-06  0.2771E-03  0.5857E-04
      4.063  0.3659E-03  0.2402E-02  0.4307E-02
      4.166  0.8612E-03  0.1127E-02  0.4296E-02
      4.269  0.6366E-03  0.1823E-02  0.3124E-02
      4.372  0.7739E-03  0.3490E-02  0.1123E-02
      4.475  0.0000E+00  0.0000E+00  0.0000E+00
      4.578  0.0000E+00  0.0000E+00  0.0000E+00
      4.681  0.0000E+00  0.0000E+00  0.0000E+00
      4.784  0.1616E-01  0.1144E-05  0.4952E-03
      4.887  0.0000E+00  0.0000E+00  0.0000E+00
      4.990  0.1888E-13  0.5087E-12  0.2622E-10
      5.093  0.9983E-02  0.5458E-02  0.2171E-01
      5.196  0.2564E-01  0.8714E-02  0.1649E-01
      5.299  0.0000E+00  0.0000E+00  0.0000E+00
      5.402  0.7325E-05  0.3266E-05  0.1866E-05
      5.505  0.3069E-01  0.2231E-01  0.2336E-01
      5.608  0.2110E-04  0.1079E-04  0.1118E-03
      5.711  0.1741E-01  0.4773E-02  0.2569E-01
      5.813  0.3501E-09  0.4708E-09  0.2382E-05
      5.916  0.7603E-05  0.1349E-04  0.8553E-01
      6.019  0.4935E-01  0.6617E-02  0.4337E-01
      6.122  0.7493E-02  0.7428E-02  0.1270E-01
      6.225  0.1971E-01  0.4464E-02  0.1607E+00
      6.328  0.6773E-02  0.1525E-01  0.3867E+00
      6.431  0.2618E-03  0.2108E-01  0.1430E+00
      6.534  0.1517E+00  0.3886E-01  0.5361E+00
      6.637  0.6226E-01  0.9373E-02  0.3439E+00
      6.740  0.4622E-01  0.7395E-01  0.8491E+00
      6.843  0.2521E-02  0.8061E-01  0.1062E+01
      6.946  0.1773E-02  0.4864E-01  0.6522E+00
      7.049  0.8477E-02  0.4545E-01  0.1934E+00
      7.152  0.2877E-01  0.1496E-01  0.4940E+00
      7.255  0.3373E-01  0.1272E-02  0.4168E-01
      7.358  0.0000E+00  0.0000E+00  0.0000E+00
      7.461  0.0000E+00  0.0000E+00  0.0000E+00
      7.564  0.0000E+00  0.0000E+00  0.0000E+00
      7.667  0.0000E+00  0.0000E+00  0.0000E+00
      7.770  0.0000E+00  0.0000E+00  0.0000E+00
      7.873  0.0000E+00  0.0000E+00  0.0000E+00
      7.976  0.0000E+00  0.0000E+00  0.0000E+00
      8.079  0.0000E+00  0.0000E+00  0.0000E+00
      8.182  0.0000E+00  0.0000E+00  0.0000E+00
      8.285  0.0000E+00  0.0000E+00  0.0000E+00
      8.388  0.0000E+00  0.0000E+00  0.0000E+00
      8.491  0.0000E+00  0.0000E+00  0.0000E+00
      8.594  0.0000E+00  0.0000E+00  0.0000E+00
      8.59371132    -22.29783495  301      0.69062406      1.00000000
    -22.298  0.0000E+00  0.0000E+00  0.0000E+00
    -22.195  0.0000E+00  0.0000E+00  0.0000E+00
    -22.092  0.0000E+00  0.0000E+00  0.0000E+00
    -21.989  0.0000E+00  0.0000E+00  0.0000E+00
    -21.886  0.0000E+00  0.0000E+00  0.0000E+00
    -21.783  0.0000E+00  0.0000E+00  0.0000E+00
    -21.680  0.0000E+00  0.0000E+00  0.0000E+00
    -21.577  0.0000E+00  0.0000E+00  0.0000E+00
    -21.474  0.0000E+00  0.0000E+00  0.0000E+00
    -21.371  0.0000E+00  0.0000E+00  0.0000E+00
    -21.268  0.0000E+00  0.0000E+00  0.0000E+00
    -21.165  0.0000E+00  0.0000E+00  0.0000E+00
    -21.062  0.0000E+00  0.0000E+00  0.0000E+00
    -20.959  0.0000E+00  0.0000E+00  0.0000E+00
    -20.856  0.1724E+02  0.6272E-06  0.2879E-05
    -20.753  0.0000E+00  0.0000E+00  0.0000E+00
    -20.650  0.0000E+00  0.0000E+00  0.0000E+00
    -20.547  0.0000E+00  0.0000E+00  0.0000E+00
    -20.444  0.0000E+00  0.0000E+00  0.0000E+00
    -20.341  0.0000E+00  0.0000E+00  0.0000E+00
    -20.238  0.0000E+00  0.0000E+00  0.0000E+00
    -20.135  0.0000E+00  0.0000E+00  0.0000E+00
    -20.032  0.0000E+00  0.0000E+00  0.0000E+00
    -19.929  0.0000E+00  0.0000E+00  0.0000E+00
    -19.827  0.0000E+00  0.0000E+00  0.0000E+00
    -19.724  0.0000E+00  0.0000E+00  0.0000E+00
    -19.621  0.0000E+00  0.0000E+00  0.0000E+00
    -19.518  0.0000E+00  0.0000E+00  0.0000E+00
    -19.415  0.0000E+00  0.0000E+00  0.0000E+00
    -19.312  0.0000E+00  0.0000E+00  0.0000E+00
    -19.209  0.0000E+00  0.0000E+00  0.0000E+00
    -19.106  0.0000E+00  0.0000E+00  0.0000E+00
    -19.003  0.0000E+00  0.0000E+00  0.0000E+00
    -18.900  0.0000E+00  0.0000E+00  0.0000E+00
    -18.797  0.0000E+00  0.0000E+00  0.0000E+00
    -18.694  0.0000E+00  0.0000E+00  0.0000E+00
    -18.591  0.0000E+00  0.0000E+00  0.0000E+00
    -18.488  0.0000E+00  0.0000E+00  0.0000E+00
    -18.385  0.0000E+00  0.0000E+00  0.0000E+00
    -18.282  0.0000E+00  0.0000E+00  0.0000E+00
    -18.179  0.0000E+00  0.0000E+00  0.0000E+00
    -18.076  0.0000E+00  0.0000E+00  0.0000E+00
    -17.973  0.0000E+00  0.0000E+00  0.0000E+00
    -17.870  0.0000E+00  0.0000E+00  0.0000E+00
    -17.767  0.0000E+00  0.0000E+00  0.0000E+00
    -17.664  0.0000E+00  0.0000E+00  0.0000E+00
    -17.561  0.0000E+00  0.0000E+00  0.0000E+00
    -17.458  0.0000E+00  0.0000E+00  0.0000E+00
    -17.355  0.0000E+00  0.0000E+00  0.0000E+00
    -17.252  0.0000E+00  0.0000E+00  0.0000E+00
    -17.149  0.0000E+00  0.0000E+00  0.0000E+00
    -17.046  0.0000E+00  0.0000E+00  0.0000E+00
    -16.943  0.0000E+00  0.0000E+00  0.0000E+00
    -16.840  0.0000E+00  0.0000E+00  0.0000E+00
    -16.737  0.0000E+00  0.0000E+00  0.0000E+00
    -16.634  0.0000E+00  0.0000E+00  0.0000E+00
    -16.531  0.0000E+00  0.0000E+00  0.0000E+00
    -16.428  0.9144E-07  0.3984E-07  0.7559E-08
    -16.325  0.9552E-04  0.9744E-04  0.1575E-04
    -16.222  0.3254E-04  0.2050E-04  0.2318E-05
    -16.120  0.0000E+00  0.0000E+00  0.0000E+00
    -16.017  0.0000E+00  0.0000E+00  0.0000E+00
    -15.914  0.0000E+00  0.0000E+00  0.0000E+00
    -15.811  0.0000E+00  0.0000E+00  0.0000E+00
    -15.708  0.0000E+00  0.0000E+00  0.0000E+00
    -15.605  0.0000E+00  0.0000E+00  0.0000E+00
    -15.502  0.0000E+00  0.0000E+00  0.0000E+00
    -15.399  0.0000E+00  0.0000E+00  0.0000E+00
    -15.296  0.0000E+00  0.0000E+00  0.0000E+00
    -15.193  0.0000E+00  0.0000E+00  0.0000E+00
    -15.090  0.0000E+00  0.0000E+00  0.0000E+00
    -14.987  0.0000E+00  0.0000E+00  0.0000E+00
    -14.884  0.0000E+00  0.0000E+00  0.0000E+00
    -14.781  0.0000E+00  0.0000E+00  0.0000E+00
    -14.678  0.0000E+00  0.0000E+00  0.0000E+00
    -14.575  0.0000E+00  0.0000E+00  0.0000E+00
    -14.472  0.0000E+00  0.0000E+00  0.0000E+00
    -14.369  0.1881E-05  0.5711E-09  0.3870E-08
    -14.266  0.1587E-02  0.7766E-03  0.2477E-04
    -14.163  0.1426E-02  0.1834E-02  0.4962E-04
    -14.060  0.2568E-03  0.4489E-02  0.2117E-03
    -13.957  0.1651E-02  0.3806E-02  0.2831E-03
    -13.854  0.3040E-03  0.2680E-02  0.2022E-03
    -13.751  0.1576E-02  0.3189E-02  0.4532E-03
    -13.648  0.3437E-03  0.6657E-03  0.7459E-04
    -13.545  0.0000E+00  0.0000E+00  0.0000E+00
    -13.442  0.0000E+00  0.0000E+00  0.0000E+00
    -13.339  0.0000E+00  0.0000E+00  0.0000E+00
    -13.236  0.0000E+00  0.0000E+00  0.0000E+00
    -13.133  0.0000E+00  0.0000E+00  0.0000E+00