 vasp.5.4.4.18Apr17-6-g9f103f2a35 (build Jun 22 2020 09:27:21) complex           
 executed on tx2_gcc-7.3_libsci-1 date 2021.09.20  15:14:54
 running on   64 total cores
 distrk:  each k-point on   64 cores,    1 groups
 distr:  one band on NCORES_PER_BAND=   8 cores,    8 groups


--------------------------------------------------------------------------------------------------------


 INCAR:
 POTCAR:    PAW_PBE Cs_sv 08Apr2002               
 POTCAR:    PAW_PBE Pb_d 06Sep2000                
 POTCAR:    PAW_PBE Br 06Sep2000                  
 POTCAR:    PAW_PBE Cs_sv 08Apr2002               
   VRHFIN =Cs: 5s5p6s                                                           
   LEXCH  = PE                                                                  
   EATOM  =   555.6835 eV,   40.8416 Ry                                         
                                                                                
   TITEL  = PAW_PBE Cs_sv 08Apr2002                                             
   LULTRA =        F    use ultrasoft PP ?                                      
   IUNSCR =        1    unscreen: 0-lin 1-nonlin 2-no                           
   RPACOR =    2.200    partial core radius                                     
   POMASS =  132.900; ZVAL   =    9.000    mass and valenz                      
   RCORE  =    2.500    outmost cutoff radius                                   
   RWIGS  =    2.500; RWIGS  =    1.323    wigner-seitz radius (au A)           
   ENMAX  =  220.318; ENMIN  =  165.238 eV                                      
   RCLOC  =    2.207    cutoff for local pot                                    
   LCOR   =        T    correct aug charges                                     
   LPAW   =        T    paw PP                                                  
   EAUG   =  407.933                                                            
   DEXC   =    0.000                                                            
   RMAX   =    2.554    core radius for proj-oper                               
   RAUG   =    1.300    factor for augmentation sphere                          
   RDEP   =    2.590    radius for radial grids                                 
   RDEPT  =    2.117    core radius for aug-charge                              
                                                                                
   Atomic configuration                                                         
   13 entries                                                                   
     n  l   j            E        occ.                                          
     1  0  0.50    -35790.1377   2.0000                                         
     2  0  0.50     -5613.6201   2.0000                                         
     2  1  1.50     -5035.0101   6.0000                                         
     3  0  0.50     -1167.0767   2.0000                                         
     3  1  1.50      -980.9754   6.0000                                         
     3  2  2.50      -708.0703  10.0000                                         
     4  0  0.50      -220.2386   2.0000                                         
     4  1  1.50      -160.7596   6.0000                                         
     4  2  2.50       -74.2354  10.0000                                         
     5  0  0.50       -26.7287   2.0000                                         
     6  0  0.50        -2.0862   1.0000                                         
     5  1  1.50       -13.5159   6.0000                                         
     5  2  2.50        -0.4136   0.0000                                         
   Description                                                                  
     l       E           TYP  RCUT    TYP  RCUT                                 
     0    -26.7287425     23  1.900                                             
     0     -2.0862306     23  1.900                                             
     1    -13.5158719     23  2.500                                             
     1     -2.7211652     23  2.500                                             
     2     -0.4136171     23  2.500                                             
  local pseudopotential read in
  partial core-charges read in
  partial kinetic energy density read in
  atomic valenz-charges read in
  non local Contribution for L=           0  read in
    real space projection operators read in
  non local Contribution for L=           0  read in
    real space projection operators read in
  non local Contribution for L=           1  read in
    real space projection operators read in
  non local Contribution for L=           1  read in
    real space projection operators read in
  non local Contribution for L=           2  read in
    real space projection operators read in
    PAW grid and wavefunctions read in

   number of l-projection  operators is LMAX  =           5
   number of lm-projection operators is LMMAX =          13

 POTCAR:    PAW_PBE Pb_d 06Sep2000                
   VRHFIN =Pb:                                                                  
   LEXCH  = PE                                                                  
   EATOM  =  1661.6185 eV,  122.1255 Ry                                         
                                                                                
   TITEL  = PAW_PBE Pb_d 06Sep2000                                              
   LULTRA =        F    use ultrasoft PP ?                                      
   IUNSCR =        1    unscreen: 0-lin 1-nonlin 2-no                           
   RPACOR =    2.200    partial core radius                                     
   POMASS =  207.200; ZVAL   =   14.000    mass and valenz                      
   RCORE  =    2.500    outmost cutoff radius                                   
   RWIGS  =    3.260; RWIGS  =    1.725    wigner-seitz radius (au A)           
   ENMAX  =  237.835; ENMIN  =  178.376 eV                                      
   ICORE  =        3    local potential                                         
   LCOR   =        T    correct aug charges                                     
   LPAW   =        T    paw PP                                                  
   EAUG   =  391.914                                                            
   DEXC   =    0.000                                                            
   RMAX   =    2.565    core radius for proj-oper                               
   RAUG   =    1.300    factor for augmentation sphere                          
   RDEP   =    2.643    radius for radial grids                                 
   RDEPT  =    2.092    core radius for aug-charge                              
                                                                                
   Atomic configuration                                                         
   16 entries                                                                   
     n  l   j            E        occ.                                          
     1  0  0.50    -88091.8466   2.0000                                         
     2  0  0.50    -15753.4197   2.0000                                         
     2  1  1.50    -13508.1797   6.0000                                         
     3  0  0.50     -3781.7194   2.0000                                         
     3  1  1.50     -3138.2529   6.0000                                         
     3  2  2.50     -2483.2977  10.0000                                         
     4  0  0.50      -856.2895   2.0000                                         
     4  1  1.50      -645.4942   6.0000                                         
     4  2  2.50      -401.8768  10.0000                                         
     4  3  3.50      -132.9059  14.0000                                         
     5  0  0.50      -144.0950   2.0000                                         
     5  1  1.50       -85.7879   6.0000                                         
     5  2  2.50       -21.1769  10.0000                                         
     6  0  0.50       -12.0372   2.0000                                         
     6  1  1.50        -3.4971   2.0000                                         
     5  3  2.50        -2.7212   0.0000                                         
   Description                                                                  
     l       E           TYP  RCUT    TYP  RCUT                                 
     2    -21.1768523     23  2.500                                             
     2      1.3605826     23  2.500                                             
     0    -12.0371562     23  2.500                                             
     0     13.6058260     23  2.500                                             
     1     -3.4971339     23  2.500                                             
     1     13.6058260     23  2.500                                             
     3     -1.3605826      7  2.500                                             
  local pseudopotential read in
  partial core-charges read in
  partial kinetic energy density read in
  atomic valenz-charges read in
  non local Contribution for L=           2  read in
    real space projection operators read in
  non local Contribution for L=           2  read in
    real space projection operators read in
  non local Contribution for L=           0  read in
    real space projection operators read in
  non local Contribution for L=           0  read in
    real space projection operators read in
  non local Contribution for L=           1  read in
    real space projection operators read in
  non local Contribution for L=           1  read in
    real space projection operators read in
    PAW grid and wavefunctions read in

   number of l-projection  operators is LMAX  =           6
   number of lm-projection operators is LMMAX =          18

 POTCAR:    PAW_PBE Br 06Sep2000                  
   VRHFIN =Br: s2p5                                                             
   LEXCH  = PE                                                                  
   EATOM  =   368.4488 eV,   27.0802 Ry                                         
                                                                                
   TITEL  = PAW_PBE Br 06Sep2000                                                
   LULTRA =        F    use ultrasoft PP ?                                      
   IUNSCR =        1    unscreen: 0-lin 1-nonlin 2-no                           
   RPACOR =    1.900    partial core radius                                     
   POMASS =   79.904; ZVAL   =    7.000    mass and valenz                      
   RCORE  =    2.100    outmost cutoff radius                                   
   RWIGS  =    2.200; RWIGS  =    1.164    wigner-seitz radius (au A)           
   ENMAX  =  216.285; ENMIN  =  162.214 eV                                      
   ICORE  =        3    local potential                                         
   LCOR   =        T    correct aug charges                                     
   LPAW   =        T    paw PP                                                  
   EAUG   =  503.852                                                            
   DEXC   =    0.000                                                            
   RMAX   =    2.139    core radius for proj-oper                               
   RAUG   =    1.300    factor for augmentation sphere                          
   RDEP   =    2.186    radius for radial grids                                 
   RDEPT  =    1.890    core radius for aug-charge                              
                                                                                
   Atomic configuration                                                         
   10 entries                                                                   
     n  l   j            E        occ.                                          
     1  0  0.50    -13316.2796   2.0000                                         
     2  0  0.50     -1732.8239   2.0000                                         
     2  1  1.50     -1528.2193   6.0000                                         
     3  0  0.50      -238.0460   2.0000                                         
     3  1  1.50      -173.4609   6.0000                                         
     3  2  2.50       -66.7132  10.0000                                         
     4  0  0.50       -20.1334   2.0000                                         
     4  1  0.50        -7.8591   5.0000                                         
     4  2  2.50        -8.1635   0.0000                                         
     4  3  2.50        -8.1635   0.0000                                         
   Description                                                                  
     l       E           TYP  RCUT    TYP  RCUT                                 
     0    -20.1333652     23  2.100                                             
     0    -21.4939478     23  2.100                                             
     1     -7.8591052     23  2.100                                             
     1     -3.1608434     23  2.100                                             
     2     -8.1634956     23  2.100                                             
     3     -1.3605826      7  2.100                                             
  local pseudopotential read in
  partial core-charges read in
  partial kinetic energy density read in
  atomic valenz-charges read in
  non local Contribution for L=           0  read in
    real space projection operators read in
  non local Contribution for L=           0  read in
    real space projection operators read in
  non local Contribution for L=           1  read in
    real space projection operators read in
  non local Contribution for L=           1  read in
    real space projection operators read in
  non local Contribution for L=           2  read in
    real space projection operators read in
    PAW grid and wavefunctions read in

   number of l-projection  operators is LMAX  =           5
   number of lm-projection operators is LMMAX =          13

 Optimization of the real space projectors (new method)

 maximal supplied QI-value         = 15.12
 optimisation between [QCUT,QGAM] = [  8.77, 17.69] = [ 21.53, 87.61] Ry 
 Optimized for a Real-space Cutoff    1.85 Angstroem

   l    n(q)    QCUT    max X(q) W(low)/X(q) W(high)/X(q)  e(spline) 
   0     10     8.768    25.322    0.81E-04    0.51E-04    0.48E-06
   0     10     8.768    99.187    0.78E-04    0.50E-04    0.47E-06
   1      9     8.768    11.761    0.21E-03    0.20E-03    0.37E-06
   1      9     8.768     8.275    0.24E-03    0.22E-03    0.41E-06
   2      9     8.768     3.829    0.23E-04    0.15E-03    0.18E-06
 Optimization of the real space projectors (new method)

 maximal supplied QI-value         = 15.12
 optimisation between [QCUT,QGAM] = [  8.77, 17.69] = [ 21.53, 87.61] Ry 
 Optimized for a Real-space Cutoff    1.59 Angstroem

   l    n(q)    QCUT    max X(q) W(low)/X(q) W(high)/X(q)  e(spline) 
   2      7     8.768     3.846    0.48E-04    0.11E-03    0.11E-06
   2      7     8.768     8.593    0.20E-03    0.22E-04    0.24E-06
   0      8     8.768    20.082    0.68E-04    0.88E-04    0.41E-07
   0      8     8.768     8.597    0.89E-04    0.13E-03    0.59E-07
   1      8     8.768    33.223    0.15E-03    0.53E-04    0.87E-07
   1      8     8.768    15.899    0.14E-03    0.44E-04    0.78E-07
 Optimization of the real space projectors (new method)

 maximal supplied QI-value         = 17.95
 optimisation between [QCUT,QGAM] = [  8.80, 17.59] = [ 21.67, 86.68] Ry 
 Optimized for a Real-space Cutoff    1.59 Angstroem

   l    n(q)    QCUT    max X(q) W(low)/X(q) W(high)/X(q)  e(spline) 
   0      8     8.797   175.082    0.82E-04    0.14E-03    0.89E-07
   0      8     8.797   174.004    0.79E-04    0.14E-03    0.86E-07
   1      8     8.797    54.315    0.16E-03    0.14E-04    0.30E-06
   1      8     8.797    42.441    0.16E-03    0.14E-04    0.30E-06
   2      7     8.797     3.596    0.92E-04    0.15E-03    0.85E-07
  PAW_PBE Cs_sv 08Apr2002               :
 energy of atom  1       EATOM= -555.6835
 kinetic energy error for atom=    0.0069 (will be added to EATOM!!)
  PAW_PBE Pb_d 06Sep2000                :
 energy of atom  2       EATOM=-1661.6185
 kinetic energy error for atom=    0.0498 (will be added to EATOM!!)
  PAW_PBE Br 06Sep2000                  :
 energy of atom  3       EATOM= -368.4488
 kinetic energy error for atom=    0.0072 (will be added to EATOM!!)


 POSCAR: Cs2 Pb2 Br6                             
  positions in direct lattice
  velocities in cartesian coordinates

 METAGGA = SCAN     LMAXTAU =  6    LMIXTAU =  F

 exchange correlation table for  LEXCH =        8
   RHO(1)=    0.500       N(1)  =     2000
   RHO(2)=  100.500       N(2)  =     4000

 VTST: version 3.2, (02/03/18)

 CHAIN: initializing optimizer
 
 OPT: Using VASP Conjugate-Gradient optimizer
 CHAIN: Read ICHAIN            0

 POSCAR: Cs2 Pb2 Br6                             
  positions in direct lattice
  velocities in cartesian coordinates



--------------------------------------------------------------------------------------------------------


 ion  position               nearest neighbor table
   1  0.750  0.748  0.752-
   2  0.250  0.252  0.248-
   3  0.000  0.000  0.000-   7 2.98   8 2.98   5 2.98   6 2.98   9 2.99  10 2.99
   4  0.500  0.500  0.500-   7 2.98   8 2.98   9 2.98  10 2.98   5 2.99   6 2.99
   5  0.255  0.686  0.245-   3 2.98   4 2.99
   6  0.745  0.314  0.755-   3 2.98   4 2.99
   7  0.250  0.817  0.683-   4 2.98   3 2.98
   8  0.750  0.183  0.317-   4 2.98   3 2.98
   9  0.245  0.255  0.814-   4 2.98   3 2.99
  10  0.755  0.745  0.186-   4 2.98   3 2.99

  LATTYP: Found a base centered monoclinic cell.
 ALAT       =    13.9930132139
 B/A-ratio  =     0.6024909987
 C/A-ratio  =     2.3710879852
 COS(beta)  =    -0.8381504648
  
  Lattice vectors:
  
 A1 = (   5.7814849918,  -0.1798950501,   5.7673390539)
 A2 = (  -0.1798950501,   5.7814849918,   5.7673390539)
 A3 = ( -16.9834700879, -16.9834700879, -22.8898958596)


Analysis of symmetry for initial positions (statically):
=====================================================================
 Subroutine PRICEL returns:
 Original cell was already a primitive cell.
 

 Routine SETGRP: Setting up the symmetry group for a 
 base centered monoclinic supercell.


 Subroutine GETGRP returns: Found  4 space group operations
 (whereof  2 operations were pure point group operations)
 out of a pool of  4 trial point group operations.


The static configuration has the point symmetry S_2 .
 The point group associated with its full space group is C_2h.


Analysis of symmetry for dynamics (positions and initial velocities):
=====================================================================
 Subroutine PRICEL returns:
 Original cell was already a primitive cell.
 

 Routine SETGRP: Setting up the symmetry group for a 
 base centered monoclinic supercell.


 Subroutine GETGRP returns: Found  4 space group operations
 (whereof  2 operations were pure point group operations)
 out of a pool of  4 trial point group operations.


The dynamic configuration has the point symmetry S_2 .
 The point group associated with its full space group is C_2h.


 Subroutine INISYM returns: Found  4 space group operations
 (whereof  2 operations are pure point group operations),
 and found     1 'primitive' translations



 KPOINTS: 1x1x1                                   

Automatic generation of k-mesh.
Space group operators:
 irot       det(A)        alpha          n_x          n_y          n_z        tau_x        tau_y        tau_z
    1     1.000000     0.000000     1.000000     0.000000     0.000000     0.000000     0.000000     0.000000
    2    -1.000000     0.000000     1.000000     0.000000     0.000000     0.000000     0.000000     0.000000
    3     1.000000   179.999999     0.707107    -0.707107     0.000000    -1.500000     0.500000     0.500000
    4    -1.000000   179.999999     0.707107    -0.707107     0.000000    -1.500000     0.500000     0.500000
 
 Subroutine IBZKPT returns following result:
 ===========================================
 
 Found     10 irreducible k-points:
 
 Following reciprocal coordinates:
            Coordinates               Weight
  0.000000  0.000000  0.000000      1.000000
  0.333333  0.000000  0.000000      2.000000
  0.000000  0.333333  0.000000      4.000000
  0.333333  0.333333  0.000000      4.000000
 -0.333333  0.333333  0.000000      4.000000
  0.000000  0.333333  0.333333      2.000000
  0.333333  0.333333  0.333333      2.000000
 -0.333333  0.333333  0.333333      2.000000
  0.000000 -0.333333  0.333333      2.000000
  0.333333 -0.333333  0.333333      4.000000
 
 Following cartesian coordinates:
            Coordinates               Weight
  0.000000  0.000000 -0.000000      1.000000
  0.029289  0.029289  0.029349      2.000000
  0.027516 -0.028400 -0.028469      4.000000
  0.056805  0.000890  0.000880      4.000000
 -0.001773 -0.057689 -0.057818      4.000000
 -0.000884 -0.000884 -0.056938      2.000000
  0.028405  0.028405 -0.027589      2.000000
 -0.030173 -0.030173 -0.086288      2.000000
 -0.055915  0.055915 -0.000000      2.000000
 -0.026626  0.085205  0.029349      4.000000
 


--------------------------------------------------------------------------------------------------------




 Dimension of arrays:
   k-points           NKPTS =     10   k-points in BZ     NKDIM =     10   number of bands    NBANDS=     56
   number of dos      NEDOS =    301   number of ions     NIONS =     10
   non local maximal  LDIM  =      6   non local SUM 2l+1 LMDIM =     18
   total plane-waves  NPLWV = 110592
   max r-space proj   IRMAX =   7296   max aug-charges    IRDMAX= 116610
   dimension x,y,z NGX =    48 NGY =   48 NGZ =   48
   dimension x,y,z NGXF=    96 NGYF=   96 NGZF=   96
   support grid    NGXF=   192 NGYF=  192 NGZF=  192
   ions per type =               2   2   6
   NGX,Y,Z   is equivalent  to a cutoff of   9.76,  9.48,  9.48 a.u.
   NGXF,Y,Z  is equivalent  to a cutoff of  19.52, 18.96, 18.96 a.u.

 SYSTEM =  CsPbBr3 cubic bulk                      
 POSCAR =  Cs2 Pb2 Br6                             

 Startparameter for this run:
   NWRITE =      2    write-flag & timer
   PREC   = accura    normal or accurate (medium, high low for compatibility)
   ISTART =      0    job   : 0-new  1-cont  2-samecut
   ICHARG =      2    charge: 1-file 2-atom 10-const
   ISPIN  =      1    spin polarized calculation?
   LNONCOLLINEAR =      F non collinear calculations
   LSORBIT =      F    spin-orbit coupling
   INIWAV =      1    electr: 0-lowe 1-rand  2-diag
   LASPH  =      T    aspherical Exc in radial PAW
   METAGGA=      F    non-selfconsistent MetaGGA calc.

 Electronic Relaxation 1
   ENCUT  =  300.0 eV  22.05 Ry    4.70 a.u.  11.55 11.89 11.89*2*pi/ulx,y,z
   ENINI  =  300.0     initial cutoff
   ENAUG  =  503.9 eV  augmentation charge cutoff
   NELM   =    200;   NELMIN=  2; NELMDL=  0     # of ELM steps 
   EDIFF  = 0.1E-05   stopping-criterion for ELM
   LREAL  =      T    real-space projection
   NLSPLINE    = F    spline interpolate recip. space projectors
   LCOMPAT=      F    compatible to vasp.4.4
   GGA_COMPAT  = T    GGA compatible to vasp.4.4-vasp.4.6
   LMAXPAW     = -100 max onsite density
   LMAXMIX     =    2 max onsite mixed and CHGCAR
   VOSKOWN=      0    Vosko Wilk Nusair interpolation
   ROPT   =   -0.00025  -0.00025  -0.00025
 Ionic relaxation
   EDIFFG = -.1E-01   stopping-criterion for IOM
   NSW    =      0    number of steps for IOM
   NBLOCK =      1;   KBLOCK =      1    inner block; outer block 
   IBRION =     -1    ionic relax: 0-MD 1-quasi-New 2-CG
   NFREE  =      1    steps in history (QN), initial steepest desc. (CG)
   ISIF   =      3    stress and relaxation
   IWAVPR =     10    prediction:  0-non 1-charg 2-wave 3-comb
   ISYM   =      2    0-nonsym 1-usesym 2-fastsym
   LCORR  =      T    Harris-Foulkes like correction to forces

   POTIM  = 0.5000    time-step for ionic-motion
   TEIN   =    0.0    initial temperature
   TEBEG  =    0.0;   TEEND  =   0.0 temperature during run
   SMASS  =  -3.00    Nose mass-parameter (am)
   estimated Nose-frequenzy (Omega)   =  0.10E-29 period in steps =****** mass=  -0.153E-26a.u.
   SCALEE = 1.0000    scale energy and forces
   NPACO  =    256;   APACO  = 16.0  distance and # of slots for P.C.
   PSTRESS=    0.0 pullay stress

  Mass of Ions in am
   POMASS = 132.90207.20 79.90
  Ionic Valenz
   ZVAL   =   9.00 14.00  7.00
  Atomic Wigner-Seitz radii
   RWIGS  =  -1.00 -1.00 -1.00
  virtual crystal weights 
   VCA    =   1.00  1.00  1.00
   NELECT =      88.0000    total number of electrons
   NUPDOWN=      -1.0000    fix difference up-down

 DOS related values:
   EMIN   =  10.00;   EMAX   =-10.00  energy-range for DOS
   EFERMI =   0.00
   ISMEAR =     0;   SIGMA  =   0.01  broadening in eV -4-tet -1-fermi 0-gaus

 Electronic relaxation 2 (details)
   IALGO  =     38    algorithm
   LDIAG  =      T    sub-space diagonalisation (order eigenvalues)
   LSUBROT=      F    optimize rotation matrix (better conditioning)
   TURBO    =      0    0=normal 1=particle mesh
   IRESTART =      0    0=no restart 2=restart with 2 vectors
   NREBOOT  =      0    no. of reboots
   NMIN     =      0    reboot dimension
   EREF     =   0.00    reference energy to select bands
   IMIX   =      4    mixing-type and parameters
     AMIX     =   0.40;   BMIX     =  1.00
     AMIX_MAG =   1.60;   BMIX_MAG =  1.00
     AMIN     =   0.10
     WC   =   100.;   INIMIX=   1;  MIXPRE=   1;  MAXMIX= -45

 Intra band minimization:
   WEIMIN = 0.0000     energy-eigenvalue tresh-hold
   EBREAK =  0.45E-08  absolut break condition
   DEPER  =   0.30     relativ break condition  

   TIME   =   0.40     timestep for ELM

  volume/ion in A,a.u.               =      40.35       272.27
  Fermi-wavevector in a.u.,A,eV,Ry     =   0.985452  1.862234 13.212824  0.971115
  Thomas-Fermi vector in A             =   2.116760

 Write flags
   LWAVE        =      F    write WAVECAR
   LDOWNSAMPLE  =      F    k-point downsampling of WAVECAR
   LCHARG       =      F    write CHGCAR
   LVTOT        =      F    write LOCPOT, total local potential
   LVHAR        =      T    write LOCPOT, Hartree potential only
   LELF         =      F    write electronic localiz. function (ELF)
   LORBIT       =     10    0 simple, 1 ext, 2 COOP (PROOUT), +10 PAW based schemes


 Dipole corrections
   LMONO  =      F    monopole corrections only (constant potential shift)
   LDIPOL =      F    correct potential (dipole corrections)
   IDIPOL =      0    1-x, 2-y, 3-z, 4-all directions 
   EPSILON=  1.0000000 bulk dielectric constant

 Exchange correlation treatment:
   GGA     =    --    GGA type
   LEXCH   =     8    internal setting for exchange type
   VOSKOWN=      0    Vosko Wilk Nusair interpolation
   LHFCALC =     F    Hartree Fock is set to
   LHFONE  =     F    Hartree Fock one center treatment
   AEXX    =    0.0000 exact exchange contribution

 Linear response parameters
   LEPSILON=     F    determine dielectric tensor
   LRPA    =     F    only Hartree local field effects (RPA)
   LNABLA  =     F    use nabla operator in PAW spheres
   LVEL    =     F    velocity operator in full k-point grid
   LINTERFAST=   F  fast interpolation
   KINTER  =     0    interpolate to denser k-point grid
   CSHIFT  =0.1000    complex shift for real part using Kramers Kronig
   OMEGAMAX=  -1.0    maximum frequency
   DEG_THRESHOLD= 0.2000000E-02 threshold for treating states as degnerate
   RTIME   =   -0.100 relaxation time in fs
  (WPLASMAI=    0.000 imaginary part of plasma frequency in eV, 0.658/RTIME)
   DFIELD  = 0.0000000 0.0000000 0.0000000 field for delta impulse in time

 Orbital magnetization related:
   ORBITALMAG=     F  switch on orbital magnetization
   LCHIMAG   =     F  perturbation theory with respect to B field
   DQ        =  0.001000  dq finite difference perturbation B field
   LLRAUG    =     F  two centre corrections for induced B field



--------------------------------------------------------------------------------------------------------


 Static calculation
 charge density and potential will be updated during run
 non-spin polarized calculation
 Variant of blocked Davidson
 Davidson routine will perform the subspace rotation
 perform sub-space diagonalisation
    after iterative eigenvector-optimisation
 modified Broyden-mixing scheme, WC =      100.0
 initial mixing is a Kerker type mixing with AMIX =  0.4000 and BMIX =      1.0000
 Hartree-type preconditioning will be used
 using additional bands           12
 real space projection scheme for non local part
 use partial core corrections
 calculate Harris-corrections to forces   (improved forces if not selfconsistent)
 use gradient corrections 
 use of overlap-Matrix (Vanderbilt PP)
 Gauss-broadening in eV      SIGMA  =   0.01


--------------------------------------------------------------------------------------------------------


  energy-cutoff  :      300.00
  volume of cell :      403.46
      direct lattice vectors                 reciprocal lattice vectors
     5.780290204  5.780290204 -0.179460356     0.087867655  0.087867655  0.088047785
     5.960185254 -0.001194787 -5.946799410     0.082547377 -0.085199016 -0.085407378
    -0.001194787  5.960185254 -5.946799410    -0.085199016  0.082547377 -0.085407378

  length of vectors
     8.176534456  8.419515005  8.419515005     0.152295312  0.146175791  0.146175791



 k-points in units of 2pi/SCALE and weight: 1x1x1                                   
   0.00000000  0.00000000 -0.00000000       0.037
   0.02928922  0.02928922  0.02934926       0.074
   0.02751579 -0.02839967 -0.02846913       0.148
   0.05680501  0.00088955  0.00088014       0.148
  -0.00177343 -0.05768889 -0.05781839       0.148
  -0.00088388 -0.00088388 -0.05693825       0.074
   0.02840534  0.02840534 -0.02758899       0.074
  -0.03017310 -0.03017310 -0.08628751       0.074
  -0.05591546  0.05591546 -0.00000000       0.074
  -0.02662625  0.08520468  0.02934926       0.148

 k-points in reciprocal lattice and weights: 1x1x1                                   
   0.00000000  0.00000000  0.00000000       0.037
   0.33333333  0.00000000  0.00000000       0.074
   0.00000000  0.33333333  0.00000000       0.148
   0.33333333  0.33333333  0.00000000       0.148
  -0.33333333  0.33333333  0.00000000       0.148
   0.00000000  0.33333333  0.33333333       0.074
   0.33333333  0.33333333  0.33333333       0.074
  -0.33333333  0.33333333  0.33333333       0.074
   0.00000000 -0.33333333  0.33333333       0.074
   0.33333333 -0.33333333  0.33333333       0.148

 position of ions in fractional coordinates (direct lattice) 
   0.75000000  0.74835425  0.75164575
   0.25000000  0.25164575  0.24835425
   0.00000000  0.00000000  0.00000000
   0.50000000  0.50000000  0.50000000
   0.25514253  0.68643744  0.24497231
   0.74485747  0.31356256  0.75502769
   0.25000000  0.81722597  0.68277403
   0.75000000  0.18277403  0.31722597
   0.24485747  0.25502769  0.81356256
   0.75514253  0.74497231  0.18643744

 position of ions in cartesian coordinates  (Angst):
   8.79464953  8.81427147 -9.05479438
   2.94463114  2.92500920 -3.01826479
   0.00000000  0.00000000 -0.00000000
   5.86964034  5.86964034 -6.03652959
   5.56579946  2.93405805 -5.58469491
   6.17348121  8.80522262 -6.48836427
   6.31507494  5.51355586 -8.96506420
   5.42420573  6.22572481 -3.10799497
   2.93438750  6.26402613 -6.39863409
   8.80489317  5.47525454 -5.67442509



--------------------------------------------------------------------------------------------------------


 k-point  1 :   0.0000 0.0000 0.0000  plane waves:    4781
 k-point  2 :   0.3333 0.0000 0.0000  plane waves:    4728
 k-point  3 :   0.0000 0.3333 0.0000  plane waves:    4766
 k-point  4 :   0.3333 0.3333 0.0000  plane waves:    4760
 k-point  5 :  -0.3333 0.3333 0.0000  plane waves:    4755
 k-point  6 :   0.0000 0.3333 0.3333  plane waves:    4756
 k-point  7 :   0.3333 0.3333 0.3333  plane waves:    4766
 k-point  8 :  -0.3333 0.3333 0.3333  plane waves:    4751
 k-point  9 :   0.0000-0.3333 0.3333  plane waves:    4784
 k-point 10 :   0.3333-0.3333 0.3333  plane waves:    4782

 maximum and minimum number of plane-waves per node :       618      574

 maximum number of plane-waves:      4784
 maximum index in each direction: 
   IXMAX=   11   IYMAX=   12   IZMAX=   11
   IXMIN=  -11   IYMIN=  -12   IZMIN=  -12


 real space projection operators:
  total allocation   :       5431.17 KBytes
  max/ min on nodes  :        692.14        659.31


 parallel 3D FFT for wavefunctions:
    minimum data exchange during FFTs selected (reduces bandwidth)
 parallel 3D FFT for charge:
    minimum data exchange during FFTs selected (reduces bandwidth)


 total amount of memory used by VASP MPI-rank0    37655. kBytes
=======================================================================

   base      :      30000. kBytes
   nonlr-proj:       2043. kBytes
   fftplans  :       2500. kBytes
   grid      :       2347. kBytes
   one-center:         31. kBytes
   wavefun   :        734. kBytes

     INWAV:  cpu time    0.0000: real time    0.0000
 Broyden mixing: mesh for mixing (old mesh)
   NGX = 23   NGY = 23   NGZ = 23
  (NGX  = 96   NGY  = 96   NGZ  = 96)
  gives a total of  12167 points

 initial charge density was supplied:
 charge density of overlapping atoms calculated
 number of electron      88.0000000 magnetization 
 keeping initial charge density in first step


--------------------------------------------------------------------------------------------------------


 Maximum index for non-local projection operator          870
 Maximum index for augmentation-charges         2527 (set IRDMAX)


--------------------------------------------------------------------------------------------------------


 First call to EWALD:  gamma=   0.240
 Maximum number of real-space cells 3x 3x 3
 Maximum number of reciprocal cells 3x 3x 3

    FEWALD:  cpu time    0.0018: real time    0.0018


--------------------------------------- Iteration      1(   1)  ---------------------------------------


    POTLOK:  cpu time    0.0925: real time    0.1010
    SETDIJ:  cpu time    1.1339: real time    1.1339
     EDDAV:  cpu time    1.6170: real time    1.6218
       DOS:  cpu time    0.0005: real time    0.0005
    --------------------------------------------
      LOOP:  cpu time    2.8438: real time    2.8573

 eigenvalue-minimisations  :  1152
 total energy-change (2. order) : 0.3323713E+03  (-0.2818599E+04)
 number of electron      88.0000000 magnetization 
 augmentation part       88.0000000 magnetization 

 Free energy of the ion-electron system (eV)
  ---------------------------------------------------
  alpha Z        PSCENC =       223.57138974
  Ewald energy   TEWEN  =     -4599.36640932
  -Hartree energ DENC   =     -1839.27730519
  -exchange      EXHF   =         0.00000000
  -V(xc)+E(xc)   XCENC  =       230.98793033
  PAW double counting   =      5408.49043633    -5676.98046350
  entropy T*S    EENTRO =        -0.00066637
  eigenvalues    EBANDS =       -60.19364337
  atomic energy  EATOM  =      6645.14004964
  Solvation  Ediel_sol  =         0.00000000
  ---------------------------------------------------
  free energy    TOTEN  =       332.37131830 eV

  energy without entropy =      332.37198467  energy(sigma->0) =      332.37165148


--------------------------------------------------------------------------------------------------------




--------------------------------------- Iteration      1(   2)  ---------------------------------------


     EDDAV:  cpu time    1.8687: real time    1.8934
       DOS:  cpu time    0.0003: real time    0.0003
    --------------------------------------------
      LOOP:  cpu time    1.8690: real time    1.8936

 eigenvalue-minimisations  :  1392
 total energy-change (2. order) :-0.6277523E+03  (-0.6078183E+03)
 number of electron      88.0000000 magnetization 
 augmentation part       88.0000000 magnetization 

 Free energy of the ion-electron system (eV)
  ---------------------------------------------------
  alpha Z        PSCENC =       223.57138974
  Ewald energy   TEWEN  =     -4599.36640932
  -Hartree energ DENC   =     -1839.27730519
  -exchange      EXHF   =         0.00000000
  -V(xc)+E(xc)   XCENC  =       230.98793033
  PAW double counting   =      5408.49043633    -5676.98046350
  entropy T*S    EENTRO =        -0.00000000
  eigenvalues    EBANDS =      -687.94658737
  atomic energy  EATOM  =      6645.14004964
  Solvation  Ediel_sol  =         0.00000000
  ---------------------------------------------------
  free energy    TOTEN  =      -295.38095934 eV

  energy without entropy =     -295.38095934  energy(sigma->0) =     -295.38095934


--------------------------------------------------------------------------------------------------------




--------------------------------------- Iteration      1(   3)  ---------------------------------------


     EDDAV:  cpu time    1.9086: real time    1.9237
       DOS:  cpu time    0.0003: real time    0.0003
    --------------------------------------------
      LOOP:  cpu time    1.9088: real time    1.9239

 eigenvalue-minimisations  :  1440
 total energy-change (2. order) :-0.7923547E+02  (-0.7886156E+02)
 number of electron      88.0000000 magnetization 
 augmentation part       88.0000000 magnetization 

 Free energy of the ion-electron system (eV)
  ---------------------------------------------------
  alpha Z        PSCENC =       223.57138974
  Ewald energy   TEWEN  =     -4599.36640932
  -Hartree energ DENC   =     -1839.27730519
  -exchange      EXHF   =         0.00000000
  -V(xc)+E(xc)   XCENC  =       230.98793033
  PAW double counting   =      5408.49043633    -5676.98046350
  entropy T*S    EENTRO =        -0.00000000
  eigenvalues    EBANDS =      -767.18205420
  atomic energy  EATOM  =      6645.14004964
  Solvation  Ediel_sol  =         0.00000000
  ---------------------------------------------------
  free energy    TOTEN  =      -374.61642617 eV

  energy without entropy =     -374.61642617  energy(sigma->0) =     -374.61642617


--------------------------------------------------------------------------------------------------------




--------------------------------------- Iteration      1(   4)  ---------------------------------------


     EDDAV:  cpu time    1.8352: real time    1.8681
       DOS:  cpu time    0.0003: real time    0.0003
    --------------------------------------------
      LOOP:  cpu time    1.8355: real time    1.8683

 eigenvalue-minimisations  :  1384
 total energy-change (2. order) :-0.2554748E+01  (-0.2547578E+01)
 number of electron      88.0000000 magnetization 
 augmentation part       88.0000000 magnetization 

 Free energy of the ion-electron system (eV)
  ---------------------------------------------------
  alpha Z        PSCENC =       223.57138974
  Ewald energy   TEWEN  =     -4599.36640932
  -Hartree energ DENC   =     -1839.27730519
  -exchange      EXHF   =         0.00000000
  -V(xc)+E(xc)   XCENC  =       230.98793033
  PAW double counting   =      5408.49043633    -5676.98046350
  entropy T*S    EENTRO =        -0.00000000
  eigenvalues    EBANDS =      -769.73680173
  atomic energy  EATOM  =      6645.14004964
  Solvation  Ediel_sol  =         0.00000000
  ---------------------------------------------------
  free energy    TOTEN  =      -377.17117370 eV

  energy without entropy =     -377.17117370  energy(sigma->0) =     -377.17117370


--------------------------------------------------------------------------------------------------------




--------------------------------------- Iteration      1(   5)  ---------------------------------------


     EDDAV:  cpu time    1.9093: real time    1.9400
       DOS:  cpu time    0.0003: real time    0.0003
    CHARGE:  cpu time    0.4024: real time    0.4024
    MIXING:  cpu time    0.0005: real time    0.0005
    --------------------------------------------
      LOOP:  cpu time    2.3124: real time    2.3432

 eigenvalue-minimisations  :  1480
 total energy-change (2. order) :-0.9846996E-01  (-0.9842024E-01)
 number of electron      88.0000000 magnetization 
 augmentation part       -1.6305227 magnetization 

 Broyden mixing:
  rms(total) = 0.50656E+00    rms(broyden)= 0.50639E+00
  rms(prec ) = 0.95369E+00
  weight for this iteration     100.00

 Free energy of the ion-electron system (eV)
  ---------------------------------------------------
  alpha Z        PSCENC =       223.57138974
  Ewald energy   TEWEN  =     -4599.36640932
  -Hartree energ DENC   =     -1839.27730519
  -exchange      EXHF   =         0.00000000
  -V(xc)+E(xc)   XCENC  =       230.98793033
  PAW double counting   =      5408.49043633    -5676.98046350
  entropy T*S    EENTRO =        -0.00000000
  eigenvalues    EBANDS =      -769.83527169
  atomic energy  EATOM  =      6645.14004964
  Solvation  Ediel_sol  =         0.00000000
  ---------------------------------------------------
  free energy    TOTEN  =      -377.26964366 eV

  energy without entropy =     -377.26964366  energy(sigma->0) =     -377.26964366


--------------------------------------------------------------------------------------------------------




--------------------------------------- Iteration      1(   6)  ---------------------------------------


    POTLOK:  cpu time    0.0919: real time    0.1446
    SETDIJ:  cpu time    1.1364: real time    1.1365
     EDDAV:  cpu time    1.8211: real time    1.8211
       DOS:  cpu time    0.0006: real time    0.0006
    CHARGE:  cpu time    0.3771: real time    0.3771
    MIXING:  cpu time    0.0006: real time    0.0006
    --------------------------------------------
      LOOP:  cpu time    3.4277: real time    3.4806

 eigenvalue-minimisations  :  1408
 total energy-change (2. order) : 0.1981468E+02  (-0.5846673E+00)
 number of electron      88.0000000 magnetization 
 augmentation part       -1.2695567 magnetization 

 Broyden mixing:
  rms(total) = 0.35964E+00    rms(broyden)= 0.35958E+00
  rms(prec ) = 0.57217E+00
  weight for this iteration     100.00

 eigenvalues of (default mixing * dielectric matrix)
  average eigenvalue GAMMA=   1.1955
  1.1955

 Free energy of the ion-electron system (eV)
  ---------------------------------------------------
  alpha Z        PSCENC =       223.57138974
  Ewald energy   TEWEN  =     -4599.36640932
  -Hartree energ DENC   =     -1834.84937337
  -exchange      EXHF   =         0.00000000
  -V(xc)+E(xc)   XCENC  =       238.76038447
  PAW double counting   =      5489.73311722    -5757.89130907
  entropy T*S    EENTRO =        -0.00000000
  eigenvalues    EBANDS =      -762.55281716
  atomic energy  EATOM  =      6645.14004964
  Solvation  Ediel_sol  =         0.00000000
  ---------------------------------------------------
  free energy    TOTEN  =      -357.45496785 eV

  energy without entropy =     -357.45496785  energy(sigma->0) =     -357.45496785


--------------------------------------------------------------------------------------------------------




--------------------------------------- Iteration      1(   7)  ---------------------------------------


    POTLOK:  cpu time    0.1167: real time    0.1457
    SETDIJ:  cpu time    1.1353: real time    1.1353
     EDDAV:  cpu time    1.8901: real time    1.8902
       DOS:  cpu time    0.0003: real time    0.0003
    CHARGE:  cpu time    0.3748: real time    0.3748
    MIXING:  cpu time    0.0006: real time    0.0006
    --------------------------------------------
      LOOP:  cpu time    3.5177: real time    3.5468

 eigenvalue-minimisations  :  1480
 total energy-change (2. order) : 0.1167704E+00  (-0.2049918E+00)
 number of electron      88.0000000 magnetization 
 augmentation part       -1.1323927 magnetization 

 Broyden mixing:
  rms(total) = 0.17951E+00    rms(broyden)= 0.17949E+00
  rms(prec ) = 0.22310E+00
  weight for this iteration     100.00

 eigenvalues of (default mixing * dielectric matrix)
  average eigenvalue GAMMA=   1.3174
  1.3174  1.3174

 Free energy of the ion-electron system (eV)
  ---------------------------------------------------
  alpha Z        PSCENC =       223.57138974
  Ewald energy   TEWEN  =     -4599.36640932
  -Hartree energ DENC   =     -1845.88501009
  -exchange      EXHF   =         0.00000000
  -V(xc)+E(xc)   XCENC  =       240.16165108
  PAW double counting   =      5657.60713448    -5925.35625951
  entropy T*S    EENTRO =        -0.00000000
  eigenvalues    EBANDS =      -753.21074349
  atomic energy  EATOM  =      6645.14004964
  Solvation  Ediel_sol  =         0.00000000
  ---------------------------------------------------
  free energy    TOTEN  =      -357.33819746 eV

  energy without entropy =     -357.33819746  energy(sigma->0) =     -357.33819746


--------------------------------------------------------------------------------------------------------




--------------------------------------- Iteration      1(   8)  ---------------------------------------


    POTLOK:  cpu time    0.0900: real time    0.1324
    SETDIJ:  cpu time    1.1349: real time    1.1349
     EDDAV:  cpu time    1.7383: real time    1.7383
       DOS:  cpu time    0.0003: real time    0.0003
    CHARGE:  cpu time    0.3769: real time    0.3769
    MIXING:  cpu time    0.0006: real time    0.0006
    --------------------------------------------
      LOOP:  cpu time    3.3410: real time    3.3835

 eigenvalue-minimisations  :  1312
 total energy-change (2. order) :-0.4288720E-01  (-0.8920793E-02)
 number of electron      88.0000000 magnetization 
 augmentation part       -1.1544154 magnetization 

 Broyden mixing:
  rms(total) = 0.10678E+00    rms(broyden)= 0.10678E+00
  rms(prec ) = 0.13526E+00
  weight for this iteration     100.00

 eigenvalues of (default mixing * dielectric matrix)
  average eigenvalue GAMMA=   1.7181
  1.0792  1.3953  2.6798

 Free energy of the ion-electron system (eV)
  ---------------------------------------------------
  alpha Z        PSCENC =       223.57138974
  Ewald energy   TEWEN  =     -4599.36640932
  -Hartree energ DENC   =     -1846.59276893
  -exchange      EXHF   =         0.00000000
  -V(xc)+E(xc)   XCENC  =       240.27483200
  PAW double counting   =      5715.16789149    -5983.03883151
  entropy T*S    EENTRO =        -0.00000000
  eigenvalues    EBANDS =      -752.53723777
  atomic energy  EATOM  =      6645.14004964
  Solvation  Ediel_sol  =         0.00000000
  ---------------------------------------------------
  free energy    TOTEN  =      -357.38108466 eV

  energy without entropy =     -357.38108466  energy(sigma->0) =     -357.38108466


--------------------------------------------------------------------------------------------------------




--------------------------------------- Iteration      1(   9)  ---------------------------------------


    POTLOK:  cpu time    0.1229: real time    0.1344
    SETDIJ:  cpu time    1.1355: real time    1.1355
     EDDAV:  cpu time    1.7120: real time    1.7121
       DOS:  cpu time    0.0003: real time    0.0003
    CHARGE:  cpu time    0.3775: real time    0.3775
    MIXING:  cpu time    0.0006: real time    0.0006
    --------------------------------------------
      LOOP:  cpu time    3.3488: real time    3.3604

 eigenvalue-minimisations  :  1280
 total energy-change (2. order) :-0.2052325E-01  (-0.3853612E-02)
 number of electron      88.0000000 magnetization 
 augmentation part       -1.1681745 magnetization 

 Broyden mixing:
  rms(total) = 0.24293E-01    rms(broyden)= 0.24290E-01
  rms(prec ) = 0.28574E-01
  weight for this iteration     100.00

 eigenvalues of (default mixing * dielectric matrix)
  average eigenvalue GAMMA=   1.4660
  2.5405  1.2479  1.2479  0.8279

 Free energy of the ion-electron system (eV)
  ---------------------------------------------------
  alpha Z        PSCENC =       223.57138974
  Ewald energy   TEWEN  =     -4599.36640932
  -Hartree energ DENC   =     -1847.87919635
  -exchange      EXHF   =         0.00000000
  -V(xc)+E(xc)   XCENC  =       240.78044931
  PAW double counting   =      5804.04961833    -6072.13683727
  entropy T*S    EENTRO =        -0.00000000
  eigenvalues    EBANDS =      -751.56067199
  atomic energy  EATOM  =      6645.14004964
  Solvation  Ediel_sol  =         0.00000000
  ---------------------------------------------------
  free energy    TOTEN  =      -357.40160791 eV

  energy without entropy =     -357.40160791  energy(sigma->0) =     -357.40160791


--------------------------------------------------------------------------------------------------------




--------------------------------------- Iteration      1(  10)  ---------------------------------------


    POTLOK:  cpu time    0.1092: real time    0.1355
    SETDIJ:  cpu time    1.1349: real time    1.1349
     EDDAV:  cpu time    1.9438: real time    1.9439
       DOS:  cpu time    0.0003: real time    0.0003
    CHARGE:  cpu time    0.3768: real time    0.3769
    MIXING:  cpu time    0.0007: real time    0.0007
    --------------------------------------------
      LOOP:  cpu time    3.5657: real time    3.5921

 eigenvalue-minimisations  :  1544
 total energy-change (2. order) :-0.3021571E-03  (-0.1974658E-03)
 number of electron      88.0000000 magnetization 
 augmentation part       -1.1644549 magnetization 

 Broyden mixing:
  rms(total) = 0.13255E-01    rms(broyden)= 0.13255E-01
  rms(prec ) = 0.16734E-01
  weight for this iteration     100.00

 eigenvalues of (default mixing * dielectric matrix)
  average eigenvalue GAMMA=   1.6963
  2.6463  2.6463  1.1612  1.1612  0.8664

 Free energy of the ion-electron system (eV)
  ---------------------------------------------------
  alpha Z        PSCENC =       223.57138974
  Ewald energy   TEWEN  =     -4599.36640932
  -Hartree energ DENC   =     -1847.43883916
  -exchange      EXHF   =         0.00000000
  -V(xc)+E(xc)   XCENC  =       240.72952411
  PAW double counting   =      5793.71812135    -6061.81487709
  entropy T*S    EENTRO =        -0.00000000
  eigenvalues    EBANDS =      -751.94086934
  atomic energy  EATOM  =      6645.14004964
  Solvation  Ediel_sol  =         0.00000000
  ---------------------------------------------------
  free energy    TOTEN  =      -357.40191006 eV

  energy without entropy =     -357.40191006  energy(sigma->0) =     -357.40191006


--------------------------------------------------------------------------------------------------------




--------------------------------------- Iteration      1(  11)  ---------------------------------------


    POTLOK:  cpu time    0.1280: real time    0.1463
    SETDIJ:  cpu time    1.1353: real time    1.1353
     EDDAV:  cpu time    1.7413: real time    1.7414
       DOS:  cpu time    0.0003: real time    0.0003
    CHARGE:  cpu time    0.3755: real time    0.3755
    MIXING:  cpu time    0.0007: real time    0.0007
    --------------------------------------------
      LOOP:  cpu time    3.3811: real time    3.3995

 eigenvalue-minimisations  :  1312
 total energy-change (2. order) :-0.9696590E-03  (-0.1267428E-03)
 number of electron      88.0000000 magnetization 
 augmentation part       -1.1632159 magnetization 

 Broyden mixing:
  rms(total) = 0.62199E-02    rms(broyden)= 0.62193E-02
  rms(prec ) = 0.87027E-02
  weight for this iteration     100.00

 eigenvalues of (default mixing * dielectric matrix)
  average eigenvalue GAMMA=   1.6027
  2.6553  2.6553  1.2356  1.2356  0.9172  0.9172

 Free energy of the ion-electron system (eV)
  ---------------------------------------------------
  alpha Z        PSCENC =       223.57138974
  Ewald energy   TEWEN  =     -4599.36640932
  -Hartree energ DENC   =     -1846.62101832
  -exchange      EXHF   =         0.00000000
  -V(xc)+E(xc)   XCENC  =       240.70327893
  PAW double counting   =      5781.97770510    -6050.15061850
  entropy T*S    EENTRO =        -0.00000000
  eigenvalues    EBANDS =      -752.65725700
  atomic energy  EATOM  =      6645.14004964
  Solvation  Ediel_sol  =         0.00000000
  ---------------------------------------------------
  free energy    TOTEN  =      -357.40287972 eV

  energy without entropy =     -357.40287972  energy(sigma->0) =     -357.40287972


--------------------------------------------------------------------------------------------------------




--------------------------------------- Iteration      1(  12)  ---------------------------------------


    POTLOK:  cpu time    0.1071: real time    0.1447
    SETDIJ:  cpu time    1.1355: real time    1.1356
     EDDAV:  cpu time    1.8393: real time    1.8394
       DOS:  cpu time    0.0003: real time    0.0003
    CHARGE:  cpu time    0.3761: real time    0.3761
    MIXING:  cpu time    0.0007: real time    0.0007
    --------------------------------------------
      LOOP:  cpu time    3.4591: real time    3.4968

 eigenvalue-minimisations  :  1424
 total energy-change (2. order) : 0.2022356E-03  (-0.2435524E-04)
 number of electron      88.0000000 magnetization 
 augmentation part       -1.1646589 magnetization 

 Broyden mixing:
  rms(total) = 0.15699E-02    rms(broyden)= 0.15692E-02
  rms(prec ) = 0.20767E-02
  weight for this iteration     100.00

 eigenvalues of (default mixing * dielectric matrix)
  average eigenvalue GAMMA=   1.6581
  3.0516  2.3689  1.9383  0.9831  0.9831  1.1409  1.1409

 Free energy of the ion-electron system (eV)
  ---------------------------------------------------
  alpha Z        PSCENC =       223.57138974
  Ewald energy   TEWEN  =     -4599.36640932
  -Hartree energ DENC   =     -1846.86304248
  -exchange      EXHF   =         0.00000000
  -V(xc)+E(xc)   XCENC  =       240.73520129
  PAW double counting   =      5786.33261010    -6054.51033927
  entropy T*S    EENTRO =        -0.00000000
  eigenvalues    EBANDS =      -752.44213720
  atomic energy  EATOM  =      6645.14004964
  Solvation  Ediel_sol  =         0.00000000
  ---------------------------------------------------
  free energy    TOTEN  =      -357.40267749 eV

  energy without entropy =     -357.40267749  energy(sigma->0) =     -357.40267749


--------------------------------------------------------------------------------------------------------




--------------------------------------- Iteration      1(  13)  ---------------------------------------


    POTLOK:  cpu time    0.0970: real time    0.1295
    SETDIJ:  cpu time    1.1358: real time    1.1358
     EDDAV:  cpu time    1.9042: real time    1.9042
       DOS:  cpu time    0.0003: real time    0.0003
    CHARGE:  cpu time    0.3750: real time    0.3750
    MIXING:  cpu time    0.0010: real time    0.0010
    --------------------------------------------
      LOOP:  cpu time    3.5133: real time    3.5459

 eigenvalue-minimisations  :  1496
 total energy-change (2. order) : 0.6006760E-05  (-0.2529764E-05)
 number of electron      88.0000000 magnetization 
 augmentation part       -1.1645651 magnetization 

 Broyden mixing:
  rms(total) = 0.29442E-03    rms(broyden)= 0.29146E-03
  rms(prec ) = 0.34820E-03
  weight for this iteration     100.00

 eigenvalues of (default mixing * dielectric matrix)
  average eigenvalue GAMMA=   1.5976
  3.0068  2.4552  1.8076  1.1891  1.1891  1.1437  0.9332  1.0565

 Free energy of the ion-electron system (eV)
  ---------------------------------------------------
  alpha Z        PSCENC =       223.57138974
  Ewald energy   TEWEN  =     -4599.36640932
  -Hartree energ DENC   =     -1846.95000336
  -exchange      EXHF   =         0.00000000
  -V(xc)+E(xc)   XCENC  =       240.74133791
  PAW double counting   =      5785.59610084    -6053.77524098
  entropy T*S    EENTRO =        -0.00000000
  eigenvalues    EBANDS =      -752.35989595
  atomic energy  EATOM  =      6645.14004964
  Solvation  Ediel_sol  =         0.00000000
  ---------------------------------------------------
  free energy    TOTEN  =      -357.40267148 eV

  energy without entropy =     -357.40267148  energy(sigma->0) =     -357.40267148


--------------------------------------------------------------------------------------------------------




--------------------------------------- Iteration      1(  14)  ---------------------------------------


    POTLOK:  cpu time    0.1052: real time    0.1461
    SETDIJ:  cpu time    1.1360: real time    1.1360
     EDDAV:  cpu time    1.4203: real time    1.4203
       DOS:  cpu time    0.0003: real time    0.0003
    CHARGE:  cpu time    0.3743: real time    0.3743
    MIXING:  cpu time    0.0008: real time    0.0008
    --------------------------------------------
      LOOP:  cpu time    3.0369: real time    3.0779

 eigenvalue-minimisations  :   912
 total energy-change (2. order) :-0.7153907E-05  (-0.8343660E-07)
 number of electron      88.0000000 magnetization 
 augmentation part       -1.1645092 magnetization 

 Broyden mixing:
  rms(total) = 0.10496E-03    rms(broyden)= 0.96671E-04
  rms(prec ) = 0.11946E-03
  weight for this iteration     100.00

 eigenvalues of (default mixing * dielectric matrix)
  average eigenvalue GAMMA=   1.6627
  2.9633  2.6931  2.1839  1.8286  1.1276  1.1276  0.9314  1.0541  1.0541

 Free energy of the ion-electron system (eV)
  ---------------------------------------------------
  alpha Z        PSCENC =       223.57138974
  Ewald energy   TEWEN  =     -4599.36640932
  -Hartree energ DENC   =     -1846.94153105
  -exchange      EXHF   =         0.00000000
  -V(xc)+E(xc)   XCENC  =       240.74043283
  PAW double counting   =      5785.55406871    -6053.73264616
  entropy T*S    EENTRO =        -0.00000000
  eigenvalues    EBANDS =      -752.36803302
  atomic energy  EATOM  =      6645.14004964
  Solvation  Ediel_sol  =         0.00000000
  ---------------------------------------------------
  free energy    TOTEN  =      -357.40267864 eV

  energy without entropy =     -357.40267864  energy(sigma->0) =     -357.40267864


--------------------------------------------------------------------------------------------------------




--------------------------------------- Iteration      1(  15)  ---------------------------------------


    POTLOK:  cpu time    0.0956: real time    0.1443
    SETDIJ:  cpu time    1.1356: real time    1.1356
     EDDAV:  cpu time    1.3297: real time    1.3298
       DOS:  cpu time    0.0003: real time    0.0003
    CHARGE:  cpu time    0.3748: real time    0.3748
    MIXING:  cpu time    0.0009: real time    0.0009
    --------------------------------------------
      LOOP:  cpu time    2.9368: real time    2.9857

 eigenvalue-minimisations  :   800
 total energy-change (2. order) :-0.2109558E-05  (-0.2452257E-07)
 number of electron      88.0000000 magnetization 
 augmentation part       -1.1645083 magnetization 

 Broyden mixing:
  rms(total) = 0.61398E-04    rms(broyden)= 0.45851E-04
  rms(prec ) = 0.52637E-04
  weight for this iteration     100.00
  WARNING: grid for Broyden might be to small

 eigenvalues of (default mixing * dielectric matrix)
  average eigenvalue GAMMA=   1.6108
  2.9276  2.9276  2.3580  1.8165  1.1272  1.1272  1.0899  1.0899  0.9325  0.7122

 Free energy of the ion-electron system (eV)
  ---------------------------------------------------
  alpha Z        PSCENC =       223.57138974
  Ewald energy   TEWEN  =     -4599.36640932
  -Hartree energ DENC   =     -1846.94079884
  -exchange      EXHF   =         0.00000000
  -V(xc)+E(xc)   XCENC  =       240.74044712
  PAW double counting   =      5785.53281557    -6053.71128071
  entropy T*S    EENTRO =        -0.00000000
  eigenvalues    EBANDS =      -752.36889394
  atomic energy  EATOM  =      6645.14004964
  Solvation  Ediel_sol  =         0.00000000
  ---------------------------------------------------
  free energy    TOTEN  =      -357.40268074 eV

  energy without entropy =     -357.40268074  energy(sigma->0) =     -357.40268074


--------------------------------------------------------------------------------------------------------




--------------------------------------- Iteration      1(  16)  ---------------------------------------


    POTLOK:  cpu time    0.1135: real time    0.1448
    SETDIJ:  cpu time    1.1370: real time    1.1370
     EDDAV:  cpu time    1.3219: real time    1.3220
       DOS:  cpu time    0.0003: real time    0.0003
    --------------------------------------------
      LOOP:  cpu time    2.5726: real time    2.6039

 eigenvalue-minimisations  :   792
 total energy-change (2. order) : 0.5618641E-06  (-0.8564952E-08)
 number of electron      88.0000000 magnetization 
 augmentation part       -1.1645083 magnetization 

 Free energy of the ion-electron system (eV)
  ---------------------------------------------------
  alpha Z        PSCENC =       223.57138974
  Ewald energy   TEWEN  =     -4599.36640932
  -Hartree energ DENC   =     -1846.94072313
  -exchange      EXHF   =         0.00000000
  -V(xc)+E(xc)   XCENC  =       240.74044471
  PAW double counting   =      5785.53738053    -6053.71527804
  entropy T*S    EENTRO =        -0.00000000
  eigenvalues    EBANDS =      -752.36953431
  atomic energy  EATOM  =      6645.14004964
  Solvation  Ediel_sol  =         0.00000000
  ---------------------------------------------------
  free energy    TOTEN  =      -357.40268018 eV

  energy without entropy =     -357.40268018  energy(sigma->0) =     -357.40268018


--------------------------------------------------------------------------------------------------------




 average (electrostatic) potential at core
  the test charge radii are     1.1312  1.1541  1.0178
  (the norm of the test charge is              1.0000)
       1 -55.3760       2 -55.3758       3-101.5755       4-101.5755       5 -68.9729
       6 -68.9729       7 -68.9690       8 -68.9690       9 -68.9729      10 -68.9729



 E-fermi :   0.6906     XC(G=0):  -8.0560     alpha+bet : -7.0149


 k-point     1 :       0.0000    0.0000    0.0000
  band No.  band energies     occupation 
      1     -20.8937      2.00000
      2     -20.8896      2.00000
      3     -16.4100      2.00000
      4     -16.4097      2.00000
      5     -16.3134      2.00000
      6     -16.3129      2.00000
      7     -16.2497      2.00000
      8     -16.2485      2.00000
      9     -16.2335      2.00000
     10     -16.2327      2.00000
     11     -16.2319      2.00000
     12     -16.2311      2.00000
     13     -14.3503      2.00000
     14     -14.0201      2.00000
     15     -14.0154      2.00000
     16     -13.9569      2.00000
     17     -13.7119      2.00000
     18     -13.7098      2.00000
     19      -8.1832      2.00000
     20      -7.3214      2.00000
     21      -7.3011      2.00000
     22      -7.2962      2.00000
     23      -7.2828      2.00000
     24      -7.2661      2.00000
     25      -7.2656      2.00000
     26      -6.4482      2.00000
     27      -3.3743      2.00000
     28      -3.3616      2.00000
     29      -3.1653      2.00000
     30      -1.9146      2.00000
     31      -1.9124      2.00000
     32      -1.8819      2.00000
     33      -1.5467      2.00000
     34      -1.4273      2.00000
     35      -1.4271      2.00000
     36      -1.2811      2.00000
     37      -1.2639      2.00000
     38      -1.1677      2.00000
     39      -1.1606      2.00000
     40      -1.0220      2.00000
     41      -0.8981      2.00000
     42      -0.8897      2.00000
     43      -0.8414      2.00000
     44       0.5836      2.00000
     45       2.7424      0.00000
     46       2.8407      0.00000
     47       2.8629      0.00000
     48       4.7430      0.00000
     49       5.8408      0.00000
     50       5.9033      0.00000
     51       6.2013      0.00000
     52       6.5142      0.00000
     53       6.5639      0.00000
     54       6.5682      0.00000
     55       6.6861      0.00000
     56       6.6966      0.00000

 k-point     2 :       0.3333    0.0000    0.0000
  band No.  band energies     occupation 
      1     -20.8923      2.00000
      2     -20.8905      2.00000
      3     -16.3871      2.00000
      4     -16.3869      2.00000
      5     -16.3391      2.00000
      6     -16.3387      2.00000
      7     -16.2493      2.00000
      8     -16.2485      2.00000
      9     -16.2332      2.00000
     10     -16.2324      2.00000
     11     -16.2320      2.00000
     12     -16.2312      2.00000
     13     -14.2628      2.00000
     14     -14.0672      2.00000
     15     -13.9439      2.00000
     16     -13.9397      2.00000
     17     -13.7901      2.00000
     18     -13.7872      2.00000
     19      -7.8299      2.00000
     20      -7.2863      2.00000
     21      -7.2811      2.00000
     22      -7.2810      2.00000
     23      -7.2667      2.00000
     24      -7.2649      2.00000
     25      -7.2643      2.00000
     26      -6.9965      2.00000
     27      -2.9991      2.00000
     28      -2.9931      2.00000
     29      -2.5316      2.00000
     30      -2.0848      2.00000
     31      -2.0750      2.00000
     32      -1.9388      2.00000
     33      -1.7397      2.00000
     34      -1.7361      2.00000
     35      -1.4831      2.00000
     36      -1.3567      2.00000
     37      -1.3532      2.00000
     38      -1.3283      2.00000
     39      -1.2119      2.00000
     40      -1.2041      2.00000
     41      -1.0999      2.00000
     42      -1.0928      2.00000
     43      -0.8460      2.00000
     44      -0.3391      2.00000
     45       3.8029      0.00000
     46       3.8604      0.00000
     47       3.8619      0.00000
     48       5.0837      0.00000
     49       5.6759      0.00000
     50       5.6934      0.00000
     51       5.9975      0.00000
     52       6.2489      0.00000
     53       6.2804      0.00000
     54       6.6854      0.00000
     55       6.6979      0.00000
     56       6.7053      0.00000

 k-point     3 :       0.0000    0.3333    0.0000
  band No.  band energies     occupation 
      1     -20.8925      2.00000
      2     -20.8905      2.00000
      3     -16.3872      2.00000
      4     -16.3869      2.00000
      5     -16.3389      2.00000
      6     -16.3385      2.00000
      7     -16.2494      2.00000
      8     -16.2487      2.00000
      9     -16.2332      2.00000
     10     -16.2326      2.00000
     11     -16.2321      2.00000
     12     -16.2313      2.00000
     13     -14.2764      2.00000
     14     -14.1090      2.00000
     15     -13.9383      2.00000
     16     -13.9003      2.00000
     17     -13.7851      2.00000
     18     -13.7747      2.00000
     19      -7.8457      2.00000
     20      -7.3039      2.00000
     21      -7.2997      2.00000
     22      -7.2737      2.00000
     23      -7.2703      2.00000
     24      -7.2573      2.00000
     25      -7.2521      2.00000
     26      -7.0115      2.00000
     27      -3.0059      2.00000
     28      -2.8871      2.00000
     29      -2.6474      2.00000
     30      -2.1329      2.00000
     31      -2.1116      2.00000
     32      -2.0334      2.00000
     33      -1.7453      2.00000
     34      -1.7374      2.00000
     35      -1.4768      2.00000
     36      -1.4432      2.00000
     37      -1.3322      2.00000
     38      -1.2174      2.00000
     39      -1.1668      2.00000
     40      -1.0450      2.00000
     41      -0.9996      2.00000
     42      -0.9447      2.00000
     43      -0.8594      2.00000
     44      -0.4127      2.00000
     45       3.6020      0.00000
     46       3.8234      0.00000
     47       3.9815      0.00000
     48       5.1355      0.00000
     49       5.4259      0.00000
     50       5.6247      0.00000
     51       5.9439      0.00000
     52       6.1758      0.00000
     53       6.3378      0.00000
     54       6.5756      0.00000
     55       6.7806      0.00000
     56       6.8996      0.00000

 k-point     4 :       0.3333    0.3333    0.0000
  band No.  band energies     occupation 
      1     -20.8924      2.00000
      2     -20.8905      2.00000
      3     -16.4095      2.00000
      4     -16.3648      2.00000
      5     -16.3643      2.00000
      6     -16.3130      2.00000
      7     -16.2493      2.00000
      8     -16.2486      2.00000
      9     -16.2332      2.00000
     10     -16.2326      2.00000
     11     -16.2321      2.00000
     12     -16.2312      2.00000
     13     -14.2424      2.00000
     14     -14.0206      2.00000
     15     -13.9884      2.00000
     16     -13.9449      2.00000
     17     -13.8964      2.00000
     18     -13.7031      2.00000
     19      -7.8127      2.00000
     20      -7.2959      2.00000
     21      -7.2854      2.00000
     22      -7.2707      2.00000
     23      -7.2678      2.00000
     24      -7.2546      2.00000
     25      -7.2526      2.00000
     26      -6.9562      2.00000
     27      -3.3040      2.00000
     28      -3.1800      2.00000
     29      -2.6930      2.00000
     30      -2.1328      2.00000
     31      -2.0772      2.00000
     32      -1.7534      2.00000
     33      -1.7241      2.00000
     34      -1.4883      2.00000
     35      -1.4667      2.00000
     36      -1.3473      2.00000
     37      -1.3423      2.00000
     38      -1.2784      2.00000
     39      -1.2595      2.00000
     40      -1.1484      2.00000
     41      -1.1151      2.00000
     42      -1.0346      2.00000
     43      -0.7611      2.00000
     44       0.0190      2.00000
     45       3.0940      0.00000
     46       3.1290      0.00000
     47       4.3420      0.00000
     48       5.0325      0.00000
     49       5.7134      0.00000
     50       6.1122      0.00000
     51       6.3035      0.00000
     52       6.3533      0.00000
     53       6.4838      0.00000
     54       6.7668      0.00000
     55       6.8312      0.00000
     56       7.1159      0.00000

 k-point     5 :      -0.3333    0.3333    0.0000
  band No.  band energies     occupation 
      1     -20.8914      2.00000
      2     -20.8913      2.00000
      3     -16.3880      2.00000
      4     -16.3868      2.00000
      5     -16.3401      2.00000
      6     -16.3388      2.00000
      7     -16.2490      2.00000
      8     -16.2489      2.00000
      9     -16.2329      2.00000
     10     -16.2327      2.00000
     11     -16.2318      2.00000
     12     -16.2315      2.00000
     13     -14.1448      2.00000
     14     -14.1177      2.00000
     15     -14.0046      2.00000
     16     -13.9438      2.00000
     17     -13.8134      2.00000
     18     -13.7802      2.00000
     19      -7.4365      2.00000
     20      -7.4340      2.00000
     21      -7.2776      2.00000
     22      -7.2710      2.00000
     23      -7.2626      2.00000
     24      -7.2611      2.00000
     25      -7.2424      2.00000
     26      -7.2397      2.00000
     27      -3.1533      2.00000
     28      -2.9193      2.00000
     29      -2.6769      2.00000
     30      -2.1994      2.00000
     31      -2.0801      2.00000
     32      -1.9437      2.00000
     33      -1.7276      2.00000
     34      -1.5945      2.00000
     35      -1.4481      2.00000
     36      -1.3390      2.00000
     37      -1.3257      2.00000
     38      -1.3060      2.00000
     39      -1.2497      2.00000
     40      -1.2413      2.00000
     41      -1.1778      2.00000
     42      -1.0500      2.00000
     43      -0.6160      2.00000
     44      -0.5136      2.00000
     45       3.4020      0.00000
     46       4.0629      0.00000
     47       4.1036      0.00000
     48       5.2083      0.00000
     49       5.4282      0.00000
     50       5.9440      0.00000
     51       6.4616      0.00000
     52       6.5087      0.00000
     53       6.6919      0.00000
     54       6.7232      0.00000
     55       6.8195      0.00000
     56       7.0248      0.00000

 k-point     6 :       0.0000    0.3333    0.3333
  band No.  band energies     occupation 
      1     -20.8924      2.00000
      2     -20.8905      2.00000
      3     -16.4096      2.00000
      4     -16.3644      2.00000
      5     -16.3642      2.00000
      6     -16.3134      2.00000
      7     -16.2493      2.00000
      8     -16.2486      2.00000
      9     -16.2336      2.00000
     10     -16.2322      2.00000
     11     -16.2316      2.00000
     12     -16.2316      2.00000
     13     -14.2421      2.00000
     14     -14.0245      2.00000
     15     -13.9890      2.00000
     16     -13.9418      2.00000
     17     -13.8941      2.00000
     18     -13.7045      2.00000
     19      -7.8144      2.00000
     20      -7.2927      2.00000
     21      -7.2829      2.00000
     22      -7.2715      2.00000
     23      -7.2690      2.00000
     24      -7.2566      2.00000
     25      -7.2506      2.00000
     26      -6.9563      2.00000
     27      -3.3100      2.00000
     28      -3.1742      2.00000
     29      -2.6915      2.00000
     30      -2.1342      2.00000
     31      -2.0773      2.00000
     32      -1.7559      2.00000
     33      -1.7169      2.00000
     34      -1.4926      2.00000
     35      -1.4715      2.00000
     36      -1.3603      2.00000
     37      -1.3309      2.00000
     38      -1.2760      2.00000
     39      -1.2601      2.00000
     40      -1.1420      2.00000
     41      -1.1219      2.00000
     42      -1.0182      2.00000
     43      -0.7736      2.00000
     44       0.0116      2.00000
     45       3.0973      0.00000
     46       3.1136      0.00000
     47       4.3436      0.00000
     48       5.0311      0.00000
     49       5.7317      0.00000
     50       6.0923      0.00000
     51       6.3350      0.00000
     52       6.3379      0.00000
     53       6.5326      0.00000
     54       6.7567      0.00000
     55       6.8377      0.00000
     56       7.1896      0.00000

 k-point     7 :       0.3333    0.3333    0.3333
  band No.  band energies     occupation 
      1     -20.8925      2.00000
      2     -20.8905      2.00000
      3     -16.3874      2.00000
      4     -16.3868      2.00000
      5     -16.3391      2.00000
      6     -16.3384      2.00000
      7     -16.2494      2.00000
      8     -16.2487      2.00000
      9     -16.2332      2.00000
     10     -16.2325      2.00000
     11     -16.2320      2.00000
     12     -16.2314      2.00000
     13     -14.2758      2.00000
     14     -14.1071      2.00000
     15     -13.9414      2.00000
     16     -13.8991      2.00000
     17     -13.7873      2.00000
     18     -13.7733      2.00000
     19      -7.8448      2.00000
     20      -7.3038      2.00000
     21      -7.2988      2.00000
     22      -7.2732      2.00000
     23      -7.2719      2.00000
     24      -7.2576      2.00000
     25      -7.2521      2.00000
     26      -7.0115      2.00000
     27      -3.0104      2.00000
     28      -2.8869      2.00000
     29      -2.6433      2.00000
     30      -2.1361      2.00000
     31      -2.1042      2.00000
     32      -2.0272      2.00000
     33      -1.7429      2.00000
     34      -1.7397      2.00000
     35      -1.4666      2.00000
     36      -1.4412      2.00000
     37      -1.3367      2.00000
     38      -1.2314      2.00000
     39      -1.1834      2.00000
     40      -1.0520      2.00000
     41      -1.0010      2.00000
     42      -0.9471      2.00000
     43      -0.8532      2.00000
     44      -0.3982      2.00000
     45       3.6026      0.00000
     46       3.8275      0.00000
     47       3.9833      0.00000
     48       5.1302      0.00000
     49       5.4273      0.00000
     50       5.6434      0.00000
     51       5.9471      0.00000
     52       6.2277      0.00000
     53       6.3000      0.00000
     54       6.5784      0.00000
     55       6.7477      0.00000
     56       6.9029      0.00000

 k-point     8 :      -0.3333    0.3333    0.3333
  band No.  band energies     occupation 
      1     -20.8914      2.00000
      2     -20.8914      2.00000
      3     -16.3879      2.00000
      4     -16.3870      2.00000
      5     -16.3398      2.00000
      6     -16.3391      2.00000
      7     -16.2490      2.00000
      8     -16.2489      2.00000
      9     -16.2330      2.00000
     10     -16.2325      2.00000
     11     -16.2320      2.00000
     12     -16.2315      2.00000
     13     -14.1444      2.00000
     14     -14.1180      2.00000
     15     -14.0012      2.00000
     16     -13.9475      2.00000
     17     -13.8114      2.00000
     18     -13.7822      2.00000
     19      -7.4389      2.00000
     20      -7.4310      2.00000
     21      -7.2770      2.00000
     22      -7.2702      2.00000
     23      -7.2630      2.00000
     24      -7.2620      2.00000
     25      -7.2427      2.00000
     26      -7.2393      2.00000
     27      -3.1475      2.00000
     28      -2.9199      2.00000
     29      -2.6740      2.00000
     30      -2.2014      2.00000
     31      -2.0880      2.00000
     32      -1.9404      2.00000
     33      -1.7355      2.00000
     34      -1.5833      2.00000
     35      -1.4394      2.00000
     36      -1.3480      2.00000
     37      -1.3189      2.00000
     38      -1.3084      2.00000
     39      -1.2631      2.00000
     40      -1.2379      2.00000
     41      -1.1830      2.00000
     42      -1.0461      2.00000
     43      -0.6142      2.00000
     44      -0.5229      2.00000
     45       3.4106      0.00000
     46       4.0629      0.00000
     47       4.1080      0.00000
     48       5.1929      0.00000
     49       5.4376      0.00000
     50       5.9431      0.00000
     51       6.4751      0.00000
     52       6.5609      0.00000
     53       6.6561      0.00000
     54       6.6852      0.00000
     55       6.8731      0.00000
     56       7.0176      0.00000

 k-point     9 :       0.0000   -0.3333    0.3333
  band No.  band energies     occupation 
      1     -20.8916      2.00000
      2     -20.8914      2.00000
      3     -16.3879      2.00000
      4     -16.3869      2.00000
      5     -16.3399      2.00000
      6     -16.3390      2.00000
      7     -16.2490      2.00000
      8     -16.2490      2.00000
      9     -16.2332      2.00000
     10     -16.2326      2.00000
     11     -16.2322      2.00000
     12     -16.2315      2.00000
     13     -14.1653      2.00000
     14     -14.1260      2.00000
     15     -14.0031      2.00000
     16     -13.9180      2.00000
     17     -13.8184      2.00000
     18     -13.7703      2.00000
     19      -7.4493      2.00000
     20      -7.4451      2.00000
     21      -7.2858      2.00000
     22      -7.2775      2.00000
     23      -7.2663      2.00000
     24      -7.2595      2.00000
     25      -7.2337      2.00000
     26      -7.2282      2.00000
     27      -3.1498      2.00000
     28      -2.8380      2.00000
     29      -2.7571      2.00000
     30      -2.2172      2.00000
     31      -2.1129      2.00000
     32      -1.9979      2.00000
     33      -1.6808      2.00000
     34      -1.6140      2.00000
     35      -1.4764      2.00000
     36      -1.3774      2.00000
     37      -1.3702      2.00000
     38      -1.2670      2.00000
     39      -1.2501      2.00000
     40      -1.1280      2.00000
     41      -1.0861      2.00000
     42      -0.9532      2.00000
     43      -0.6663      2.00000
     44      -0.5212      2.00000
     45       3.3785      0.00000
     46       3.9735      0.00000
     47       4.1992      0.00000
     48       5.0994      0.00000
     49       5.4474      0.00000
     50       5.9415      0.00000
     51       6.2467      0.00000
     52       6.5035      0.00000
     53       6.6823      0.00000
     54       6.8088      0.00000
     55       6.8897      0.00000
     56       7.0912      0.00000

 k-point    10 :       0.3333   -0.3333    0.3333
  band No.  band energies     occupation 
      1     -20.8915      2.00000
      2     -20.8914      2.00000
      3     -16.3880      2.00000
      4     -16.3867      2.00000
      5     -16.3403      2.00000
      6     -16.3386      2.00000
      7     -16.2490      2.00000
      8     -16.2490      2.00000
      9     -16.2331      2.00000
     10     -16.2328      2.00000
     11     -16.2319      2.00000
     12     -16.2316      2.00000
     13     -14.1640      2.00000
     14     -14.1248      2.00000
     15     -14.0066      2.00000
     16     -13.9163      2.00000
     17     -13.8202      2.00000
     18     -13.7692      2.00000
     19      -7.4510      2.00000
     20      -7.4408      2.00000
     21      -7.2850      2.00000
     22      -7.2778      2.00000
     23      -7.2646      2.00000
     24      -7.2614      2.00000
     25      -7.2333      2.00000
     26      -7.2318      2.00000
     27      -3.1555      2.00000
     28      -2.8450      2.00000
     29      -2.7546      2.00000
     30      -2.2105      2.00000
     31      -2.1045      2.00000
     32      -1.9942      2.00000
     33      -1.6800      2.00000
     34      -1.6194      2.00000
     35      -1.4612      2.00000
     36      -1.3932      2.00000
     37      -1.3726      2.00000
     38      -1.2725      2.00000
     39      -1.2542      2.00000
     40      -1.1251      2.00000
     41      -1.0840      2.00000
     42      -0.9629      2.00000
     43      -0.6597      2.00000
     44      -0.5078      2.00000
     45       3.3725      0.00000
     46       3.9685      0.00000
     47       4.2011      0.00000
     48       5.1129      0.00000
     49       5.4449      0.00000
     50       5.9495      0.00000
     51       6.2388      0.00000
     52       6.4777      0.00000
     53       6.7430      0.00000
     54       6.7823      0.00000
     55       6.8766      0.00000
     56       7.0735      0.00000


--------------------------------------------------------------------------------------------------------


 soft charge-density along one line, spin component           1
         0         1         2         3         4         5         6         7         8         9
 total charge-density along one line

 pseudopotential strength for first ion, spin component:           1
 18.013  -4.716  -0.000  -0.000   0.000   0.000   0.000  -0.000
 -4.716   1.243   0.000   0.000  -0.000  -0.000  -0.000   0.000
 -0.000   0.000   2.282   0.001   0.001  -2.733  -0.001  -0.001
 -0.000   0.000   0.001   2.282   0.001  -0.001  -2.733  -0.001
  0.000  -0.000   0.001   0.001   2.282  -0.001  -0.001  -2.733
  0.000  -0.000  -2.733  -0.001  -0.001   3.242   0.001   0.001
  0.000  -0.000  -0.001  -2.733  -0.001   0.001   3.243   0.001
 -0.000   0.000  -0.001  -0.001  -2.733   0.001   0.001   3.242
  0.001  -0.000  -0.001   0.000   0.001   0.001  -0.000  -0.001
  0.001  -0.000   0.001  -0.001   0.000  -0.001   0.002  -0.000
  0.000  -0.000  -0.001   0.000   0.001   0.001  -0.000  -0.001
  0.001  -0.000   0.000   0.001  -0.001  -0.000  -0.002   0.001
 -0.000   0.000   0.001  -0.001   0.001  -0.001   0.001  -0.001
 total augmentation occupancy for first ion, spin component:           1
  1.909  -0.144  -0.000   0.000   0.000  -0.000   0.000   0.000   0.001   0.001   0.000   0.001   0.000
 -0.144   0.105  -0.001   0.000   0.001   0.000   0.000  -0.000  -0.004  -0.004  -0.000  -0.004  -0.000
 -0.000  -0.001   2.015   0.002   0.002   0.002   0.001   0.001  -0.002   0.002  -0.002  -0.000   0.002
  0.000   0.000   0.002   2.015   0.002   0.001   0.002   0.001   0.000  -0.003   0.000   0.003  -0.002
  0.000   0.001   0.002   0.002   2.015   0.001   0.001   0.002   0.002   0.000   0.002  -0.002   0.002
 -0.000   0.000   0.002   0.001   0.001   0.007  -0.001  -0.001   0.002  -0.002   0.002   0.000  -0.001
  0.000   0.000   0.001   0.002   0.001  -0.001   0.007  -0.001  -0.000   0.002  -0.000  -0.002   0.002
  0.000  -0.000   0.001   0.001   0.002  -0.001  -0.001   0.007  -0.002  -0.000  -0.002   0.002  -0.001
  0.001  -0.004  -0.002   0.000   0.002   0.002  -0.000  -0.002   0.005  -0.000   0.001  -0.000   0.000
  0.001  -0.004   0.002  -0.003   0.000  -0.002   0.002  -0.000  -0.000   0.005  -0.000  -0.000   0.001
  0.000  -0.000  -0.002   0.000   0.002   0.002  -0.000  -0.002   0.001  -0.000   0.003  -0.000   0.000
  0.001  -0.004  -0.000   0.003  -0.002   0.000  -0.002   0.002  -0.000  -0.000  -0.000   0.005  -0.001
  0.000  -0.000   0.002  -0.002   0.002  -0.001   0.002  -0.001   0.000   0.001   0.000  -0.001   0.003


------------------------ aborting loop because EDIFF is reached ----------------------------------------





 total charge     

# of ion       s       p       d       tot
------------------------------------------
    1        1.784   4.718   0.015   6.518
    2        1.784   4.718   0.015   6.518
    3        1.552   0.428   9.835  11.816
    4        1.552   0.428   9.835  11.815
    5        1.614   3.288   0.006   4.908
    6        1.614   3.288   0.006   4.908
    7        1.615   3.284   0.006   4.905
    8        1.615   3.284   0.006   4.905
    9        1.615   3.280   0.007   4.901
   10        1.615   3.280   0.007   4.901
--------------------------------------------------
tot         16.360  29.995  19.739  66.094

    CHARGE:  cpu time    0.0661: real time    0.0661
    FORLOC:  cpu time    0.0020: real time    0.0020
    FORNL :  cpu time    0.2669: real time    0.2669
    STRESS:  cpu time    4.8821: real time    4.8822
    FORCOR:  cpu time    0.0734: real time    0.0734
    FORHAR:  cpu time    0.0073: real time    0.0073
    MIXING:  cpu time    0.0009: real time    0.0009
    OFIELD:  cpu time    0.0000: real time    0.0000

  FORCE on cell =-STRESS in cart. coord.  units (eV):
  Direction    XX          YY          ZZ          XY          YZ          ZX
  --------------------------------------------------------------------------------------
  Alpha Z   223.57139   223.57139   223.57139
  Ewald   -1534.01234 -1534.01234 -1531.34979   -43.50595   -39.81412   -39.81412
  Hartree   614.23966   614.23966   618.46125   -25.75380   -23.59664   -23.59664
  E(xc)    -369.47886  -369.44576  -369.46587    -0.04279    -0.04873    -0.00969
  Local    -713.32160  -713.32160  -720.19972    68.83134    63.00089    63.00089
  n-local   450.26762   450.27584   450.30306    -0.32694    -0.26982    -0.30918
  augment   203.11009   203.11009   203.12653    -0.20573    -0.18769    -0.18757
  Kinetic  1124.63425  1125.96541  1125.26675     1.00790     0.24280     1.62507
  Fock        0.00000     0.00000     0.00000     0.00000     0.00000     0.00000
  -------------------------------------------------------------------------------------
  Total      -0.30356    -0.30356    -0.28639     0.00402     0.01773     0.01773
  in kB      -1.20545    -1.20545    -1.13730     0.01596     0.07040     0.07041
  external pressure =       -1.18 kB  Pullay stress =        0.00 kB


 VOLUME and BASIS-vectors are now :
 -----------------------------------------------------------------------------
  energy-cutoff  :      300.00
  volume of cell :      403.46
      direct lattice vectors                 reciprocal lattice vectors
     5.780290204  5.780290204 -0.179460356     0.087867655  0.087867655  0.088047785
     5.960185254 -0.001194787 -5.946799410     0.082547377 -0.085199016 -0.085407378
    -0.001194787  5.960185254 -5.946799410    -0.085199016  0.082547377 -0.085407378

  length of vectors
     8.176534456  8.419515005  8.419515005     0.152295312  0.146175791  0.146175791


 FORCES acting on ions
    electron-ion (+dipol)            ewald-force                    non-local-force                 convergence-correction
 -----------------------------------------------------------------------------------------------
   -.184E+01 0.184E+01 0.451E-06   0.182E+01 -.182E+01 -.533E-13   0.196E-01 -.196E-01 0.000E+00   0.110E-04 -.110E-04 -.130E-11
   0.184E+01 -.184E+01 -.451E-06   -.182E+01 0.182E+01 0.551E-13   -.196E-01 0.196E-01 0.867E-18   -.110E-04 0.110E-04 0.127E-11
   0.488E-12 -.802E-12 -.763E-13   -.284E-13 -.711E-14 -.320E-13   0.000E+00 0.000E+00 -.159E-21   -.260E-13 0.525E-13 0.728E-13
   -.187E-11 -.202E-11 0.500E-11   0.000E+00 -.373E-13 0.213E-13   0.000E+00 0.000E+00 0.000E+00   -.955E-13 -.158E-13 0.227E-13
   0.172E+02 -.287E+00 -.187E+02   -.174E+02 0.290E+00 0.189E+02   0.149E+00 0.761E-03 -.168E+00   0.121E-04 0.375E-06 -.391E-04
   -.172E+02 0.287E+00 0.187E+02   0.174E+02 -.290E+00 -.189E+02   -.149E+00 -.761E-03 0.168E+00   -.121E-04 -.375E-06 0.391E-04
   -.207E+02 0.207E+02 0.594E-07   0.209E+02 -.209E+02 -.121E-12   -.159E+00 0.159E+00 0.000E+00   -.149E-04 0.149E-04 -.632E-13
   0.207E+02 -.207E+02 -.594E-07   -.209E+02 0.209E+02 0.121E-12   0.159E+00 -.159E+00 0.000E+00   0.149E-04 -.149E-04 -.114E-14
   0.287E+00 -.172E+02 0.187E+02   -.290E+00 0.174E+02 -.189E+02   -.761E-03 -.149E+00 0.168E+00   -.375E-06 -.121E-04 0.391E-04
   -.287E+00 0.172E+02 -.187E+02   0.290E+00 -.174E+02 0.189E+02   0.761E-03 0.149E+00 -.168E+00   0.375E-06 0.121E-04 -.391E-04
 -----------------------------------------------------------------------------------------------
   -.182E-11 -.357E-11 0.293E-11   0.311E-14 -.711E-14 0.000E+00   -.867E-18 0.555E-16 -.278E-16   -.126E-12 0.553E-13 0.745E-13


 POSITION                                       TOTAL-FORCE (eV/Angst)
 -----------------------------------------------------------------------------------
      8.79465      8.81427     -9.05479        -0.001256      0.001256     -0.000000
      2.94463      2.92501     -3.01826         0.001256     -0.001256     -0.000000
      0.00000      0.00000     -0.00000         0.000000      0.000000     -0.000000
      5.86964      5.86964     -6.03653         0.000000      0.000000     -0.000000
      5.56580      2.93406     -5.58469         0.011645      0.003817     -0.007281
      6.17348      8.80522     -6.48836        -0.011645     -0.003817      0.007281
      6.31507      5.51356     -8.96506        -0.001081      0.001081     -0.000000
      5.42421      6.22572     -3.10799         0.001081     -0.001081     -0.000000
      2.93439      6.26403     -6.39863        -0.003817     -0.011645      0.007281
      8.80489      5.47525     -5.67443         0.003817      0.011645     -0.007281
 -----------------------------------------------------------------------------------
    total drift:                               -0.000000     -0.000000      0.000000


--------------------------------------------------------------------------------------------------------



  FREE ENERGIE OF THE ION-ELECTRON SYSTEM (eV)
  ---------------------------------------------------
  free  energy   TOTEN  =      -357.40268018 eV

  energy  without entropy=     -357.40268018  energy(sigma->0) =     -357.40268018



--------------------------------------------------------------------------------------------------------


    POTLOK:  cpu time    1.2101: real time    1.2101


--------------------------------------------------------------------------------------------------------


 stress matrix after NEB project (eV)
     -0.30356      0.00402      0.01773
      0.00402     -0.30356      0.01773
      0.01773      0.01773     -0.28639
  FORCES: max atom, RMS     0.014254    0.009076
  FORCE total and by dimension    0.028700    0.011645
  Stress total and by dimension    0.517306    0.303557
     LOOP+:  cpu time   54.5968: real time   55.1163
    4ORBIT:  cpu time    0.0000: real time    0.0000



 total charge     

# of ion       s       p       d       tot
------------------------------------------
    1        1.784   4.718   0.015   6.518
    2        1.784   4.718   0.015   6.518
    3        1.552   0.428   9.835  11.816
    4        1.552   0.428   9.835  11.815
    5        1.614   3.288   0.006   4.908
    6        1.614   3.288   0.006   4.908
    7        1.615   3.284   0.006   4.905
    8        1.615   3.284   0.006   4.905
    9        1.615   3.280   0.007   4.901
   10        1.615   3.280   0.007   4.901
--------------------------------------------------
tot         16.360  29.995  19.739  66.094


 total amount of memory used by VASP MPI-rank0    37655. kBytes
=======================================================================

   base      :      30000. kBytes
   nonlr-proj:       2043. kBytes
   fftplans  :       2500. kBytes
   grid      :       2347. kBytes
   one-center:         31. kBytes
   wavefun   :        734. kBytes

  
  
 General timing and accounting informations for this job:
 ========================================================
  
                  Total CPU time used (sec):       59.507
                            User time (sec):       58.831
                          System time (sec):        0.676
                         Elapsed time (sec):       60.169
  
                   Maximum memory used (kb):       66324.
                   Average memory used (kb):           0.
  
                          Minor page faults:        15857
                          Major page faults:            2
                 Voluntary context switches:         1686
