PROCAR new format
# of k-points:   10         # of bands:   56         # of ions:   10

 k-point     1 :    0.00000000 0.00000000 0.00000000     weight = 0.03703704

band     1 # energy  -20.89367376 # occ.  2.00000000

ion      s      p      d    tot
    1  0.445  0.000  0.000  0.445
    2  0.442  0.000  0.000  0.442
    3  0.000  0.000  0.000  0.000
    4  0.000  0.000  0.000  0.000
    5  0.000  0.000  0.000  0.000
    6  0.000  0.000  0.000  0.000
    7  0.000  0.000  0.000  0.000
    8  0.000  0.000  0.000  0.000
    9  0.000  0.000  0.000  0.000
   10  0.000  0.000  0.000  0.000
tot    0.887  0.000  0.000  0.887

band     2 # energy  -20.88963785 # occ.  2.00000000

ion      s      p      d    tot
    1  0.442  0.000  0.000  0.442
    2  0.446  0.000  0.000  0.446
    3  0.000  0.000  0.000  0.000
    4  0.000  0.000  0.000  0.000
    5  0.000  0.000  0.000  0.000
    6  0.000  0.000  0.000  0.000
    7  0.000  0.000  0.000  0.000
    8  0.000  0.000  0.000  0.000
    9  0.000  0.000  0.000  0.000
   10  0.000  0.000  0.000  0.000
tot    0.888  0.000  0.000  0.888

band     3 # energy  -16.40996309 # occ.  2.00000000

ion      s      p      d    tot
    1  0.000  0.000  0.000  0.000
    2  0.000  0.000  0.000  0.000
    3  0.000  0.000  0.460  0.460
    4  0.000  0.000  0.460  0.460
    5  0.010  0.000  0.000  0.010
    6  0.010  0.000  0.000  0.010
    7  0.000  0.000  0.000  0.000
    8  0.000  0.000  0.000  0.000
    9  0.010  0.000  0.000  0.010
   10  0.010  0.000  0.000  0.010
tot    0.040  0.000  0.920  0.960

band     4 # energy  -16.40969385 # occ.  2.00000000

ion      s      p      d    tot
    1  0.000  0.000  0.000  0.000
    2  0.000  0.000  0.000  0.000
    3  0.000  0.000  0.460  0.460
    4  0.000  0.000  0.460  0.460
    5  0.003  0.000  0.000  0.003
    6  0.003  0.000  0.000  0.003
    7  0.013  0.000  0.000  0.014
    8  0.013  0.000  0.000  0.014
    9  0.003  0.000  0.000  0.003
   10  0.003  0.000  0.000  0.003
tot    0.040  0.000  0.920  0.960

band     5 # energy  -16.31339772 # occ.  2.00000000

ion      s      p      d    tot
    1  0.000  0.000  0.000  0.000
    2  0.000  0.000  0.000  0.000
    3  0.000  0.000  0.486  0.486
    4  0.000  0.000  0.486  0.486
    5  0.000  0.001  0.000  0.001
    6  0.000  0.001  0.000  0.001
    7  0.000  0.000  0.000  0.000
    8  0.000  0.000  0.000  0.000
    9  0.000  0.001  0.000  0.001
   10  0.000  0.001  0.000  0.001
tot    0.000  0.003  0.972  0.974

band     6 # energy  -16.31285573 # occ.  2.00000000

ion      s      p      d    tot
    1  0.000  0.000  0.000  0.000
    2  0.000  0.000  0.000  0.000
    3  0.000  0.000  0.486  0.486
    4  0.000  0.000  0.486  0.486
    5  0.000  0.000  0.000  0.000
    6  0.000  0.000  0.000  0.000
    7  0.000  0.001  0.000  0.001
    8  0.000  0.001  0.000  0.001
    9  0.000  0.000  0.000  0.000
   10  0.000  0.000  0.000  0.000
tot    0.000  0.003  0.972  0.974

band     7 # energy  -16.24971755 # occ.  2.00000000

ion      s      p      d    tot
    1  0.000  0.000  0.000  0.000
    2  0.000  0.000  0.000  0.000
    3  0.000  0.000  0.489  0.489
    4  0.000  0.000  0.489  0.489
    5  0.000  0.000  0.000  0.000
    6  0.000  0.000  0.000  0.000
    7  0.000  0.000  0.000  0.000
    8  0.000  0.000  0.000  0.000
    9  0.000  0.000  0.000  0.000
   10  0.000  0.000  0.000  0.000
tot    0.000  0.000  0.977  0.977

band     8 # energy  -16.24848372 # occ.  2.00000000

ion      s      p      d    tot
    1  0.000  0.000  0.000  0.000
    2  0.000  0.000  0.000  0.000
    3  0.000  0.000  0.489  0.489
    4  0.000  0.000  0.489  0.489
    5  0.000  0.000  0.000  0.000
    6  0.000  0.000  0.000  0.000
    7  0.000  0.000  0.000  0.000
    8  0.000  0.000  0.000  0.000
    9  0.000  0.000  0.000  0.000
   10  0.000  0.000  0.000  0.000
tot    0.000  0.000  0.977  0.978

band     9 # energy  -16.23347291 # occ.  2.00000000

ion      s      p      d    tot
    1  0.000  0.000  0.000  0.000
    2  0.000  0.000  0.000  0.000
    3  0.000  0.000  0.489  0.489
    4  0.000  0.000  0.489  0.489
    5  0.000  0.000  0.000  0.000
    6  0.000  0.000  0.000  0.000
    7  0.000  0.000  0.000  0.000
    8  0.000  0.000  0.000  0.000
    9  0.000  0.000  0.000  0.000
   10  0.000  0.000  0.000  0.000
tot    0.000  0.000  0.977  0.977

band    10 # energy  -16.23269367 # occ.  2.00000000

ion      s      p      d    tot
    1  0.000  0.000  0.000  0.000
    2  0.000  0.000  0.000  0.000
    3  0.000  0.000  0.489  0.489
    4  0.000  0.000  0.489  0.489
    5  0.000  0.000  0.000  0.000
    6  0.000  0.000  0.000  0.000
    7  0.000  0.000  0.000  0.000
    8  0.000  0.000  0.000  0.000
    9  0.000  0.000  0.000  0.000
   10  0.000  0.000  0.000  0.000
tot    0.000  0.000  0.977  0.978

band    11 # energy  -16.23190217 # occ.  2.00000000

ion      s      p      d    tot
    1  0.000  0.000  0.000  0.000
    2  0.000  0.000  0.000  0.000
    3  0.000  0.000  0.489  0.489
    4  0.000  0.000  0.489  0.489
    5  0.000  0.000  0.000  0.000
    6  0.000  0.000  0.000  0.000
    7  0.000  0.000  0.000  0.000
    8  0.000  0.000  0.000  0.000
    9  0.000  0.000  0.000  0.000
   10  0.000  0.000  0.000  0.000
tot    0.000  0.000  0.978  0.978

band    12 # energy  -16.23108637 # occ.  2.00000000

ion      s      p      d    tot
    1  0.000  0.000  0.000  0.000
    2  0.000  0.000  0.000  0.000
    3  0.000  0.000  0.489  0.489
    4  0.000  0.000  0.489  0.489
    5  0.000  0.000  0.000  0.000
    6  0.000  0.000  0.000  0.000
    7  0.000  0.000  0.000  0.000
    8  0.000  0.000  0.000  0.000
    9  0.000  0.000  0.000  0.000
   10  0.000  0.000  0.000  0.000
tot    0.000  0.000  0.978  0.978

band    13 # energy  -14.35030770 # occ.  2.00000000

ion      s      p      d    tot
    1  0.001  0.000  0.000  0.001
    2  0.001  0.000  0.000  0.001
    3  0.016  0.000  0.000  0.016
    4  0.016  0.000  0.000  0.016
    5  0.123  0.000  0.000  0.123
    6  0.123  0.000  0.000  0.123
    7  0.122  0.000  0.000  0.122
    8  0.122  0.000  0.000  0.122
    9  0.123  0.000  0.000  0.123
   10  0.123  0.000  0.000  0.123
tot    0.770  0.000  0.001  0.770

band    14 # energy  -14.02010443 # occ.  2.00000000

ion      s      p      d    tot
    1  0.000  0.000  0.000  0.000
    2  0.000  0.000  0.000  0.000
    3  0.000  0.002  0.000  0.002
    4  0.000  0.002  0.000  0.002
    5  0.198  0.000  0.000  0.198
    6  0.198  0.000  0.000  0.198
    7  0.000  0.000  0.000  0.000
    8  0.000  0.000  0.000  0.000
    9  0.198  0.000  0.000  0.198
   10  0.198  0.000  0.000  0.198
tot    0.792  0.005  0.000  0.797

band    15 # energy  -14.01539869 # occ.  2.00000000

ion      s      p      d    tot
    1  0.000  0.000  0.000  0.000
    2  0.000  0.000  0.000  0.000
    3  0.000  0.002  0.000  0.002
    4  0.000  0.002  0.000  0.002
    5  0.070  0.000  0.000  0.070
    6  0.070  0.000  0.000  0.070
    7  0.257  0.000  0.000  0.257
    8  0.257  0.000  0.000  0.257
    9  0.070  0.000  0.000  0.070
   10  0.070  0.000  0.000  0.070
tot    0.793  0.005  0.000  0.798

band    16 # energy  -13.95694218 # occ.  2.00000000

ion      s      p      d    tot
    1  0.000  0.000  0.000  0.000
    2  0.000  0.000  0.000  0.000
    3  0.000  0.002  0.000  0.002
    4  0.000  0.002  0.000  0.002
    5  0.129  0.000  0.000  0.129
    6  0.129  0.000  0.000  0.129
    7  0.140  0.000  0.000  0.140
    8  0.140  0.000  0.000  0.140
    9  0.129  0.000  0.000  0.129
   10  0.129  0.000  0.000  0.129
tot    0.798  0.004  0.000  0.803

band    17 # energy  -13.71190014 # occ.  2.00000000

ion      s      p      d    tot
    1  0.000  0.000  0.000  0.000
    2  0.000  0.000  0.000  0.000
    3  0.000  0.000  0.030  0.030
    4  0.000  0.000  0.030  0.030
    5  0.192  0.000  0.000  0.192
    6  0.192  0.000  0.000  0.192
    7  0.000  0.000  0.000  0.000
    8  0.000  0.000  0.000  0.000
    9  0.192  0.000  0.000  0.192
   10  0.192  0.000  0.000  0.192
tot    0.770  0.000  0.060  0.830

band    18 # energy  -13.70980200 # occ.  2.00000000

ion      s      p      d    tot
    1  0.000  0.000  0.000  0.000
    2  0.000  0.000  0.000  0.000
    3  0.000  0.000  0.030  0.030
    4  0.000  0.000  0.030  0.030
    5  0.064  0.000  0.000  0.064
    6  0.064  0.000  0.000  0.064
    7  0.257  0.000  0.000  0.257
    8  0.257  0.000  0.000  0.257
    9  0.064  0.000  0.000  0.064
   10  0.064  0.000  0.000  0.064
tot    0.770  0.001  0.060  0.830

band    19 # energy   -8.18318827 # occ.  2.00000000

ion      s      p      d    tot
    1  0.000  0.000  0.000  0.000
    2  0.000  0.000  0.000  0.000
    3  0.283  0.000  0.000  0.283
    4  0.283  0.000  0.000  0.283
    5  0.000  0.017  0.000  0.017
    6  0.000  0.017  0.000  0.017
    7  0.000  0.017  0.000  0.017
    8  0.000  0.017  0.000  0.017
    9  0.000  0.017  0.000  0.017
   10  0.000  0.017  0.000  0.017
tot    0.566  0.101  0.000  0.668

band    20 # energy   -7.32135424 # occ.  2.00000000

ion      s      p      d    tot
    1  0.000  0.381  0.000  0.381
    2  0.000  0.381  0.000  0.381
    3  0.000  0.000  0.000  0.000
    4  0.000  0.000  0.000  0.000
    5  0.000  0.001  0.000  0.001
    6  0.000  0.001  0.000  0.001
    7  0.000  0.001  0.000  0.001
    8  0.000  0.001  0.000  0.001
    9  0.000  0.001  0.000  0.001
   10  0.000  0.001  0.000  0.001
tot    0.000  0.766  0.000  0.767

band    21 # energy   -7.30113689 # occ.  2.00000000

ion      s      p      d    tot
    1  0.000  0.379  0.000  0.379
    2  0.000  0.380  0.000  0.380
    3  0.000  0.000  0.000  0.000
    4  0.000  0.000  0.000  0.000
    5  0.000  0.001  0.000  0.002
    6  0.000  0.001  0.000  0.002
    7  0.000  0.001  0.000  0.001
    8  0.000  0.001  0.000  0.001
    9  0.000  0.001  0.000  0.002
   10  0.000  0.001  0.000  0.002
tot    0.002  0.765  0.000  0.767

band    22 # energy   -7.29623340 # occ.  2.00000000

ion      s      p      d    tot
    1  0.000  0.379  0.000  0.379
    2  0.000  0.380  0.000  0.380
    3  0.000  0.000  0.000  0.000
    4  0.000  0.000  0.000  0.000
    5  0.000  0.001  0.000  0.001
    6  0.000  0.001  0.000  0.001
    7  0.001  0.002  0.000  0.002
    8  0.001  0.002  0.000  0.002
    9  0.000  0.001  0.000  0.001
   10  0.000  0.001  0.000  0.001
tot    0.002  0.765  0.000  0.767

band    23 # energy   -7.28277082 # occ.  2.00000000

ion      s      p      d    tot
    1  0.000  0.386  0.000  0.386
    2  0.000  0.385  0.000  0.385
    3  0.000  0.000  0.000  0.000
    4  0.000  0.000  0.000  0.000
    5  0.000  0.000  0.000  0.000
    6  0.000  0.000  0.000  0.000
    7  0.000  0.000  0.000  0.000
    8  0.000  0.000  0.000  0.000
    9  0.000  0.000  0.000  0.000
   10  0.000  0.000  0.000  0.000
tot    0.000  0.774  0.000  0.774

band    24 # energy   -7.26610402 # occ.  2.00000000

ion      s      p      d    tot
    1  0.000  0.384  0.000  0.384
    2  0.000  0.383  0.000  0.383
    3  0.000  0.000  0.000  0.000
    4  0.000  0.000  0.000  0.000
    5  0.000  0.001  0.000  0.001
    6  0.000  0.001  0.000  0.001
    7  0.000  0.001  0.000  0.002
    8  0.000  0.001  0.000  0.002
    9  0.000  0.001  0.000  0.001
   10  0.000  0.001  0.000  0.001
tot    0.001  0.772  0.000  0.773

band    25 # energy   -7.26562330 # occ.  2.00000000

ion      s      p      d    tot
    1  0.000  0.384  0.000  0.384
    2  0.000  0.384  0.000  0.384
    3  0.000  0.000  0.000  0.000
    4  0.000  0.000  0.000  0.000
    5  0.000  0.001  0.000  0.001
    6  0.000  0.001  0.000  0.001
    7  0.000  0.000  0.000  0.000
    8  0.000  0.000  0.000  0.000
    9  0.000  0.001  0.000  0.001
   10  0.000  0.001  0.000  0.001
tot    0.001  0.773  0.000  0.774

band    26 # energy   -6.44818687 # occ.  2.00000000

ion      s      p      d    tot
    1  0.000  0.000  0.000  0.000
    2  0.000  0.000  0.000  0.000
    3  0.355  0.000  0.000  0.355
    4  0.355  0.000  0.000  0.355
    5  0.012  0.001  0.001  0.014
    6  0.012  0.001  0.001  0.014
    7  0.012  0.001  0.001  0.014
    8  0.012  0.001  0.001  0.014
    9  0.012  0.001  0.001  0.014
   10  0.012  0.001  0.001  0.014
tot    0.784  0.007  0.006  0.796

band    27 # energy   -3.37426911 # occ.  2.00000000

ion      s      p      d    tot
    1  0.000  0.004  0.000  0.004
    2  0.000  0.004  0.000  0.004
    3  0.000  0.047  0.000  0.047
    4  0.000  0.047  0.000  0.047
    5  0.000  0.099  0.000  0.099
    6  0.000  0.099  0.000  0.099
    7  0.000  0.015  0.000  0.015
    8  0.000  0.015  0.000  0.015
    9  0.000  0.099  0.000  0.099
   10  0.000  0.099  0.000  0.099
tot    0.000  0.527  0.000  0.527

band    28 # energy   -3.36163309 # occ.  2.00000000

ion      s      p      d    tot
    1  0.000  0.004  0.000  0.004
    2  0.000  0.004  0.000  0.004
    3  0.000  0.047  0.000  0.047
    4  0.000  0.047  0.000  0.047
    5  0.000  0.043  0.000  0.043
    6  0.000  0.043  0.000  0.043
    7  0.000  0.127  0.000  0.127
    8  0.000  0.127  0.000  0.127
    9  0.000  0.043  0.000  0.043
   10  0.000  0.043  0.000  0.043
tot    0.000  0.527  0.000  0.528

band    29 # energy   -3.16527107 # occ.  2.00000000

ion      s      p      d    tot
    1  0.000  0.005  0.000  0.005
    2  0.000  0.005  0.000  0.005
    3  0.000  0.046  0.000  0.046
    4  0.000  0.046  0.000  0.046
    5  0.000  0.072  0.000  0.072
    6  0.000  0.072  0.000  0.072
    7  0.000  0.071  0.000  0.071
    8  0.000  0.071  0.000  0.071
    9  0.000  0.072  0.000  0.072
   10  0.000  0.072  0.000  0.072
tot    0.000  0.532  0.000  0.532

band    30 # energy   -1.91457102 # occ.  2.00000000

ion      s      p      d    tot
    1  0.000  0.016  0.000  0.016
    2  0.000  0.016  0.000  0.016
    3  0.000  0.000  0.003  0.003
    4  0.000  0.000  0.003  0.003
    5  0.000  0.068  0.000  0.068
    6  0.000  0.068  0.000  0.068
    7  0.000  0.120  0.000  0.120
    8  0.000  0.120  0.000  0.120
    9  0.000  0.068  0.000  0.068
   10  0.000  0.068  0.000  0.068
tot    0.000  0.543  0.006  0.549

band    31 # energy   -1.91237127 # occ.  2.00000000

ion      s      p      d    tot
    1  0.000  0.016  0.000  0.016
    2  0.000  0.016  0.000  0.016
    3  0.000  0.000  0.003  0.003
    4  0.000  0.000  0.003  0.003
    5  0.000  0.103  0.000  0.103
    6  0.000  0.103  0.000  0.103
    7  0.000  0.049  0.000  0.049
    8  0.000  0.049  0.000  0.049
    9  0.000  0.103  0.000  0.103
   10  0.000  0.103  0.000  0.103
tot    0.000  0.543  0.006  0.549

band    32 # energy   -1.88187943 # occ.  2.00000000

ion      s      p      d    tot
    1  0.000  0.014  0.000  0.014
    2  0.000  0.014  0.000  0.014
    3  0.000  0.000  0.002  0.002
    4  0.000  0.000  0.002  0.002
    5  0.000  0.086  0.000  0.086
    6  0.000  0.086  0.000  0.086
    7  0.000  0.086  0.000  0.086
    8  0.000  0.086  0.000  0.086
    9  0.000  0.086  0.000  0.086
   10  0.000  0.086  0.000  0.086
tot    0.000  0.543  0.005  0.548

band    33 # energy   -1.54670115 # occ.  2.00000000

ion      s      p      d    tot
    1  0.001  0.000  0.000  0.001
    2  0.001  0.000  0.000  0.001
    3  0.000  0.006  0.000  0.006
    4  0.000  0.006  0.000  0.006
    5  0.000  0.094  0.000  0.094
    6  0.000  0.094  0.000  0.094
    7  0.000  0.092  0.000  0.093
    8  0.000  0.092  0.000  0.093
    9  0.000  0.094  0.000  0.094
   10  0.000  0.094  0.000  0.094
tot    0.003  0.571  0.001  0.576

band    34 # energy   -1.42733533 # occ.  2.00000000

ion      s      p      d    tot
    1  0.000  0.000  0.000  0.000
    2  0.000  0.000  0.000  0.000
    3  0.000  0.000  0.013  0.013
    4  0.000  0.000  0.013  0.013
    5  0.000  0.052  0.000  0.052
    6  0.000  0.052  0.000  0.052
    7  0.000  0.203  0.000  0.203
    8  0.000  0.203  0.000  0.203
    9  0.000  0.052  0.000  0.052
   10  0.000  0.052  0.000  0.052
tot    0.000  0.615  0.026  0.641

band    35 # energy   -1.42711971 # occ.  2.00000000

ion      s      p      d    tot
    1  0.000  0.000  0.000  0.000
    2  0.000  0.000  0.000  0.000
    3  0.000  0.000  0.013  0.013
    4  0.000  0.000  0.013  0.013
    5  0.000  0.153  0.000  0.153
    6  0.000  0.153  0.000  0.153
    7  0.000  0.001  0.000  0.001
    8  0.000  0.001  0.000  0.001
    9  0.000  0.153  0.000  0.153
   10  0.000  0.153  0.000  0.153
tot    0.000  0.615  0.026  0.642

band    36 # energy   -1.28113190 # occ.  2.00000000

ion      s      p      d    tot
    1  0.000  0.002  0.000  0.002
    2  0.000  0.002  0.000  0.002
    3  0.000  0.001  0.000  0.001
    4  0.000  0.001  0.000  0.001
    5  0.000  0.148  0.000  0.148
    6  0.000  0.148  0.000  0.148
    7  0.000  0.001  0.000  0.001
    8  0.000  0.001  0.000  0.001
    9  0.000  0.148  0.000  0.148
   10  0.000  0.148  0.000  0.148
tot    0.000  0.599  0.000  0.599

band    37 # energy   -1.26385975 # occ.  2.00000000

ion      s      p      d    tot
    1  0.000  0.002  0.000  0.002
    2  0.000  0.002  0.000  0.002
    3  0.000  0.001  0.000  0.001
    4  0.000  0.001  0.000  0.001
    5  0.000  0.051  0.000  0.051
    6  0.000  0.051  0.000  0.051
    7  0.000  0.195  0.000  0.195
    8  0.000  0.195  0.000  0.195
    9  0.000  0.051  0.000  0.051
   10  0.000  0.051  0.000  0.051
tot    0.000  0.601  0.000  0.601

band    38 # energy   -1.16770518 # occ.  2.00000000

ion      s      p      d    tot
    1  0.000  0.005  0.000  0.006
    2  0.000  0.005  0.000  0.006
    3  0.000  0.005  0.000  0.005
    4  0.000  0.005  0.000  0.005
    5  0.000  0.062  0.000  0.062
    6  0.000  0.062  0.000  0.062
    7  0.000  0.174  0.000  0.174
    8  0.000  0.174  0.000  0.174
    9  0.000  0.062  0.000  0.062
   10  0.000  0.062  0.000  0.062
tot    0.000  0.618  0.001  0.620

band    39 # energy   -1.16063107 # occ.  2.00000000

ion      s      p      d    tot
    1  0.000  0.005  0.000  0.005
    2  0.000  0.005  0.000  0.005
    3  0.000  0.005  0.000  0.005
    4  0.000  0.005  0.000  0.005
    5  0.000  0.136  0.000  0.137
    6  0.000  0.136  0.000  0.137
    7  0.000  0.027  0.000  0.027
    8  0.000  0.027  0.000  0.027
    9  0.000  0.136  0.000  0.137
   10  0.000  0.136  0.000  0.137
tot    0.000  0.617  0.001  0.619

band    40 # energy   -1.02195617 # occ.  2.00000000

ion      s      p      d    tot
    1  0.000  0.004  0.000  0.004
    2  0.000  0.004  0.000  0.004
    3  0.000  0.002  0.000  0.002
    4  0.000  0.002  0.000  0.002
    5  0.000  0.102  0.000  0.102
    6  0.000  0.102  0.000  0.102
    7  0.000  0.105  0.000  0.105
    8  0.000  0.105  0.000  0.105
    9  0.000  0.102  0.000  0.102
   10  0.000  0.102  0.000  0.102
tot    0.000  0.630  0.000  0.630

band    41 # energy   -0.89806840 # occ.  2.00000000

ion      s      p      d    tot
    1  0.000  0.000  0.001  0.001
    2  0.000  0.000  0.001  0.001
    3  0.000  0.000  0.001  0.001
    4  0.000  0.000  0.001  0.001
    5  0.000  0.082  0.000  0.082
    6  0.000  0.082  0.000  0.082
    7  0.000  0.149  0.000  0.149
    8  0.000  0.149  0.000  0.149
    9  0.000  0.082  0.000  0.082
   10  0.000  0.082  0.000  0.082
tot    0.000  0.626  0.003  0.629

band    42 # energy   -0.88969242 # occ.  2.00000000

ion      s      p      d    tot
    1  0.000  0.000  0.001  0.001
    2  0.000  0.000  0.001  0.001
    3  0.000  0.000  0.001  0.001
    4  0.000  0.000  0.001  0.001
    5  0.000  0.128  0.000  0.128
    6  0.000  0.128  0.000  0.128
    7  0.000  0.058  0.000  0.058
    8  0.000  0.058  0.000  0.058
    9  0.000  0.128  0.000  0.128
   10  0.000  0.128  0.000  0.128
tot    0.000  0.628  0.003  0.631

band    43 # energy   -0.84144370 # occ.  2.00000000

ion      s      p      d    tot
    1  0.001  0.000  0.001  0.001
    2  0.001  0.000  0.001  0.001
    3  0.007  0.000  0.000  0.007
    4  0.007  0.000  0.000  0.007
    5  0.000  0.102  0.000  0.102
    6  0.000  0.102  0.000  0.102
    7  0.000  0.106  0.000  0.107
    8  0.000  0.106  0.000  0.107
    9  0.000  0.102  0.000  0.102
   10  0.000  0.102  0.000  0.102
tot    0.017  0.619  0.002  0.638

band    44 # energy    0.58359974 # occ.  2.00000000

ion      s      p      d    tot
    1  0.000  0.000  0.000  0.000
    2  0.000  0.000  0.000  0.000
    3  0.130  0.000  0.000  0.130
    4  0.130  0.000  0.000  0.130
    5  0.000  0.086  0.000  0.086
    6  0.000  0.086  0.000  0.086
    7  0.000  0.087  0.000  0.087
    8  0.000  0.087  0.000  0.087
    9  0.000  0.086  0.000  0.086
   10  0.000  0.086  0.000  0.086
tot    0.259  0.519  0.001  0.779

band    45 # energy    2.74241510 # occ.  0.00000000

ion      s      p      d    tot
    1  0.000  0.000  0.003  0.003
    2  0.000  0.000  0.003  0.003
    3  0.000  0.174  0.000  0.174
    4  0.000  0.174  0.000  0.174
    5  0.008  0.004  0.004  0.016
    6  0.008  0.004  0.004  0.016
    7  0.006  0.004  0.004  0.014
    8  0.006  0.004  0.004  0.014
    9  0.008  0.004  0.004  0.016
   10  0.008  0.004  0.004  0.016
tot    0.043  0.373  0.030  0.446

band    46 # energy    2.84066003 # occ.  0.00000000

ion      s      p      d    tot
    1  0.000  0.000  0.001  0.001
    2  0.000  0.000  0.001  0.001
    3  0.000  0.188  0.000  0.188
    4  0.000  0.188  0.000  0.188
    5  0.012  0.002  0.006  0.020
    6  0.012  0.002  0.006  0.020
    7  0.000  0.001  0.003  0.004
    8  0.000  0.001  0.003  0.004
    9  0.012  0.002  0.006  0.020
   10  0.012  0.002  0.006  0.020
tot    0.047  0.387  0.032  0.466

band    47 # energy    2.86285793 # occ.  0.00000000

ion      s      p      d    tot
    1  0.000  0.000  0.001  0.001
    2  0.000  0.000  0.001  0.001
    3  0.000  0.187  0.000  0.187
    4  0.000  0.187  0.000  0.187
    5  0.003  0.002  0.004  0.009
    6  0.003  0.002  0.004  0.009
    7  0.017  0.004  0.007  0.027
    8  0.017  0.004  0.007  0.027
    9  0.003  0.002  0.004  0.009
   10  0.003  0.002  0.004  0.009
tot    0.047  0.388  0.032  0.466

band    48 # energy    4.74301978 # occ.  0.00000000

ion      s      p      d    tot
    1  0.022  0.000  0.001  0.023
    2  0.022  0.000  0.001  0.023
    3  0.004  0.000  0.000  0.004
    4  0.004  0.000  0.000  0.004
    5  0.010  0.000  0.002  0.012
    6  0.010  0.000  0.002  0.012
    7  0.009  0.001  0.002  0.012
    8  0.009  0.001  0.002  0.012
    9  0.010  0.000  0.002  0.012
   10  0.010  0.000  0.002  0.012
tot    0.111  0.003  0.013  0.127

band    49 # energy    5.84082642 # occ.  0.00000000

ion      s      p      d    tot
    1  0.000  0.000  0.060  0.060
    2  0.000  0.000  0.060  0.060
    3  0.000  0.000  0.000  0.000
    4  0.000  0.000  0.000  0.000
    5  0.001  0.005  0.006  0.012
    6  0.001  0.005  0.006  0.012
    7  0.005  0.000  0.001  0.007
    8  0.005  0.000  0.001  0.007
    9  0.001  0.005  0.006  0.012
   10  0.001  0.005  0.006  0.012
tot    0.015  0.019  0.148  0.182

band    50 # energy    5.90326272 # occ.  0.00000000

ion      s      p      d    tot
    1  0.000  0.000  0.060  0.060
    2  0.000  0.000  0.060  0.060
    3  0.000  0.000  0.000  0.000
    4  0.000  0.000  0.000  0.000
    5  0.004  0.002  0.003  0.009
    6  0.004  0.002  0.003  0.009
    7  0.000  0.008  0.008  0.015
    8  0.000  0.008  0.008  0.015
    9  0.004  0.002  0.003  0.009
   10  0.004  0.002  0.003  0.009
tot    0.016  0.022  0.148  0.186

band    51 # energy    6.20134495 # occ.  0.00000000

ion      s      p      d    tot
    1  0.000  0.000  0.000  0.000
    2  0.000  0.000  0.000  0.000
    3  0.000  0.190  0.000  0.190
    4  0.000  0.189  0.000  0.189
    5  0.000  0.041  0.002  0.043
    6  0.000  0.041  0.002  0.043
    7  0.000  0.040  0.002  0.041
    8  0.000  0.040  0.002  0.041
    9  0.000  0.041  0.002  0.043
   10  0.000  0.041  0.002  0.043
tot    0.000  0.624  0.011  0.635

band    52 # energy    6.51419386 # occ.  0.00000000

ion      s      p      d    tot
    1  0.032  0.000  0.000  0.032
    2  0.032  0.000  0.000  0.032
    3  0.000  0.000  0.000  0.000
    4  0.000  0.000  0.000  0.000
    5  0.000  0.001  0.008  0.009
    6  0.000  0.001  0.008  0.009
    7  0.000  0.002  0.008  0.010
    8  0.000  0.002  0.008  0.010
    9  0.000  0.001  0.008  0.009
   10  0.000  0.001  0.008  0.009
tot    0.063  0.010  0.047  0.120

band    53 # energy    6.56393569 # occ.  0.00000000

ion      s      p      d    tot
    1  0.000  0.002  0.066  0.068
    2  0.000  0.002  0.065  0.067
    3  0.000  0.000  0.008  0.008
    4  0.000  0.000  0.008  0.008
    5  0.000  0.001  0.009  0.010
    6  0.000  0.001  0.009  0.010
    7  0.000  0.003  0.007  0.010
    8  0.000  0.003  0.007  0.010
    9  0.000  0.001  0.009  0.010
   10  0.000  0.001  0.009  0.010
tot    0.001  0.014  0.195  0.210

band    54 # energy    6.56819929 # occ.  0.00000000

ion      s      p      d    tot
    1  0.000  0.002  0.064  0.065
    2  0.000  0.002  0.065  0.067
    3  0.000  0.000  0.008  0.008
    4  0.000  0.000  0.008  0.008
    5  0.000  0.002  0.008  0.011
    6  0.000  0.002  0.008  0.010
    7  0.000  0.000  0.009  0.009
    8  0.000  0.000  0.009  0.009
    9  0.000  0.003  0.008  0.011
   10  0.000  0.002  0.008  0.010
tot    0.001  0.013  0.195  0.209

band    55 # energy    6.68609153 # occ.  0.00000000

ion      s      p      d    tot
    1  0.000  0.000  0.068  0.068
    2  0.000  0.000  0.066  0.066
    3  0.000  0.004  0.009  0.013
    4  0.000  0.006  0.009  0.015
    5  0.000  0.002  0.008  0.010
    6  0.001  0.002  0.008  0.010
    7  0.001  0.004  0.007  0.011
    8  0.000  0.004  0.007  0.011
    9  0.000  0.004  0.007  0.012
   10  0.000  0.004  0.007  0.012
tot    0.003  0.030  0.196  0.228

band    56 # energy    6.69656360 # occ.  0.00000000

ion      s      p      d    tot
    1  0.000  0.000  0.053  0.053
    2  0.000  0.000  0.053  0.053
    3  0.000  0.063  0.000  0.063
    4  0.000  0.054  0.000  0.054
    5  0.001  0.022  0.004  0.027
    6  0.001  0.022  0.004  0.027
    7  0.000  0.035  0.001  0.037
    8  0.000  0.035  0.001  0.037
    9  0.003  0.006  0.007  0.016
   10  0.003  0.006  0.007  0.016
tot    0.010  0.243  0.131  0.384


 k-point     2 :    0.33333333 0.00000000 0.00000000     weight = 0.07407407

band     1 # energy  -20.89227361 # occ.  2.00000000

ion      s      p      d    tot
    1  0.448  0.000  0.000  0.448
    2  0.440  0.000  0.000  0.440
    3  0.000  0.000  0.000  0.000
    4  0.000  0.000  0.000  0.000
    5  0.000  0.000  0.000  0.000
    6  0.000  0.000  0.000  0.000
    7  0.000  0.000  0.000  0.000
    8  0.000  0.000  0.000  0.000
    9  0.000  0.000  0.000  0.000
   10  0.000  0.000  0.000  0.000
tot    0.888  0.000  0.000  0.888

band     2 # energy  -20.89049688 # occ.  2.00000000

ion      s      p      d    tot
    1  0.440  0.000  0.000  0.440
    2  0.448  0.000  0.000  0.448
    3  0.000  0.000  0.000  0.000
    4  0.000  0.000  0.000  0.000
    5  0.000  0.000  0.000  0.000
    6  0.000  0.000  0.000  0.000
    7  0.000  0.000  0.000  0.000
    8  0.000  0.000  0.000  0.000
    9  0.000  0.000  0.000  0.000
   10  0.000  0.000  0.000  0.000
tot    0.888  0.000  0.000  0.888

band     3 # energy  -16.38712511 # occ.  2.00000000

ion      s      p      d    tot
    1  0.000  0.000  0.000  0.000
    2  0.000  0.000  0.000  0.000
    3  0.000  0.000  0.465  0.465
    4  0.000  0.000  0.465  0.465
    5  0.008  0.000  0.000  0.008
    6  0.008  0.000  0.000  0.008
    7  0.000  0.000  0.000  0.000
    8  0.000  0.000  0.000  0.000
    9  0.008  0.000  0.000  0.008
   10  0.008  0.000  0.000  0.008
tot    0.031  0.001  0.931  0.963

band     4 # energy  -16.38685060 # occ.  2.00000000

ion      s      p      d    tot
    1  0.000  0.000  0.000  0.000
    2  0.000  0.000  0.000  0.000
    3  0.000  0.000  0.465  0.465
    4  0.000  0.000  0.465  0.465
    5  0.003  0.000  0.000  0.003
    6  0.003  0.000  0.000  0.003
    7  0.011  0.000  0.000  0.011
    8  0.011  0.000  0.000  0.011
    9  0.003  0.000  0.000  0.003
   10  0.003  0.000  0.000  0.003
tot    0.032  0.001  0.931  0.963

band     5 # energy  -16.33914337 # occ.  2.00000000

ion      s      p      d    tot
    1  0.000  0.000  0.000  0.000
    2  0.000  0.000  0.000  0.000
    3  0.000  0.000  0.478  0.478
    4  0.000  0.000  0.478  0.478
    5  0.003  0.000  0.000  0.003
    6  0.003  0.000  0.000  0.003
    7  0.000  0.000  0.000  0.000
    8  0.000  0.000  0.000  0.000
    9  0.003  0.000  0.000  0.003
   10  0.003  0.000  0.000  0.003
tot    0.012  0.002  0.957  0.970

band     6 # energy  -16.33868466 # occ.  2.00000000

ion      s      p      d    tot
    1  0.000  0.000  0.000  0.000
    2  0.000  0.000  0.000  0.000
    3  0.000  0.000  0.478  0.478
    4  0.000  0.000  0.478  0.478
    5  0.001  0.000  0.000  0.001
    6  0.001  0.000  0.000  0.001
    7  0.004  0.001  0.000  0.005
    8  0.004  0.001  0.000  0.005
    9  0.001  0.000  0.000  0.001
   10  0.001  0.000  0.000  0.001
tot    0.012  0.002  0.957  0.970

band     7 # energy  -16.24930460 # occ.  2.00000000

ion      s      p      d    tot
    1  0.000  0.000  0.000  0.000
    2  0.000  0.000  0.000  0.000
    3  0.000  0.000  0.489  0.489
    4  0.000  0.000  0.489  0.489
    5  0.000  0.000  0.000  0.000
    6  0.000  0.000  0.000  0.000
    7  0.000  0.000  0.000  0.000
    8  0.000  0.000  0.000  0.000
    9  0.000  0.000  0.000  0.000
   10  0.000  0.000  0.000  0.000
tot    0.000  0.000  0.977  0.978

band     8 # energy  -16.24853018 # occ.  2.00000000

ion      s      p      d    tot
    1  0.000  0.000  0.000  0.000
    2  0.000  0.000  0.000  0.000
    3  0.000  0.000  0.489  0.489
    4  0.000  0.000  0.489  0.489
    5  0.000  0.000  0.000  0.000
    6  0.000  0.000  0.000  0.000
    7  0.000  0.000  0.000  0.000
    8  0.000  0.000  0.000  0.000
    9  0.000  0.000  0.000  0.000
   10  0.000  0.000  0.000  0.000
tot    0.000  0.000  0.977  0.978

band     9 # energy  -16.23316281 # occ.  2.00000000

ion      s      p      d    tot
    1  0.000  0.000  0.000  0.000
    2  0.000  0.000  0.000  0.000
    3  0.000  0.000  0.489  0.489
    4  0.000  0.000  0.489  0.489