 running on   64 total cores
 distrk:  each k-point on   64 cores,    1 groups
 distr:  one band on    8 cores,    8 groups
 using from now: INCAR     
 vasp.5.4.4.18Apr17-6-g9f103f2a35 (build Jun 22 2020 09:27:21) complex           
 POSCAR found type information on POSCAR  Cs Pb Br
 POSCAR found :  3 types and      10 ions
 scaLAPACK will be used
 LDA part: xc-table for Pade appr. of Perdew
 POSCAR found type information on POSCAR  Cs Pb Br
 POSCAR found :  3 types and      10 ions
 POSCAR, INCAR and KPOINTS ok, starting setup
 FFT: planning ...
 WAVECAR not read
 WARNING: random wavefunctions but no delay for mixing, default for NELMDL
 entering main loop
       N       E                     dE             d eps       ncg     rms          rms(c)
DAV:   1     0.332371318301E+03    0.33237E+03   -0.28186E+04  1152   0.917E+02
DAV:   2    -0.295380959337E+03   -0.62775E+03   -0.60782E+03  1392   0.284E+02
DAV:   3    -0.374616426165E+03   -0.79235E+02   -0.78862E+02  1440   0.121E+02
DAV:   4    -0.377171173699E+03   -0.25547E+01   -0.25476E+01  1384   0.277E+01
DAV:   5    -0.377269643657E+03   -0.98470E-01   -0.98420E-01  1480   0.454E+00    0.507E+00
DAV:   6    -0.357454967847E+03    0.19815E+02   -0.58467E+00  1408   0.283E+01    0.360E+00
DAV:   7    -0.357338197458E+03    0.11677E+00   -0.20499E+00  1480   0.499E+00    0.180E+00
DAV:   8    -0.357381084656E+03   -0.42887E-01   -0.89208E-02  1312   0.166E+00    0.107E+00
DAV:   9    -0.357401607907E+03   -0.20523E-01   -0.38536E-02  1280   0.119E+00    0.243E-01
DAV:  10    -0.357401910065E+03   -0.30216E-03   -0.19747E-03  1544   0.319E-01    0.133E-01
DAV:  11    -0.357402879724E+03   -0.96966E-03   -0.12674E-03  1312   0.219E-01    0.622E-02
DAV:  12    -0.357402677488E+03    0.20224E-03   -0.24355E-04  1424   0.115E-01    0.157E-02
DAV:  13    -0.357402671481E+03    0.60068E-05   -0.25298E-05  1496   0.253E-02    0.294E-03
DAV:  14    -0.357402678635E+03   -0.71539E-05   -0.83437E-07   912   0.627E-03    0.105E-03
DAV:  15    -0.357402680745E+03   -0.21096E-05   -0.24523E-07   800   0.313E-03    0.614E-04
DAV:  16    -0.357402680183E+03    0.56186E-06   -0.85650E-08   792   0.184E-03
   1 F= -.35740268E+03 E0= -.35740268E+03  d E =-.375902E-53
Application 1865611 resources: utime ~3775s, stime ~58s, Rss ~66480, inblocks ~1422, outblocks ~33688
