CsPbBr3 cubic bulk                      
           1
     5.780290    5.780290   -0.179460
     5.960185   -0.001195   -5.946799
    -0.001195    5.960185   -5.946799
   Cs   Pb   Br
   2   2   6
Direct configuration=     1
   0.75000000  0.74835425  0.75164575
   0.25000000  0.25164575  0.24835425
   0.00000000  0.00000000  0.00000000
   0.50000000  0.50000000  0.50000000
   0.25514253  0.68643744  0.24497231
   0.74485747  0.31356256  0.75502769
   0.25000000  0.81722597  0.68277403
   0.75000000  0.18277403  0.31722597
   0.24485747  0.25502769  0.81356256
   0.75514253  0.74497231  0.18643744
