  20  20   1   0
  0.4035583E+02  0.8237116E-09  0.1166339E-08  0.8401100E-09  0.5000000E-15
   1.0000000000000000E-004
  CAR 
 CsPbBr3 cubic bulk                      
      8.58623219    -22.22230223  301      0.49899191      1.00000000
    -22.222  0.0000E+00  0.0000E+00
    -22.120  0.0000E+00  0.0000E+00
    -22.017  0.0000E+00  0.0000E+00
    -21.914  0.0000E+00  0.0000E+00
    -21.812  0.0000E+00  0.0000E+00
    -21.709  0.0000E+00  0.0000E+00
    -21.606  0.0000E+00  0.0000E+00
    -21.503  0.0000E+00  0.0000E+00
    -21.401  0.0000E+00  0.0000E+00
    -21.298  0.0000E+00  0.0000E+00
    -21.195  0.0000E+00  0.0000E+00
    -21.093  0.0000E+00  0.0000E+00
    -20.990  0.0000E+00  0.0000E+00
    -20.887  0.0000E+00  0.0000E+00
    -20.785  0.7790E+02  0.8000E+01
    -20.682  0.0000E+00  0.8000E+01
    -20.579  0.0000E+00  0.8000E+01
    -20.476  0.0000E+00  0.8000E+01
    -20.374  0.0000E+00  0.8000E+01
    -20.271  0.0000E+00  0.8000E+01
    -20.168  0.0000E+00  0.8000E+01
    -20.066  0.0000E+00  0.8000E+01
    -19.963  0.0000E+00  0.8000E+01
    -19.860  0.0000E+00  0.8000E+01
    -19.758  0.0000E+00  0.8000E+01
    -19.655  0.0000E+00  0.8000E+01
    -19.552  0.0000E+00  0.8000E+01
    -19.450  0.0000E+00  0.8000E+01
    -19.347  0.0000E+00  0.8000E+01
    -19.244  0.0000E+00  0.8000E+01
    -19.141  0.0000E+00  0.8000E+01
    -19.039  0.0000E+00  0.8000E+01
    -18.936  0.0000E+00  0.8000E+01
    -18.833  0.0000E+00  0.8000E+01
    -18.731  0.0000E+00  0.8000E+01
    -18.628  0.0000E+00  0.8000E+01
    -18.525  0.0000E+00  0.8000E+01
    -18.423  0.0000E+00  0.8000E+01
    -18.320  0.0000E+00  0.8000E+01
    -18.217  0.0000E+00  0.8000E+01
    -18.114  0.0000E+00  0.8000E+01
    -18.012  0.0000E+00  0.8000E+01
    -17.909  0.0000E+00  0.8000E+01
    -17.806  0.0000E+00  0.8000E+01
    -17.704  0.0000E+00  0.8000E+01
    -17.601  0.0000E+00  0.8000E+01
    -17.498  0.0000E+00  0.8000E+01
    -17.396  0.0000E+00  0.8000E+01
    -17.293  0.0000E+00  0.8000E+01
    -17.190  0.0000E+00  0.8000E+01
    -17.088  0.0000E+00  0.8000E+01
    -16.985  0.0000E+00  0.8000E+01
    -16.882  0.0000E+00  0.8000E+01
    -16.779  0.0000E+00  0.8000E+01
    -16.677  0.0000E+00  0.8000E+01
    -16.574  0.0000E+00  0.8000E+01
    -16.471  0.1559E+02  0.9601E+01
    -16.369  0.9087E+02  0.2400E+02
    -16.266  0.2337E+03  0.4800E+02
    -16.163  0.0000E+00  0.4800E+02
    -16.061  0.0000E+00  0.4800E+02
    -15.958  0.0000E+00  0.4800E+02
    -15.855  0.0000E+00  0.4800E+02
    -15.753  0.0000E+00  0.4800E+02
    -15.650  0.0000E+00  0.4800E+02
    -15.547  0.0000E+00  0.4800E+02
    -15.444  0.0000E+00  0.4800E+02
    -15.342  0.0000E+00  0.4800E+02
    -15.239  0.0000E+00  0.4800E+02
    -15.136  0.0000E+00  0.4800E+02
    -15.034  0.0000E+00  0.4800E+02
    -14.931  0.0000E+00  0.4800E+02
    -14.828  0.0000E+00  0.4800E+02
    -14.726  0.0000E+00  0.4800E+02
    -14.623  0.0000E+00  0.4800E+02
    -14.520  0.0000E+00  0.4800E+02
    -14.417  0.0000E+00  0.4800E+02
    -14.315  0.1130E+01  0.4812E+02
    -14.212  0.1563E+02  0.5016E+02
    -14.109  0.3026E+02  0.5411E+02
    -14.007  0.4533E+02  0.5888E+02
    -13.904  0.4436E+02  0.6444E+02
    -13.801  0.5061E+02  0.6975E+02
    -13.699  0.1190E+02  0.7200E+02
    -13.596  0.0000E+00  0.7200E+02
    -13.493  0.0000E+00  0.7200E+02
    -13.391  0.0000E+00  0.7200E+02
    -13.288  0.0000E+00  0.7200E+02
    -13.185  0.0000E+00  0.7200E+02
    -13.082  0.0000E+00  0.7200E+02
    -12.980  0.0000E+00  0.7200E+02
    -12.877  0.0000E+00  0.7200E+02
    -12.774  0.0000E+00  0.7200E+02
    -12.672  0.0000E+00  0.7200E+02
    -12.569  0.0000E+00  0.7200E+02
    -12.466  0.0000E+00  0.7200E+02
    -12.364  0.0000E+00  0.7200E+02
    -12.261  0.0000E+00  0.7200E+02
    -12.158  0.0000E+00  0.7200E+02
    -12.055  0.0000E+00  0.7200E+02
    -11.953  0.0000E+00  0.7200E+02
    -11.850  0.0000E+00  0.7200E+02
    -11.747  0.0000E+00  0.7200E+02
    -11.645  0.0000E+00  0.7200E+02
    -11.542  0.0000E+00  0.7200E+02
    -11.439  0.0000E+00  0.7200E+02
    -11.337  0.0000E+00  0.7200E+02
    -11.234  0.0000E+00  0.7200E+02
    -11.131  0.0000E+00  0.7200E+02
    -11.029  0.0000E+00  0.7200E+02
    -10.926  0.0000E+00  0.7200E+02
    -10.823  0.0000E+00  0.7200E+02
    -10.720  0.0000E+00  0.7200E+02
    -10.618  0.0000E+00  0.7200E+02
    -10.515  0.0000E+00  0.7200E+02
    -10.412  0.0000E+00  0.7200E+02
    -10.310  0.0000E+00  0.7200E+02
    -10.207  0.0000E+00  0.7200E+02
    -10.104  0.0000E+00  0.7200E+02
    -10.002  0.0000E+00  0.7200E+02
     -9.899  0.0000E+00  0.7200E+02
     -9.796  0.0000E+00  0.7200E+02
     -9.693  0.0000E+00  0.7200E+02
     -9.591  0.0000E+00  0.7200E+02
     -9.488  0.0000E+00  0.7200E+02
     -9.385  0.0000E+00  0.7200E+02
     -9.283  0.0000E+00  0.7200E+02
     -9.180  0.0000E+00  0.7200E+02
     -9.077  0.0000E+00  0.7200E+02
     -8.975  0.0000E+00  0.7200E+02
     -8.872  0.0000E+00  0.7200E+02
     -8.769  0.0000E+00  0.7200E+02
     -8.667  0.0000E+00  0.7200E+02
     -8.564  0.0000E+00  0.7200E+02
     -8.461  0.0000E+00  0.7200E+02
     -8.358  0.0000E+00  0.7200E+02
     -8.256  0.0000E+00  0.7200E+02
     -8.153  0.1082E+01  0.7211E+02
     -8.050  0.0000E+00  0.7211E+02
     -7.948  0.5121E+01  0.7264E+02
     -7.845  0.1083E+01  0.7289E+02
     -7.742  0.9916E+00  0.7332E+02
     -7.640  0.1082E+01  0.7422E+02
     -7.537  0.1298E+02  0.7556E+02
     -7.434  0.8652E+01  0.7644E+02
     -7.332  0.1067E+02  0.7754E+02
     -7.229  0.5764E+02  0.8370E+02
     -7.126  0.1255E+03  0.1028E+03
     -7.023  0.6970E-02  0.1028E+03
     -6.921  0.9879E-01  0.1032E+03
     -6.818  0.4328E+01  0.1039E+03
     -6.715  0.0000E+00  0.1039E+03
     -6.613  0.0000E+00  0.1039E+03
     -6.510  0.1082E+01  0.1040E+03
     -6.407  0.0000E+00  0.1040E+03
     -6.305  0.0000E+00  0.1040E+03
     -6.202  0.0000E+00  0.1040E+03
     -6.099  0.0000E+00  0.1040E+03
     -5.996  0.0000E+00  0.1040E+03
     -5.894  0.0000E+00  0.1040E+03
     -5.791  0.0000E+00  0.1040E+03
     -5.688  0.0000E+00  0.1040E+03
     -5.586  0.0000E+00  0.1040E+03
     -5.483  0.0000E+00  0.1040E+03
     -5.380  0.0000E+00  0.1040E+03
     -5.278  0.0000E+00  0.1040E+03
     -5.175  0.0000E+00  0.1040E+03
     -5.072  0.0000E+00  0.1040E+03
     -4.970  0.0000E+00  0.1040E+03
     -4.867  0.0000E+00  0.1040E+03
     -4.764  0.0000E+00  0.1040E+03
     -4.661  0.0000E+00  0.1040E+03
     -4.559  0.0000E+00  0.1040E+03
     -4.456  0.0000E+00  0.1040E+03
     -4.353  0.0000E+00  0.1040E+03
     -4.251  0.0000E+00  0.1040E+03
     -4.148  0.0000E+00  0.1040E+03
     -4.045  0.0000E+00  0.1040E+03
     -3.943  0.0000E+00  0.1040E+03
     -3.840  0.0000E+00  0.1040E+03
     -3.737  0.0000E+00  0.1040E+03
     -3.634  0.0000E+00  0.1040E+03
     -3.532  0.0000E+00  0.1040E+03
     -3.429  0.0000E+00  0.1040E+03
     -3.326  0.9704E+00  0.1041E+03
     -3.224  0.1194E+02  0.1054E+03
     -3.121  0.1620E+02  0.1080E+03
     -3.018  0.5840E+01  0.1087E+03
     -2.916  0.5531E+01  0.1095E+03
     -2.813  0.1516E+02  0.1111E+03
     -2.710  0.1513E+02  0.1131E+03
     -2.608  0.6492E+01  0.1140E+03
     -2.505  0.8753E+01  0.1149E+03
     -2.402  0.5946E+01  0.1162E+03
     -2.299  0.6501E+01  0.1180E+03
     -2.197  0.2480E+01  0.1185E+03
     -2.094  0.1861E+02  0.1212E+03
     -1.991  0.3040E+02  0.1252E+03
     -1.889  0.1084E+02  0.1270E+03
     -1.786  0.9974E+01  0.1281E+03
     -1.683  0.3043E+02  0.1313E+03
     -1.581  0.2488E+02  0.1346E+03
     -1.478  0.4077E+02  0.1387E+03
     -1.375  0.4279E+02  0.1443E+03
     -1.272  0.6151E+02  0.1529E+03
     -1.170  0.4761E+02  0.1592E+03
     -1.067  0.5301E+02  0.1656E+03
     -0.964  0.7573E+01  0.1680E+03
     -0.862  0.6642E+01  0.1687E+03
     -0.759  0.1623E+02  0.1710E+03
     -0.656  0.5966E+01  0.1716E+03
     -0.554  0.1295E+02  0.1733E+03
     -0.451  0.8656E+01  0.1742E+03
     -0.348  0.4328E+01  0.1747E+03
     -0.246  0.9267E-13  0.1747E+03
     -0.143  0.2975E+01  0.1750E+03
     -0.040  0.6762E+01  0.1757E+03
      0.063  0.0000E+00  0.1759E+03
      0.165  0.0000E+00  0.1759E+03
      0.268  0.0000E+00  0.1759E+03
      0.371  0.0000E+00  0.1759E+03
      0.473  0.1082E+01  0.1760E+03
      0.576  0.0000E+00  0.1760E+03
      0.679  0.0000E+00  0.1760E+03
      0.781  0.0000E+00  0.1760E+03
      0.884  0.0000E+00  0.1760E+03
      0.987  0.0000E+00  0.1760E+03
      1.089  0.0000E+00  0.1760E+03
      1.192  0.0000E+00  0.1760E+03
      1.295  0.0000E+00  0.1760E+03
      1.398  0.0000E+00  0.1760E+03
      1.500  0.0000E+00  0.1760E+03
      1.603  0.0000E+00  0.1760E+03
      1.706  0.0000E+00  0.1760E+03
      1.808  0.0000E+00  0.1760E+03
      1.911  0.0000E+00  0.1760E+03
      2.014  0.0000E+00  0.1760E+03
      2.116  0.0000E+00  0.1760E+03
      2.219  0.0000E+00  0.1760E+03
      2.322  0.0000E+00  0.1760E+03
      2.425  0.0000E+00  0.1760E+03
      2.527  0.0000E+00  0.1760E+03
      2.630  0.0000E+00  0.1760E+03
      2.733  0.2437E+00  0.1760E+03
      2.835  0.1306E+01  0.1762E+03
      2.938  0.1972E+00  0.1764E+03
      3.041  0.8644E+01  0.1777E+03
      3.143  0.5410E+01  0.1782E+03
      3.246  0.9787E+01  0.1792E+03
      3.349  0.2336E+01  0.1799E+03
      3.451  0.4328E+01  0.1806E+03
      3.554  0.2164E+01  0.1808E+03
      3.657  0.7748E+01  0.1816E+03
      3.760  0.3195E+01  0.1821E+03
      3.862  0.1246E+02  0.1837E+03
      3.965  0.1617E+01  0.1842E+03
      4.068  0.9089E+01  0.1854E+03
      4.170  0.6602E-04  0.1856E+03
      4.273  0.4328E+01  0.1860E+03
      4.376  0.2164E+01  0.1862E+03
      4.478  0.7442E+01  0.1870E+03
      4.581  0.8636E+01  0.1880E+03
      4.684  0.1840E-01  0.1880E+03
      4.787  0.8656E+01  0.1898E+03
      4.889  0.6161E+01  0.1904E+03
      4.992  0.1877E+01  0.1910E+03
      5.095  0.1547E+02  0.1926E+03
      5.197  0.5622E+00  0.1931E+03
      5.300  0.8965E+01  0.1944E+03
      5.403  0.4328E+01  0.1952E+03
      5.505  0.9361E-01  0.1952E+03
      5.608  0.6391E+01  0.1961E+03
      5.711  0.2162E+01  0.1963E+03
      5.813  0.1372E+02  0.1977E+03
      5.916  0.6493E+01  0.1988E+03
      6.019  0.9321E+01  0.1998E+03
      6.122  0.7357E+01  0.2012E+03
      6.224  0.1414E+02  0.2027E+03
      6.327  0.6766E+01  0.2048E+03
      6.430  0.1731E+02  0.2070E+03
      6.532  0.2164E+02  0.2094E+03
      6.635  0.2567E+02  0.2122E+03
      6.738  0.2908E+02  0.2155E+03
      6.840  0.1762E+02  0.2180E+03
      6.943  0.4166E+02  0.2228E+03
      7.046  0.4328E+01  0.2236E+03
      7.149  0.2777E-06  0.2236E+03
      7.251  0.4328E+01  0.2240E+03
      7.354  0.0000E+00  0.2240E+03
      7.457  0.0000E+00  0.2240E+03
      7.559  0.0000E+00  0.2240E+03
      7.662  0.0000E+00  0.2240E+03
      7.765  0.0000E+00  0.2240E+03
      7.867  0.0000E+00  0.2240E+03
      7.970  0.0000E+00  0.2240E+03
      8.073  0.0000E+00  0.2240E+03
      8.175  0.0000E+00  0.2240E+03
      8.278  0.0000E+00  0.2240E+03
      8.381  0.0000E+00  0.2240E+03
      8.484  0.0000E+00  0.2240E+03
      8.586  0.0000E+00  0.2240E+03
      8.58623219    -22.22230223  301      0.49899191      1.00000000
    -22.222  0.0000E+00  0.0000E+00  0.0000E+00
    -22.120  0.0000E+00  0.0000E+00  0.0000E+00
    -22.017  0.0000E+00  0.0000E+00  0.0000E+00
    -21.914  0.0000E+00  0.0000E+00  0.0000E+00
    -21.812  0.0000E+00  0.0000E+00  0.0000E+00
    -21.709  0.0000E+00  0.0000E+00  0.0000E+00
    -21.606  0.0000E+00  0.0000E+00  0.0000E+00
    -21.503  0.0000E+00  0.0000E+00  0.0000E+00
    -21.401  0.0000E+00  0.0000E+00  0.0000E+00
    -21.298  0.0000E+00  0.0000E+00  0.0000E+00
    -21.195  0.0000E+00  0.0000E+00  0.0000E+00
    -21.093  0.0000E+00  0.0000E+00  0.0000E+00
    -20.990  0.0000E+00  0.0000E+00  0.0000E+00
    -20.887  0.0000E+00  0.0000E+00  0.0000E+00
    -20.785  0.1729E+02  0.2739E-05  0.2881E-05
    -20.682  0.0000E+00  0.0000E+00  0.0000E+00
    -20.579  0.0000E+00  0.0000E+00  0.0000E+00
    -20.476  0.0000E+00  0.0000E+00  0.0000E+00
    -20.374  0.0000E+00  0.0000E+00  0.0000E+00
    -20.271  0.0000E+00  0.0000E+00  0.0000E+00
    -20.168  0.0000E+00  0.0000E+00  0.0000E+00
    -20.066  0.0000E+00  0.0000E+00  0.0000E+00
    -19.963  0.0000E+00  0.0000E+00  0.0000E+00
    -19.860  0.0000E+00  0.0000E+00  0.0000E+00
    -19.758  0.0000E+00  0.0000E+00  0.0000E+00
    -19.655  0.0000E+00  0.0000E+00  0.0000E+00
    -19.552  0.0000E+00  0.0000E+00  0.0000E+00
    -19.450  0.0000E+00  0.0000E+00  0.0000E+00
    -19.347  0.0000E+00  0.0000E+00  0.0000E+00
    -19.244  0.0000E+00  0.0000E+00  0.0000E+00
    -19.141  0.0000E+00  0.0000E+00  0.0000E+00
    -19.039  0.0000E+00  0.0000E+00  0.0000E+00
    -18.936  0.0000E+00  0.0000E+00  0.0000E+00
    -18.833  0.0000E+00  0.0000E+00  0.0000E+00
    -18.731  0.0000E+00  0.0000E+00  0.0000E+00
    -18.628  0.0000E+00  0.0000E+00  0.0000E+00
    -18.525  0.0000E+00  0.0000E+00  0.0000E+00
    -18.423  0.0000E+00  0.0000E+00  0.0000E+00
    -18.320  0.0000E+00  0.0000E+00  0.0000E+00
    -18.217  0.0000E+00  0.0000E+00  0.0000E+00
    -18.114  0.0000E+00  0.0000E+00  0.0000E+00
    -18.012  0.0000E+00  0.0000E+00  0.0000E+00
    -17.909  0.0000E+00  0.0000E+00  0.0000E+00
    -17.806  0.0000E+00  0.0000E+00  0.0000E+00
    -17.704  0.0000E+00  0.0000E+00  0.0000E+00
    -17.601  0.0000E+00  0.0000E+00  0.0000E+00
    -17.498  0.0000E+00  0.0000E+00  0.0000E+00
    -17.396  0.0000E+00  0.0000E+00  0.0000E+00
    -17.293  0.0000E+00  0.0000E+00  0.0000E+00
    -17.190  0.0000E+00  0.0000E+00  0.0000E+00
    -17.088  0.0000E+00  0.0000E+00  0.0000E+00
    -16.985  0.0000E+00  0.0000E+00  0.0000E+00
    -16.882  0.0000E+00  0.0000E+00  0.0000E+00
    -16.779  0.0000E+00  0.0000E+00  0.0000E+00
    -16.677  0.0000E+00  0.0000E+00  0.0000E+00
    -16.574  0.0000E+00  0.0000E+00  0.0000E+00
    -16.471  0.4099E-04  0.1747E-04  0.3492E-05
    -16.369  0.3272E-04  0.5943E-04  0.6619E-05
    -16.266  0.6425E-04  0.3551E-04  0.4118E-05
    -16.163  0.0000E+00  0.0000E+00  0.0000E+00
    -16.061  0.0000E+00  0.0000E+00  0.0000E+00
    -15.958  0.0000E+00  0.0000E+00  0.0000E+00
    -15.855  0.0000E+00  0.0000E+00  0.0000E+00
    -15.753  0.0000E+00  0.0000E+00  0.0000E+00
    -15.650  0.0000E+00  0.0000E+00  0.0000E+00
    -15.547  0.0000E+00  0.0000E+00  0.0000E+00
    -15.444  0.0000E+00  0.0000E+00  0.0000E+00
    -15.342  0.0000E+00  0.0000E+00  0.0000E+00
    -15.239  0.0000E+00  0.0000E+00  0.0000E+00
    -15.136  0.0000E+00  0.0000E+00  0.0000E+00
    -15.034  0.0000E+00  0.0000E+00  0.0000E+00
    -14.931  0.0000E+00  0.0000E+00  0.0000E+00
    -14.828  0.0000E+00  0.0000E+00  0.0000E+00
    -14.726  0.0000E+00  0.0000E+00  0.0000E+00
    -14.623  0.0000E+00  0.0000E+00  0.0000E+00
    -14.520  0.0000E+00  0.0000E+00  0.0000E+00
    -14.417  0.0000E+00  0.0000E+00  0.0000E+00
    -14.315  0.4452E-03  0.7195E-05  0.6780E-06
    -14.212  0.2796E-02  0.2163E-02  0.4575E-04
    -14.109  0.8446E-03  0.5027E-02  0.2180E-03
    -14.007  0.2576E-02  0.5898E-02  0.4705E-03
    -13.904  0.7635E-03  0.3619E-02  0.3794E-03
    -13.801  0.1254E-02  0.3622E-02  0.5272E-03
    -13.699  0.5197E-03  0.9805E-03  0.9318E-04
    -13.596  0.0000E+00  0.0000E+00  0.0000E+00
    -13.493  0.0000E+00  0.0000E+00  0.0000E+00
    -13.391  0.0000E+00  0.0000E+00  0.0000E+00
    -13.288  0.0000E+00  0.0000E+00  0.0000E+00
    -13.185  0.0000E+00  0.0000E+00  0.0000E+00
    -13.082  0.0000E+00  0.0000E+00  0.0000E+00
    -12.980  0.0000E+00  0.0000E+00  0.0000E+00
    -12.877  0.0000E+00  0.0000E+00  0.0000E+00
    -12.774  0.0000E+00  0.0000E+00  0.0000E+00
    -12.672  0.0000E+00  0.0000E+00  0.0000E+00
    -12.569  0.0000E+00  0.0000E+00  0.0000E+00
    -12.466  0.0000E+00  0.0000E+00  0.0000E+00
    -12.364  0.0000E+00  0.0000E+00  0.0000E+00
    -12.261  0.0000E+00  0.0000E+00  0.0000E+00
    -12.158  0.0000E+00  0.0000E+00  0.0000E+00
    -12.055  0.0000E+00  0.0000E+00  0.0000E+00
    -11.953  0.0000E+00  0.0000E+00  0.0000E+00
    -11.850  0.0000E+00  0.0000E+00  0.0000E+00
    -11.747  0.0000E+00  0.0000E+00  0.0000E+00
    -11.645  0.0000E+00  0.0000E+00  0.0000E+00
    -11.542  0.0000E+00  0.0000E+00  0.0000E+00
    -11.439  0.0000E+00  0.0000E+00  0.0000E+00
    -11.337  0.0000E+00  0.0000E+00  0.0000E+00
    -11.234  0.0000E+00  0.0000E+00  0.0000E+00
    -11.131  0.0000E+00  0.0000E+00  0.0000E+00
    -11.029  0.0000E+00  0.0000E+00  0.0000E+00
    -10.926  0.0000E+00  0.0000E+00  0.0000E+00
    -10.823  0.0000E+00  0.0000E+00  0.0000E+00
    -10.720  0.0000E+00  0.0000E+00  0.0000E+00
    -10.618  0.0000E+00  0.0000E+00  0.0000E+00
    -10.515  0.0000E+00  0.0000E+00  0.0000E+00
    -10.412  0.0000E+00  0.0000E+00  0.0000E+00
    -10.310  0.0000E+00  0.0000E+00  0.0000E+00
    -10.207  0.0000E+00  0.0000E+00  0.0000E+00
    -10.104  0.0000E+00  0.0000E+00  0.0000E+00
    -10.002  0.0000E+00  0.0000E+00  0.0000E+00
     -9.899  0.0000E+00  0.0000E+00  0.0000E+00
     -9.796  0.0000E+00  0.0000E+00  0.0000E+00
     -9.693  0.0000E+00  0.0000E+00  0.0000E+00
     -9.591  0.0000E+00  0.0000E+00  0.0000E+00
     -9.488  0.0000E+00  0.0000E+00  0.0000E+00
     -9.385  0.0000E+00  0.0000E+00  0.0000E+00
     -9.283  0.0000E+00  0.0000E+00  0.0000E+00
     -9.180  0.0000E+00  0.0000E+00  0.0000E+00
     -9.077  0.0000E+00  0.0000E+00  0.0000E+00
     -8.975  0.0000E+00  0.0000E+00  0.0000E+00
     -8.872  0.0000E+00  0.0000E+00  0.0000E+00
     -8.769  0.0000E+00  0.0000E+00  0.0000E+00
     -8.667  0.0000E+00  0.0000E+00  0.0000E+00
     -8.564  0.0000E+00  0.0000E+00  0.0000E+00
     -8.461  0.0000E+00  0.0000E+00  0.0000E+00
     -8.358  0.0000E+00  0.0000E+00  0.0000E+00
     -8.256  0.0000E+00  0.0000E+00  0.0000E+00
     -8.153  0.4025E-17  0.1204E-03  0.3766E-05
     -8.050  0.0000E+00  0.0000E+00  0.0000E+00
     -7.948  0.6441E-06  0.4025E-02  0.1804E-04
     -7.845  0.9271E-17  0.3726E-03  0.5314E-05
     -7.742  0.9852E-06  0.2509E-02  0.4169E-05
     -7.640  0.2167E-05  0.6398E-02  0.2176E-05
     -7.537  0.9498E-05  0.6139E-01  0.4944E-04
     -7.434  0.1432E-04  0.1010E+00  0.4300E-04
     -7.332  0.3430E-04  0.5037E+00  0.3472E-04
     -7.229  0.4503E-04  0.1021E+02  0.4564E-04
     -7.126  0.3527E-04  0.2286E+02  0.7032E-04
     -7.023  0.4295E-07  0.1857E-03  0.4264E-07
     -6.921  0.7651E-06  0.3501E-03  0.6504E-06
     -6.818  0.4431E-04  0.2619E-01  0.1504E-04
     -6.715  0.0000E+00  0.0000E+00  0.0000E+00
     -6.613  0.0000E+00  0.0000E+00  0.0000E+00
     -6.510  0.1398E-04  0.1923E-02  0.1726E-05
     -6.407  0.0000E+00  0.0000E+00  0.0000E+00
     -6.305  0.0000E+00  0.0000E+00  0.0000E+00
     -6.202  0.0000E+00  0.0000E+00  0.0000E+00
     -6.099  0.0000E+00  0.0000E+00  0.0000E+00
     -5.996  0.0000E+00  0.0000E+00  0.0000E+00
     -5.894  0.0000E+00  0.0000E+00  0.0000E+00
     -5.791  0.0000E+00  0.0000E+00  0.0000E+00
     -5.688  0.0000E+00  0.0000E+00  0.0000E+00
     -5.586  0.0000E+00  0.0000E+00  0.0000E+00
     -5.483  0.0000E+00  0.0000E+00  0.0000E+00
     -5.380  0.0000E+00  0.0000E+00  0.0000E+00
     -5.278  0.0000E+00  0.0000E+00  0.0000E+00
     -5.175  0.0000E+00  0.0000E+00  0.0000E+00
     -5.072  0.0000E+00  0.0000E+00  0.0000E+00
     -4.970  0.0000E+00  0.0000E+00  0.0000E+00
     -4.867  0.0000E+00  0.0000E+00  0.0000E+00
     -4.764  0.0000E+00  0.0000E+00  0.0000E+00
     -4.661  0.0000E+00  0.0000E+00  0.0000E+00
     -4.559  0.0000E+00  0.0000E+00  0.0000E+00
     -4.456  0.0000E+00  0.0000E+00  0.0000E+00
     -4.353  0.0000E+00  0.0000E+00  0.0000E+00
     -4.251  0.0000E+00  0.0000E+00  0.0000E+00
     -4.148  0.0000E+00  0.0000E+00  0.0000E+00
     -4.045  0.0000E+00  0.0000E+00  0.0000E+00
     -3.943  0.0000E+00  0.0000E+00  0.0000E+00
     -3.840  0.0000E+00  0.0000E+00  0.0000E+00
     -3.737  0.0000E+00  0.0000E+00  0.0000E+00
     -3.634  0.0000E+00  0.0000E+00  0.0000E+00
     -3.532  0.0000E+00  0.0000E+00  0.0000E+00
     -3.429  0.0000E+00  0.0000E+00  0.0000E+00
     -3.326  0.6529E-05  0.2049E-02  0.4400E-04
     -3.224  0.8511E-05  0.1291E-01  0.1093E-02
     -3.121  0.9511E-04  0.1266E-01  0.1544E-02
     -3.018  0.5916E-05  0.1687E-02  0.3621E-03
     -2.916  0.9371E-04  0.8257E-02  0.3185E-03
     -2.813  0.3012E-03  0.1757E-01  0.1196E-02
     -2.710  0.9375E-04  0.1546E-01  0.1175E-02
     -2.608  0.4488E-16  0.1287E-02  0.5085E-03
     -2.505  0.3104E-03  0.1514E-01  0.9815E-03
     -2.402  0.9627E-04  0.4485E-02  0.5833E-03
     -2.299  0.9882E-03  0.4719E-02  0.9702E-03
     -2.197  0.2653E-03  0.3588E-02  0.8806E-04
     -2.094  0.1124E-01  0.1356E-01  0.2526E-02
     -1.991  0.1580E-01  0.4576E-01  0.5405E-02
     -1.889  0.4627E-02  0.3540E-01  0.1598E-02
     -1.786  0.1117E-02  0.5849E-01  0.2421E-02
     -1.683  0.2479E-02  0.1259E+00  0.1038E-01
     -1.581  0.1063E-02  0.6779E-01  0.9608E-02
     -1.478  0.3793E-02  0.1008E+00  0.1395E-01
     -1.375  0.5061E-02  0.6015E-01  0.1886E-01
     -1.272  0.6626E-02  0.8285E-01  0.1744E-01
     -1.170  0.3060E-02  0.8035E-01  0.1406E-01
     -1.067  0.2410E-02  0.7437E-01  0.1273E-01
     -0.964  0.2303E-03  0.8300E-02  0.2577E-02
     -0.862  0.1036E-03  0.8888E-02  0.2535E-02
     -0.759  0.1034E-02  0.2141E-01  0.4516E-02
     -0.656  0.4077E-03  0.3270E-02  0.6691E-03
     -0.554  0.3968E-03  0.4771E-02  0.1292E-02
     -0.451  0.1985E-03  0.1602E-02  0.6169E-03
     -0.348  0.2055E-15  0.3022E-02  0.1778E-04
     -0.246  0.3862E-18  0.1953E-16  0.1531E-16
     -0.143  0.4509E-05  0.4505E-03  0.3299E-03
     -0.040  0.1700E-05  0.3567E-03  0.8723E-03
      0.063  0.0000E+00  0.0000E+00  0.0000E+00
      0.165  0.0000E+00  0.0000E+00  0.0000E+00
      0.268  0.0000E+00  0.0000E+00  0.0000E+00
      0.371  0.0000E+00  0.0000E+00  0.0000E+00
      0.473  0.2881E-17  0.2223E-05  0.3060E-04
      0.576  0.0000E+00  0.0000E+00  0.0000E+00
      0.679  0.0000E+00  0.0000E+00  0.0000E+00
      0.781  0.0000E+00  0.0000E+00  0.0000E+00
      0.884  0.0000E+00  0.0000E+00  0.0000E+00
      0.987  0.0000E+00  0.0000E+00  0.0000E+00
      1.089  0.0000E+00  0.0000E+00  0.0000E+00
      1.192  0.0000E+00  0.0000E+00  0.0000E+00
      1.295  0.0000E+00  0.0000E+00  0.0000E+00
      1.398  0.0000E+00  0.0000E+00  0.0000E+00
      1.500  0.0000E+00  0.0000E+00  0.0000E+00
      1.603  0.0000E+00  0.0000E+00  0.0000E+00
      1.706  0.0000E+00  0.0000E+00  0.0000E+00
      1.808  0.0000E+00  0.0000E+00  0.0000E+00
      1.911  0.0000E+00  0.0000E+00  0.0000E+00
      2.014  0.0000E+00  0.0000E+00  0.0000E+00
      2.116  0.0000E+00  0.0000E+00  0.0000E+00
      2.219  0.0000E+00  0.0000E+00  0.0000E+00
      2.322  0.0000E+00  0.0000E+00  0.0000E+00
      2.425  0.0000E+00  0.0000E+00  0.0000E+00
      2.527  0.0000E+00  0.0000E+00  0.0000E+00
      2.630  0.0000E+00  0.0000E+00  0.0000E+00
      2.733  0.2186E-17  0.5858E-05  0.2752E-03
      2.835  0.3532E-05  0.2631E-04  0.7205E-03
      2.938  0.1726E-04  0.1945E-04  0.1123E-03
      3.041  0.2899E-03  0.2931E-02  0.3252E-02
      3.143  0.2559E-03  0.1016E-02  0.2708E-02
      3.246  0.4090E-03  0.4513E-02  0.2958E-02
      3.349  0.1327E-03  0.1319E-02  0.3771E-03
      3.451  0.5545E-03  0.1435E-02  0.1795E-02
      3.554  0.4179E-09  0.2941E-03  0.2380E-02
      3.657  0.7159E-04  0.1777E-02  0.5998E-02
      3.760  0.5180E-04  0.5927E-03  0.3006E-02
      3.862  0.1070E-02  0.1759E-02  0.6998E-02
      3.965  0.3899E-03  0.1038E-03  0.1147E-02
      4.068  0.1533E-03  0.2643E-02  0.3371E-02
      4.170  0.5967E-09  0.2163E-07  0.1579E-07
      4.273  0.3912E-04  0.1418E-02  0.1035E-02
      4.376  0.1371E-05  0.1838E-03  0.3524E-02
      4.478  0.6937E-03  0.2238E-02  0.9349E-02
      4.581  0.6133E-04  0.2891E-02  0.6991E-02
      4.684  0.3266E-05  0.4703E-05  0.9026E-05
      4.787  0.2776E-02  0.3908E-02  0.4554E-02
      4.889  0.1232E-01  0.6055E-03  0.7584E-02
      4.992  0.4485E-11  0.1383E-02  0.1708E-02
      5.095  0.1328E-01  0.7389E-02  0.1607E-01
      5.197  0.2783E-07  0.1767E-03  0.2858E-03
      5.300  0.1653E-01  0.6580E-02  0.5169E-02
      5.403  0.6397E-03  0.5461E-03  0.4929E-02
      5.505  0.4997E-04  0.2918E-05  0.2336E-03
      5.608  0.1854E-01  0.4613E-02  0.1449E-01
      5.711  0.4483E-09  0.2612E-03  0.2039E-02
      5.813  0.2454E-01  0.5323E-02  0.2824E-01
      5.916  0.6822E-04  0.6898E-03  0.1172E-01
      6.019  0.3281E-01  0.5665E-02  0.5220E-01
      6.122  0.3206E-01  0.7777E-02  0.5719E-01
      6.224  0.6012E-02  0.4545E-02  0.1257E+00
      6.327  0.3104E-01  0.3789E-02  0.1288E+00
      6.430  0.2493E-01  0.2523E-01  0.4351E+00
      6.532  0.5277E-01  0.1551E-01  0.4675E+00
      6.635  0.4835E-01  0.4611E-01  0.7856E+00
      6.738  0.2584E-01  0.7126E-01  0.7933E+00
      6.840  0.3333E-01  0.2462E-01  0.4477E+00
      6.943  0.2608E-01  0.9858E-01  0.1293E+01
      7.046  0.4790E-02  0.1315E-01  0.1267E+00
      7.149  0.2664E-09  0.4243E-09  0.5272E-08
      7.251  0.4151E-02  0.6612E-02  0.8216E-01
      7.354  0.0000E+00  0.0000E+00  0.0000E+00
      7.457  0.0000E+00  0.0000E+00  0.0000E+00
      7.559  0.0000E+00  0.0000E+00  0.0000E+00
      7.662  0.0000E+00  0.0000E+00  0.0000E+00
      7.765  0.0000E+00  0.0000E+00  0.0000E+00
      7.867  0.0000E+00  0.0000E+00  0.0000E+00
      7.970  0.0000E+00  0.0000E+00  0.0000E+00
      8.073  0.0000E+00  0.0000E+00  0.0000E+00
      8.175  0.0000E+00  0.0000E+00  0.0000E+00
      8.278  0.0000E+00  0.0000E+00  0.0000E+00
      8.381  0.0000E+00  0.0000E+00  0.0000E+00
      8.484  0.0000E+00  0.0000E+00  0.0000E+00
      8.586  0.0000E+00  0.0000E+00  0.0000E+00
      8.58623219    -22.22230223  301      0.49899191      1.00000000
    -22.222  0.0000E+00  0.0000E+00  0.0000E+00
    -22.120  0.0000E+00  0.0000E+00  0.0000E+00
    -22.017  0.0000E+00  0.0000E+00  0.0000E+00
    -21.914  0.0000E+00  0.0000E+00  0.0000E+00
    -21.812  0.0000E+00  0.0000E+00  0.0000E+00
    -21.709  0.0000E+00  0.0000E+00  0.0000E+00
    -21.606  0.0000E+00  0.0000E+00  0.0000E+00
    -21.503  0.0000E+00  0.0000E+00  0.0000E+00
    -21.401  0.0000E+00  0.0000E+00  0.0000E+00
    -21.298  0.0000E+00  0.0000E+00  0.0000E+00
    -21.195  0.0000E+00  0.0000E+00  0.0000E+00
    -21.093  0.0000E+00  0.0000E+00  0.0000E+00
    -20.990  0.0000E+00  0.0000E+00  0.0000E+00
    -20.887  0.0000E+00  0.0000E+00  0.0000E+00
    -20.785  0.1729E+02  0.2738E-05  0.2883E-05
    -20.682  0.0000E+00  0.0000E+00  0.0000E+00
    -20.579  0.0000E+00  0.0000E+00  0.0000E+00
    -20.476  0.0000E+00  0.0000E+00  0.0000E+00
    -20.374  0.0000E+00  0.0000E+00  0.0000E+00
    -20.271  0.0000E+00  0.0000E+00  0.0000E+00
    -20.168  0.0000E+00  0.0000E+00  0.0000E+00
    -20.066  0.0000E+00  0.0000E+00  0.0000E+00
    -19.963  0.0000E+00  0.0000E+00  0.0000E+00
    -19.860  0.0000E+00  0.0000E+00  0.0000E+00
    -19.758  0.0000E+00  0.0000E+00  0.0000E+00
    -19.655  0.0000E+00  0.0000E+00  0.0000E+00
    -19.552  0.0000E+00  0.0000E+00  0.0000E+00
    -19.450  0.0000E+00  0.0000E+00  0.0000E+00
    -19.347  0.0000E+00  0.0000E+00  0.0000E+00
    -19.244  0.0000E+00  0.0000E+00  0.0000E+00
    -19.141  0.0000E+00  0.0000E+00  0.0000E+00
    -19.039  0.0000E+00  0.0000E+00  0.0000E+00
    -18.936  0.0000E+00  0.0000E+00  0.0000E+00
    -18.833  0.0000E+00  0.0000E+00  0.0000E+00
    -18.731  0.0000E+00  0.0000E+00  0.0000E+00
    -18.628  0.0000E+00  0.0000E+00  0.0000E+00
    -18.525  0.0000E+00  0.0000E+00  0.0000E+00
    -18.423  0.0000E+00  0.0000E+00  0.0000E+00
    -18.320  0.0000E+00  0.0000E+00  0.0000E+00
    -18.217  0.0000E+00  0.0000E+00  0.0000E+00
    -18.114  0.0000E+00  0.0000E+00  0.0000E+00
    -18.012  0.0000E+00  0.0000E+00  0.0000E+00
    -17.909  0.0000E+00  0.0000E+00  0.0000E+00
    -17.806  0.0000E+00  0.0000E+00  0.0000E+00
    -17.704  0.0000E+00  0.0000E+00  0.0000E+00
    -17.601  0.0000E+00  0.0000E+00  0.0000E+00
    -17.498  0.0000E+00  0.0000E+00  0.0000E+00
    -17.396  0.0000E+00  0.0000E+00  0.0000E+00
    -17.293  0.0000E+00  0.0000E+00  0.0000E+00
    -17.190  0.0000E+00  0.0000E+00  0.0000E+00
    -17.088  0.0000E+00  0.0000E+00  0.0000E+00
    -16.985  0.0000E+00  0.0000E+00  0.0000E+00
    -16.882  0.0000E+00  0.0000E+00  0.0000E+00
    -16.779  0.0000E+00  0.0000E+00  0.0000E+00
    -16.677  0.0000E+00  0.0000E+00  0.0000E+00
    -16.574  0.0000E+00  0.0000E+00  0.0000E+00
    -16.471  0.3380E-04  0.1666E-04  0.3422E-05
    -16.369  0.2543E-04  0.6676E-04  0.8641E-05
    -16.266  0.6446E-04  0.3558E-04  0.4126E-05
    -16.163  0.0000E+00  0.0000E+00  0.0000E+00
    -16.061  0.0000E+00  0.0000E+00  0.0000E+00
    -15.958  0.0000E+00  0.0000E+00  0.0000E+00
    -15.855  0.0000E+00  0.0000E+00  0.0000E+00
    -15.753  0.0000E+00  0.0000E+00  0.0000E+00
    -15.650  0.0000E+00  0.0000E+00  0.0000E+00
    -15.547  0.0000E+00  0.0000E+00  0.0000E+00
    -15.444  0.0000E+00  0.0000E+00  0.0000E+00
    -15.342  0.0000E+00  0.0000E+00  0.0000E+00
    -15.239  0.0000E+00  0.0000E+00  0.0000E+00
    -15.136  0.0000E+00  0.0000E+00  0.0000E+00
    -15.034  0.0000E+00  0.0000E+00  0.0000E+00
    -14.931  0.0000E+00  0.0000E+00  0.0000E+00
    -14.828  0.0000E+00  0.0000E+00  0.0000E+00
    -14.726  0.0000E+00  0.0000E+00  0.0000E+00
    -14.623  0.0000E+00  0.0000E+00  0.0000E+00
    -14.520  0.0000E+00  0.0000E+00  0.0000E+00
    -14.417  0.0000E+00  0.0000E+00  0.0000E+00
    -14.315  0.4452E-03  0.7195E-05  0.6780E-06
    -14.212  0.3020E-02  0.1719E-02  0.5295E-04
    -14.109  0.8210E-03  0.6508E-02  0.2283E-03
    -14.007  0.1618E-02  0.4980E-02  0.3770E-03
    -13.904  0.1397E-02  0.4426E-02  0.5567E-03
    -13.801  0.1521E-02  0.3633E-02  0.4718E-03
    -13.699  0.1846E-03  0.8789E-03  0.1025E-03
    -13.596  0.0000E+00  0.0000E+00  0.0000E+00
    -13.493  0.0000E+00  0.0000E+00  0.0000E+00
    -13.391  0.0000E+00  0.0000E+00  0.0000E+00
    -13.288  0.0000E+00  0.0000E+00  0.0000E+00
    -13.185  0.0000E+00  0.0000E+00  0.0000E+00
    -13.082  0.0000E+00  0.0000E+00  0.0000E+00