CsPbBr3 cubic bulk                      
           1
     8.237116    0.000000    0.000000
     0.000000   11.663393    0.000000
     0.000000    0.000000    8.401100
   Cs   Pb   Br
   4   4  12
Direct configuration=     1
   0.04950683  0.25000000  0.48999151
   0.45049317  0.75000000  0.98999151
   0.54950683  0.25000000  0.01000849
   0.95049317  0.75000000  0.51000849
   0.00000000  0.00000000  0.00000000
   0.50000000  0.00000000  0.50000000
   0.50000000  0.50000000  0.50000000
   0.00000000  0.50000000  0.00000000
   0.50678959  0.75000000  0.42422270
   0.99321041  0.25000000  0.92422270
   0.00678959  0.75000000  0.07577730
   0.49321041  0.25000000  0.57577730
   0.28890504  0.46134393  0.21258284
   0.21109496  0.53865607  0.71258284
   0.78890504  0.03865607  0.28741716
   0.71109496  0.96134393  0.78741716
   0.28890504  0.03865607  0.21258284
   0.21109496  0.96134393  0.71258284
   0.71109496  0.53865607  0.78741716
   0.78890504  0.46134393  0.28741716
