  39  39   1   0
  0.4103261E+02  0.1166835E-08  0.1176381E-08  0.1166835E-08  0.5000000E-15
   1.0000000000000000E-004
  CAR 
 CsPbBr3 cubic bulk                      
      8.04093525    -22.80377937  301      0.25264480      1.00000000
    -22.804  0.0000E+00  0.0000E+00
    -22.701  0.0000E+00  0.0000E+00
    -22.598  0.0000E+00  0.0000E+00
    -22.495  0.0000E+00  0.0000E+00
    -22.393  0.0000E+00  0.0000E+00
    -22.290  0.0000E+00  0.0000E+00
    -22.187  0.0000E+00  0.0000E+00
    -22.084  0.0000E+00  0.0000E+00
    -21.981  0.0000E+00  0.0000E+00
    -21.878  0.0000E+00  0.0000E+00
    -21.776  0.0000E+00  0.0000E+00
    -21.673  0.0000E+00  0.0000E+00
    -21.570  0.0000E+00  0.0000E+00
    -21.467  0.0000E+00  0.0000E+00
    -21.364  0.1945E+02  0.2000E+01
    -21.262  0.0000E+00  0.2000E+01
    -21.159  0.0000E+00  0.2000E+01
    -21.056  0.0000E+00  0.2000E+01
    -20.953  0.3858E+02  0.5967E+01
    -20.850  0.7776E+02  0.1400E+02
    -20.747  0.0000E+00  0.1400E+02
    -20.645  0.0000E+00  0.1400E+02
    -20.542  0.0000E+00  0.1400E+02
    -20.439  0.0000E+00  0.1400E+02
    -20.336  0.0000E+00  0.1400E+02
    -20.233  0.0000E+00  0.1400E+02
    -20.131  0.0000E+00  0.1400E+02
    -20.028  0.0000E+00  0.1400E+02
    -19.925  0.0000E+00  0.1400E+02
    -19.822  0.0000E+00  0.1400E+02
    -19.719  0.0000E+00  0.1400E+02
    -19.616  0.0000E+00  0.1400E+02
    -19.514  0.0000E+00  0.1400E+02
    -19.411  0.0000E+00  0.1400E+02
    -19.308  0.0000E+00  0.1400E+02
    -19.205  0.0000E+00  0.1400E+02
    -19.102  0.0000E+00  0.1400E+02
    -19.000  0.0000E+00  0.1400E+02
    -18.897  0.0000E+00  0.1400E+02
    -18.794  0.0000E+00  0.1400E+02
    -18.691  0.0000E+00  0.1400E+02
    -18.588  0.0000E+00  0.1400E+02
    -18.486  0.0000E+00  0.1400E+02
    -18.383  0.0000E+00  0.1400E+02
    -18.280  0.0000E+00  0.1400E+02
    -18.177  0.0000E+00  0.1400E+02
    -18.074  0.0000E+00  0.1400E+02
    -17.971  0.0000E+00  0.1400E+02
    -17.869  0.0000E+00  0.1400E+02
    -17.766  0.0000E+00  0.1400E+02
    -17.663  0.0000E+00  0.1400E+02
    -17.560  0.0000E+00  0.1400E+02
    -17.457  0.0000E+00  0.1400E+02
    -17.355  0.0000E+00  0.1400E+02
    -17.252  0.0000E+00  0.1400E+02
    -17.149  0.0000E+00  0.1400E+02
    -17.046  0.0000E+00  0.1400E+02
    -16.943  0.0000E+00  0.1400E+02
    -16.840  0.1353E-10  0.1400E+02
    -16.738  0.7008E+02  0.2121E+02
    -16.635  0.8067E+02  0.3429E+02
    -16.532  0.2106E+03  0.6766E+02
    -16.429  0.2275E+03  0.9339E+02
    -16.326  0.0000E+00  0.9400E+02
    -16.224  0.0000E+00  0.9400E+02
    -16.121  0.0000E+00  0.9400E+02
    -16.018  0.0000E+00  0.9400E+02
    -15.915  0.0000E+00  0.9400E+02
    -15.812  0.0000E+00  0.9400E+02
    -15.709  0.0000E+00  0.9400E+02
    -15.607  0.0000E+00  0.9400E+02
    -15.504  0.0000E+00  0.9400E+02
    -15.401  0.0000E+00  0.9400E+02
    -15.298  0.0000E+00  0.9400E+02
    -15.195  0.0000E+00  0.9400E+02
    -15.093  0.0000E+00  0.9400E+02
    -14.990  0.0000E+00  0.9400E+02
    -14.887  0.0000E+00  0.9400E+02
    -14.784  0.0000E+00  0.9400E+02
    -14.681  0.1203E-04  0.9400E+02
    -14.579  0.2377E+02  0.9644E+02
    -14.476  0.9594E+01  0.9799E+02
    -14.373  0.3405E+02  0.1030E+03
    -14.270  0.4572E+02  0.1080E+03
    -14.167  0.5107E+02  0.1145E+03
    -14.064  0.7346E+02  0.1236E+03
    -13.962  0.5275E+02  0.1312E+03
    -13.859  0.5736E+02  0.1389E+03
    -13.756  0.2187E+02  0.1420E+03
    -13.653  0.0000E+00  0.1420E+03
    -13.550  0.0000E+00  0.1420E+03
    -13.448  0.0000E+00  0.1420E+03
    -13.345  0.0000E+00  0.1420E+03
    -13.242  0.0000E+00  0.1420E+03
    -13.139  0.0000E+00  0.1420E+03
    -13.036  0.0000E+00  0.1420E+03
    -12.933  0.0000E+00  0.1420E+03
    -12.831  0.0000E+00  0.1420E+03
    -12.728  0.0000E+00  0.1420E+03
    -12.625  0.0000E+00  0.1420E+03
    -12.522  0.0000E+00  0.1420E+03
    -12.419  0.0000E+00  0.1420E+03
    -12.317  0.0000E+00  0.1420E+03
    -12.214  0.0000E+00  0.1420E+03
    -12.111  0.0000E+00  0.1420E+03
    -12.008  0.0000E+00  0.1420E+03
    -11.905  0.0000E+00  0.1420E+03
    -11.802  0.0000E+00  0.1420E+03
    -11.700  0.0000E+00  0.1420E+03
    -11.597  0.0000E+00  0.1420E+03
    -11.494  0.0000E+00  0.1420E+03
    -11.391  0.0000E+00  0.1420E+03
    -11.288  0.0000E+00  0.1420E+03
    -11.186  0.0000E+00  0.1420E+03
    -11.083  0.0000E+00  0.1420E+03
    -10.980  0.0000E+00  0.1420E+03
    -10.877  0.0000E+00  0.1420E+03
    -10.774  0.0000E+00  0.1420E+03
    -10.672  0.0000E+00  0.1420E+03
    -10.569  0.0000E+00  0.1420E+03
    -10.466  0.0000E+00  0.1420E+03
    -10.363  0.0000E+00  0.1420E+03
    -10.260  0.0000E+00  0.1420E+03
    -10.157  0.0000E+00  0.1420E+03
    -10.055  0.0000E+00  0.1420E+03
     -9.952  0.0000E+00  0.1420E+03
     -9.849  0.0000E+00  0.1420E+03
     -9.746  0.0000E+00  0.1420E+03
     -9.643  0.0000E+00  0.1420E+03
     -9.541  0.0000E+00  0.1420E+03
     -9.438  0.0000E+00  0.1420E+03
     -9.335  0.0000E+00  0.1420E+03
     -9.232  0.0000E+00  0.1420E+03
     -9.129  0.0000E+00  0.1420E+03
     -9.026  0.0000E+00  0.1420E+03
     -8.924  0.0000E+00  0.1420E+03
     -8.821  0.0000E+00  0.1420E+03
     -8.718  0.0000E+00  0.1420E+03
     -8.615  0.0000E+00  0.1420E+03
     -8.512  0.0000E+00  0.1420E+03
     -8.410  0.2380E+01  0.1422E+03
     -8.307  0.8360E+00  0.1423E+03
     -8.204  0.2807E+01  0.1428E+03
     -8.101  0.2758E+01  0.1438E+03
     -7.998  0.1306E+02  0.1456E+03
     -7.896  0.1907E+02  0.1480E+03
     -7.793  0.4001E+02  0.1529E+03
     -7.690  0.1342E+02  0.1546E+03
     -7.587  0.1942E+02  0.1575E+03
     -7.484  0.1216E+02  0.1590E+03
     -7.381  0.3436E+02  0.1625E+03
     -7.279  0.1920E+03  0.1905E+03
     -7.176  0.2114E+02  0.1984E+03
     -7.073  0.5684E+01  0.1991E+03
     -6.970  0.2432E+01  0.1997E+03
     -6.867  0.0000E+00  0.1998E+03
     -6.765  0.1451E+00  0.1998E+03
     -6.662  0.0000E+00  0.2000E+03
     -6.559  0.0000E+00  0.2000E+03
     -6.456  0.0000E+00  0.2000E+03
     -6.353  0.0000E+00  0.2000E+03
     -6.250  0.0000E+00  0.2000E+03
     -6.148  0.0000E+00  0.2000E+03
     -6.045  0.0000E+00  0.2000E+03
     -5.942  0.0000E+00  0.2000E+03
     -5.839  0.0000E+00  0.2000E+03
     -5.736  0.0000E+00  0.2000E+03
     -5.634  0.0000E+00  0.2000E+03
     -5.531  0.0000E+00  0.2000E+03
     -5.428  0.0000E+00  0.2000E+03
     -5.325  0.0000E+00  0.2000E+03
     -5.222  0.0000E+00  0.2000E+03
     -5.119  0.0000E+00  0.2000E+03
     -5.017  0.0000E+00  0.2000E+03
     -4.914  0.0000E+00  0.2000E+03
     -4.811  0.0000E+00  0.2000E+03
     -4.708  0.0000E+00  0.2000E+03
     -4.605  0.0000E+00  0.2000E+03
     -4.503  0.0000E+00  0.2000E+03
     -4.400  0.0000E+00  0.2000E+03
     -4.297  0.0000E+00  0.2000E+03
     -4.194  0.0000E+00  0.2000E+03
     -4.091  0.0000E+00  0.2000E+03
     -3.989  0.0000E+00  0.2000E+03
     -3.886  0.0000E+00  0.2000E+03
     -3.783  0.0000E+00  0.2000E+03
     -3.680  0.1681E+01  0.2002E+03
     -3.577  0.1334E+02  0.2019E+03
     -3.474  0.1059E+02  0.2031E+03
     -3.372  0.1887E+02  0.2052E+03
     -3.269  0.2393E+02  0.2085E+03
     -3.166  0.2130E+02  0.2112E+03
     -3.063  0.7295E+01  0.2123E+03
     -2.960  0.9695E+01  0.2132E+03
     -2.858  0.1676E+02  0.2155E+03
     -2.755  0.2855E+02  0.2187E+03
     -2.652  0.3424E+02  0.2225E+03
     -2.549  0.2568E+02  0.2256E+03
     -2.446  0.3355E+02  0.2309E+03
     -2.343  0.3055E+02  0.2354E+03
     -2.241  0.4073E+02  0.2402E+03
     -2.138  0.2148E+02  0.2432E+03
     -2.035  0.2360E+02  0.2459E+03
     -1.932  0.4499E+02  0.2511E+03
     -1.829  0.5253E+02  0.2579E+03
     -1.727  0.3730E+02  0.2631E+03
     -1.624  0.7147E+02  0.2723E+03
     -1.521  0.8181E+02  0.2824E+03
     -1.418  0.7576E+02  0.2923E+03
     -1.315  0.8643E+02  0.3039E+03
     -1.212  0.8839E+02  0.3156E+03
     -1.110  0.7245E+02  0.3247E+03
     -1.007  0.2341E+02  0.3297E+03
     -0.904  0.2446E+02  0.3323E+03
     -0.801  0.1646E+02  0.3347E+03
     -0.698  0.2016E+02  0.3376E+03
     -0.596  0.1459E+02  0.3395E+03
     -0.493  0.1181E+02  0.3410E+03
     -0.390  0.2376E+01  0.3417E+03
     -0.287  0.7288E+01  0.3425E+03
     -0.184  0.4863E+01  0.3430E+03
     -0.082  0.7295E+01  0.3437E+03
      0.021  0.0000E+00  0.3438E+03
      0.124  0.0000E+00  0.3438E+03
      0.227  0.2421E+01  0.3440E+03
      0.330  0.0000E+00  0.3440E+03
      0.433  0.0000E+00  0.3440E+03
      0.535  0.0000E+00  0.3440E+03
      0.638  0.0000E+00  0.3440E+03
      0.741  0.0000E+00  0.3440E+03
      0.844  0.0000E+00  0.3440E+03
      0.947  0.0000E+00  0.3440E+03
      1.049  0.0000E+00  0.3440E+03
      1.152  0.0000E+00  0.3440E+03
      1.255  0.0000E+00  0.3440E+03
      1.358  0.0000E+00  0.3440E+03
      1.461  0.0000E+00  0.3440E+03
      1.564  0.0000E+00  0.3440E+03
      1.666  0.0000E+00  0.3440E+03
      1.769  0.0000E+00  0.3440E+03
      1.872  0.0000E+00  0.3440E+03
      1.975  0.0000E+00  0.3440E+03
      2.078  0.0000E+00  0.3440E+03
      2.180  0.0000E+00  0.3440E+03
      2.283  0.0000E+00  0.3440E+03
      2.386  0.0000E+00  0.3440E+03
      2.489  0.0000E+00  0.3440E+03
      2.592  0.2431E+01  0.3442E+03
      2.695  0.5192E+01  0.3448E+03
      2.797  0.1597E+02  0.3466E+03
      2.900  0.1570E+02  0.3486E+03
      3.003  0.1024E+02  0.3506E+03
      3.106  0.1937E+02  0.3530E+03
      3.209  0.1208E+02  0.3542E+03
      3.311  0.1008E+02  0.3553E+03
      3.414  0.7503E+01  0.3563E+03
      3.517  0.0000E+00  0.3565E+03
      3.620  0.0000E+00  0.3565E+03
      3.723  0.4775E+01  0.3570E+03
      3.825  0.3437E+01  0.3576E+03
      3.928  0.2665E+01  0.3580E+03
      4.031  0.4882E+01  0.3590E+03
      4.134  0.2330E+02  0.3619E+03
      4.237  0.1873E+02  0.3647E+03
      4.340  0.2292E+02  0.3676E+03
      4.442  0.2462E+02  0.3713E+03
      4.545  0.2301E+02  0.3744E+03
      4.648  0.1286E+02  0.3761E+03
      4.751  0.2292E+02  0.3789E+03
      4.854  0.8463E+01  0.3801E+03
      4.956  0.4863E+01  0.3807E+03
      5.059  0.0000E+00  0.3808E+03
      5.162  0.9062E-09  0.3808E+03
      5.265  0.3834E+01  0.3811E+03
      5.368  0.6593E+01  0.3824E+03
      5.471  0.1580E+02  0.3841E+03
      5.573  0.2367E+02  0.3869E+03
      5.676  0.1216E+02  0.3887E+03
      5.779  0.2431E+02  0.3912E+03
      5.882  0.1702E+02  0.3932E+03
      5.985  0.2028E+02  0.3953E+03
      6.087  0.2308E+02  0.3986E+03
      6.190  0.2676E+02  0.4020E+03
      6.293  0.2596E+02  0.4054E+03
      6.396  0.2344E+02  0.4089E+03
      6.499  0.1848E+02  0.4126E+03
      6.602  0.1952E+02  0.4155E+03
      6.704  0.2432E+01  0.4160E+03
      6.807  0.0000E+00  0.4160E+03
      6.910  0.0000E+00  0.4160E+03
      7.013  0.0000E+00  0.4160E+03
      7.116  0.0000E+00  0.4160E+03
      7.218  0.0000E+00  0.4160E+03
      7.321  0.0000E+00  0.4160E+03
      7.424  0.0000E+00  0.4160E+03
      7.527  0.0000E+00  0.4160E+03
      7.630  0.0000E+00  0.4160E+03
      7.732  0.0000E+00  0.4160E+03
      7.835  0.0000E+00  0.4160E+03
      7.938  0.0000E+00  0.4160E+03
      8.041  0.0000E+00  0.4160E+03
      8.04093525    -22.80377937  301      0.25264480      1.00000000
    -22.804  0.0000E+00  0.0000E+00  0.0000E+00
    -22.701  0.0000E+00  0.0000E+00  0.0000E+00
    -22.598  0.0000E+00  0.0000E+00  0.0000E+00
    -22.495  0.0000E+00  0.0000E+00  0.0000E+00
    -22.393  0.0000E+00  0.0000E+00  0.0000E+00
    -22.290  0.0000E+00  0.0000E+00  0.0000E+00
    -22.187  0.0000E+00  0.0000E+00  0.0000E+00
    -22.084  0.0000E+00  0.0000E+00  0.0000E+00
    -21.981  0.0000E+00  0.0000E+00  0.0000E+00
    -21.878  0.0000E+00  0.0000E+00  0.0000E+00
    -21.776  0.0000E+00  0.0000E+00  0.0000E+00
    -21.673  0.0000E+00  0.0000E+00  0.0000E+00
    -21.570  0.0000E+00  0.0000E+00  0.0000E+00
    -21.467  0.0000E+00  0.0000E+00  0.0000E+00
    -21.364  0.5041E-05  0.2422E-07  0.3841E-08
    -21.262  0.0000E+00  0.0000E+00  0.0000E+00
    -21.159  0.0000E+00  0.0000E+00  0.0000E+00
    -21.056  0.0000E+00  0.0000E+00  0.0000E+00
    -20.953  0.1501E-04  0.5176E-08  0.4773E-09
    -20.850  0.1726E+02  0.3395E-04  0.2400E-05
    -20.747  0.0000E+00  0.0000E+00  0.0000E+00
    -20.645  0.0000E+00  0.0000E+00  0.0000E+00
    -20.542  0.0000E+00  0.0000E+00  0.0000E+00
    -20.439  0.0000E+00  0.0000E+00  0.0000E+00
    -20.336  0.0000E+00  0.0000E+00  0.0000E+00
    -20.233  0.0000E+00  0.0000E+00  0.0000E+00
    -20.131  0.0000E+00  0.0000E+00  0.0000E+00
    -20.028  0.0000E+00  0.0000E+00  0.0000E+00
    -19.925  0.0000E+00  0.0000E+00  0.0000E+00
    -19.822  0.0000E+00  0.0000E+00  0.0000E+00
    -19.719  0.0000E+00  0.0000E+00  0.0000E+00
    -19.616  0.0000E+00  0.0000E+00  0.0000E+00
    -19.514  0.0000E+00  0.0000E+00  0.0000E+00
    -19.411  0.0000E+00  0.0000E+00  0.0000E+00
    -19.308  0.0000E+00  0.0000E+00  0.0000E+00
    -19.205  0.0000E+00  0.0000E+00  0.0000E+00
    -19.102  0.0000E+00  0.0000E+00  0.0000E+00
    -19.000  0.0000E+00  0.0000E+00  0.0000E+00
    -18.897  0.0000E+00  0.0000E+00  0.0000E+00
    -18.794  0.0000E+00  0.0000E+00  0.0000E+00
    -18.691  0.0000E+00  0.0000E+00  0.0000E+00
    -18.588  0.0000E+00  0.0000E+00  0.0000E+00
    -18.486  0.0000E+00  0.0000E+00  0.0000E+00
    -18.383  0.0000E+00  0.0000E+00  0.0000E+00
    -18.280  0.0000E+00  0.0000E+00  0.0000E+00
    -18.177  0.0000E+00  0.0000E+00  0.0000E+00
    -18.074  0.0000E+00  0.0000E+00  0.0000E+00
    -17.971  0.0000E+00  0.0000E+00  0.0000E+00
    -17.869  0.0000E+00  0.0000E+00  0.0000E+00
    -17.766  0.0000E+00  0.0000E+00  0.0000E+00
    -17.663  0.0000E+00  0.0000E+00  0.0000E+00
    -17.560  0.0000E+00  0.0000E+00  0.0000E+00
    -17.457  0.0000E+00  0.0000E+00  0.0000E+00
    -17.355  0.0000E+00  0.0000E+00  0.0000E+00
    -17.252  0.0000E+00  0.0000E+00  0.0000E+00
    -17.149  0.0000E+00  0.0000E+00  0.0000E+00
    -17.046  0.0000E+00  0.0000E+00  0.0000E+00
    -16.943  0.0000E+00  0.0000E+00  0.0000E+00
    -16.840  0.2627E-18  0.6753E-17  0.1943E-17
    -16.738  0.2625E-04  0.2540E-04  0.6616E-05
    -16.635  0.1642E-04  0.1681E-04  0.2274E-05
    -16.532  0.8875E-04  0.8107E-04  0.1483E-04
    -16.429  0.5762E-04  0.3095E-04  0.3570E-05
    -16.326  0.0000E+00  0.0000E+00  0.0000E+00
    -16.224  0.0000E+00  0.0000E+00  0.0000E+00
    -16.121  0.0000E+00  0.0000E+00  0.0000E+00
    -16.018  0.0000E+00  0.0000E+00  0.0000E+00
    -15.915  0.0000E+00  0.0000E+00  0.0000E+00
    -15.812  0.0000E+00  0.0000E+00  0.0000E+00
    -15.709  0.0000E+00  0.0000E+00  0.0000E+00
    -15.607  0.0000E+00  0.0000E+00  0.0000E+00
    -15.504  0.0000E+00  0.0000E+00  0.0000E+00
    -15.401  0.0000E+00  0.0000E+00  0.0000E+00
    -15.298  0.0000E+00  0.0000E+00  0.0000E+00
    -15.195  0.0000E+00  0.0000E+00  0.0000E+00
    -15.093  0.0000E+00  0.0000E+00  0.0000E+00
    -14.990  0.0000E+00  0.0000E+00  0.0000E+00
    -14.887  0.0000E+00  0.0000E+00  0.0000E+00
    -14.784  0.0000E+00  0.0000E+00  0.0000E+00
    -14.681  0.1307E-08  0.2309E-09  0.7842E-11
    -14.579  0.1189E-02  0.6529E-03  0.2280E-04
    -14.476  0.2262E-02  0.7912E-03  0.1297E-04
    -14.373  0.8738E-03  0.2104E-02  0.8804E-04
    -14.270  0.3592E-02  0.5696E-02  0.2433E-03
    -14.167  0.1239E-02  0.4954E-02  0.3099E-03
    -14.064  0.2022E-02  0.5799E-02  0.5507E-03
    -13.962  0.5980E-03  0.2292E-02  0.2741E-03
    -13.859  0.1048E-02  0.2290E-02  0.4172E-03
    -13.756  0.2269E-03  0.5927E-03  0.8745E-04
    -13.653  0.0000E+00  0.0000E+00  0.0000E+00
    -13.550  0.0000E+00  0.0000E+00  0.0000E+00
    -13.448  0.0000E+00  0.0000E+00  0.0000E+00
    -13.345  0.0000E+00  0.0000E+00  0.0000E+00
    -13.242  0.0000E+00  0.0000E+00  0.0000E+00
    -13.139  0.0000E+00  0.0000E+00  0.0000E+00
    -13.036  0.0000E+00  0.0000E+00  0.0000E+00
    -12.933  0.0000E+00  0.0000E+00  0.0000E+00
    -12.831  0.0000E+00  0.0000E+00  0.0000E+00
    -12.728  0.0000E+00  0.0000E+00  0.0000E+00
    -12.625  0.0000E+00  0.0000E+00  0.0000E+00
    -12.522  0.0000E+00  0.0000E+00  0.0000E+00
    -12.419  0.0000E+00  0.0000E+00  0.0000E+00
    -12.317  0.0000E+00  0.0000E+00  0.0000E+00
    -12.214  0.0000E+00  0.0000E+00  0.0000E+00
    -12.111  0.0000E+00  0.0000E+00  0.0000E+00
    -12.008  0.0000E+00  0.0000E+00  0.0000E+00
    -11.905  0.0000E+00  0.0000E+00  0.0000E+00
    -11.802  0.0000E+00  0.0000E+00  0.0000E+00
    -11.700  0.0000E+00  0.0000E+00  0.0000E+00
    -11.597  0.0000E+00  0.0000E+00  0.0000E+00
    -11.494  0.0000E+00  0.0000E+00  0.0000E+00
    -11.391  0.0000E+00  0.0000E+00  0.0000E+00
    -11.288  0.0000E+00  0.0000E+00  0.0000E+00
    -11.186  0.0000E+00  0.0000E+00  0.0000E+00
    -11.083  0.0000E+00  0.0000E+00  0.0000E+00
    -10.980  0.0000E+00  0.0000E+00  0.0000E+00
    -10.877  0.0000E+00  0.0000E+00  0.0000E+00
    -10.774  0.0000E+00  0.0000E+00  0.0000E+00
    -10.672  0.0000E+00  0.0000E+00  0.0000E+00
    -10.569  0.0000E+00  0.0000E+00  0.0000E+00
    -10.466  0.0000E+00  0.0000E+00  0.0000E+00
    -10.363  0.0000E+00  0.0000E+00  0.0000E+00
    -10.260  0.0000E+00  0.0000E+00  0.0000E+00
    -10.157  0.0000E+00  0.0000E+00  0.0000E+00
    -10.055  0.0000E+00  0.0000E+00  0.0000E+00
     -9.952  0.0000E+00  0.0000E+00  0.0000E+00
     -9.849  0.0000E+00  0.0000E+00  0.0000E+00
     -9.746  0.0000E+00  0.0000E+00  0.0000E+00
     -9.643  0.0000E+00  0.0000E+00  0.0000E+00
     -9.541  0.0000E+00  0.0000E+00  0.0000E+00
     -9.438  0.0000E+00  0.0000E+00  0.0000E+00
     -9.335  0.0000E+00  0.0000E+00  0.0000E+00
     -9.232  0.0000E+00  0.0000E+00  0.0000E+00
     -9.129  0.0000E+00  0.0000E+00  0.0000E+00
     -9.026  0.0000E+00  0.0000E+00  0.0000E+00
     -8.924  0.0000E+00  0.0000E+00  0.0000E+00
     -8.821  0.0000E+00  0.0000E+00  0.0000E+00
     -8.718  0.0000E+00  0.0000E+00  0.0000E+00
     -8.615  0.0000E+00  0.0000E+00  0.0000E+00
     -8.512  0.0000E+00  0.0000E+00  0.0000E+00
     -8.410  0.1351E-06  0.1389E-03  0.9012E-05
     -8.307  0.1373E-06  0.3947E-03  0.2321E-05
     -8.204  0.9357E-08  0.9013E-03  0.2758E-05
     -8.101  0.5472E-06  0.4963E-03  0.1267E-04
     -7.998  0.2080E-04  0.1125E-01  0.2721E-04
     -7.896  0.3184E-04  0.1334E-01  0.2361E-04
     -7.793  0.6846E-05  0.2298E-01  0.3743E-04
     -7.690  0.1693E-04  0.2225E-01  0.2704E-04
     -7.587  0.2687E-04  0.1071E+00  0.5116E-04
     -7.484  0.1635E-04  0.6679E-01  0.2956E-04
     -7.381  0.3698E-04  0.7389E+00  0.3694E-04
     -7.279  0.1100E-03  0.3604E+02  0.1011E-03
     -7.176  0.3291E-04  0.1477E+01  0.2193E-04
     -7.073  0.5195E-04  0.4916E-01  0.4957E-05
     -6.970  0.1631E-04  0.8932E-02  0.6707E-05
     -6.867  0.0000E+00  0.0000E+00  0.0000E+00
     -6.765  0.1336E-05  0.3490E-03  0.8700E-07
     -6.662  0.0000E+00  0.0000E+00  0.0000E+00
     -6.559  0.0000E+00  0.0000E+00  0.0000E+00
     -6.456  0.0000E+00  0.0000E+00  0.0000E+00
     -6.353  0.0000E+00  0.0000E+00  0.0000E+00
     -6.250  0.0000E+00  0.0000E+00  0.0000E+00
     -6.148  0.0000E+00  0.0000E+00  0.0000E+00
     -6.045  0.0000E+00  0.0000E+00  0.0000E+00
     -5.942  0.0000E+00  0.0000E+00  0.0000E+00
     -5.839  0.0000E+00  0.0000E+00  0.0000E+00
     -5.736  0.0000E+00  0.0000E+00  0.0000E+00
     -5.634  0.0000E+00  0.0000E+00  0.0000E+00
     -5.531  0.0000E+00  0.0000E+00  0.0000E+00
     -5.428  0.0000E+00  0.0000E+00  0.0000E+00
     -5.325  0.0000E+00  0.0000E+00  0.0000E+00
     -5.222  0.0000E+00  0.0000E+00  0.0000E+00
     -5.119  0.0000E+00  0.0000E+00  0.0000E+00
     -5.017  0.0000E+00  0.0000E+00  0.0000E+00
     -4.914  0.0000E+00  0.0000E+00  0.0000E+00
     -4.811  0.0000E+00  0.0000E+00  0.0000E+00
     -4.708  0.0000E+00  0.0000E+00  0.0000E+00
     -4.605  0.0000E+00  0.0000E+00  0.0000E+00
     -4.503  0.0000E+00  0.0000E+00  0.0000E+00
     -4.400  0.0000E+00  0.0000E+00  0.0000E+00
     -4.297  0.0000E+00  0.0000E+00  0.0000E+00
     -4.194  0.0000E+00  0.0000E+00  0.0000E+00
     -4.091  0.0000E+00  0.0000E+00  0.0000E+00
     -3.989  0.0000E+00  0.0000E+00  0.0000E+00
     -3.886  0.0000E+00  0.0000E+00  0.0000E+00
     -3.783  0.0000E+00  0.0000E+00  0.0000E+00
     -3.680  0.8318E-06  0.5707E-03  0.5565E-04
     -3.577  0.1624E-03  0.1013E-01  0.7385E-03
     -3.474  0.1823E-03  0.9022E-02  0.4636E-03
     -3.372  0.8616E-04  0.1229E-01  0.5662E-03
     -3.269  0.2371E-03  0.1861E-01  0.2016E-02
     -3.166  0.1345E-03  0.8140E-02  0.9966E-03
     -3.063  0.1019E-03  0.4001E-02  0.2128E-03
     -2.960  0.6477E-04  0.2725E-02  0.3357E-03
     -2.858  0.2600E-03  0.1083E-01  0.4606E-03
     -2.755  0.1202E-02  0.2656E-01  0.1130E-02
     -2.652  0.1640E-02  0.2921E-01  0.1792E-02
     -2.549  0.1165E-02  0.1476E-01  0.1736E-02
     -2.446  0.3407E-02  0.2195E-01  0.2792E-02
     -2.343  0.3625E-02  0.1829E-01  0.3723E-02
     -2.241  0.1254E-01  0.3811E-01  0.4762E-02
     -2.138  0.1748E-01  0.1927E-01  0.1943E-02
     -2.035  0.8215E-02  0.4109E-01  0.3766E-02
     -1.932  0.4030E-02  0.1019E+00  0.7480E-02
     -1.829  0.3872E-02  0.1122E+00  0.1019E-01
     -1.727  0.3164E-02  0.7666E-01  0.7053E-02
     -1.624  0.3267E-02  0.9766E-01  0.1830E-01
     -1.521  0.3338E-02  0.8343E-01  0.1970E-01
     -1.418  0.3938E-02  0.6183E-01  0.1481E-01
     -1.315  0.2839E-02  0.9338E-01  0.1851E-01
     -1.212  0.2183E-02  0.7434E-01  0.1579E-01
     -1.110  0.6188E-03  0.5145E-01  0.9779E-02
     -1.007  0.4177E-03  0.1010E-01  0.2592E-02
     -0.904  0.6250E-03  0.1435E-01  0.2061E-02
     -0.801  0.2838E-03  0.9302E-02  0.1849E-02
     -0.698  0.4335E-03  0.3289E-02  0.1351E-02
     -0.596  0.1110E-03  0.1669E-02  0.8324E-03
     -0.493  0.4013E-04  0.1638E-02  0.7098E-03
     -0.390  0.6828E-05  0.6082E-03  0.1753E-03
     -0.287  0.3606E-05  0.7422E-03  0.5622E-03
     -0.184  0.6017E-05  0.4760E-03  0.1721E-03
     -0.082  0.7838E-05  0.5554E-03  0.6767E-03
      0.021  0.0000E+00  0.0000E+00  0.0000E+00
      0.124  0.0000E+00  0.0000E+00  0.0000E+00
      0.227  0.2339E-05  0.9272E-04  0.1636E-03
      0.330  0.0000E+00  0.0000E+00  0.0000E+00
      0.433  0.0000E+00  0.0000E+00  0.0000E+00
      0.535  0.0000E+00  0.0000E+00  0.0000E+00
      0.638  0.0000E+00  0.0000E+00  0.0000E+00
      0.741  0.0000E+00  0.0000E+00  0.0000E+00
      0.844  0.0000E+00  0.0000E+00  0.0000E+00
      0.947  0.0000E+00  0.0000E+00  0.0000E+00
      1.049  0.0000E+00  0.0000E+00  0.0000E+00
      1.152  0.0000E+00  0.0000E+00  0.0000E+00
      1.255  0.0000E+00  0.0000E+00  0.0000E+00
      1.358  0.0000E+00  0.0000E+00  0.0000E+00
      1.461  0.0000E+00  0.0000E+00  0.0000E+00
      1.564  0.0000E+00  0.0000E+00  0.0000E+00
      1.666  0.0000E+00  0.0000E+00  0.0000E+00
      1.769  0.0000E+00  0.0000E+00  0.0000E+00
      1.872  0.0000E+00  0.0000E+00  0.0000E+00
      1.975  0.0000E+00  0.0000E+00  0.0000E+00
      2.078  0.0000E+00  0.0000E+00  0.0000E+00
      2.180  0.0000E+00  0.0000E+00  0.0000E+00
      2.283  0.0000E+00  0.0000E+00  0.0000E+00
      2.386  0.0000E+00  0.0000E+00  0.0000E+00
      2.489  0.0000E+00  0.0000E+00  0.0000E+00
      2.592  0.4676E-04  0.1578E-03  0.6574E-03
      2.695  0.9166E-04  0.2254E-03  0.7958E-03
      2.797  0.3219E-03  0.1701E-02  0.4686E-02
      2.900  0.5933E-03  0.2248E-02  0.3475E-02
      3.003  0.1189E-03  0.1271E-02  0.2056E-02
      3.106  0.6071E-03  0.3485E-02  0.3416E-02
      3.209  0.4732E-03  0.1305E-02  0.2816E-02
      3.311  0.3744E-03  0.1559E-02  0.1585E-02
      3.414  0.8926E-04  0.1287E-02  0.1741E-02
      3.517  0.0000E+00  0.0000E+00  0.0000E+00
      3.620  0.0000E+00  0.0000E+00  0.0000E+00
      3.723  0.1203E-03  0.3751E-03  0.1153E-02
      3.825  0.1104E-03  0.4144E-03  0.1538E-02
      3.928  0.2498E-05  0.2059E-03  0.8424E-03
      4.031  0.2972E-04  0.1293E-02  0.1187E-02
      4.134  0.8626E-04  0.3234E-02  0.1032E-01
      4.237  0.3434E-03  0.2192E-02  0.1039E-01
      4.340  0.9351E-03  0.3110E-02  0.5325E-02
      4.442  0.5724E-03  0.3212E-02  0.8762E-02
      4.545  0.2800E-02  0.7901E-02  0.9058E-02
      4.648  0.8617E-03  0.2126E-02  0.7305E-02
      4.751  0.6425E-02  0.6565E-02  0.8555E-02
      4.854  0.1153E-01  0.9610E-03  0.3256E-02
      4.956  0.7627E-03  0.5009E-03  0.2809E-02
      5.059  0.0000E+00  0.0000E+00  0.0000E+00
      5.162  0.1288E-11  0.5523E-13  0.7536E-12
      5.265  0.3931E-02  0.1342E-02  0.2717E-02
      5.368  0.3331E-02  0.1289E-03  0.7186E-02
      5.471  0.7659E-02  0.6405E-02  0.1137E-01
      5.573  0.8131E-02  0.2703E-02  0.2354E-01
      5.676  0.6554E-02  0.2575E-02  0.9443E-02
      5.779  0.3066E-02  0.3960E-02  0.4209E-01
      5.882  0.1305E-02  0.9990E-03  0.3471E-01
      5.985  0.2204E-01  0.8544E-02  0.6847E-01
      6.087  0.1826E-01  0.1627E-01  0.1289E+00
      6.190  0.2497E-01  0.1008E-01  0.2409E+00
      6.293  0.5648E-01  0.1177E-01  0.2993E+00
      6.396  0.2965E-01  0.1396E-01  0.3504E+00
      6.499  0.9528E-02  0.1241E-01  0.2602E+00
      6.602  0.2132E-01  0.1679E-01  0.2633E+00
      6.704  0.2560E-02  0.1344E-02  0.2687E-01
      6.807  0.0000E+00  0.0000E+00  0.0000E+00
      6.910  0.0000E+00  0.0000E+00  0.0000E+00
      7.013  0.0000E+00  0.0000E+00  0.0000E+00
      7.116  0.0000E+00  0.0000E+00  0.0000E+00
      7.218  0.0000E+00  0.0000E+00  0.0000E+00
      7.321  0.0000E+00  0.0000E+00  0.0000E+00
      7.424  0.0000E+00  0.0000E+00  0.0000E+00
      7.527  0.0000E+00  0.0000E+00  0.0000E+00
      7.630  0.0000E+00  0.0000E+00  0.0000E+00
      7.732  0.0000E+00  0.0000E+00  0.0000E+00
      7.835  0.0000E+00  0.0000E+00  0.0000E+00
      7.938  0.0000E+00  0.0000E+00  0.0000E+00
      8.041  0.0000E+00  0.0000E+00  0.0000E+00
      8.04093525    -22.80377937  301      0.25264480      1.00000000
    -22.804  0.0000E+00  0.0000E+00  0.0000E+00
    -22.701  0.0000E+00  0.0000E+00  0.0000E+00
    -22.598  0.0000E+00  0.0000E+00  0.0000E+00
    -22.495  0.0000E+00  0.0000E+00  0.0000E+00
    -22.393  0.0000E+00  0.0000E+00  0.0000E+00
    -22.290  0.0000E+00  0.0000E+00  0.0000E+00
    -22.187  0.0000E+00  0.0000E+00  0.0000E+00
    -22.084  0.0000E+00  0.0000E+00  0.0000E+00
    -21.981  0.0000E+00  0.0000E+00  0.0000E+00
    -21.878  0.0000E+00  0.0000E+00  0.0000E+00
    -21.776  0.0000E+00  0.0000E+00  0.0000E+00
    -21.673  0.0000E+00  0.0000E+00  0.0000E+00
    -21.570  0.0000E+00  0.0000E+00  0.0000E+00
    -21.467  0.0000E+00  0.0000E+00  0.0000E+00
    -21.364  0.1918E-04  0.3946E-07  0.9971E-08
    -21.262  0.0000E+00  0.0000E+00  0.0000E+00
    -21.159  0.0000E+00  0.0000E+00  0.0000E+00
    -21.056  0.0000E+00  0.0000E+00  0.0000E+00
    -20.953  0.1721E+02  0.3088E-04  0.1717E-05
    -20.850  0.9769E-03  0.1165E-06  0.1913E-07
    -20.747  0.0000E+00  0.0000E+00  0.0000E+00
    -20.645  0.0000E+00  0.0000E+00  0.0000E+00
    -20.542  0.0000E+00  0.0000E+00  0.0000E+00
    -20.439  0.0000E+00  0.0000E+00  0.0000E+00
    -20.336  0.0000E+00  0.0000E+00  0.0000E+00
    -20.233  0.0000E+00  0.0000E+00  0.0000E+00
    -20.131  0.0000E+00  0.0000E+00  0.0000E+00
    -20.028  0.0000E+00  0.0000E+00  0.0000E+00
    -19.925  0.0000E+00  0.0000E+00  0.0000E+00
    -19.822  0.0000E+00  0.0000E+00  0.0000E+00
    -19.719  0.0000E+00  0.0000E+00  0.0000E+00
    -19.616  0.0000E+00  0.0000E+00  0.0000E+00
    -19.514  0.0000E+00  0.0000E+00  0.0000E+00
    -19.411  0.0000E+00  0.0000E+00  0.0000E+00
    -19.308  0.0000E+00  0.0000E+00  0.0000E+00
    -19.205  0.0000E+00  0.0000E+00  0.0000E+00
    -19.102  0.0000E+00  0.0000E+00  0.0000E+00
    -19.000  0.0000E+00  0.0000E+00  0.0000E+00
    -18.897  0.0000E+00  0.0000E+00  0.0000E+00
    -18.794  0.0000E+00  0.0000E+00  0.0000E+00
    -18.691  0.0000E+00  0.0000E+00  0.0000E+00
    -18.588  0.0000E+00  0.0000E+00  0.0000E+00
    -18.486  0.0000E+00  0.0000E+00  0.0000E+00
    -18.383  0.0000E+00  0.0000E+00  0.0000E+00
    -18.280  0.0000E+00  0.0000E+00  0.0000E+00
    -18.177  0.0000E+00  0.0000E+00  0.0000E+00
    -18.074  0.0000E+00  0.0000E+00  0.0000E+00
    -17.971  0.0000E+00  0.0000E+00  0.0000E+00
    -17.869  0.0000E+00  0.0000E+00  0.0000E+00
    -17.766  0.0000E+00  0.0000E+00  0.0000E+00
    -17.663  0.0000E+00  0.0000E+00  0.0000E+00
    -17.560  0.0000E+00  0.0000E+00  0.0000E+00
    -17.457  0.0000E+00  0.0000E+00  0.0000E+00
    -17.355  0.0000E+00  0.0000E+00  0.0000E+00
    -17.252  0.0000E+00  0.0000E+00  0.0000E+00
    -17.149  0.0000E+00  0.0000E+00  0.0000E+00
    -17.046  0.0000E+00  0.0000E+00  0.0000E+00
    -16.943  0.0000E+00  0.0000E+00  0.0000E+00
    -16.840  0.1358E-18  0.3143E-17  0.1465E-17
    -16.738  0.4894E-04  0.2882E-04  0.6356E-05
    -16.635  0.2024E-04  0.1731E-04  0.2163E-05
    -16.532  0.7098E-04  0.6035E-04  0.1045E-04
    -16.429  0.2698E-04  0.1566E-04  0.1822E-05
    -16.326  0.0000E+00  0.0000E+00  0.0000E+00
    -16.224  0.0000E+00  0.0000E+00  0.0000E+00
    -16.121  0.0000E+00  0.0000E+00  0.0000E+00
    -16.018  0.0000E+00  0.0000E+00  0.0000E+00
    -15.915  0.0000E+00  0.0000E+00  0.0000E+00
    -15.812  0.0000E+00  0.0000E+00  0.0000E+00
    -15.709  0.0000E+00  0.0000E+00  0.0000E+00
    -15.607  0.0000E+00  0.0000E+00  0.0000E+00
    -15.504  0.0000E+00  0.0000E+00  0.0000E+00
    -15.401  0.0000E+00  0.0000E+00  0.0000E+00
    -15.298  0.0000E+00  0.0000E+00  0.0000E+00
    -15.195  0.0000E+00  0.0000E+00  0.0000E+00
    -15.093  0.0000E+00  0.0000E+00  0.0000E+00
    -14.990  0.0000E+00  0.0000E+00  0.0000E+00
    -14.887  0.0000E+00  0.0000E+00  0.0000E+00
    -14.784  0.0000E+00  0.0000E+00  0.0000E+00
    -14.681  0.2328E-08  0.7581E-09  0.2215E-10
    -14.579  0.4011E-02  0.2284E-02  0.6429E-04
    -14.476  0.2473E-04  0.3570E-03  0.2191E-04
    -14.373  0.6182E-03  0.2524E-02  0.1445E-03
    -14.270  0.1910E-02  0.2791E-02  0.1331E-03
    -14.167  0.8057E-03  0.3008E-02  0.2300E-03
    -14.064  0.1648E-02  0.4808E-02  0.4863E-03
    -13.962  0.1323E-02  0.3481E-02  0.3209E-03
    -13.859  0.6898E-03  0.2273E-02  0.2556E-03
    -13.756  0.1614E-03  0.5057E-03  0.1107E-03
    -13.653  0.0000E+00  0.0000E+00  0.0000E+00