 vasp.5.4.4.18Apr17-6-g9f103f2a35 (build Jun 22 2020 09:27:21) complex           
 executed on tx2_gcc-7.3_libsci-1 date 2021.10.12  05:27:32
 running on   64 total cores
 distrk:  each k-point on   64 cores,    1 groups
 distr:  one band on NCORES_PER_BAND=   8 cores,    8 groups


--------------------------------------------------------------------------------------------------------


 INCAR:
 POTCAR:    PAW_PBE Cs_sv 08Apr2002               
 POTCAR:    PAW_PBE Pb_d 06Sep2000                
 POTCAR:    PAW_PBE Br 06Sep2000                  
 POTCAR:    PAW_PBE Cs_sv 08Apr2002               
 POTCAR:    PAW_PBE Cs_sv 08Apr2002               
   SHA256 =  c1463496f0f6037ed62c6012a8013a89ee9ad6ffb38599dcd6c079e7ed31779b Cs
   COPYR  = (c) Copyright 08Apr2002 Georg Kresse                                
   COPYR  = This file is part of the software VASP. Any use, copying, and all ot
   COPYR  = If you do not have a valid VASP license, you may not use, copy or di
   VRHFIN =Cs: 5s5p6s                                                           
   LEXCH  = PE                                                                  
   EATOM  =   555.6835 eV,   40.8416 Ry                                         
                                                                                
   TITEL  = PAW_PBE Cs_sv 08Apr2002                                             
   LULTRA =        F    use ultrasoft PP ?                                      
   IUNSCR =        1    unscreen: 0-lin 1-nonlin 2-no                           
   RPACOR =    2.200    partial core radius                                     
   POMASS =  132.900; ZVAL   =    9.000    mass and valenz                      
   RCORE  =    2.500    outmost cutoff radius                                   
   RWIGS  =    2.500; RWIGS  =    1.323    wigner-seitz radius (au A)           
   ENMAX  =  220.318; ENMIN  =  165.238 eV                                      
   RCLOC  =    2.207    cutoff for local pot                                    
   LCOR   =        T    correct aug charges                                     
   LPAW   =        T    paw PP                                                  
   EAUG   =  407.933                                                            
   DEXC   =    0.000                                                            
   RMAX   =    2.554    core radius for proj-oper                               
   RAUG   =    1.300    factor for augmentation sphere                          
   RDEP   =    2.590    radius for radial grids                                 
   RDEPT  =    2.117    core radius for aug-charge                              
                                                                                
   Atomic configuration                                                         
   13 entries                                                                   
     n  l   j            E        occ.                                          
     1  0  0.50    -35790.1377   2.0000                                         
     2  0  0.50     -5613.6201   2.0000                                         
     2  1  1.50     -5035.0101   6.0000                                         
     3  0  0.50     -1167.0767   2.0000                                         
     3  1  1.50      -980.9754   6.0000                                         
     3  2  2.50      -708.0703  10.0000                                         
     4  0  0.50      -220.2386   2.0000                                         
     4  1  1.50      -160.7596   6.0000                                         
     4  2  2.50       -74.2354  10.0000                                         
     5  0  0.50       -26.7287   2.0000                                         
     6  0  0.50        -2.0862   1.0000                                         
     5  1  1.50       -13.5159   6.0000                                         
     5  2  2.50        -0.4136   0.0000                                         
   Description                                                                  
     l       E           TYP  RCUT    TYP  RCUT                                 
     0    -26.7287425     23  1.900                                             
     0     -2.0862306     23  1.900                                             
     1    -13.5158719     23  2.500                                             
     1     -2.7211652     23  2.500                                             
     2     -0.4136171     23  2.500                                             
  local pseudopotential read in
  partial core-charges read in
  partial kinetic energy density read in
  atomic valenz-charges read in
  non local Contribution for L=           0  read in
    real space projection operators read in
  non local Contribution for L=           0  read in
    real space projection operators read in
  non local Contribution for L=           1  read in
    real space projection operators read in
  non local Contribution for L=           1  read in
    real space projection operators read in
  non local Contribution for L=           2  read in
    real space projection operators read in
    PAW grid and wavefunctions read in

   number of l-projection  operators is LMAX  =           5
   number of lm-projection operators is LMMAX =          13

 POTCAR:    PAW_PBE Pb_d 06Sep2000                
   SHA256 =  fb885b08f0fba73a15f6a6b0e39bd200c13ec96ef97cf3ecd8e63bade5137abd Pb
   COPYR  = (c) Copyright 06Sep2000 Georg Kresse                                
   COPYR  = This file is part of the software VASP. Any use, copying, and all ot
   COPYR  = If you do not have a valid VASP license, you may not use, copy or di
   VRHFIN =Pb:                                                                  
   LEXCH  = PE                                                                  
   EATOM  =  1661.6185 eV,  122.1255 Ry                                         
                                                                                
   TITEL  = PAW_PBE Pb_d 06Sep2000                                              
   LULTRA =        F    use ultrasoft PP ?                                      
   IUNSCR =        1    unscreen: 0-lin 1-nonlin 2-no                           
   RPACOR =    2.200    partial core radius                                     
   POMASS =  207.200; ZVAL   =   14.000    mass and valenz                      
   RCORE  =    2.500    outmost cutoff radius                                   
   RWIGS  =    3.260; RWIGS  =    1.725    wigner-seitz radius (au A)           
   ENMAX  =  237.835; ENMIN  =  178.376 eV                                      
   ICORE  =        3    local potential                                         
   LCOR   =        T    correct aug charges                                     
   LPAW   =        T    paw PP                                                  
   EAUG   =  391.914                                                            
   DEXC   =    0.000                                                            
   RMAX   =    2.565    core radius for proj-oper                               
   RAUG   =    1.300    factor for augmentation sphere                          
   RDEP   =    2.643    radius for radial grids                                 
   RDEPT  =    2.092    core radius for aug-charge                              
                                                                                
   Atomic configuration                                                         
   16 entries                                                                   
     n  l   j            E        occ.                                          
     1  0  0.50    -88091.8466   2.0000                                         
     2  0  0.50    -15753.4197   2.0000                                         
     2  1  1.50    -13508.1797   6.0000                                         
     3  0  0.50     -3781.7194   2.0000                                         
     3  1  1.50     -3138.2529   6.0000                                         
     3  2  2.50     -2483.2977  10.0000                                         
     4  0  0.50      -856.2895   2.0000                                         
     4  1  1.50      -645.4942   6.0000                                         
     4  2  2.50      -401.8768  10.0000                                         
     4  3  3.50      -132.9059  14.0000                                         
     5  0  0.50      -144.0950   2.0000                                         
     5  1  1.50       -85.7879   6.0000                                         
     5  2  2.50       -21.1769  10.0000                                         
     6  0  0.50       -12.0372   2.0000                                         
     6  1  1.50        -3.4971   2.0000                                         
     5  3  2.50        -2.7212   0.0000                                         
   Description                                                                  
     l       E           TYP  RCUT    TYP  RCUT                                 
     2    -21.1768523     23  2.500                                             
     2      1.3605826     23  2.500                                             
     0    -12.0371562     23  2.500                                             
     0     13.6058260     23  2.500                                             
     1     -3.4971339     23  2.500                                             
     1     13.6058260     23  2.500                                             
     3     -1.3605826      7  2.500                                             
  local pseudopotential read in
  partial core-charges read in
  partial kinetic energy density read in
  atomic valenz-charges read in
  non local Contribution for L=           2  read in
    real space projection operators read in
  non local Contribution for L=           2  read in
    real space projection operators read in
  non local Contribution for L=           0  read in
    real space projection operators read in
  non local Contribution for L=           0  read in
    real space projection operators read in
  non local Contribution for L=           1  read in
    real space projection operators read in
  non local Contribution for L=           1  read in
    real space projection operators read in
    PAW grid and wavefunctions read in

   number of l-projection  operators is LMAX  =           6
   number of lm-projection operators is LMMAX =          18

 POTCAR:    PAW_PBE Br 06Sep2000                  
   SHA256 =  96a73d2954943bbee26f4990d676cc6c3bf44b8dd2c75cd4b3b825d8403f0103 Br
   COPYR  = (c) Copyright 06Sep2000 Georg Kresse                                
   COPYR  = This file is part of the software VASP. Any use, copying, and all ot
   COPYR  = If you do not have a valid VASP license, you may not use, copy or di
   VRHFIN =Br: s2p5                                                             
   LEXCH  = PE                                                                  
   EATOM  =   368.4488 eV,   27.0802 Ry                                         
                                                                                
   TITEL  = PAW_PBE Br 06Sep2000                                                
   LULTRA =        F    use ultrasoft PP ?                                      
   IUNSCR =        1    unscreen: 0-lin 1-nonlin 2-no                           
   RPACOR =    1.900    partial core radius                                     
   POMASS =   79.904; ZVAL   =    7.000    mass and valenz                      
   RCORE  =    2.100    outmost cutoff radius                                   
   RWIGS  =    2.200; RWIGS  =    1.164    wigner-seitz radius (au A)           
   ENMAX  =  216.285; ENMIN  =  162.214 eV                                      
   ICORE  =        3    local potential                                         
   LCOR   =        T    correct aug charges                                     
   LPAW   =        T    paw PP                                                  
   EAUG   =  503.852                                                            
   DEXC   =    0.000                                                            
   RMAX   =    2.139    core radius for proj-oper                               
   RAUG   =    1.300    factor for augmentation sphere                          
   RDEP   =    2.186    radius for radial grids                                 
   RDEPT  =    1.890    core radius for aug-charge                              
                                                                                
   Atomic configuration                                                         
   10 entries                                                                   
     n  l   j            E        occ.                                          
     1  0  0.50    -13316.2796   2.0000                                         
     2  0  0.50     -1732.8239   2.0000                                         
     2  1  1.50     -1528.2193   6.0000                                         
     3  0  0.50      -238.0460   2.0000                                         
     3  1  1.50      -173.4609   6.0000                                         
     3  2  2.50       -66.7132  10.0000                                         
     4  0  0.50       -20.1334   2.0000                                         
     4  1  0.50        -7.8591   5.0000                                         
     4  2  2.50        -8.1635   0.0000                                         
     4  3  2.50        -8.1635   0.0000                                         
   Description                                                                  
     l       E           TYP  RCUT    TYP  RCUT                                 
     0    -20.1333652     23  2.100                                             
     0    -21.4939478     23  2.100                                             
     1     -7.8591052     23  2.100                                             
     1     -3.1608434     23  2.100                                             
     2     -8.1634956     23  2.100                                             
     3     -1.3605826      7  2.100                                             
  local pseudopotential read in
  partial core-charges read in
  partial kinetic energy density read in
  atomic valenz-charges read in
  non local Contribution for L=           0  read in
    real space projection operators read in
  non local Contribution for L=           0  read in
    real space projection operators read in
  non local Contribution for L=           1  read in
    real space projection operators read in
  non local Contribution for L=           1  read in
    real space projection operators read in
  non local Contribution for L=           2  read in
    real space projection operators read in
    PAW grid and wavefunctions read in

   number of l-projection  operators is LMAX  =           5
   number of lm-projection operators is LMMAX =          13

 POTCAR:    PAW_PBE Cs_sv 08Apr2002               
   SHA256 =  c1463496f0f6037ed62c6012a8013a89ee9ad6ffb38599dcd6c079e7ed31779b Cs
   COPYR  = (c) Copyright 08Apr2002 Georg Kresse                                
   COPYR  = This file is part of the software VASP. Any use, copying, and all ot
   COPYR  = If you do not have a valid VASP license, you may not use, copy or di
   VRHFIN =Cs: 5s5p6s                                                           
   LEXCH  = PE                                                                  
   EATOM  =   555.6835 eV,   40.8416 Ry                                         
                                                                                
   TITEL  = PAW_PBE Cs_sv 08Apr2002                                             
   LULTRA =        F    use ultrasoft PP ?                                      
   IUNSCR =        1    unscreen: 0-lin 1-nonlin 2-no                           
   RPACOR =    2.200    partial core radius                                     
   POMASS =  132.900; ZVAL   =    9.000    mass and valenz                      
   RCORE  =    2.500    outmost cutoff radius                                   
   RWIGS  =    2.500; RWIGS  =    1.323    wigner-seitz radius (au A)           
   ENMAX  =  220.318; ENMIN  =  165.238 eV                                      
   RCLOC  =    2.207    cutoff for local pot                                    
   LCOR   =        T    correct aug charges                                     
   LPAW   =        T    paw PP                                                  
   EAUG   =  407.933                                                            
   DEXC   =    0.000                                                            
   RMAX   =    2.554    core radius for proj-oper                               
   RAUG   =    1.300    factor for augmentation sphere                          
   RDEP   =    2.590    radius for radial grids                                 
   RDEPT  =    2.117    core radius for aug-charge                              
                                                                                
   Atomic configuration                                                         
   13 entries                                                                   
     n  l   j            E        occ.                                          
     1  0  0.50    -35790.1377   2.0000                                         
     2  0  0.50     -5613.6201   2.0000                                         
     2  1  1.50     -5035.0101   6.0000                                         
     3  0  0.50     -1167.0767   2.0000                                         
     3  1  1.50      -980.9754   6.0000                                         
     3  2  2.50      -708.0703  10.0000                                         
     4  0  0.50      -220.2386   2.0000                                         
     4  1  1.50      -160.7596   6.0000                                         
     4  2  2.50       -74.2354  10.0000                                         
     5  0  0.50       -26.7287   2.0000                                         
     6  0  0.50        -2.0862   1.0000                                         
     5  1  1.50       -13.5159   6.0000                                         
     5  2  2.50        -0.4136   0.0000                                         
   Description                                                                  
     l       E           TYP  RCUT    TYP  RCUT                                 
     0    -26.7287425     23  1.900                                             
     0     -2.0862306     23  1.900                                             
     1    -13.5158719     23  2.500                                             
     1     -2.7211652     23  2.500                                             
     2     -0.4136171     23  2.500                                             
  local pseudopotential read in
  partial core-charges read in
  partial kinetic energy density read in
  atomic valenz-charges read in
  non local Contribution for L=           0  read in
    real space projection operators read in
  non local Contribution for L=           0  read in
    real space projection operators read in
  non local Contribution for L=           1  read in
    real space projection operators read in
  non local Contribution for L=           1  read in
    real space projection operators read in
  non local Contribution for L=           2  read in
    real space projection operators read in
    PAW grid and wavefunctions read in

   number of l-projection  operators is LMAX  =           5
   number of lm-projection operators is LMMAX =          13

 Optimization of the real space projectors (new method)

 maximal supplied QI-value         = 15.12
 optimisation between [QCUT,QGAM] = [  8.77, 17.69] = [ 21.53, 87.61] Ry 
 Optimized for a Real-space Cutoff    1.85 Angstroem

   l    n(q)    QCUT    max X(q) W(low)/X(q) W(high)/X(q)  e(spline) 
   0     10     8.768    25.322    0.81E-04    0.51E-04    0.48E-06
   0     10     8.768    99.187    0.78E-04    0.50E-04    0.47E-06
   1      9     8.768    11.761    0.21E-03    0.20E-03    0.37E-06
   1      9     8.768     8.275    0.24E-03    0.22E-03    0.41E-06
   2      9     8.768     3.829    0.23E-04    0.15E-03    0.18E-06
 Optimization of the real space projectors (new method)

 maximal supplied QI-value         = 15.12
 optimisation between [QCUT,QGAM] = [  8.77, 17.69] = [ 21.53, 87.61] Ry 
 Optimized for a Real-space Cutoff    1.59 Angstroem

   l    n(q)    QCUT    max X(q) W(low)/X(q) W(high)/X(q)  e(spline) 
   2      7     8.768     3.846    0.48E-04    0.11E-03    0.11E-06
   2      7     8.768     8.593    0.20E-03    0.22E-04    0.24E-06
   0      8     8.768    20.082    0.68E-04    0.88E-04    0.41E-07
   0      8     8.768     8.597    0.89E-04    0.13E-03    0.59E-07
   1      8     8.768    33.223    0.15E-03    0.53E-04    0.87E-07
   1      8     8.768    15.899    0.14E-03    0.44E-04    0.78E-07
 Optimization of the real space projectors (new method)

 maximal supplied QI-value         = 17.95
 optimisation between [QCUT,QGAM] = [  8.80, 17.59] = [ 21.67, 86.68] Ry 
 Optimized for a Real-space Cutoff    1.59 Angstroem

   l    n(q)    QCUT    max X(q) W(low)/X(q) W(high)/X(q)  e(spline) 
   0      8     8.797   175.082    0.82E-04    0.14E-03    0.89E-07
   0      8     8.797   174.004    0.79E-04    0.14E-03    0.86E-07
   1      8     8.797    54.315    0.16E-03    0.14E-04    0.30E-06
   1      8     8.797    42.441    0.16E-03    0.14E-04    0.30E-06
   2      7     8.797     3.596    0.92E-04    0.15E-03    0.85E-07
 Optimization of the real space projectors (new method)

 maximal supplied QI-value         = 15.12
 optimisation between [QCUT,QGAM] = [  8.77, 17.69] = [ 21.53, 87.61] Ry 
 Optimized for a Real-space Cutoff    1.85 Angstroem

   l    n(q)    QCUT    max X(q) W(low)/X(q) W(high)/X(q)  e(spline) 
   0     10     8.768    25.322    0.81E-04    0.51E-04    0.48E-06
   0     10     8.768    99.187    0.78E-04    0.50E-04    0.47E-06
   1      9     8.768    11.761    0.21E-03    0.20E-03    0.37E-06
   1      9     8.768     8.275    0.24E-03    0.22E-03    0.41E-06
   2      9     8.768     3.829    0.23E-04    0.15E-03    0.18E-06
  PAW_PBE Cs_sv 08Apr2002               :
 energy of atom  1       EATOM= -555.6835
 kinetic energy error for atom=    0.0069 (will be added to EATOM!!)
  PAW_PBE Pb_d 06Sep2000                :
 energy of atom  2       EATOM=-1661.6185
 kinetic energy error for atom=    0.0498 (will be added to EATOM!!)
  PAW_PBE Br 06Sep2000                  :
 energy of atom  3       EATOM= -368.4488
 kinetic energy error for atom=    0.0072 (will be added to EATOM!!)
  PAW_PBE Cs_sv 08Apr2002               :
 energy of atom  4       EATOM= -555.6835
 kinetic energy error for atom=    0.0069 (will be added to EATOM!!)


 POSCAR: Cs7 Pb8 Br24                            
  positions in direct lattice
  No initial velocities read in

 METAGGA = SCAN     LMAXTAU =  6    LMIXTAU =  F

 exchange correlation table for  LEXCH =        8
   RHO(1)=    0.500       N(1)  =     2000
   RHO(2)=  100.500       N(2)  =     4000

 VTST: version 3.2, (02/03/18)

 CHAIN: initializing optimizer
 
 OPT: Using VASP Conjugate-Gradient optimizer
 CHAIN: Read ICHAIN            0

 POSCAR: Cs7 Pb8 Br24                            
  positions in direct lattice
  No initial velocities read in



--------------------------------------------------------------------------------------------------------


 ion  position               nearest neighbor table
   1  0.271  0.247  0.195-
   2  0.766  0.245  0.747-
   3  0.223  0.767  0.769-
   4  0.277  0.233  0.732-
   5  0.734  0.755  0.753-
   6  0.229  0.753  0.305-
   7  0.000  0.995  0.010-  29 2.92  28 2.94  19 3.00  17 3.03  34 3.07  31 3.11
   8  0.500  0.006  0.490-  32 2.92  33 2.94  18 3.00  20 3.02  27 3.07  30 3.11
   9  0.512  0.998  0.001-  27 2.99  29 2.99  21 3.01  33 3.02  31 3.02  15 3.05
  10  0.988  0.002  0.499-  34 2.99  32 2.99  16 3.02  28 3.02  30 3.02  22 3.06
  11  0.500  0.500  0.988-  37 2.90  23 2.95  15 2.96  35 3.01  21 3.04  25 3.11
  12  1.000  0.501  0.512-  26 2.90  36 2.95  22 2.96  24 3.01  16 3.04  38 3.11
  13  0.011  0.501  1.000-  23 2.95  26 2.98  17 2.99  35 3.00  19 3.00  38 3.02
  14  0.489  0.499  0.500-  36 2.95  37 2.98  20 2.99  18 3.00  24 3.00  25 3.01
  15  0.480  0.747  0.943-  11 2.96   9 3.05
  16  0.953  0.750  0.462-  10 3.02  12 3.04
  17  0.987  0.249  0.976-  13 2.99   7 3.03
  18  0.436  0.252  0.466-  14 3.00   8 3.00
  19  0.064  0.748  0.034-  13 3.00   7 3.00
  20  0.514  0.751  0.524-  14 2.99   8 3.02
  21  0.546  0.250  0.037-   9 3.01  11 3.04
  22  0.021  0.253  0.557-  12 2.96  10 3.06
  23  0.253  0.458  0.948-  11 2.95  13 2.95
  24  0.745  0.472  0.526-  14 3.00  12 3.01
  25  0.444  0.528  0.245-  14 3.01  11 3.11
  26  0.985  0.561  0.752-  12 2.90  13 2.98
  27  0.539  0.032  0.750-   9 2.99   8 3.07
  28  0.060  0.029  0.255-   7 2.94  10 3.02
  29  0.759  0.934  0.030-   7 2.92   9 2.99
  30  0.243  0.972  0.543-  10 3.02   8 3.11
  31  0.257  0.029  0.957-   9 3.02   7 3.11
  32  0.741  0.066  0.469-   8 2.92  10 2.99
  33  0.440  0.971  0.245-   8 2.94   9 3.02
  34  0.961  0.968  0.750-  10 2.99   7 3.07
  35  0.756  0.526  0.974-  13 3.00  11 3.01
  36  0.248  0.543  0.552-  12 2.95  14 2.95
  37  0.516  0.440  0.748-  11 2.90  14 2.98
  38  0.056  0.472  0.255-  13 3.02  12 3.11
  39  0.750  0.497  0.250-


IMPORTANT INFORMATION: All symmetrisations will be switched off!
NOSYMM: (Re-)initialisation of all symmetry stuff for point group C_1.



 KPOINTS: 1x1x1                                   

Automatic generation of k-mesh.
Space group operators:
 irot       det(A)        alpha          n_x          n_y          n_z        tau_x        tau_y        tau_z
    1     1.000000     0.000000     1.000000     0.000000     0.000000     0.000000     0.000000     0.000000
 
 Subroutine IBZKPT returns following result:
 ===========================================
 
 Found      8 irreducible k-points:
 
 Following reciprocal coordinates:
            Coordinates               Weight
  0.000000  0.000000  0.000000      1.000000
  0.500000  0.000000  0.000000      1.000000
  0.000000  0.500000  0.000000      1.000000
  0.500000  0.500000  0.000000      1.000000
  0.000000  0.000000  0.500000      1.000000
  0.500000  0.000000  0.500000      1.000000
  0.000000  0.500000  0.500000      1.000000
  0.500000  0.500000  0.500000      1.000000
 
 Following cartesian coordinates:
            Coordinates               Weight
  0.000000  0.000000  0.000000      1.000000
  0.029691  0.000000  0.030948      1.000000
  0.000000  0.042503  0.000000      1.000000
  0.029691  0.042503  0.030948      1.000000
 -0.029691  0.000000  0.030948      1.000000
  0.000000  0.000000  0.061897      1.000000
 -0.029691  0.042503  0.030948      1.000000
  0.000000  0.042503  0.061897      1.000000
 


--------------------------------------------------------------------------------------------------------




 Dimension of arrays:
   k-points           NKPTS =      8   k-points in BZ     NKDIM =      8   number of bands    NBANDS=    208
   number of dos      NEDOS =    301   number of ions     NIONS =     39
   non local maximal  LDIM  =      6   non local SUM 2l+1 LMDIM =     18
   total plane-waves  NPLWV = 343000
   max r-space proj   IRMAX =   5716   max aug-charges    IRDMAX=  91227
   dimension x,y,z NGX =    70 NGY =   70 NGZ =   70
   dimension x,y,z NGXF=   140 NGYF=  140 NGZF=  140
   support grid    NGXF=   280 NGYF=  280 NGZF=  280
   ions per type =               6   8  24   1
   NGX,Y,Z   is equivalent  to a cutoff of   9.97,  9.89,  9.97 a.u.
   NGXF,Y,Z  is equivalent  to a cutoff of  19.95, 19.78, 19.95 a.u.

 SYSTEM =  CsPbBr3 cubic bulk                      
 POSCAR =  Cs7 Pb8 Br24                            

 Startparameter for this run:
   NWRITE =      2    write-flag & timer
   PREC   = accura    normal or accurate (medium, high low for compatibility)
   ISTART =      0    job   : 0-new  1-cont  2-samecut
   ICHARG =      2    charge: 1-file 2-atom 10-const
   ISPIN  =      1    spin polarized calculation?
   LNONCOLLINEAR =      F non collinear calculations
   LSORBIT =      F    spin-orbit coupling
   INIWAV =      1    electr: 0-lowe 1-rand  2-diag
   LASPH  =      T    aspherical Exc in radial PAW
   METAGGA=      F    non-selfconsistent MetaGGA calc.

 Electronic Relaxation 1
   ENCUT  =  300.0 eV  22.05 Ry    4.70 a.u.  16.48 16.61 16.48*2*pi/ulx,y,z
   ENINI  =  300.0     initial cutoff
   ENAUG  =  503.9 eV  augmentation charge cutoff
   NELM   =    200;   NELMIN=  2; NELMDL= -5     # of ELM steps 
   EDIFF  = 0.1E-05   stopping-criterion for ELM
   LREAL  =      T    real-space projection
   NLSPLINE    = F    spline interpolate recip. space projectors
   LCOMPAT=      F    compatible to vasp.4.4
   GGA_COMPAT  = T    GGA compatible to vasp.4.4-vasp.4.6
   LMAXPAW     = -100 max onsite density
   LMAXMIX     =    2 max onsite mixed and CHGCAR
   VOSKOWN=      0    Vosko Wilk Nusair interpolation
   ROPT   =   -0.00025  -0.00025  -0.00025  -0.00025
 Ionic relaxation
   EDIFFG = -.1E-01   stopping-criterion for IOM
   NSW    =      0    number of steps for IOM
   NBLOCK =      1;   KBLOCK =      1    inner block; outer block 
   IBRION =     -1    ionic relax: 0-MD 1-quasi-New 2-CG
   NFREE  =      1    steps in history (QN), initial steepest desc. (CG)
   ISIF   =      2    stress and relaxation
   IWAVPR =     10    prediction:  0-non 1-charg 2-wave 3-comb
   ISYM   =      0    0-nonsym 1-usesym 2-fastsym
   LCORR  =      T    Harris-Foulkes like correction to forces

   POTIM  = 0.5000    time-step for ionic-motion
   TEIN   =    0.0    initial temperature
   TEBEG  =    0.0;   TEEND  =   0.0 temperature during run
   SMASS  =  -3.00    Nose mass-parameter (am)
   estimated Nose-frequenzy (Omega)   =  0.10E-29 period in steps =****** mass=  -0.311E-26a.u.
   SCALEE = 1.0000    scale energy and forces
   NPACO  =    256;   APACO  = 16.0  distance and # of slots for P.C.
   PSTRESS=    0.0 pullay stress

  Mass of Ions in am
   POMASS = 132.90207.20 79.90132.90
  Ionic Valenz
   ZVAL   =   9.00 14.00  7.00  9.00
  Atomic Wigner-Seitz radii
   RWIGS  =  -1.00 -1.00 -1.00 -1.00
  virtual crystal weights 
   VCA    =   1.00  1.00  1.00  1.00
   NELECT =     344.0000    total number of electrons
   NUPDOWN=       0.0000    fix difference up-down

 DOS related values:
   EMIN   =  10.00;   EMAX   =-10.00  energy-range for DOS
   EFERMI =   0.00
   ISMEAR =     0;   SIGMA  =   0.01  broadening in eV -4-tet -1-fermi 0-gaus

 Electronic relaxation 2 (details)
   IALGO  =     38    algorithm
   LDIAG  =      T    sub-space diagonalisation (order eigenvalues)
   LSUBROT=      F    optimize rotation matrix (better conditioning)
   TURBO    =      0    0=normal 1=particle mesh
   IRESTART =      0    0=no restart 2=restart with 2 vectors
   NREBOOT  =      0    no. of reboots
   NMIN     =      0    reboot dimension
   EREF     =   0.00    reference energy to select bands
   IMIX   =      4    mixing-type and parameters
     AMIX     =   0.40;   BMIX     =  1.00
     AMIX_MAG =   1.60;   BMIX_MAG =  1.00
     AMIN     =   0.10
     WC   =   100.;   INIMIX=   1;  MIXPRE=   1;  MAXMIX= -45

 Intra band minimization:
   WEIMIN = 0.0000     energy-eigenvalue tresh-hold
   EBREAK =  0.12E-08  absolut break condition
   DEPER  =   0.30     relativ break condition  

   TIME   =   0.40     timestep for ELM

  volume/ion in A,a.u.               =      41.03       276.90
  Fermi-wavevector in a.u.,A,eV,Ry     =   0.980685  1.853227 13.085320  0.961744
  Thomas-Fermi vector in A             =   2.111635

 Write flags
   LWAVE        =      F    write WAVECAR
   LDOWNSAMPLE  =      F    k-point downsampling of WAVECAR
   LCHARG       =      F    write CHGCAR
   LVTOT        =      F    write LOCPOT, total local potential
   LVHAR        =      T    write LOCPOT, Hartree potential only
   LELF         =      F    write electronic localiz. function (ELF)
   LORBIT       =     10    0 simple, 1 ext, 2 COOP (PROOUT), +10 PAW based schemes


 Dipole corrections
   LMONO  =      F    monopole corrections only (constant potential shift)
   LDIPOL =      F    correct potential (dipole corrections)
   IDIPOL =      0    1-x, 2-y, 3-z, 4-all directions 
   EPSILON=  1.0000000 bulk dielectric constant

 Exchange correlation treatment:
   GGA     =    --    GGA type
   LEXCH   =     8    internal setting for exchange type
   VOSKOWN=      0    Vosko Wilk Nusair interpolation
   LHFCALC =     F    Hartree Fock is set to
   LHFONE  =     F    Hartree Fock one center treatment
   AEXX    =    0.0000 exact exchange contribution

 Linear response parameters
   LEPSILON=     F    determine dielectric tensor
   LRPA    =     F    only Hartree local field effects (RPA)
   LNABLA  =     F    use nabla operator in PAW spheres
   LVEL    =     F    velocity operator in full k-point grid
   LINTERFAST=   F  fast interpolation
   KINTER  =     0    interpolate to denser k-point grid
   CSHIFT  =0.1000    complex shift for real part using Kramers Kronig
   OMEGAMAX=  -1.0    maximum frequency
   DEG_THRESHOLD= 0.2000000E-02 threshold for treating states as degnerate
   RTIME   =   -0.100 relaxation time in fs
  (WPLASMAI=    0.000 imaginary part of plasma frequency in eV, 0.658/RTIME)
   DFIELD  = 0.0000000 0.0000000 0.0000000 field for delta impulse in time

 Orbital magnetization related:
   ORBITALMAG=     F  switch on orbital magnetization
   LCHIMAG   =     F  perturbation theory with respect to B field
   DQ        =  0.001000  dq finite difference perturbation B field
   LLRAUG    =     F  two centre corrections for induced B field



--------------------------------------------------------------------------------------------------------


 Static calculation
 charge density and potential will be updated during run
 non-spin polarized calculation
 Variant of blocked Davidson
 Davidson routine will perform the subspace rotation
 perform sub-space diagonalisation
    after iterative eigenvector-optimisation
 modified Broyden-mixing scheme, WC =      100.0
 initial mixing is a Kerker type mixing with AMIX =  0.4000 and BMIX =      1.0000
 Hartree-type preconditioning will be used
 using additional bands           36
 real space projection scheme for non local part
 use partial core corrections
 calculate Harris-corrections to forces   (improved forces if not selfconsistent)
 use gradient corrections 
 use of overlap-Matrix (Vanderbilt PP)
 Gauss-broadening in eV      SIGMA  =   0.01


--------------------------------------------------------------------------------------------------------


  energy-cutoff  :      300.00
  volume of cell :     1600.27
      direct lattice vectors                 reciprocal lattice vectors
     8.420018000  0.000000000  8.077981000     0.059382296 -0.000000000  0.061896655
     0.000000000 11.763808000  0.000000000     0.000000000  0.085006488 -0.000000000
    -8.420018000  0.000000000  8.077981000    -0.059382296  0.000000000  0.061896655

  length of vectors
    11.668353789 11.763808000 11.668353789     0.085775596  0.085006488  0.085775596



 k-points in units of 2pi/SCALE and weight: 1x1x1                                   
   0.00000000  0.00000000  0.00000000       0.125
   0.02969115  0.00000000  0.03094833       0.125
   0.00000000  0.04250324  0.00000000       0.125
   0.02969115  0.04250324  0.03094833       0.125
  -0.02969115  0.00000000  0.03094833       0.125
   0.00000000  0.00000000  0.06189665       0.125
  -0.02969115  0.04250324  0.03094833       0.125
   0.00000000  0.04250324  0.06189665       0.125

 k-points in reciprocal lattice and weights: 1x1x1                                   
   0.00000000  0.00000000  0.00000000       0.125
   0.50000000  0.00000000  0.00000000       0.125
   0.00000000  0.50000000  0.00000000       0.125
   0.50000000  0.50000000  0.00000000       0.125
   0.00000000  0.00000000  0.50000000       0.125
   0.50000000  0.00000000  0.50000000       0.125
   0.00000000  0.50000000  0.50000000       0.125
   0.50000000  0.50000000  0.50000000       0.125

 position of ions in fractional coordinates (direct lattice) 
   0.27093300  0.24724400  0.19542400
   0.76618200  0.24450400  0.74704000
   0.22302100  0.76744300  0.76870000
   0.27719400  0.23330500  0.73153800
   0.73385000  0.75511400  0.75341900
   0.22897800  0.75279400  0.30482600
   0.00043900  0.99456200  0.01021800
   0.49978900  0.00560100  0.48977000
   0.51181900  0.99834500  0.00133600
   0.98802300  0.00182600  0.49867500
   0.49988900  0.50013600  0.98840100
   0.99988000  0.50054500  0.51164800
   0.01084000  0.50108700  0.99997600
   0.48922900  0.49939700  0.50000900
   0.47967400  0.74714500  0.94286700
   0.95320500  0.75022000  0.46239400
   0.98669400  0.24937100  0.97590600
   0.43631100  0.25200000  0.46643100
   0.06430500  0.74847200  0.03376800
   0.51400500  0.75108800  0.52414000
   0.54565100  0.25012200  0.03671800
   0.02056100  0.25331100  0.55697400
   0.25257000  0.45762100  0.94791700
   0.74473600  0.47199400  0.52596600
   0.44396300  0.52806000  0.24539900
   0.98460200  0.56077000  0.75192000
   0.53893600  0.03183300  0.75028100
   0.05957000  0.02911300  0.25485300
   0.75916000  0.93353000  0.03039400
   0.24288300  0.97167900  0.54345200
   0.25712300  0.02864600  0.95666000
   0.74073200  0.06614300  0.46948300
   0.43998400  0.97147300  0.24521400
   0.96051400  0.96800800  0.74986500
   0.75552900  0.52615100  0.97356100
   0.24759400  0.54296300  0.55248300
   0.51554600  0.44032200  0.74814600
   0.05605100  0.47187700  0.25461600
   0.74984500  0.49732400  0.24971100

 position of ions in cartesian coordinates  (Angst):
   0.63578714  2.90853095  3.76722299
   0.16117598  2.87629811 12.22377856
  -4.59462700  9.02805210  8.01110340
  -3.82558466  2.74455523  8.14851793
  -0.16477133  8.88301611 12.01413072
  -0.63864153  8.85572408  4.31205857
  -0.08233936 11.69983641  0.08608704
   0.08436016  0.06588909  7.99363880
   4.29827605 11.74433890  4.14525634
   4.12031897  0.02148071 12.00951820
  -4.11327983  5.88350388 12.02237834
   4.11092223  5.88831528 12.21009446
  -8.32854292  5.89469126  8.16535244
  -0.09076779  5.87481042  7.99104577
  -3.90009340  8.78927033 11.49125917
   4.13263745  8.82544404 11.43518183
   0.09083515  2.93355256 15.85384551
  -0.25361094  2.96447962  7.29233272
   0.25712209  8.80488090  0.79223183
  -0.08533688  8.83565502  8.38611559
   4.28522502  2.94238718  4.70436572
  -4.51660712  2.97990197  4.66531676
  -5.85483426  5.38336558  9.69751118
   1.84204734  5.55244679 10.26470661
   1.67191245  6.21199645  5.56865314
   1.95918663  6.59679061 14.02759172
  -1.77952870  0.37447730 10.41427043
  -1.64428638  0.34247974  2.53990302
   6.13622284 10.98186768  6.37800221
  -2.53079639 11.43064519  6.35199919
  -5.89011413  0.33698604  9.80491601
   2.28392146  0.77809355  9.77609378
   1.63996691 11.42822185  5.53501643
   1.77366837 11.38746025 13.81640906
  -1.83583336  6.18953934 13.96755617
  -2.56717087  6.38731248  6.46300680
  -1.95849619  5.17986347 10.20807997
  -1.67192087  5.55107043  2.50956212
   4.21113728  5.85042405  8.07439438



--------------------------------------------------------------------------------------------------------


 k-point  1 :   0.0000 0.0000 0.0000  plane waves:   18901
 k-point  2 :   0.5000 0.0000 0.0000  plane waves:   18892
 k-point  3 :   0.0000 0.5000 0.0000  plane waves:   18858
 k-point  4 :   0.5000 0.5000 0.0000  plane waves:   18900
 k-point  5 :   0.0000 0.0000 0.5000  plane waves:   18892
 k-point  6 :   0.5000 0.0000 0.5000  plane waves:   18810
 k-point  7 :   0.0000 0.5000 0.5000  plane waves:   18900
 k-point  8 :   0.5000 0.5000 0.5000  plane waves:   18888

 maximum and minimum number of plane-waves per node :      2391     2328

 maximum number of plane-waves:     18901
 maximum index in each direction: 
   IXMAX=   16   IYMAX=   16   IZMAX=   16
   IXMIN=  -16   IYMIN=  -17   IZMIN=  -16


 real space projection operators:
  total allocation   :      16495.68 KBytes
  max/ min on nodes  :       2157.31       1798.60


 parallel 3D FFT for wavefunctions:
    minimum data exchange during FFTs selected (reduces bandwidth)
 parallel 3D FFT for charge:
    minimum data exchange during FFTs selected (reduces bandwidth)


 total amount of memory used by VASP MPI-rank0    61000. kBytes
=======================================================================

   base      :      30000. kBytes
   nonlr-proj:       6412. kBytes
   fftplans  :       8423. kBytes
   grid      :       7942. kBytes
   one-center:         77. kBytes
   wavefun   :       8146. kBytes

     INWAV:  cpu time    0.0001: real time    0.0001
 Broyden mixing: mesh for mixing (old mesh)
   NGX = 33   NGY = 33   NGZ = 33
  (NGX  =140   NGY  =140   NGZ  =140)
  gives a total of  35937 points

 initial charge density was supplied:
 charge density of overlapping atoms calculated
 number of electron     343.0000000 magnetization 
 keeping initial charge density in first step


--------------------------------------------------------------------------------------------------------


 Maximum index for non-local projection operator          730
 Maximum index for augmentation-charges         3419 (set IRDMAX)


--------------------------------------------------------------------------------------------------------


 First call to EWALD:  gamma=   0.152
 Maximum number of real-space cells 3x 3x 3
 Maximum number of reciprocal cells 3x 3x 3

    FEWALD:  cpu time    0.0042: real time    0.0042


--------------------------------------- Iteration      1(   1)  ---------------------------------------


    POTLOK:  cpu time    0.2654: real time    0.2758
    SETDIJ:  cpu time    1.2004: real time    1.2005
     EDDAV:  cpu time   16.5743: real time   16.5798
       DOS:  cpu time    0.0007: real time    0.0007
    --------------------------------------------
      LOOP:  cpu time   18.0408: real time   18.0568

 eigenvalue-minimisations  :  3472
 total energy-change (2. order) : 0.1365697E+04  (-0.1105115E+05)
 number of electron     343.0000000 magnetization 
 augmentation part      343.0000000 magnetization 

 Free energy of the ion-electron system (eV)
  ---------------------------------------------------
  alpha Z        PSCENC =       835.99855037
  Ewald energy   TEWEN  =    -17357.16031332
  -Hartree energ DENC   =     -7769.48004256
  -exchange      EXHF   =         0.00000000
  -V(xc)+E(xc)   XCENC  =       905.60374527
  PAW double counting   =     21217.07306836   -22257.58625956
  entropy T*S    EENTRO =        -0.00000133
  eigenvalues    EBANDS =      -233.63511770
  atomic energy  EATOM  =     26024.88362379
  Solvation  Ediel_sol  =         0.00000000
  ---------------------------------------------------
  free energy    TOTEN  =      1365.69725331 eV

  energy without entropy =     1365.69725464  energy(sigma->0) =     1365.69725397


--------------------------------------------------------------------------------------------------------




--------------------------------------- Iteration      1(   2)  ---------------------------------------


     EDDAV:  cpu time   18.5336: real time   18.5589
       DOS:  cpu time    0.0004: real time    0.0004
    --------------------------------------------
      LOOP:  cpu time   18.5339: real time   18.5592

 eigenvalue-minimisations  :  4128
 total energy-change (2. order) :-0.2454542E+04  (-0.2371211E+04)
 number of electron     343.0000000 magnetization 
 augmentation part      343.0000000 magnetization 

 Free energy of the ion-electron system (eV)
  ---------------------------------------------------
  alpha Z        PSCENC =       835.99855037
  Ewald energy   TEWEN  =    -17357.16031332
  -Hartree energ DENC   =     -7769.48004256
  -exchange      EXHF   =         0.00000000
  -V(xc)+E(xc)   XCENC  =       905.60374527
  PAW double counting   =     21217.07306836   -22257.58625956
  entropy T*S    EENTRO =        -0.00000000
  eigenvalues    EBANDS =     -2688.17761085
  atomic energy  EATOM  =     26024.88362379
  Solvation  Ediel_sol  =         0.00000000
  ---------------------------------------------------
  free energy    TOTEN  =     -1088.84523851 eV

  energy without entropy =    -1088.84523851  energy(sigma->0) =    -1088.84523851


--------------------------------------------------------------------------------------------------------




--------------------------------------- Iteration      1(   3)  ---------------------------------------


     EDDAV:  cpu time   19.2989: real time   19.3471
       DOS:  cpu time    0.0004: real time    0.0004
    --------------------------------------------
      LOOP:  cpu time   19.2993: real time   19.3475

 eigenvalue-minimisations  :  4408
 total energy-change (2. order) :-0.3637382E+03  (-0.3617028E+03)
 number of electron     343.0000000 magnetization 
 augmentation part      343.0000000 magnetization 

 Free energy of the ion-electron system (eV)
  ---------------------------------------------------
  alpha Z        PSCENC =       835.99855037
  Ewald energy   TEWEN  =    -17357.16031332
  -Hartree energ DENC   =     -7769.48004256
  -exchange      EXHF   =         0.00000000
  -V(xc)+E(xc)   XCENC  =       905.60374527
  PAW double counting   =     21217.07306836   -22257.58625956
  entropy T*S    EENTRO =        -0.00000000
  eigenvalues    EBANDS =     -3051.91578026
  atomic energy  EATOM  =     26024.88362379
  Solvation  Ediel_sol  =         0.00000000
  ---------------------------------------------------
  free energy    TOTEN  =     -1452.58340792 eV

  energy without entropy =    -1452.58340792  energy(sigma->0) =    -1452.58340792


--------------------------------------------------------------------------------------------------------




--------------------------------------- Iteration      1(   4)  ---------------------------------------


     EDDAV:  cpu time   18.0072: real time   18.0162
       DOS:  cpu time    0.0004: real time    0.0004
    --------------------------------------------
      LOOP:  cpu time   18.0076: real time   18.0166

 eigenvalue-minimisations  :  3952
 total energy-change (2. order) :-0.1236112E+02  (-0.1232395E+02)
 number of electron     343.0000000 magnetization 
 augmentation part      343.0000000 magnetization 

 Free energy of the ion-electron system (eV)
  ---------------------------------------------------
  alpha Z        PSCENC =       835.99855037
  Ewald energy   TEWEN  =    -17357.16031332
  -Hartree energ DENC   =     -7769.48004256
  -exchange      EXHF   =         0.00000000
  -V(xc)+E(xc)   XCENC  =       905.60374527
  PAW double counting   =     21217.07306836   -22257.58625956
  entropy T*S    EENTRO =        -0.00000000
  eigenvalues    EBANDS =     -3064.27689617
  atomic energy  EATOM  =     26024.88362379
  Solvation  Ediel_sol  =         0.00000000
  ---------------------------------------------------
  free energy    TOTEN  =     -1464.94452383 eV

  energy without entropy =    -1464.94452383  energy(sigma->0) =    -1464.94452383


--------------------------------------------------------------------------------------------------------




--------------------------------------- Iteration      1(   5)  ---------------------------------------


     EDDAV:  cpu time   19.4542: real time   19.4897
       DOS:  cpu time    0.0005: real time    0.0005
    CHARGE:  cpu time    2.6967: real time    2.6968
    MIXING:  cpu time    0.0014: real time    0.0014
    --------------------------------------------
      LOOP:  cpu time   22.1528: real time   22.1884

 eigenvalue-minimisations  :  4456
 total energy-change (2. order) :-0.5507078E+00  (-0.5504287E+00)
 number of electron     343.9999997 magnetization 
 augmentation part       -4.6056348 magnetization 

 Broyden mixing:
  rms(total) = 0.10356E+01    rms(broyden)= 0.10350E+01
  rms(prec ) = 0.14298E+01
  weight for this iteration     100.00

 Free energy of the ion-electron system (eV)
  ---------------------------------------------------
  alpha Z        PSCENC =       835.99855037
  Ewald energy   TEWEN  =    -17357.16031332
  -Hartree energ DENC   =     -7769.48004256
  -exchange      EXHF   =         0.00000000
  -V(xc)+E(xc)   XCENC  =       905.60374527
  PAW double counting   =     21217.07306836   -22257.58625956
  entropy T*S    EENTRO =        -0.00000000
  eigenvalues    EBANDS =     -3064.82760396
  atomic energy  EATOM  =     26024.88362379
  Solvation  Ediel_sol  =         0.00000000
  ---------------------------------------------------
  free energy    TOTEN  =     -1465.49523162 eV

  energy without entropy =    -1465.49523162  energy(sigma->0) =    -1465.49523162


--------------------------------------------------------------------------------------------------------




--------------------------------------- Iteration      1(   6)  ---------------------------------------


    POTLOK:  cpu time    0.2859: real time    0.3129
    SETDIJ:  cpu time    1.1979: real time    1.1980
     EDDAV:  cpu time   19.0225: real time   19.0232
       DOS:  cpu time    0.0004: real time    0.0004
    CHARGE:  cpu time    2.6821: real time    2.6822
    MIXING:  cpu time    0.0017: real time    0.0017
    --------------------------------------------
      LOOP:  cpu time   23.1905: real time   23.2184

 eigenvalue-minimisations  :  4304
 total energy-change (2. order) : 0.7893337E+02  (-0.2310274E+01)
 number of electron     343.9999997 magnetization 
 augmentation part       -3.2043148 magnetization 

 Broyden mixing:
  rms(total) = 0.72323E+00    rms(broyden)= 0.72313E+00
  rms(prec ) = 0.90071E+00
  weight for this iteration     100.00

 eigenvalues of (default mixing * dielectric matrix)
  average eigenvalue GAMMA=   1.2192
  1.2192

 Free energy of the ion-electron system (eV)
  ---------------------------------------------------
  alpha Z        PSCENC =       835.99855037
  Ewald energy   TEWEN  =    -17357.16031332
  -Hartree energ DENC   =     -7753.81631932
  -exchange      EXHF   =         0.00000000
  -V(xc)+E(xc)   XCENC  =       939.51019742
  PAW double counting   =     21554.95278326   -22594.11073541
  entropy T*S    EENTRO =        -0.00000000
  eigenvalues    EBANDS =     -3036.81964501
  atomic energy  EATOM  =     26024.88362379
  Solvation  Ediel_sol  =         0.00000000
  ---------------------------------------------------
  free energy    TOTEN  =     -1386.56185822 eV

  energy without entropy =    -1386.56185822  energy(sigma->0) =    -1386.56185822


--------------------------------------------------------------------------------------------------------




--------------------------------------- Iteration      1(   7)  ---------------------------------------


    POTLOK:  cpu time    0.3001: real time    0.3121
    SETDIJ:  cpu time    1.1942: real time    1.1942
     EDDAV:  cpu time   18.3179: real time   18.3186
       DOS:  cpu time    0.0004: real time    0.0004
    CHARGE:  cpu time    2.6792: real time    2.6793
    MIXING:  cpu time    0.0016: real time    0.0016
    --------------------------------------------
      LOOP:  cpu time   22.4933: real time   22.5062

 eigenvalue-minimisations  :  4072
 total energy-change (2. order) : 0.4048520E+00  (-0.9611345E+00)
 number of electron     343.9999997 magnetization 
 augmentation part       -2.5578409 magnetization 

 Broyden mixing:
  rms(total) = 0.38201E+00    rms(broyden)= 0.38199E+00
  rms(prec ) = 0.41899E+00
  weight for this iteration     100.00

 eigenvalues of (default mixing * dielectric matrix)
  average eigenvalue GAMMA=   1.2902
  1.2902  1.2902

 Free energy of the ion-electron system (eV)
  ---------------------------------------------------
  alpha Z        PSCENC =       835.99855037
  Ewald energy   TEWEN  =    -17357.16031332
  -Hartree energ DENC   =     -7796.19539349
  -exchange      EXHF   =         0.00000000
  -V(xc)+E(xc)   XCENC  =       944.85177878
  PAW double counting   =     22255.60832732   -23293.13696635
  entropy T*S    EENTRO =        -0.00000000
  eigenvalues    EBANDS =     -3001.00661336
  atomic energy  EATOM  =     26024.88362379
  Solvation  Ediel_sol  =         0.00000000
  ---------------------------------------------------
  free energy    TOTEN  =     -1386.15700626 eV

  energy without entropy =    -1386.15700626  energy(sigma->0) =    -1386.15700626


--------------------------------------------------------------------------------------------------------




--------------------------------------- Iteration      1(   8)  ---------------------------------------


    POTLOK:  cpu time    0.3128: real time    0.3182
    SETDIJ:  cpu time    1.1944: real time    1.1945
     EDDAV:  cpu time   18.1047: real time   18.1056
       DOS:  cpu time    0.0004: real time    0.0004
    CHARGE:  cpu time    2.6819: real time    2.6820
    MIXING:  cpu time    0.0018: real time    0.0018
    --------------------------------------------
      LOOP:  cpu time   22.2960: real time   22.3025

 eigenvalue-minimisations  :  3992
 total energy-change (2. order) :-0.1790107E+00  (-0.4159359E-01)
 number of electron     343.9999997 magnetization 
 augmentation part       -2.6588187 magnetization 

 Broyden mixing:
  rms(total) = 0.22583E+00    rms(broyden)= 0.22582E+00
  rms(prec ) = 0.25163E+00
  weight for this iteration     100.00

 eigenvalues of (default mixing * dielectric matrix)
  average eigenvalue GAMMA=   1.6862
  1.1473  1.2737  2.6376

 Free energy of the ion-electron system (eV)
  ---------------------------------------------------
  alpha Z        PSCENC =       835.99855037
  Ewald energy   TEWEN  =    -17357.16031332
  -Hartree energ DENC   =     -7800.66113710
  -exchange      EXHF   =         0.00000000
  -V(xc)+E(xc)   XCENC  =       945.41672405
  PAW double counting   =     22492.15456295   -23530.16556143
  entropy T*S    EENTRO =        -0.00000000
  eigenvalues    EBANDS =     -2996.80246625
  atomic energy  EATOM  =     26024.88362379
  Solvation  Ediel_sol  =         0.00000000
  ---------------------------------------------------
  free energy    TOTEN  =     -1386.33601695 eV

  energy without entropy =    -1386.33601695  energy(sigma->0) =    -1386.33601695


--------------------------------------------------------------------------------------------------------




--------------------------------------- Iteration      1(   9)  ---------------------------------------


    POTLOK:  cpu time    0.2760: real time    0.3014
    SETDIJ:  cpu time    1.1933: real time    1.1934
     EDDAV:  cpu time   17.0124: real time   17.0131
       DOS:  cpu time    0.0004: real time    0.0004
    CHARGE:  cpu time    2.6760: real time    2.6761
    MIXING:  cpu time    0.0015: real time    0.0015
    --------------------------------------------
      LOOP:  cpu time   21.1597: real time   21.1859

 eigenvalue-minimisations  :  3624
 total energy-change (2. order) :-0.8547637E-01  (-0.1760332E-01)
 number of electron     343.9999997 magnetization 
 augmentation part       -2.7026832 magnetization 

 Broyden mixing:
  rms(total) = 0.45627E-01    rms(broyden)= 0.45624E-01
  rms(prec ) = 0.52657E-01
  weight for this iteration     100.00

 eigenvalues of (default mixing * dielectric matrix)
  average eigenvalue GAMMA=   1.4606
  2.5375  1.2374  1.2374  0.8300

 Free energy of the ion-electron system (eV)
  ---------------------------------------------------
  alpha Z        PSCENC =       835.99855037
  Ewald energy   TEWEN  =    -17357.16031332
  -Hartree energ DENC   =     -7807.85110702
  -exchange      EXHF   =         0.00000000
  -V(xc)+E(xc)   XCENC  =       947.48667952
  PAW double counting   =     22851.65765308   -23890.61788030
  entropy T*S    EENTRO =        -0.00000000
  eigenvalues    EBANDS =     -2990.81869942
  atomic energy  EATOM  =     26024.88362379
  Solvation  Ediel_sol  =         0.00000000
  ---------------------------------------------------
  free energy    TOTEN  =     -1386.42149331 eV

  energy without entropy =    -1386.42149331  energy(sigma->0) =    -1386.42149331


--------------------------------------------------------------------------------------------------------




--------------------------------------- Iteration      1(  10)  ---------------------------------------


    POTLOK:  cpu time    0.2880: real time    0.3148
    SETDIJ:  cpu time    1.1979: real time    1.1979
     EDDAV:  cpu time   20.2734: real time   20.2742
       DOS:  cpu time    0.0007: real time    0.0007
    CHARGE:  cpu time    2.6745: real time    2.6746
    MIXING:  cpu time    0.0016: real time    0.0016
    --------------------------------------------
      LOOP:  cpu time   24.4360: real time   24.4637

 eigenvalue-minimisations  :  4752
 total energy-change (2. order) :-0.2733790E-02  (-0.1607972E-02)
 number of electron     343.9999997 magnetization 
 augmentation part       -2.6883948 magnetization 

 Broyden mixing:
  rms(total) = 0.29654E-01    rms(broyden)= 0.29653E-01
  rms(prec ) = 0.36135E-01
  weight for this iteration     100.00

 eigenvalues of (default mixing * dielectric matrix)
  average eigenvalue GAMMA=   1.3856
  2.2116  1.6201  1.2676  0.9144  0.9144

 Free energy of the ion-electron system (eV)
  ---------------------------------------------------
  alpha Z        PSCENC =       835.99855037
  Ewald energy   TEWEN  =    -17357.16031332
  -Hartree energ DENC   =     -7806.21954954
  -exchange      EXHF   =         0.00000000
  -V(xc)+E(xc)   XCENC  =       947.32196137
  PAW double counting   =     22820.10693937   -23859.12668847
  entropy T*S    EENTRO =        -0.00000000
  eigenvalues    EBANDS =     -2992.22875066
  atomic energy  EATOM  =     26024.88362379
  Solvation  Ediel_sol  =         0.00000000
  ---------------------------------------------------
  free energy    TOTEN  =     -1386.42422710 eV

  energy without entropy =    -1386.42422710  energy(sigma->0) =    -1386.42422710


--------------------------------------------------------------------------------------------------------




--------------------------------------- Iteration      1(  11)  ---------------------------------------


    POTLOK:  cpu time    0.2707: real time    0.3107
    SETDIJ:  cpu time    1.1968: real time    1.1968
     EDDAV:  cpu time   17.1912: real time   17.1918
       DOS:  cpu time    0.0006: real time    0.0006
    CHARGE:  cpu time    2.6921: real time    2.6923
    MIXING:  cpu time    0.0016: real time    0.0016
    --------------------------------------------
      LOOP:  cpu time   21.3531: real time   21.3939

 eigenvalue-minimisations  :  3672
 total energy-change (2. order) :-0.3563879E-02  (-0.3202511E-03)
 number of electron     343.9999997 magnetization 
 augmentation part       -2.6860154 magnetization 

 Broyden mixing:
  rms(total) = 0.11503E-01    rms(broyden)= 0.11502E-01
  rms(prec ) = 0.17463E-01
  weight for this iteration     100.00

 eigenvalues of (default mixing * dielectric matrix)
  average eigenvalue GAMMA=   1.5916
  2.7108  2.7108  1.2004  1.2004  0.8636  0.8636

 Free energy of the ion-electron system (eV)
  ---------------------------------------------------
  alpha Z        PSCENC =       835.99855037
  Ewald energy   TEWEN  =    -17357.16031332
  -Hartree energ DENC   =     -7804.54796611
  -exchange      EXHF   =         0.00000000
  -V(xc)+E(xc)   XCENC  =       947.25521779
  PAW double counting   =     22796.07348511   -23835.31177652
  entropy T*S    EENTRO =        -0.00000000
  eigenvalues    EBANDS =     -2993.61861208
  atomic energy  EATOM  =     26024.88362379
  Solvation  Ediel_sol  =         0.00000000
  ---------------------------------------------------
  free energy    TOTEN  =     -1386.42779098 eV

  energy without entropy =    -1386.42779098  energy(sigma->0) =    -1386.42779098


--------------------------------------------------------------------------------------------------------




--------------------------------------- Iteration      1(  12)  ---------------------------------------


    POTLOK:  cpu time    0.2566: real time    0.3241
    SETDIJ:  cpu time    1.1956: real time    1.1956
     EDDAV:  cpu time   17.2329: real time   17.2336
       DOS:  cpu time    0.0006: real time    0.0006
    CHARGE:  cpu time    2.6921: real time    2.6922
    MIXING:  cpu time    0.0018: real time    0.0018
    --------------------------------------------
      LOOP:  cpu time   21.3795: real time   21.4479

 eigenvalue-minimisations  :  3696
 total energy-change (2. order) :-0.2793373E-02  (-0.2958490E-03)
 number of electron     343.9999997 magnetization 
 augmentation part       -2.6889348 magnetization 

 Broyden mixing:
  rms(total) = 0.78891E-02    rms(broyden)= 0.78882E-02
  rms(prec ) = 0.10422E-01
  weight for this iteration     100.00

 eigenvalues of (default mixing * dielectric matrix)
  average eigenvalue GAMMA=   1.5909
  2.7968  2.7968  1.3296  1.3296  0.9177  0.9827  0.9827

 Free energy of the ion-electron system (eV)
  ---------------------------------------------------
  alpha Z        PSCENC =       835.99855037
  Ewald energy   TEWEN  =    -17357.16031332
  -Hartree energ DENC   =     -7804.22086775
  -exchange      EXHF   =         0.00000000
  -V(xc)+E(xc)   XCENC  =       947.33865420
  PAW double counting   =     22793.70753515   -23833.16998413
  entropy T*S    EENTRO =        -0.00000000
  eigenvalues    EBANDS =     -2993.80778265
  atomic energy  EATOM  =     26024.88362379
  Solvation  Ediel_sol  =         0.00000000
  ---------------------------------------------------
  free energy    TOTEN  =     -1386.43058436 eV

  energy without entropy =    -1386.43058436  energy(sigma->0) =    -1386.43058436


--------------------------------------------------------------------------------------------------------




--------------------------------------- Iteration      1(  13)  ---------------------------------------


    POTLOK:  cpu time    0.2659: real time    0.3214
    SETDIJ:  cpu time    1.1965: real time    1.1966
     EDDAV:  cpu time   19.5262: real time   19.5270
       DOS:  cpu time    0.0004: real time    0.0004
    CHARGE:  cpu time    2.6954: real time    2.6955
    MIXING:  cpu time    0.0019: real time    0.0019
    --------------------------------------------
      LOOP:  cpu time   23.6864: real time   23.7428

 eigenvalue-minimisations  :  4480
 total energy-change (2. order) : 0.1716361E-03  (-0.9077484E-04)
 number of electron     343.9999997 magnetization 
 augmentation part       -2.6900124 magnetization 

 Broyden mixing:
  rms(total) = 0.35156E-02    rms(broyden)= 0.35149E-02
  rms(prec ) = 0.42891E-02
  weight for this iteration     100.00

 eigenvalues of (default mixing * dielectric matrix)
  average eigenvalue GAMMA=   1.5849
  3.1546  2.3108  1.4389  1.4389  1.2361  1.2361  0.9003  0.9639

 Free energy of the ion-electron system (eV)
  ---------------------------------------------------
  alpha Z        PSCENC =       835.99855037
  Ewald energy   TEWEN  =    -17357.16031332
  -Hartree energ DENC   =     -7805.26180380
  -exchange      EXHF   =         0.00000000
  -V(xc)+E(xc)   XCENC  =       947.39811085
  PAW double counting   =     22794.13425490   -23833.55982897
  entropy T*S    EENTRO =        -0.00000000
  eigenvalues    EBANDS =     -2992.86300654
  atomic energy  EATOM  =     26024.88362379
  Solvation  Ediel_sol  =         0.00000000
  ---------------------------------------------------
  free energy    TOTEN  =     -1386.43041272 eV

  energy without entropy =    -1386.43041272  energy(sigma->0) =    -1386.43041272


--------------------------------------------------------------------------------------------------------




--------------------------------------- Iteration      1(  14)  ---------------------------------------


    POTLOK:  cpu time    0.2506: real time    0.3241
    SETDIJ:  cpu time    1.1949: real time    1.1949
     EDDAV:  cpu time   17.3584: real time   17.3592
       DOS:  cpu time    0.0004: real time    0.0004
    CHARGE:  cpu time    2.6899: real time    2.6900
    MIXING:  cpu time    0.0017: real time    0.0017
    --------------------------------------------
      LOOP:  cpu time   21.4959: real time   21.5702

 eigenvalue-minimisations  :  3736
 total energy-change (2. order) : 0.2098413E-04  (-0.2164977E-04)
 number of electron     343.9999997 magnetization 
 augmentation part       -2.6892203 magnetization 

 Broyden mixing:
  rms(total) = 0.18598E-02    rms(broyden)= 0.18586E-02
  rms(prec ) = 0.26142E-02
  weight for this iteration     100.00

 eigenvalues of (default mixing * dielectric matrix)
  average eigenvalue GAMMA=   1.5973
  3.1554  2.2939  2.2939  1.2472  1.2472  1.1547  1.1547  0.9143  0.9143

 Free energy of the ion-electron system (eV)
  ---------------------------------------------------
  alpha Z        PSCENC =       835.99855037
  Ewald energy   TEWEN  =    -17357.16031332
  -Hartree energ DENC   =     -7805.45835874
  -exchange      EXHF   =         0.00000000
  -V(xc)+E(xc)   XCENC  =       947.40901287
  PAW double counting   =     22796.34292673   -23835.75316301
  entropy T*S    EENTRO =        -0.00000000
  eigenvalues    EBANDS =     -2992.69267042
  atomic energy  EATOM  =     26024.88362379
  Solvation  Ediel_sol  =         0.00000000
  ---------------------------------------------------
  free energy    TOTEN  =     -1386.43039174 eV

  energy without entropy =    -1386.43039174  energy(sigma->0) =    -1386.43039174


--------------------------------------------------------------------------------------------------------




--------------------------------------- Iteration      1(  15)  ---------------------------------------


    POTLOK:  cpu time    0.2532: real time    0.3148
    SETDIJ:  cpu time    1.1951: real time    1.1951
     EDDAV:  cpu time   17.1749: real time   17.1758
       DOS:  cpu time    0.0004: real time    0.0004
    CHARGE:  cpu time    2.6948: real time    2.6949
    MIXING:  cpu time    0.0019: real time    0.0019
    --------------------------------------------
      LOOP:  cpu time   21.3202: real time   21.3829

 eigenvalue-minimisations  :  3672
 total energy-change (2. order) :-0.1563685E-04  (-0.3167894E-05)
 number of electron     343.9999997 magnetization 
 augmentation part       -2.6892009 magnetization 

 Broyden mixing:
  rms(total) = 0.10753E-02    rms(broyden)= 0.10737E-02
  rms(prec ) = 0.15513E-02
  weight for this iteration     100.00

 eigenvalues of (default mixing * dielectric matrix)
  average eigenvalue GAMMA=   1.6509
  3.6043  2.4335  2.4335  1.4463  1.4463  1.2051  1.2051  0.9378  0.9378  0.8592

 Free energy of the ion-electron system (eV)
  ---------------------------------------------------
  alpha Z        PSCENC =       835.99855037
  Ewald energy   TEWEN  =    -17357.16031332
  -Hartree energ DENC   =     -7805.64689972
  -exchange      EXHF   =         0.00000000
  -V(xc)+E(xc)   XCENC  =       947.41360147
  PAW double counting   =     22795.85026400   -23835.25080761
  entropy T*S    EENTRO =        -0.00000000
  eigenvalues    EBANDS =     -2992.51842635
  atomic energy  EATOM  =     26024.88362379
  Solvation  Ediel_sol  =         0.00000000
  ---------------------------------------------------
  free energy    TOTEN  =     -1386.43040737 eV

  energy without entropy =    -1386.43040737  energy(sigma->0) =    -1386.43040737


--------------------------------------------------------------------------------------------------------




--------------------------------------- Iteration      1(  16)  ---------------------------------------


    POTLOK:  cpu time    0.2573: real time    0.3189
    SETDIJ:  cpu time    1.1990: real time    1.1990
     EDDAV:  cpu time   16.9700: real time   16.9707
       DOS:  cpu time    0.0005: real time    0.0005
    CHARGE:  cpu time    2.6933: real time    2.6935
    MIXING:  cpu time    0.0019: real time    0.0019
    --------------------------------------------
      LOOP:  cpu time   21.1219: real time   21.1843

 eigenvalue-minimisations  :  3600
 total energy-change (2. order) :-0.5927055E-04  (-0.3032479E-05)
 number of electron     343.9999997 magnetization 
 augmentation part       -2.6887611 magnetization 

 Broyden mixing:
  rms(total) = 0.54825E-03    rms(broyden)= 0.54508E-03
  rms(prec ) = 0.63334E-03
  weight for this iteration     100.00

 eigenvalues of (default mixing * dielectric matrix)
  average eigenvalue GAMMA=   1.7331
  4.2602  2.9096  2.4540  1.8328  1.2212  1.2212  1.1376  1.1376  0.8925  0.9985
  0.9985

 Free energy of the ion-electron system (eV)
  ---------------------------------------------------
  alpha Z        PSCENC =       835.99855037
  Ewald energy   TEWEN  =    -17357.16031332
  -Hartree energ DENC   =     -7805.67081542
  -exchange      EXHF   =         0.00000000
  -V(xc)+E(xc)   XCENC  =       947.40819892
  PAW double counting   =     22795.26243970   -23834.65919647
  entropy T*S    EENTRO =        -0.00000000
  eigenvalues    EBANDS =     -2992.49295421
  atomic energy  EATOM  =     26024.88362379
  Solvation  Ediel_sol  =         0.00000000
  ---------------------------------------------------
  free energy    TOTEN  =     -1386.43046664 eV

  energy without entropy =    -1386.43046664  energy(sigma->0) =    -1386.43046664


--------------------------------------------------------------------------------------------------------




--------------------------------------- Iteration      1(  17)  ---------------------------------------


    POTLOK:  cpu time    0.2793: real time    0.3200
    SETDIJ:  cpu time    1.1976: real time    1.1976
     EDDAV:  cpu time   16.3129: real time   16.3135
       DOS:  cpu time    0.0004: real time    0.0004
    CHARGE:  cpu time    2.6950: real time    2.6951
    MIXING:  cpu time    0.0019: real time    0.0019
    --------------------------------------------
      LOOP:  cpu time   20.4871: real time   20.5285

 eigenvalue-minimisations  :  3352
 total energy-change (2. order) : 0.6539916E-05  (-0.4959938E-06)
 number of electron     343.9999997 magnetization 
 augmentation part       -2.6886650 magnetization 

 Broyden mixing:
  rms(total) = 0.34084E-03    rms(broyden)= 0.33577E-03
  rms(prec ) = 0.37440E-03
  weight for this iteration     100.00

 eigenvalues of (default mixing * dielectric matrix)
  average eigenvalue GAMMA=   1.6552
  4.2190  2.9274  2.4577  1.7893  1.2744  1.2744  1.1218  1.1218  1.0301  1.0301
  0.8620  0.7539

 Free energy of the ion-electron system (eV)
  ---------------------------------------------------
  alpha Z        PSCENC =       835.99855037
  Ewald energy   TEWEN  =    -17357.16031332
  -Hartree energ DENC   =     -7805.67698494
  -exchange      EXHF   =         0.00000000
  -V(xc)+E(xc)   XCENC  =       947.40595104
  PAW double counting   =     22795.70324855   -23835.09565344
  entropy T*S    EENTRO =        -0.00000000
  eigenvalues    EBANDS =     -2992.48888215
  atomic energy  EATOM  =     26024.88362379
  Solvation  Ediel_sol  =         0.00000000
  ---------------------------------------------------
  free energy    TOTEN  =     -1386.43046010 eV

  energy without entropy =    -1386.43046010  energy(sigma->0) =    -1386.43046010


--------------------------------------------------------------------------------------------------------




--------------------------------------- Iteration      1(  18)  ---------------------------------------


    POTLOK:  cpu time    0.2773: real time    0.3086
    SETDIJ:  cpu time    1.1970: real time    1.1971
     EDDAV:  cpu time   12.9610: real time   12.9617
       DOS:  cpu time    0.0004: real time    0.0004
    --------------------------------------------
      LOOP:  cpu time   14.4357: real time   14.4677

 eigenvalue-minimisations  :  2176
 total energy-change (2. order) : 0.5392408E-06  (-0.6038961E-07)
 number of electron     343.9999997 magnetization 
 augmentation part       -2.6886650 magnetization 

 Free energy of the ion-electron system (eV)
  ---------------------------------------------------
  alpha Z        PSCENC =       835.99855037
  Ewald energy   TEWEN  =    -17357.16031332
  -Hartree energ DENC   =     -7805.68007001
  -exchange      EXHF   =         0.00000000
  -V(xc)+E(xc)   XCENC  =       947.40601579
  PAW double counting   =     22795.73944717   -23835.13175168
  entropy T*S    EENTRO =        -0.00000000
  eigenvalues    EBANDS =     -2992.48596167
  atomic energy  EATOM  =     26024.88362379
  Solvation  Ediel_sol  =         0.00000000
  ---------------------------------------------------
  free energy    TOTEN  =     -1386.43045956 eV

  energy without entropy =    -1386.43045956  energy(sigma->0) =    -1386.43045956


--------------------------------------------------------------------------------------------------------




 average (electrostatic) potential at core
  the test charge radii are     1.1312  1.1541  1.0178  1.1312
  (the norm of the test charge is              1.0000)
       1 -55.3697       2 -55.4436       3 -55.3264       4 -55.3285       5 -55.4395
       6 -55.3733       7-101.7880       8-101.7856       9-101.8104      10-101.8115
      11-101.9599      12-101.9595      13-101.9508      14-101.9506      15 -69.1204
      16 -69.0490      17 -69.0733      18 -69.1369      19 -69.1395      20 -69.0724
      21 -69.0552      22 -69.1124      23 -69.3498      24 -69.3184      25 -69.2448
      26 -69.3215      27 -69.0909      28 -69.0514      29 -68.9566      30 -69.0070
      31 -69.0133      32 -68.9659      33 -69.0505      34 -69.0906      35 -69.3177
      36 -69.3452      37 -69.3208      38 -69.2432      39 -55.7966



 E-fermi :   0.2526     XC(G=0):  -7.9089     alpha+bet : -6.8224


 k-point     1 :       0.0000    0.0000    0.0000
  band No.  band energies     occupation 
      1     -21.4017      2.00000
      2     -20.9726      2.00000
      3     -20.9687      2.00000
      4     -20.9099      2.00000
      5     -20.9063      2.00000
      6     -20.8735      2.00000
      7     -20.8707      2.00000
      8     -16.7918      2.00000
      9     -16.7746      2.00000
     10     -16.7603      2.00000
     11     -16.7459      2.00000
     12     -16.7140      2.00000
     13     -16.7124      2.00000
     14     -16.7057      2.00000
     15     -16.6967      2.00000
     16     -16.6393      2.00000
     17     -16.6385      2.00000
     18     -16.6311      2.00000
     19     -16.6305      2.00000
     20     -16.6259      2.00000
     21     -16.6252      2.00000
     22     -16.6157      2.00000
     23     -16.6151      2.00000
     24     -16.6091      2.00000
     25     -16.6084      2.00000
     26     -16.6048      2.00000
     27     -16.6041      2.00000
     28     -16.5985      2.00000
     29     -16.5891      2.00000
     30     -16.5788      2.00000
     31     -16.5769      2.00000
     32     -16.5459      2.00000
     33     -16.5374      2.00000
     34     -16.5301      2.00000
     35     -16.5123      2.00000
     36     -16.4751      2.00000
     37     -16.4742      2.00000
     38     -16.4676      2.00000
     39     -16.4669      2.00000
     40     -16.4614      2.00000
     41     -16.4602      2.00000
     42     -16.4552      2.00000
     43     -16.4529      2.00000
     44     -16.4501      2.00000
     45     -16.4477      2.00000
     46     -16.4377      2.00000
     47     -16.4357      2.00000
     48     -14.6499      2.00000
     49     -14.4634      2.00000
     50     -14.4216      2.00000
     51     -14.4138      2.00000
     52     -14.4032      2.00000
     53     -14.3279      2.00000
     54     -14.2984      2.00000
     55     -14.2843      2.00000
     56     -14.1640      2.00000
     57     -14.1583      2.00000
     58     -14.1452      2.00000
     59     -14.1253      2.00000
     60     -14.1099      2.00000
     61     -14.1021      2.00000
     62     -14.0895      2.00000
     63     -14.0829      2.00000
     64     -14.0611      2.00000
     65     -14.0347      2.00000
     66     -14.0060      2.00000
     67     -13.9937      2.00000
     68     -13.8745      2.00000
     69     -13.8658      2.00000
     70     -13.8267      2.00000
     71     -13.7759      2.00000
     72      -8.4240      2.00000
     73      -8.0415      2.00000
     74      -7.9399      2.00000
     75      -7.8852      2.00000
     76      -7.8349      2.00000
     77      -7.8179      2.00000
     78      -7.7518      2.00000
     79      -7.4051      2.00000
     80      -7.3887      2.00000
     81      -7.3797      2.00000
     82      -7.3726      2.00000
     83      -7.3688      2.00000
     84      -7.3643      2.00000
     85      -7.3626      2.00000
     86      -7.3561      2.00000
     87      -7.3362      2.00000
     88      -7.3348      2.00000
     89      -7.3215      2.00000
     90      -7.3208      2.00000
     91      -7.3195      2.00000
     92      -7.3097      2.00000
     93      -7.2958      2.00000
     94      -7.2941      2.00000
     95      -7.2828      2.00000
     96      -7.2782      2.00000
     97      -7.2615      2.00000
     98      -7.2504      2.00000
     99      -7.2390      2.00000
    100      -6.7535      2.00000
    101      -3.6493      2.00000
    102      -3.6245      2.00000
    103      -3.5184      2.00000
    104      -3.4366      2.00000
    105      -3.3990      2.00000
    106      -3.3650      2.00000
    107      -3.3068      2.00000
    108      -3.2960      2.00000
    109      -3.2300      2.00000
    110      -3.2164      2.00000
    111      -3.1545      2.00000
    112      -3.0383      2.00000
    113      -2.5277      2.00000
    114      -2.3385      2.00000
    115      -2.2846      2.00000
    116      -2.2783      2.00000
    117      -2.1991      2.00000
    118      -2.1003      2.00000
    119      -2.0849      2.00000
    120      -2.0660      2.00000
    121      -1.9978      2.00000
    122      -1.9780      2.00000
    123      -1.9249      2.00000
    124      -1.9053      2.00000
    125      -1.8673      2.00000
    126      -1.8376      2.00000
    127      -1.7556      2.00000
    128      -1.7421      2.00000
    129      -1.7105      2.00000
    130      -1.6996      2.00000
    131      -1.6953      2.00000
    132      -1.6622      2.00000
    133      -1.6317      2.00000
    134      -1.6283      2.00000
    135      -1.6079      2.00000
    136      -1.5906      2.00000
    137      -1.5836      2.00000
    138      -1.5587      2.00000
    139      -1.5489      2.00000
    140      -1.5462      2.00000
    141      -1.5324      2.00000
    142      -1.5125      2.00000
    143      -1.4972      2.00000
    144      -1.4836      2.00000
    145      -1.4466      2.00000
    146      -1.4455      2.00000
    147      -1.4424      2.00000
    148      -1.4058      2.00000
    149      -1.3953      2.00000
    150      -1.3846      2.00000
    151      -1.3775      2.00000
    152      -1.3532      2.00000
    153      -1.3250      2.00000
    154      -1.3216      2.00000
    155      -1.2896      2.00000
    156      -1.2857      2.00000
    157      -1.2645      2.00000
    158      -1.2512      2.00000
[...]


--------------------------------------------------------------------------------------------------------


 soft charge-density along one line, spin component           1
         0         1         2         3         4         5         6         7         8         9
 total charge-density along one line

 pseudopotential strength for first ion, spin component:           1
 18.016  -4.716   0.002  -0.001  -0.001  -0.003   0.001   0.001
 -4.716   1.243  -0.000   0.000   0.000   0.001  -0.000  -0.000
  0.002  -0.000   2.285  -0.000  -0.000  -2.737   0.000   0.000
 -0.001   0.000  -0.000   2.285  -0.000   0.000  -2.737   0.001
 -0.001   0.000  -0.000  -0.000   2.286   0.000   0.001  -2.738
 -0.003   0.001  -2.737   0.000   0.000   3.247  -0.000  -0.000
  0.001  -0.000   0.000  -2.737   0.001  -0.000   3.248  -0.001
  0.001  -0.000   0.000   0.001  -2.738  -0.000  -0.001   3.249
 -0.000   0.000   0.000   0.000   0.001  -0.000  -0.000  -0.002
 -0.000   0.000   0.000   0.001   0.000  -0.000  -0.002  -0.000
 -0.000   0.000  -0.001  -0.002   0.000   0.001   0.002  -0.000
 -0.000   0.000   0.000  -0.001   0.000  -0.000   0.001  -0.000
  0.001  -0.000  -0.001   0.000  -0.001   0.001  -0.000   0.002
 total augmentation occupancy for first ion, spin component:           1
  1.912  -0.140   0.000  -0.000  -0.000   0.001  -0.001  -0.000  -0.000  -0.000  -0.000  -0.001   0.001
 -0.140   0.130   0.006  -0.003  -0.002  -0.003   0.001   0.002   0.001   0.000   0.000   0.001  -0.002
  0.000   0.006   2.015  -0.000  -0.001   0.003  -0.000  -0.000   0.000   0.001  -0.002   0.000  -0.002
 -0.000  -0.003  -0.000   2.017  -0.002  -0.000   0.004  -0.001   0.000   0.002  -0.004  -0.000   0.000
 -0.000  -0.002  -0.001  -0.002   2.019  -0.000  -0.001   0.005   0.002   0.000   0.001   0.001  -0.002
  0.001  -0.003   0.003  -0.000  -0.000   0.010   0.000   0.000  -0.000  -0.002   0.000  -0.000   0.000
 -0.001   0.001  -0.000   0.004  -0.001   0.000   0.009   0.000  -0.000  -0.000   0.003  -0.000   0.000
 -0.000   0.002  -0.000  -0.001   0.005   0.000   0.000   0.009  -0.001  -0.000  -0.001  -0.001   0.002
 -0.000   0.001   0.000   0.000   0.002  -0.000  -0.000  -0.001   0.007   0.001  -0.000   0.000   0.000
 -0.000   0.000   0.001   0.002   0.000  -0.002  -0.000  -0.000   0.001   0.006  -0.000  -0.000   0.000
 -0.000   0.000  -0.002  -0.004   0.001   0.000   0.003  -0.001  -0.000  -0.000   0.006  -0.002  -0.000
 -0.001   0.001   0.000  -0.000   0.001  -0.000  -0.000  -0.001   0.000  -0.000  -0.002   0.004   0.001
  0.001  -0.002  -0.002   0.000  -0.002   0.000   0.000   0.002   0.000   0.000  -0.000   0.001   0.004


------------------------ aborting loop because EDIFF is reached ----------------------------------------





 total charge     

# of ion       s       p       d       tot
------------------------------------------
    1        1.787   4.722   0.021   6.529
    2        1.786   4.721   0.019   6.526
    3        1.788   4.722   0.023   6.533
    4        1.788   4.722   0.023   6.532
    5        1.786   4.721   0.020   6.526
    6        1.787   4.722   0.021   6.529
    7        1.553   0.422   9.833  11.807
    8        1.553   0.422   9.833  11.808
    9        1.554   0.415   9.833  11.801
   10        1.554   0.414   9.833  11.801
   11        1.549   0.439   9.834  11.822
   12        1.549   0.439   9.834  11.822
   13        1.553   0.433   9.835  11.820
   14        1.553   0.433   9.835  11.820
   15        1.614   3.290   0.006   4.910
   16        1.614   3.279   0.006   4.898
   17        1.614   3.286   0.006   4.906
   18        1.614   3.290   0.006   4.911
   19        1.615   3.290   0.006   4.911
   20        1.614   3.286   0.006   4.906
   21        1.614   3.279   0.006   4.899
   22        1.614   3.290   0.006   4.910
   23        1.616   3.290   0.007   4.913
   24        1.616   3.307   0.008   4.931
   25        1.614   3.291   0.006   4.911
   26        1.616   3.293   0.008   4.916
   27        1.614   3.291   0.006   4.910
   28        1.615   3.287   0.006   4.908
   29        1.616   3.277   0.007   4.899
   30        1.614   3.294   0.006   4.913
   31        1.614   3.294   0.006   4.913
   32        1.616   3.277   0.007   4.899
   33        1.615   3.287   0.006   4.908
   34        1.614   3.290   0.006   4.910
   35        1.616   3.306   0.008   4.931
   36        1.616   3.290   0.007   4.913
   37        1.616   3.293   0.008   4.916
   38        1.614   3.291   0.006   4.910
   39        1.794   4.728   0.035   6.557
--------------------------------------------------
tot         63.687 115.418  78.984 258.090

    CHARGE:  cpu time    0.3964: real time    0.3964
    FORLOC:  cpu time    0.0120: real time    0.0120
    FORNL :  cpu time    1.8970: real time    1.8971
    STRESS:  cpu time   49.6676: real time   49.6693
    FORCOR:  cpu time    0.2449: real time    0.2448
    FORHAR:  cpu time    0.0285: real time    0.0285
    MIXING:  cpu time    0.0019: real time    0.0019
    OFIELD:  cpu time    0.0000: real time    0.0000

  FORCE on cell =-STRESS in cart. coord.  units (eV):
  Direction    XX          YY          ZZ          XY          YZ          ZX
  --------------------------------------------------------------------------------------
  Alpha Z   835.99855   835.99855   835.99855
  Ewald   -5681.99921 -5993.88389 -5681.35570    38.75087    21.68540   107.46935
  Hartree  2665.76885  2494.44241  2645.47671    24.86255    17.50707    86.94869
  E(xc)   -1447.17674 -1447.53218 -1447.10707     0.08738    -0.03123    -0.02731
  Local   -3372.91511 -2889.75609 -3352.04308   -63.93538   -39.10691  -193.98945
  n-local  1795.21820  1793.89867  1795.18268     0.22526     0.08359     0.32161
  augment   824.73510   825.14233   824.28017     0.05176     0.02562     0.19120
  Kinetic  4390.11530  4384.30961  4390.85665     1.05066    -0.93426    -2.45152
  Fock        0.00000     0.00000     0.00000     0.00000     0.00000     0.00000
  -------------------------------------------------------------------------------------
  Total       9.74493     2.61940    11.28890     1.09310    -0.77072    -1.53744
  in kB       9.75654     2.62252    11.30235     1.09441    -0.77164    -1.53927
  external pressure =        7.89 kB  Pullay stress =        0.00 kB


 VOLUME and BASIS-vectors are now :
 -----------------------------------------------------------------------------
  energy-cutoff  :      300.00
  volume of cell :     1600.27
      direct lattice vectors                 reciprocal lattice vectors
     8.420018000  0.000000000  8.077981000     0.059382296 -0.000000000  0.061896655
     0.000000000 11.763808000  0.000000000     0.000000000  0.085006488 -0.000000000
    -8.420018000  0.000000000  8.077981000    -0.059382296  0.000000000  0.061896655

  length of vectors
    11.668353789 11.763808000 11.668353789     0.085775596  0.085006488  0.085775596


 FORCES acting on ions
    electron-ion (+dipol)            ewald-force                    non-local-force                 convergence-correction
 -----------------------------------------------------------------------------------------------
   0.394E+02 0.978E+00 -.212E+02   -.394E+02 -.120E+01 0.213E+02   -.819E-01 0.196E+00 -.899E-01   0.216E-03 -.506E-04 -.665E-04
   0.133E+02 0.135E+02 -.971E+01   -.132E+02 -.136E+02 0.958E+01   -.162E+00 0.949E-01 0.129E+00   -.689E-04 0.102E-03 0.219E-04
   -.208E+02 -.357E+01 -.117E+02   0.206E+02 0.371E+01 0.117E+02   0.128E+00 -.141E+00 -.765E-01   -.662E-04 0.214E-03 -.110E-03
   0.205E+02 0.383E+01 0.126E+02   -.203E+02 -.397E+01 -.127E+02   -.129E+00 0.142E+00 0.772E-01   0.590E-04 -.242E-03 0.166E-03
   -.135E+02 -.135E+02 0.959E+01   0.134E+02 0.136E+02 -.947E+01   0.158E+00 -.101E+00 -.131E+00   0.402E-04 -.100E-03 -.162E-04
   -.390E+02 -.116E+01 0.209E+02   0.389E+02 0.138E+01 -.210E+02   0.816E-01 -.193E+00 0.943E-01   -.201E-03 0.408E-04 0.719E-04
   0.104E+03 -.200E+02 0.716E+01   -.102E+03 0.207E+02 -.761E+01   -.168E+01 -.709E+00 0.392E+00   -.108E-02 0.236E-03 0.757E-04
   -.103E+03 0.203E+02 -.628E+01   0.102E+03 -.209E+02 0.667E+01   0.174E+01 0.657E+00 -.356E+00   0.105E-02 -.250E-03 -.992E-04
   0.816E+01 0.107E+02 -.122E+03   -.855E+01 -.110E+02 0.123E+03   0.419E+00 0.219E+00 -.722E+00   -.250E-03 -.893E-04 0.161E-02
   -.829E+01 -.102E+02 0.121E+03   0.866E+01 0.105E+02 -.121E+03   -.401E+00 -.238E+00 0.656E+00   0.244E-03 0.646E-04 -.159E-02
   0.341E+02 -.322E+02 -.817E+02   -.357E+02 0.324E+02 0.845E+02   0.155E+01 -.248E+00 -.292E+01   -.462E-03 0.365E-04 0.188E-02
   -.341E+02 0.300E+02 0.808E+02   0.359E+02 -.302E+02 -.835E+02   -.161E+01 0.244E+00 0.283E+01   0.468E-03 -.333E-05 -.188E-02
   0.830E+02 0.848E+01 -.157E+02   -.844E+02 -.836E+01 0.157E+02   0.151E+01 -.149E+00 0.684E-01   -.136E-02 -.693E-04 0.101E-03
   -.830E+02 -.105E+02 0.158E+02   0.844E+02 0.105E+02 -.158E+02   -.154E+01 0.110E+00 -.104E+00   0.139E-02 0.100E-03 -.866E-04
   0.103E+02 -.150E+02 -.118E+02   -.102E+02 0.152E+02 0.116E+02   -.839E-01 -.175E+00 0.219E+00   -.144E-04 0.106E-03 0.511E-03
   0.800E+01 -.179E+02 0.109E+03   -.809E+01 0.179E+02 -.109E+03   0.764E-01 0.256E-01 0.414E+00   0.868E-04 0.113E-03 -.737E-03
   0.489E+02 0.173E+02 0.194E+02   -.489E+02 -.174E+02 -.195E+02   -.528E-01 0.953E-01 0.946E-01   -.579E-03 -.975E-04 0.210E-03
   -.331E+02 0.783E+01 0.426E+02   0.330E+02 -.786E+01 -.429E+02   0.866E-01 0.386E-01 0.355E+00   0.463E-03 -.786E-04 0.659E-04
   0.337E+02 -.724E+01 -.427E+02   -.336E+02 0.726E+01 0.430E+02   -.909E-01 -.324E-01 -.361E+00   -.474E-03 0.674E-04 -.635E-04
   -.498E+02 -.166E+02 -.192E+02   0.498E+02 0.167E+02 0.193E+02   0.505E-01 -.897E-01 -.101E+00   0.603E-03 0.995E-04 -.207E-03
   -.814E+01 0.184E+02 -.108E+03   0.822E+01 -.184E+02 0.108E+03   -.753E-01 -.223E-01 -.384E+00   -.750E-04 -.110E-03 0.708E-03
   -.105E+02 0.153E+02 0.111E+02   0.104E+02 -.155E+02 -.108E+02   0.745E-01 0.170E+00 -.218E+00   0.181E-04 -.119E-03 -.492E-03
   -.815E+01 0.190E+02 0.120E+02   0.843E+01 -.193E+02 -.124E+02   -.235E+00 0.288E+00 0.381E+00   -.130E-03 -.154E-03 0.137E-03
   -.871E+01 0.223E+02 0.113E+02   0.840E+01 -.224E+02 -.110E+02   -.723E-01 0.643E-01 0.357E-01   0.170E-03 0.484E-04 -.170E-03
   -.548E+01 -.378E+02 0.134E+02   0.537E+01 0.380E+02 -.137E+02   0.109E+00 -.150E+00 0.322E+00   0.180E-03 0.709E-04 0.215E-03
   0.242E+02 -.322E+02 0.144E+02   -.244E+02 0.327E+02 -.144E+02   0.258E+00 -.469E+00 0.400E-01   -.189E-03 0.950E-04 -.135E-03
   -.310E+02 -.986E+01 -.213E+02   0.312E+02 0.994E+01 0.213E+02   -.193E+00 -.710E-01 -.127E-01   0.459E-05 -.222E-04 0.614E-05
   0.247E+02 -.360E+02 0.751E+01   -.245E+02 0.363E+02 -.707E+01   -.150E+00 -.222E+00 -.405E+00   -.403E-03 0.900E-05 -.452E-03
   0.757E+02 0.359E+02 -.609E+02   -.761E+02 -.365E+02 0.610E+02   0.337E+00 0.573E+00 -.136E+00   -.746E-03 -.144E-04 0.604E-03
   0.578E+00 0.981E+01 -.131E+02   -.595E+00 -.989E+01 0.134E+02   0.177E-01 0.883E-01 -.224E+00   0.101E-03 -.734E-04 -.103E-03
   -.546E+00 -.995E+01 0.135E+02   0.564E+00 0.100E+02 -.137E+02   -.199E-01 -.967E-01 0.218E+00   -.882E-04 0.843E-04 0.109E-03
   -.759E+02 -.353E+02 0.603E+02   0.762E+02 0.359E+02 -.605E+02   -.335E+00 -.561E+00 0.141E+00   0.728E-03 -.227E-04 -.605E-03
   -.244E+02 0.364E+02 -.743E+01   0.243E+02 -.366E+02 0.699E+01   0.151E+00 0.214E+00 0.409E+00   0.411E-03 -.253E-04 0.456E-03
   0.306E+02 0.992E+01 0.217E+02   -.308E+02 -.100E+02 -.218E+02   0.198E+00 0.774E-01 0.238E-01   -.106E-04 0.224E-04 -.146E-05
   0.912E+01 -.220E+02 -.110E+02   -.881E+01 0.221E+02 0.107E+02   0.654E-01 -.276E-01 -.197E-01   -.185E-03 -.252E-04 0.163E-03
   0.859E+01 -.191E+02 -.115E+02   -.888E+01 0.194E+02 0.119E+02   0.249E+00 -.287E+00 -.381E+00   0.140E-03 0.163E-03 -.128E-03
   -.247E+02 0.319E+02 -.141E+02   0.249E+02 -.324E+02 0.142E+02   -.261E+00 0.469E+00 -.479E-01   0.177E-03 -.962E-04 0.147E-03
   0.570E+01 0.369E+02 -.138E+02   -.559E+01 -.370E+02 0.142E+02   -.111E+00 0.157E+00 -.322E+00   -.165E-03 -.427E-04 -.217E-03
   -.123E+00 0.154E+01 -.478E+00   0.126E+00 -.156E+01 0.474E+00   0.271E-02 -.845E-02 -.706E-02   0.597E-05 0.223E-04 -.129E-04
 -----------------------------------------------------------------------------------------------
   0.166E-01 0.796E-01 0.121E+00   -.747E-13 0.595E-13 0.178E-13   -.269E-01 -.700E-01 -.114E+00   0.989E-05 0.994E-05 0.997E-04


 POSITION                                       TOTAL-FORCE (eV/Angst)
 -----------------------------------------------------------------------------------
      0.63579      2.90853      3.76722         0.005734     -0.015165     -0.014623
      0.16118      2.87630     12.22378        -0.004523     -0.017162      0.001676
     -4.59463      9.02805      8.01110        -0.010384     -0.004461     -0.012699
     -3.82558      2.74456      8.14852         0.011734      0.005939      0.011069
     -0.16477      8.88302     12.01413         0.000852      0.017385     -0.001664
     -0.63864      8.85572      4.31206        -0.007021      0.017983      0.016444
     -0.08234     11.69984      0.08609        -0.015610      0.002718     -0.031525
      0.08436      0.06589      7.99364         0.002086     -0.007133      0.018093
      4.29828     11.74434      4.14526         0.013661     -0.004350      0.062528
      4.12032      0.02148     12.00952        -0.010979      0.001448     -0.054927
     -4.11328      5.88350     12.02238        -0.089860     -0.020175     -0.110348
      4.11092      5.88832     12.21009         0.091718      0.020014      0.116184
     -8.32854      5.89469      8.16535         0.115649     -0.023151      0.070095
     -0.09077      5.87481      7.99105        -0.113836      0.026465     -0.065795
     -3.90009      8.78927     11.49126         0.009916     -0.014654      0.002816
      4.13264      8.82544     11.43518         0.005324     -0.020347     -0.008414
      0.09084      2.93355     15.85385         0.006555      0.022367      0.000419
     -0.25361      2.96448      7.29233        -0.001404      0.021263     -0.003642
      0.25712      8.80488      0.79223        -0.000203     -0.021844      0.000813
     -0.08534      8.83566      8.38612        -0.005909     -0.023138     -0.002949
      4.28523      2.94239      4.70437        -0.002767      0.023422      0.018786
     -4.51661      2.97990      4.66532        -0.012054      0.009073     -0.003955
     -5.85483      5.38337      9.69751         0.039735      0.002349      0.025797
      1.84205      5.55245     10.26471        -0.352027     -0.067963      0.310350
      1.67191      6.21200      5.56865         0.001200     -0.004202     -0.005144
      1.95919      6.59679     14.02759        -0.001057     -0.015074     -0.007550
     -1.77953      0.37448     10.41427         0.005405      0.011775     -0.001408
     -1.64429      0.34248      2.53990         0.018410     -0.012607     -0.001133
      6.13622     10.98187      6.37800         0.023496      0.000879     -0.001088
     -2.53080     11.43065      6.35200         0.000824      0.006755      0.003965
     -5.89011      0.33699      9.80492        -0.001375     -0.010571     -0.010135
      2.28392      0.77809      9.77609        -0.016118      0.007362      0.007543
      1.63997     11.42822      5.53502        -0.018657      0.008154      0.000768
      1.77367     11.38746     13.81641        -0.000445     -0.009399      0.003929
     -1.83583      6.18954     13.96756         0.341801      0.084111     -0.306473
     -2.56717      6.38731      6.46301        -0.034922     -0.006896     -0.029025
     -1.95850      5.17986     10.20808         0.003759      0.015680      0.003644
     -1.67192      5.55107      2.50956        -0.003442      0.007679      0.005825
      4.21114      5.85042      8.07439         0.004731     -0.014531     -0.008247
 -----------------------------------------------------------------------------------
    total drift:                               -0.010263      0.009640      0.007140


--------------------------------------------------------------------------------------------------------



  FREE ENERGIE OF THE ION-ELECTRON SYSTEM (eV)
  ---------------------------------------------------
  free  energy   TOTEN  =     -1386.43045956 eV

  energy  without entropy=    -1386.43045956  energy(sigma->0) =    -1386.43045956



--------------------------------------------------------------------------------------------------------


    POTLOK:  cpu time    1.4347: real time    1.4348


--------------------------------------------------------------------------------------------------------


 stress matrix after NEB project (eV)
      9.74493      1.09309     -1.53744
      1.09310      2.61940     -0.77079
     -1.53738     -0.77072     11.28890
  FORCES: max atom, RMS     0.474193    0.118267
  FORCE total and by dimension    0.738577    0.352027
  Stress total and by dimension   15.413288   11.288904
     LOOP+:  cpu time  429.8960: real time  430.6081
    4ORBIT:  cpu time    0.0000: real time    0.0000



 total charge     

# of ion       s       p       d       tot
------------------------------------------
    1        1.787   4.722   0.021   6.529
    2        1.786   4.721   0.019   6.526
    3        1.788   4.722   0.023   6.533
    4        1.788   4.722   0.023   6.532
    5        1.786   4.721   0.020   6.526
    6        1.787   4.722   0.021   6.529
    7        1.553   0.422   9.833  11.807
    8        1.553   0.422   9.833  11.808
    9        1.554   0.415   9.833  11.801
   10        1.554   0.414   9.833  11.801
   11        1.549   0.439   9.834  11.822
   12        1.549   0.439   9.834  11.822
   13        1.553   0.433   9.835  11.820
   14        1.553   0.433   9.835  11.820
   15        1.614   3.290   0.006   4.910
   16        1.614   3.279   0.006   4.898
   17        1.614   3.286   0.006   4.906
   18        1.614   3.290   0.006   4.911
   19        1.615   3.290   0.006   4.911
   20        1.614   3.286   0.006   4.906
   21        1.614   3.279   0.006   4.899
   22        1.614   3.290   0.006   4.910
   23        1.616   3.290   0.007   4.913
   24        1.616   3.307   0.008   4.931
   25        1.614   3.291   0.006   4.911
   26        1.616   3.293   0.008   4.916
   27        1.614   3.291   0.006   4.910
   28        1.615   3.287   0.006   4.908
   29        1.616   3.277   0.007   4.899
   30        1.614   3.294   0.006   4.913
   31        1.614   3.294   0.006   4.913
   32        1.616   3.277   0.007   4.899
   33        1.615   3.287   0.006   4.908
   34        1.614   3.290   0.006   4.910
   35        1.616   3.306   0.008   4.931
   36        1.616   3.290   0.007   4.913
   37        1.616   3.293   0.008   4.916
   38        1.614   3.291   0.006   4.910
   39        1.794   4.728   0.035   6.557
--------------------------------------------------
tot         63.687 115.418  78.984 258.090


 total amount of memory used by VASP MPI-rank0    61000. kBytes
=======================================================================

   base      :      30000. kBytes
   nonlr-proj:       6412. kBytes
   fftplans  :       8423. kBytes
   grid      :       7942. kBytes
   one-center:         77. kBytes
   wavefun   :       8146. kBytes

  
  
 General timing and accounting informations for this job:
 ========================================================
  
                  Total CPU time used (sec):      442.428
                            User time (sec):      440.880
                          System time (sec):        1.548
                         Elapsed time (sec):      443.439
  
                   Maximum memory used (kb):       78996.
                   Average memory used (kb):           0.
  
                          Minor page faults:        20942
                          Major page faults:            1
                 Voluntary context switches:         1738
