<?xml version="1.0" encoding="ISO-8859-1"?>
<modeling>
 <generator>
  <i name="program" type="string">vasp </i>
  <i name="version" type="string">5.4.4.18Apr17-6-g9f103f2a35  </i>
  <i name="subversion" type="string">(build Jun 22 2020 09:27:21) complex            parallel </i>
  <i name="platform" type="string">tx2_gcc-7.3_libsci-18.07_cray-fftw-3.3.8 </i>
  <i name="date" type="string">2021 10 12 </i>
  <i name="time" type="string">05:27:32 </i>
 </generator>
 <incar>
  <i type="string" name="SYSTEM"> CsPbBr3 cubic bulk</i>
  <i type="string" name="PREC">accurate</i>
  <i type="string" name="ALGO"> NORMAL   ! Electronic minimisation algo</i>
  <i type="logical" name="ADDGRID"> T  </i>
  <i type="int" name="ISPIN">     1</i>
  <i type="int" name="NELM">   200</i>
  <i type="int" name="IBRION">     2</i>
  <i name="EDIFF">      0.00000100</i>
  <i name="EDIFFG">     -0.01000000</i>
  <i type="int" name="NSW">     0</i>
  <i type="int" name="ISIF">     2</i>
  <i type="int" name="ISYM">     0</i>
  <i name="ENCUT">    300.00000000</i>
  <i name="POTIM">      0.50000000</i>
  <i name="NUPDOWN">      0.00000000</i>
  <i name="NELECT">    344.00000000</i>
  <i type="string" name="LREAL"> AUTO</i>
  <i type="int" name="ISMEAR">     0</i>
  <i name="SIGMA">      0.01000000</i>
  <i type="logical" name="LWAVE"> F  </i>
  <i type="logical" name="LCHARG"> F  </i>
  <i type="logical" name="LVHAR"> T  </i>
  <i type="int" name="LORBIT">    10</i>
  <i type="logical" name="LASPH"> T  </i>
  <v type="int" name="KPOINT_BSE">    -1     0     0     0</v>
  <i type="int" name="NELM">   200</i>
  <i type="string" name="METAGGA"> SCAN       ! PBE exchange-correlation</i>
  <i type="logical" name="LASPH"> T  </i>
 </incar>
 <structure name="primitive_cell" >
  <crystal>
   <varray name="basis" >
    <v>       8.42001800       0.00000000       8.07798100 </v>
    <v>       0.00000000      11.76380800       0.00000000 </v>
    <v>      -8.42001800       0.00000000       8.07798100 </v>
   </varray>
   <i name="volume">   1600.27186790 </i>
   <varray name="rec_basis" >
    <v>       0.05938230      -0.00000000       0.06189665 </v>
    <v>       0.00000000       0.08500649      -0.00000000 </v>
    <v>      -0.05938230       0.00000000       0.06189665 </v>
   </varray>
  </crystal>
  <varray name="positions" >
   <v>       0.27093300       0.24724400       0.19542400 </v>
   <v>       0.43631100       0.25200000       0.46643100 </v>
   <v>       0.05957000       0.02911300       0.25485300 </v>
   <v>       0.05605100       0.47187700       0.25461600 </v>
   <v>      -0.45434900       0.25012200       0.03671800 </v>
   <v>       0.25712300       0.02864600      -0.04334000 </v>
   <v>       0.25257000       0.45762100      -0.05208300 </v>
   <v>       0.43998400      -0.02852700       0.24521400 </v>
   <v>       0.44396300      -0.47194000       0.24539900 </v>
   <v>      -0.01330600       0.24937100      -0.02409400 </v>
   <v>      -0.48818100      -0.00165500       0.00133600 </v>
   <v>       0.49988900      -0.49986400      -0.01159900 </v>
   <v>       0.01084000      -0.49891300      -0.00002400 </v>
   <v>       0.00043900      -0.00543800       0.01021800 </v>
   <v>       0.49978900       0.00560100       0.48977000 </v>
   <v>       0.48922900       0.49939700      -0.49999100 </v>
   <v>       0.24288300      -0.02832100      -0.45654800 </v>
   <v>       0.02056100       0.25331100      -0.44302600 </v>
   <v>       0.27719400       0.23330500      -0.26846200 </v>
   <v>       0.24759400      -0.45703700      -0.44751700 </v>
   <v>      -0.01197700       0.00182600       0.49867500 </v>
   <v>      -0.00012000      -0.49945500      -0.48835200 </v>
   <v>       0.22897800      -0.24720600       0.30482600 </v>
   <v>      -0.25015500       0.49732400       0.24971100 </v>
   <v>      -0.48445400       0.44032200      -0.25185400 </v>
   <v>      -0.25926800       0.06614300       0.46948300 </v>
   <v>       0.06430500      -0.25152800       0.03376800 </v>
   <v>      -0.46106400       0.03183300      -0.24971900 </v>
   <v>      -0.03948600      -0.03199200      -0.25013500 </v>
   <v>       0.47967400      -0.25285500      -0.05713300 </v>
   <v>      -0.01539800      -0.43923000      -0.24808000 </v>
   <v>      -0.24447100      -0.47384900      -0.02643900 </v>
   <v>      -0.25526400       0.47199400      -0.47403400 </v>
   <v>      -0.24084000      -0.06647000       0.03039400 </v>
   <v>      -0.48599500      -0.24891200      -0.47586000 </v>
   <v>       0.22302100      -0.23255700      -0.23130000 </v>
   <v>      -0.04679500      -0.24978000       0.46239400 </v>
   <v>      -0.23381800       0.24450400      -0.25296000 </v>
   <v>      -0.26615000      -0.24488600      -0.24658100 </v>
  </varray>
 </structure>
 <varray name="primitive_index" >
  <v type="int" >        1 </v>
  <v type="int" >       18 </v>
  <v type="int" >       28 </v>
  <v type="int" >       38 </v>
  <v type="int" >       21 </v>
  <v type="int" >       31 </v>
  <v type="int" >       23 </v>
  <v type="int" >       33 </v>
  <v type="int" >       25 </v>
  <v type="int" >       17 </v>
  <v type="int" >        9 </v>
  <v type="int" >       11 </v>
  <v type="int" >       13 </v>
  <v type="int" >        7 </v>
  <v type="int" >        8 </v>
  <v type="int" >       14 </v>
  <v type="int" >       30 </v>
  <v type="int" >       22 </v>
  <v type="int" >        4 </v>
  <v type="int" >       36 </v>
  <v type="int" >       10 </v>
  <v type="int" >       12 </v>
  <v type="int" >        6 </v>
  <v type="int" >       39 </v>
  <v type="int" >       37 </v>
  <v type="int" >       32 </v>
  <v type="int" >       19 </v>
  <v type="int" >       27 </v>
  <v type="int" >       34 </v>
  <v type="int" >       15 </v>
  <v type="int" >       26 </v>
  <v type="int" >       35 </v>
  <v type="int" >       24 </v>
  <v type="int" >       29 </v>
  <v type="int" >       20 </v>
  <v type="int" >        3 </v>
  <v type="int" >       16 </v>
  <v type="int" >        2 </v>
  <v type="int" >        5 </v>
 </varray>
 <kpoints>
  <generation param="Gamma">
   <v type="int" name="divisions">       2        2        2 </v>
   <v name="usershift">      0.00000000       0.00000000       0.00000000 </v>
   <v name="genvec1">      0.50000000       0.00000000       0.00000000 </v>
   <v name="genvec2">      0.00000000       0.50000000       0.00000000 </v>
   <v name="genvec3">      0.00000000       0.00000000       0.50000000 </v>
   <v name="shift">      0.00000000       0.00000000       0.00000000 </v>
  </generation>
  <varray name="kpointlist" >
   <v>       0.00000000       0.00000000       0.00000000 </v>
   <v>       0.50000000       0.00000000       0.00000000 </v>
   <v>       0.00000000       0.50000000       0.00000000 </v>
   <v>       0.50000000       0.50000000       0.00000000 </v>
   <v>       0.00000000       0.00000000       0.50000000 </v>
   <v>       0.50000000       0.00000000       0.50000000 </v>
   <v>       0.00000000       0.50000000       0.50000000 </v>
   <v>       0.50000000       0.50000000       0.50000000 </v>
  </varray>
  <varray name="weights" >
   <v>       0.12500000 </v>
   <v>       0.12500000 </v>
   <v>       0.12500000 </v>
   <v>       0.12500000 </v>
   <v>       0.12500000 </v>
   <v>       0.12500000 </v>
   <v>       0.12500000 </v>
   <v>       0.12500000 </v>
  </varray>
 </kpoints>
 <parameters>
  <separator name="general" >
   <i type="string" name="SYSTEM">CsPbBr3 cubic bulk</i>
   <i type="logical" name="LCOMPAT"> F  </i>
  </separator>
  <separator name="electronic" >
   <i type="string" name="PREC">accura</i>
   <i name="ENMAX">    300.00000000</i>
   <i name="ENAUG">    503.85200000</i>
   <i name="EDIFF">      0.00000100</i>
   <i type="int" name="IALGO">    38</i>
   <i type="int" name="IWAVPR">    10</i>
   <i type="int" name="NBANDS">   208</i>
   <i name="NELECT">    344.00000000</i>
   <i type="int" name="TURBO">     0</i>
   <i type="int" name="IRESTART">     0</i>
   <i type="int" name="NREBOOT">     0</i>
   <i type="int" name="NMIN">     0</i>
   <i name="EREF">      0.00000000</i>
   <separator name="electronic smearing" >
    <i type="int" name="ISMEAR">     0</i>
    <i name="SIGMA">      0.01000000</i>
    <i name="KSPACING">      0.50000000</i>
    <i type="logical" name="KGAMMA"> T  </i>
   </separator>
   <separator name="electronic projectors" >
    <i type="logical" name="LREAL"> T  </i>
    <v name="ROPT">     -0.00025000     -0.00025000     -0.00025000     -0.00025000</v>
    <i type="int" name="LMAXPAW">  -100</i>
    <i type="int" name="LMAXMIX">     2</i>
    <i type="logical" name="NLSPLINE"> F  </i>
   </separator>
   <separator name="electronic startup" >
    <i type="int" name="ISTART">     0</i>
    <i type="int" name="ICHARG">     2</i>
    <i type="int" name="INIWAV">     1</i>
   </separator>
   <separator name="electronic spin" >
    <i type="int" name="ISPIN">     1</i>
    <i type="logical" name="LNONCOLLINEAR"> F  </i>
    <v name="MAGMOM">      0.00000000      0.00000000      0.00000000      0.00000000      0.00000000      0.00000000      0.00000000      0.00000000      0.00000000      0.00000000      0.00000000      0.00000000      0.00000000      0.00000000      0.00000000      0.00000000      0.00000000      0.00000000      0.00000000      0.00000000
      0.00000000      0.00000000      0.00000000      0.00000000      0.00000000      0.00000000      0.00000000      0.00000000      0.00000000      0.00000000      0.00000000      0.00000000      0.00000000      0.00000000      0.00000000      0.00000000      0.00000000      0.00000000      0.00000000</v>
    <i name="NUPDOWN">      0.00000000</i>
    <i type="logical" name="LSORBIT"> F  </i>
    <v name="SAXIS">      0.00000000      0.00000000      1.00000000</v>
    <i type="logical" name="LSPIRAL"> F  </i>
    <v name="QSPIRAL">      0.00000000      0.00000000      0.00000000</v>
    <i type="logical" name="LZEROZ"> F  </i>
   </separator>
   <separator name="electronic exchange-correlation" >
    <i type="logical" name="LASPH"> T  </i>
    <i type="logical" name="LMETAGGA"> F  </i>
   </separator>
   <separator name="electronic convergence" >
    <i type="int" name="NELM">   200</i>
    <i type="int" name="NELMDL">    -5</i>
    <i type="int" name="NELMIN">     2</i>
    <i name="ENINI">    300.00000000</i>
    <separator name="electronic convergence detail" >
     <i type="logical" name="LDIAG"> T  </i>
     <i type="logical" name="LSUBROT"> F  </i>
     <i name="WEIMIN">      0.00000000</i>
     <i name="EBREAK">      0.00000000</i>
     <i name="DEPER">      0.30000000</i>
     <i type="int" name="NRMM">     4</i>
     <i name="TIME">      0.40000000</i>
    </separator>
   </separator>
   <separator name="electronic mixer" >
    <i name="AMIX">      0.40000000</i>
    <i name="BMIX">      1.00000000</i>
    <i name="AMIN">      0.10000000</i>
    <i name="AMIX_MAG">      1.60000000</i>
    <i name="BMIX_MAG">      1.00000000</i>
    <separator name="electronic mixer details" >
     <i type="int" name="IMIX">     4</i>
     <i type="logical" name="MIXFIRST"> F  </i>
     <i type="int" name="MAXMIX">   -45</i>
     <i name="WC">    100.00000000</i>
     <i type="int" name="INIMIX">     1</i>
     <i type="int" name="MIXPRE">     1</i>
     <i type="int" name="MREMOVE">     5</i>
    </separator>
   </separator>
   <separator name="electronic dipolcorrection" >
    <i type="logical" name="LDIPOL"> F  </i>
    <i type="logical" name="LMONO"> F  </i>
    <i type="int" name="IDIPOL">     0</i>
    <i name="EPSILON">      1.00000000</i>
    <v name="DIPOL">   -100.00000000   -100.00000000   -100.00000000</v>
    <i name="EFIELD">      0.00000000</i>
   </separator>
  </separator>
  <separator name="grids" >
   <i type="int" name="NGX">    70</i>
   <i type="int" name="NGY">    70</i>
   <i type="int" name="NGZ">    70</i>
   <i type="int" name="NGXF">   140</i>
   <i type="int" name="NGYF">   140</i>
   <i type="int" name="NGZF">   140</i>
   <i type="logical" name="ADDGRID"> T  </i>
  </separator>
  <separator name="ionic" >
   <i type="int" name="NSW">     0</i>
   <i type="int" name="IBRION">    -1</i>
   <i type="int" name="MDALGO">     0</i>
   <i type="int" name="ISIF">     2</i>
   <i name="PSTRESS">      0.00000000</i>
   <i name="EDIFFG">     -0.01000000</i>
   <i type="int" name="NFREE">     1</i>
   <i name="POTIM">      0.50000000</i>
   <i name="SMASS">     -3.00000000</i>
   <i name="SCALEE">      1.00000000</i>
  </separator>
  <separator name="ionic md" >
   <i name="TEBEG">      0.00010000</i>
   <i name="TEEND">      0.00010000</i>
   <i type="int" name="NBLOCK">     1</i>
   <i type="int" name="KBLOCK">     1</i>
   <i type="int" name="NPACO">   256</i>
   <i name="APACO">     16.00000000</i>
  </separator>
  <separator name="symmetry" >
   <i type="int" name="ISYM">     0</i>
   <i name="SYMPREC">      0.00001000</i>
  </separator>
  <separator name="dos" >
   <i type="int" name="LORBIT">    10</i>
   <v name="RWIGS">     -1.00000000     -1.00000000     -1.00000000     -1.00000000</v>
   <i type="int" name="NEDOS">   301</i>
   <i name="EMIN">     10.00000000</i>
   <i name="EMAX">    -10.00000000</i>
   <i name="EFERMI">      0.00000000</i>
  </separator>
  <separator name="writing" >
   <i type="int" name="NWRITE">     2</i>
   <i type="logical" name="LWAVE"> F  </i>
   <i type="logical" name="LDOWNSAMPLE"> F  </i>
   <i type="logical" name="LCHARG"> F  </i>
   <i type="logical" name="LPARD"> F  </i>
   <i type="logical" name="LVTOT"> F  </i>
   <i type="logical" name="LVHAR"> T  </i>
   <i type="logical" name="LELF"> F  </i>
   <i type="logical" name="LOPTICS"> F  </i>
   <v name="STM">      0.00000000      0.00000000      0.00000000      0.00000000      0.00000000      0.00000000      0.00000000</v>
  </separator>
  <separator name="performance" >
   <i type="int" name="NPAR">     8</i>
   <i type="int" name="NSIM">     4</i>
   <i type="int" name="NBLK">    -1</i>
   <i type="logical" name="LPLANE"> T  </i>
   <i type="logical" name="LSCALAPACK"> T  </i>
   <i type="logical" name="LSCAAWARE"> F  </i>
   <i type="logical" name="LSCALU"> F  </i>
   <i type="logical" name="LASYNC"> F  </i>
   <i type="logical" name="LORBITALREAL"> F  </i>
  </separator>
  <separator name="miscellaneous" >
   <i type="int" name="IDIOT">     3</i>
   <i type="int" name="ISPECIAL">     0</i>
   <i type="logical" name="LMUSIC"> F  </i>
   <v name="POMASS">    132.90000000    207.20000000     79.90400000    132.90000000</v>
   <v name="DARWINR">      0.00000000      0.00000000      0.00000000      0.00000000</v>
   <v name="DARWINV">      1.00000000      1.00000000      1.00000000      1.00000000</v>
   <i type="logical" name="LCORR"> T  </i>
  </separator>
  <i type="logical" name="GGA_COMPAT"> T  </i>
  <i type="logical" name="LBERRY"> F  </i>
  <i type="int" name="ICORELEVEL">     0</i>
  <i type="logical" name="LDAU"> F  </i>
  <i type="int" name="I_CONSTRAINED_M">     0</i>
  <separator name="electronic exchange-correlation" >
   <i type="string" name="GGA">--</i>
   <i type="int" name="VOSKOWN">     0</i>
   <i type="logical" name="LHFCALC"> F  </i>
   <i type="string" name="PRECFOCK"></i>
   <i type="logical" name="LSYMGRAD"> F  </i>
   <i type="logical" name="LHFONE"> F  </i>
   <i type="logical" name="LRHFCALC"> F  </i>
   <i type="logical" name="LTHOMAS"> F  </i>
   <i type="logical" name="LMODELHF"> F  </i>
   <i name="ENCUT4O">     -1.00000000</i>
   <i type="int" name="EXXOEP">     0</i>
   <i type="int" name="FOURORBIT">     0</i>
   <i name="AEXX">      0.00000000</i>
   <i name="HFALPHA">      0.00000000</i>
   <i name="MCALPHA">      0.00000000</i>
   <i name="ALDAX">      1.00000000</i>
   <i name="AGGAX">      1.00000000</i>
   <i name="ALDAC">      1.00000000</i>
   <i name="AGGAC">      1.00000000</i>
   <i type="int" name="NKREDX">     1</i>
   <i type="int" name="NKREDY">     1</i>
   <i type="int" name="NKREDZ">     1</i>
   <i type="logical" name="SHIFTRED"> F  </i>
   <i type="logical" name="ODDONLY"> F  </i>
   <i type="logical" name="EVENONLY"> F  </i>
   <i type="int" name="LMAXFOCK">     0</i>
   <i type="int" name="NMAXFOCKAE">     0</i>
   <i type="logical" name="LFOCKAEDFT"> F  </i>
   <i name="HFSCREEN">      0.00000000</i>
   <i name="HFSCREENC">      0.00000000</i>
   <i type="int" name="NBANDSGWLOW">     0</i>
  </separator>
  <separator name="vdW DFT" >
   <i type="logical" name="LUSE_VDW"> F  </i>
   <i name="Zab_VDW">     -0.84910000</i>
   <i name="PARAM1">      0.12340000</i>
   <i name="PARAM2">      1.00000000</i>
   <i name="PARAM3">      0.00000000</i>
  </separator>
  <separator name="model GW" >
   <i type="int" name="MODEL_GW">     0</i>
   <i name="MODEL_EPS0">     24.61956720</i>
   <i name="MODEL_ALPHA">      1.00000000</i>
  </separator>
  <separator name="linear response parameters" >
   <i type="logical" name="LEPSILON"> F  </i>
   <i type="logical" name="LRPA"> F  </i>
   <i type="logical" name="LNABLA"> F  </i>
   <i type="logical" name="LVEL"> F  </i>
   <i type="int" name="KINTER">     0</i>
   <i name="CSHIFT">      0.10000000</i>
   <i name="OMEGAMAX">     -1.00000000</i>
   <i name="DEG_THRESHOLD">      0.00200000</i>
   <i name="RTIME">     -0.10000000</i>
   <i name="WPLASMAI">      0.00000000</i>
   <v name="DFIELD">      0.00000000      0.00000000      0.00000000</v>
   <v name="WPLASMA">      0.00000000      0.00000000      0.00000000      0.00000000      0.00000000      0.00000000      0.00000000      0.00000000      0.00000000</v>
  </separator>
  <separator name="orbital magnetization" >
   <i type="logical" name="NUCIND"> F  </i>
   <v name="MAGPOS">      0.00000000      0.00000000      0.00000000</v>
   <i type="logical" name="LNICSALL"> T  </i>
   <i type="logical" name="ORBITALMAG"> F  </i>
   <i type="logical" name="LMAGBLOCH"> F  </i>
   <i type="logical" name="LCHIMAG"> F  </i>
   <i type="logical" name="LGAUGE"> T  </i>
   <i type="int" name="MAGATOM">     0</i>
   <v name="MAGDIPOL">      0.00000000      0.00000000      0.00000000</v>
   <v name="AVECCONST">      0.00000000      0.00000000      0.00000000</v>
  </separator>
  <separator name="response functions" >
   <i type="logical" name="LADDER"> F  </i>
   <i type="logical" name="LRPAFORCE"> F  </i>
   <i type="logical" name="LFXC"> F  </i>
   <i type="logical" name="LHARTREE"> T  </i>
   <i type="int" name="IBSE">     0</i>
   <v type="int" name="KPOINT">    -1     0     0     0</v>
   <i type="logical" name="LTCTE"> F  </i>
   <i type="logical" name="LTETE"> F  </i>
   <i type="logical" name="LTRIPLET"> F  </i>
   <i type="logical" name="LFXCEPS"> F  </i>
   <i type="logical" name="LFXHEG"> F  </i>
   <i type="int" name="NATURALO">     2</i>
   <i type="logical" name="L2ORDER"> F  </i>
   <i type="logical" name="LMP2LT"> F  </i>
   <i type="logical" name="LUSEW"> F  </i>
   <i name="ENCUTGW">     -2.00000000</i>
   <i name="ENCUTGWSOFT">     -2.00000000</i>
   <i name="ENCUTLF">     -1.00000000</i>
   <i type="int" name="LMAXMP2">    -1</i>
   <i name="SCISSOR">      0.00000000</i>
   <i type="int" name="NOMEGA">     0</i>
   <i type="int" name="NOMEGAR">     0</i>
   <i type="int" name="NBANDSGW">    -1</i>
   <i type="int" name="NBANDSO">    -1</i>
   <i type="int" name="NBANDSV">    -1</i>
   <i type="int" name="NELM">   200</i>
   <i type="int" name="NELMHF">     1</i>
   <i type="int" name="DIM">     3</i>
   <i type="int" name="ANTIRES">     0</i>
   <i name="OMEGAMAX">    -30.00000000</i>
   <i name="OMEGAMIN">    -30.00000000</i>
   <i name="OMEGATL">   -200.00000000</i>
   <i type="int" name="OMEGAGRID">   140</i>
   <i name="CSHIFT">     -0.10000000</i>
   <i type="logical" name="SELFENERGY"> F  </i>
   <i type="logical" name="LSPECTRAL"> F  </i>
   <i type="logical" name="LSPECTRALGW"> F  </i>
   <i type="logical" name="LSINGLES"> F  </i>
   <i type="logical" name="LFERMIGW"> F  </i>
   <i type="logical" name="ODDONLYGW"> F  </i>
   <i type="logical" name="EVENONLYGW"> F  </i>
   <i type="int" name="NKREDLFX">     1</i>
   <i type="int" name="NKREDLFY">     1</i>
   <i type="int" name="NKREDLFZ">     1</i>
   <i type="int" name="MAXMEM">  2800</i>
   <i type="int" name="TELESCOPE">     0</i>
   <i type="int" name="TAUPAR">     1</i>
   <i type="int" name="OMEGAPAR">    -1</i>
   <i name="LAMBDA">      1.00000000</i>
  </separator>
  <separator name="External order field" >
   <i name="OFIELD_KAPPA">      0.00000000</i>
   <v name="OFIELD_K">      0.00000000      0.00000000      0.00000000</v>
   <i name="OFIELD_Q6_NEAR">      0.00000000</i>
   <i name="OFIELD_Q6_FAR">      0.00000000</i>
   <i name="OFIELD_A">      0.00000000</i>
  </separator>
 </parameters>
 <atominfo>
  <atoms>      39 </atoms>
  <types>       4 </types>
  <array name="atoms" >
   <dimension dim="1">ion</dimension>
   <field type="string">element</field>
   <field type="int">atomtype</field>
   <set>
    <rc><c>Cs</c><c>   1</c></rc>
    <rc><c>Cs</c><c>   1</c></rc>
    <rc><c>Cs</c><c>   1</c></rc>
    <rc><c>Cs</c><c>   1</c></rc>
    <rc><c>Cs</c><c>   1</c></rc>
    <rc><c>Cs</c><c>   1</c></rc>
    <rc><c>Pb</c><c>   2</c></rc>
    <rc><c>Pb</c><c>   2</c></rc>
    <rc><c>Pb</c><c>   2</c></rc>
    <rc><c>Pb</c><c>   2</c></rc>
    <rc><c>Pb</c><c>   2</c></rc>
    <rc><c>Pb</c><c>   2</c></rc>
    <rc><c>Pb</c><c>   2</c></rc>
    <rc><c>Pb</c><c>   2</c></rc>
    <rc><c>Br</c><c>   3</c></rc>
    <rc><c>Br</c><c>   3</c></rc>
    <rc><c>Br</c><c>   3</c></rc>
    <rc><c>Br</c><c>   3</c></rc>
    <rc><c>Br</c><c>   3</c></rc>
    <rc><c>Br</c><c>   3</c></rc>
    <rc><c>Br</c><c>   3</c></rc>
    <rc><c>Br</c><c>   3</c></rc>
    <rc><c>Br</c><c>   3</c></rc>
    <rc><c>Br</c><c>   3</c></rc>
    <rc><c>Br</c><c>   3</c></rc>
    <rc><c>Br</c><c>   3</c></rc>
    <rc><c>Br</c><c>   3</c></rc>
    <rc><c>Br</c><c>   3</c></rc>
    <rc><c>Br</c><c>   3</c></rc>
    <rc><c>Br</c><c>   3</c></rc>
    <rc><c>Br</c><c>   3</c></rc>
    <rc><c>Br</c><c>   3</c></rc>
    <rc><c>Br</c><c>   3</c></rc>
    <rc><c>Br</c><c>   3</c></rc>
    <rc><c>Br</c><c>   3</c></rc>
    <rc><c>Br</c><c>   3</c></rc>
    <rc><c>Br</c><c>   3</c></rc>
    <rc><c>Br</c><c>   3</c></rc>
    <rc><c>Cs</c><c>   4</c></rc>
   </set>
  </array>
  <array name="atomtypes" >
   <dimension dim="1">type</dimension>
   <field type="int">atomspertype</field>
   <field type="string">element</field>
   <field>mass</field>
   <field>valence</field>
   <field type="string">pseudopotential</field>
   <set>
    <rc><c>   6</c><c>Cs</c><c>    132.90000000</c><c>      9.00000000</c><c>  PAW_PBE Cs_sv 08Apr2002               </c></rc>
    <rc><c>   8</c><c>Pb</c><c>    207.20000000</c><c>     14.00000000</c><c>  PAW_PBE Pb_d 06Sep2000                </c></rc>
    <rc><c>  24</c><c>Br</c><c>     79.90400000</c><c>      7.00000000</c><c>  PAW_PBE Br 06Sep2000                  </c></rc>
    <rc><c>   1</c><c>Cs</c><c>    132.90000000</c><c>      9.00000000</c><c>  PAW_PBE Cs_sv 08Apr2002               </c></rc>
   </set>
  </array>
 </atominfo>
 <structure name="initialpos" >
  <crystal>
   <varray name="basis" >
    <v>       8.42001800       0.00000000       8.07798100 </v>
    <v>       0.00000000      11.76380800       0.00000000 </v>
    <v>      -8.42001800       0.00000000       8.07798100 </v>
   </varray>
   <i name="volume">   1600.27186790 </i>
   <varray name="rec_basis" >
    <v>       0.05938230      -0.00000000       0.06189665 </v>
    <v>       0.00000000       0.08500649      -0.00000000 </v>
    <v>      -0.05938230       0.00000000       0.06189665 </v>
   </varray>
  </crystal>
  <varray name="positions" >
   <v>       0.27093300       0.24724400       0.19542400 </v>
   <v>       0.76618200       0.24450400       0.74704000 </v>
   <v>       0.22302100       0.76744300       0.76870000 </v>
   <v>       0.27719400       0.23330500       0.73153800 </v>
   <v>       0.73385000       0.75511400       0.75341900 </v>
   <v>       0.22897800       0.75279400       0.30482600 </v>
   <v>       0.00043900       0.99456200       0.01021800 </v>
   <v>       0.49978900       0.00560100       0.48977000 </v>
   <v>       0.51181900       0.99834500       0.00133600 </v>
   <v>       0.98802300       0.00182600       0.49867500 </v>
   <v>       0.49988900       0.50013600       0.98840100 </v>
   <v>       0.99988000       0.50054500       0.51164800 </v>
   <v>       0.01084000       0.50108700       0.99997600 </v>
   <v>       0.48922900       0.49939700       0.50000900 </v>
   <v>       0.47967400       0.74714500       0.94286700 </v>
   <v>       0.95320500       0.75022000       0.46239400 </v>
   <v>       0.98669400       0.24937100       0.97590600 </v>
   <v>       0.43631100       0.25200000       0.46643100 </v>
   <v>       0.06430500       0.74847200       0.03376800 </v>
   <v>       0.51400500       0.75108800       0.52414000 </v>
   <v>       0.54565100       0.25012200       0.03671800 </v>
   <v>       0.02056100       0.25331100       0.55697400 </v>
   <v>       0.25257000       0.45762100       0.94791700 </v>
   <v>       0.74473600       0.47199400       0.52596600 </v>
   <v>       0.44396300       0.52806000       0.24539900 </v>
   <v>       0.98460200       0.56077000       0.75192000 </v>
   <v>       0.53893600       0.03183300       0.75028100 </v>
   <v>       0.05957000       0.02911300       0.25485300 </v>
   <v>       0.75916000       0.93353000       0.03039400 </v>
   <v>       0.24288300       0.97167900       0.54345200 </v>
   <v>       0.25712300       0.02864600       0.95666000 </v>
   <v>       0.74073200       0.06614300       0.46948300 </v>
   <v>       0.43998400       0.97147300       0.24521400 </v>
   <v>       0.96051400       0.96800800       0.74986500 </v>
   <v>       0.75552900       0.52615100       0.97356100 </v>
   <v>       0.24759400       0.54296300       0.55248300 </v>
   <v>       0.51554600       0.44032200       0.74814600 </v>
   <v>       0.05605100       0.47187700       0.25461600 </v>
   <v>       0.74984500       0.49732400       0.24971100 </v>
  </varray>
 </structure>
 <calculation>
  <scstep>
   <time name="dav">   16.57   16.58</time>
   <time name="total">   18.04   18.06</time>
   <energy>
    <i name="alphaZ">    835.99855037 </i>
    <i name="ewald"> -17357.16031332 </i>
    <i name="hartreedc">  -7769.48004256 </i>
    <i name="XCdc">    905.60374527 </i>
    <i name="pawpsdc">  21217.07306836 </i>
    <i name="pawaedc"> -22257.58625956 </i>
    <i name="eentropy">     -0.00000133 </i>
    <i name="bandstr">   -233.63511770 </i>
    <i name="atom">  26024.88362379 </i>
    <i name="e_fr_energy">   1365.69725331 </i>
    <i name="e_wo_entrp">   1365.69725464 </i>
    <i name="e_0_energy">   1365.69725397 </i>
   </energy>
  </scstep>
  <scstep>
   <time name="dav">   18.53   18.56</time>
   <time name="total">   18.53   18.56</time>
   <energy>
    <i name="e_fr_energy">  -1088.84523851 </i>
    <i name="e_wo_entrp">  -1088.84523851 </i>
    <i name="e_0_energy">  -1088.84523851 </i>
   </energy>
  </scstep>
  <scstep>
   <time name="dav">   19.30   19.35</time>
   <time name="total">   19.30   19.35</time>
   <energy>
    <i name="e_fr_energy">  -1452.58340792 </i>
    <i name="e_wo_entrp">  -1452.58340792 </i>
    <i name="e_0_energy">  -1452.58340792 </i>
   </energy>
  </scstep>
  <scstep>
   <time name="dav">   18.01   18.02</time>
   <time name="total">   18.01   18.02</time>
   <energy>
    <i name="e_fr_energy">  -1464.94452383 </i>
    <i name="e_wo_entrp">  -1464.94452383 </i>
    <i name="e_0_energy">  -1464.94452383 </i>
   </energy>
  </scstep>
  <scstep>
   <time name="dav">   19.45   19.49</time>
   <time name="total">   22.15   22.19</time>
   <energy>
    <i name="e_fr_energy">  -1465.49523162 </i>
    <i name="e_wo_entrp">  -1465.49523162 </i>
    <i name="e_0_energy">  -1465.49523162 </i>
   </energy>
  </scstep>
  <scstep>
   <time name="dav">   19.02   19.02</time>
   <time name="total">   23.19   23.22</time>
   <energy>
    <i name="e_fr_energy">  -1386.56185822 </i>
    <i name="e_wo_entrp">  -1386.56185822 </i>
    <i name="e_0_energy">  -1386.56185822 </i>
   </energy>
  </scstep>
  <scstep>
   <time name="dav">   18.32   18.32</time>
   <time name="total">   22.49   22.51</time>
   <energy>
    <i name="e_fr_energy">  -1386.15700626 </i>
    <i name="e_wo_entrp">  -1386.15700626 </i>
    <i name="e_0_energy">  -1386.15700626 </i>
   </energy>
  </scstep>
  <scstep>
   <time name="dav">   18.10   18.11</time>
   <time name="total">   22.30   22.30</time>
   <energy>
    <i name="e_fr_energy">  -1386.33601695 </i>
    <i name="e_wo_entrp">  -1386.33601695 </i>
    <i name="e_0_energy">  -1386.33601695 </i>
   </energy>
  </scstep>
  <scstep>
   <time name="dav">   17.01   17.01</time>
   <time name="total">   21.16   21.19</time>
   <energy>
    <i name="e_fr_energy">  -1386.42149331 </i>
    <i name="e_wo_entrp">  -1386.42149331 </i>
    <i name="e_0_energy">  -1386.42149331 </i>
   </energy>
  </scstep>
  <scstep>
   <time name="dav">   20.27   20.27</time>
   <time name="total">   24.44   24.46</time>
   <energy>
    <i name="e_fr_energy">  -1386.42422710 </i>
    <i name="e_wo_entrp">  -1386.42422710 </i>
    <i name="e_0_energy">  -1386.42422710 </i>
   </energy>
  </scstep>
  <scstep>
   <time name="dav">   17.19   17.19</time>
   <time name="total">   21.35   21.39</time>
   <energy>
    <i name="e_fr_energy">  -1386.42779098 </i>
    <i name="e_wo_entrp">  -1386.42779098 </i>
    <i name="e_0_energy">  -1386.42779098 </i>
   </energy>
  </scstep>
  <scstep>
   <time name="dav">   17.23   17.23</time>
   <time name="total">   21.38   21.45</time>
   <energy>
    <i name="e_fr_energy">  -1386.43058436 </i>
    <i name="e_wo_entrp">  -1386.43058436 </i>
    <i name="e_0_energy">  -1386.43058436 </i>
   </energy>
  </scstep>
  <scstep>
   <time name="dav">   19.53   19.53</time>
   <time name="total">   23.69   23.74</time>
   <energy>
    <i name="e_fr_energy">  -1386.43041272 </i>
    <i name="e_wo_entrp">  -1386.43041272 </i>
    <i name="e_0_energy">  -1386.43041272 </i>
   </energy>
  </scstep>
  <scstep>
   <time name="dav">   17.36   17.36</time>
   <time name="total">   21.50   21.57</time>
   <energy>
    <i name="e_fr_energy">  -1386.43039174 </i>
    <i name="e_wo_entrp">  -1386.43039174 </i>
    <i name="e_0_energy">  -1386.43039174 </i>
   </energy>
  </scstep>
  <scstep>
   <time name="dav">   17.17   17.18</time>
   <time name="total">   21.32   21.38</time>
   <energy>
    <i name="e_fr_energy">  -1386.43040737 </i>
    <i name="e_wo_entrp">  -1386.43040737 </i>
    <i name="e_0_energy">  -1386.43040737 </i>
   </energy>
  </scstep>
  <scstep>
   <time name="dav">   16.97   16.97</time>
   <time name="total">   21.12   21.18</time>
   <energy>
    <i name="e_fr_energy">  -1386.43046664 </i>
    <i name="e_wo_entrp">  -1386.43046664 </i>
    <i name="e_0_energy">  -1386.43046664 </i>
   </energy>
  </scstep>
  <scstep>
   <time name="dav">   16.31   16.31</time>
   <time name="total">   20.49   20.53</time>
   <energy>
    <i name="e_fr_energy">  -1386.43046010 </i>
    <i name="e_wo_entrp">  -1386.43046010 </i>
    <i name="e_0_energy">  -1386.43046010 </i>
   </energy>
  </scstep>
  <scstep>
   <time name="dav">   12.96   12.96</time>
   <time name="total">   14.44   14.47</time>
   <energy>
    <i name="alphaZ">    835.99855037 </i>
    <i name="ewald"> -17357.16031332 </i>
    <i name="hartreedc">  -7805.68007001 </i>
    <i name="XCdc">    947.40601579 </i>
    <i name="pawpsdc">  22795.73944717 </i>
    <i name="pawaedc"> -23835.13175168 </i>
    <i name="eentropy">     -0.00000000 </i>
    <i name="bandstr">  -2992.48596167 </i>
    <i name="atom">  26024.88362379 </i>
    <i name="e_fr_energy">  -1386.43045956 </i>
    <i name="e_wo_entrp">  -1386.43045956 </i>
    <i name="e_0_energy">  -1386.43045956 </i>
   </energy>
  </scstep>
  <structure>
   <crystal>
    <varray name="basis" >
     <v>       8.42001800       0.00000000       8.07798100 </v>
     <v>       0.00000000      11.76380800       0.00000000 </v>
     <v>      -8.42001800       0.00000000       8.07798100 </v>
    </varray>
    <i name="volume">   1600.27186790 </i>
    <varray name="rec_basis" >
     <v>       0.05938230      -0.00000000       0.06189665 </v>
     <v>       0.00000000       0.08500649      -0.00000000 </v>
     <v>      -0.05938230       0.00000000       0.06189665 </v>
    </varray>
   </crystal>
   <varray name="positions" >
    <v>       0.27093300       0.24724400       0.19542400 </v>
    <v>       0.76618200       0.24450400       0.74704000 </v>
    <v>       0.22302100       0.76744300       0.76870000 </v>
    <v>       0.27719400       0.23330500       0.73153800 </v>
    <v>       0.73385000       0.75511400       0.75341900 </v>
    <v>       0.22897800       0.75279400       0.30482600 </v>
    <v>       0.00043900       0.99456200       0.01021800 </v>
    <v>       0.49978900       0.00560100       0.48977000 </v>
    <v>       0.51181900       0.99834500       0.00133600 </v>
    <v>       0.98802300       0.00182600       0.49867500 </v>
    <v>       0.49988900       0.50013600       0.98840100 </v>
    <v>       0.99988000       0.50054500       0.51164800 </v>
    <v>       0.01084000       0.50108700       0.99997600 </v>
    <v>       0.48922900       0.49939700       0.50000900 </v>
    <v>       0.47967400       0.74714500       0.94286700 </v>
    <v>       0.95320500       0.75022000       0.46239400 </v>
    <v>       0.98669400       0.24937100       0.97590600 </v>
    <v>       0.43631100       0.25200000       0.46643100 </v>
    <v>       0.06430500       0.74847200       0.03376800 </v>
    <v>       0.51400500       0.75108800       0.52414000 </v>
    <v>       0.54565100       0.25012200       0.03671800 </v>
    <v>       0.02056100       0.25331100       0.55697400 </v>
    <v>       0.25257000       0.45762100       0.94791700 </v>
    <v>       0.74473600       0.47199400       0.52596600 </v>
    <v>       0.44396300       0.52806000       0.24539900 </v>
    <v>       0.98460200       0.56077000       0.75192000 </v>
    <v>       0.53893600       0.03183300       0.75028100 </v>
    <v>       0.05957000       0.02911300       0.25485300 </v>
    <v>       0.75916000       0.93353000       0.03039400 </v>
    <v>       0.24288300       0.97167900       0.54345200 </v>
    <v>       0.25712300       0.02864600       0.95666000 </v>
    <v>       0.74073200       0.06614300       0.46948300 </v>
    <v>       0.43998400       0.97147300       0.24521400 </v>
    <v>       0.96051400       0.96800800       0.74986500 </v>
    <v>       0.75552900       0.52615100       0.97356100 </v>
    <v>       0.24759400       0.54296300       0.55248300 </v>
    <v>       0.51554600       0.44032200       0.74814600 </v>
    <v>       0.05605100       0.47187700       0.25461600 </v>
    <v>       0.74984500       0.49732400       0.24971100 </v>
   </varray>
  </structure>
  <varray name="forces" >
   <v>       0.00573445      -0.01516530      -0.01462267 </v>
   <v>      -0.00452330      -0.01716231       0.00167595 </v>
   <v>      -0.01038370      -0.00446107      -0.01269943 </v>
   <v>       0.01173447       0.00593923       0.01106912 </v>
   <v>       0.00085165       0.01738524      -0.00166386 </v>
   <v>      -0.00702146       0.01798309       0.01644422 </v>
   <v>      -0.01560957       0.00271780      -0.03152476 </v>
   <v>       0.00208617      -0.00713259       0.01809279 </v>
   <v>       0.01366079      -0.00435005       0.06252762 </v>
   <v>      -0.01097858       0.00144789      -0.05492686 </v>
   <v>      -0.08985994      -0.02017526      -0.11034765 </v>
   <v>       0.09171823       0.02001414       0.11618358 </v>
   <v>       0.11564889      -0.02315062       0.07009503 </v>
   <v>      -0.11383642       0.02646485      -0.06579466 </v>
   <v>       0.00991650      -0.01465374       0.00281632 </v>
   <v>       0.00532370      -0.02034704      -0.00841405 </v>
   <v>       0.00655509       0.02236720       0.00041885 </v>
   <v>      -0.00140385       0.02126267      -0.00364249 </v>
   <v>      -0.00020260      -0.02184409       0.00081306 </v>
   <v>      -0.00590868      -0.02313757      -0.00294949 </v>
   <v>      -0.00276677       0.02342188       0.01878620 </v>
   <v>      -0.01205392       0.00907280      -0.00395462 </v>
   <v>       0.03973500       0.00234858       0.02579708 </v>
   <v>      -0.35202716      -0.06796251       0.31034992 </v>
   <v>       0.00120032      -0.00420156      -0.00514374 </v>
   <v>      -0.00105694      -0.01507359      -0.00754978 </v>
   <v>       0.00540475       0.01177540      -0.00140816 </v>
   <v>       0.01841015      -0.01260683      -0.00113324 </v>
   <v>       0.02349602       0.00087916      -0.00108757 </v>
   <v>       0.00082361       0.00675500       0.00396454 </v>
   <v>      -0.00137481      -0.01057070      -0.01013485 </v>
   <v>      -0.01611790       0.00736189       0.00754302 </v>
   <v>      -0.01865715       0.00815366       0.00076826 </v>
   <v>      -0.00044498      -0.00939935       0.00392944 </v>
   <v>       0.34180146       0.08411127      -0.30647328 </v>
   <v>      -0.03492175      -0.00689565      -0.02902527 </v>
   <v>       0.00375893       0.01568006       0.00364380 </v>
   <v>      -0.00344154       0.00767869       0.00582458 </v>
   <v>       0.00473086      -0.01453067      -0.00824698 </v>
  </varray>
  <varray name="stress" >
   <v>       9.75653689       1.09438967      -1.53926628 </v>
   <v>       1.09440524       2.62252009      -0.77170357 </v>
   <v>      -1.53921089      -0.77163617      11.30234614 </v>
  </varray>
  <energy>
   <i name="e_fr_energy">  -1386.43045956 </i>
   <i name="e_wo_entrp">  -1386.43045956 </i>
   <i name="e_0_energy">     -0.00000000 </i>
  </energy>
  <time name="totalsc">  429.90  430.61</time>
  <eigenvalues>
   <array>
    <dimension dim="1">band</dimension>
    <dimension dim="2">kpoint</dimension>
    <dimension dim="3">spin</dimension>
    <field>eigene</field>
    <field>occ</field>
    <set>
     <set comment="spin 1">
      <set comment="kpoint 1">
       <r>  -21.4017    1.0000 </r>
       <r>  -20.9726    1.0000 </r>
       <r>  -20.9687    1.0000 </r>
       <r>  -20.9099    1.0000 </r>
       <r>  -20.9063    1.0000 </r>
       <r>  -20.8735    1.0000 </r>
       <r>  -20.8707    1.0000 </r>
       <r>  -16.7918    1.0000 </r>
       <r>  -16.7746    1.0000 </r>
       <r>  -16.7603    1.0000 </r>
       <r>  -16.7459    1.0000 </r>
       <r>  -16.7140    1.0000 </r>
       <r>  -16.7124    1.0000 </r>
       <r>  -16.7057    1.0000 </r>
       <r>  -16.6967    1.0000 </r>
       <r>  -16.6393    1.0000 </r>
       <r>  -16.6385    1.0000 </r>
       <r>  -16.6311    1.0000 </r>
       <r>  -16.6305    1.0000 </r>
       <r>  -16.6259    1.0000 </r>
       <r>  -16.6252    1.0000 </r>
       <r>  -16.6157    1.0000 </r>
       <r>  -16.6151    1.0000 </r>
       <r>  -16.6091    1.0000 </r>
       <r>  -16.6084    1.0000 </r>
       <r>  -16.6048    1.0000 </r>
       <r>  -16.6041    1.0000 </r>
       <r>  -16.5985    1.0000 </r>
       <r>  -16.5891    1.0000 </r>
       <r>  -16.5788    1.0000 </r>
       <r>  -16.5769    1.0000 </r>
       <r>  -16.5459    1.0000 </r>
       <r>  -16.5374    1.0000 </r>
       <r>  -16.5301    1.0000 </r>
       <r>  -16.5123    1.0000 </r>
       <r>  -16.4751    1.0000 </r>
       <r>  -16.4742    1.0000 </r>
       <r>  -16.4676    1.0000 </r>
       <r>  -16.4669    1.0000 </r>
       <r>  -16.4614    1.0000 </r>
       <r>  -16.4602    1.0000 </r>
       <r>  -16.4552    1.0000 </r>
       <r>  -16.4529    1.0000 </r>
       <r>  -16.4501    1.0000 </r>
       <r>  -16.4477    1.0000 </r>
       <r>  -16.4377    1.0000 </r>
       <r>  -16.4357    1.0000 </r>
       <r>  -14.6499    1.0000 </r>
       <r>  -14.4634    1.0000 </r>
       <r>  -14.4216    1.0000 </r>
       <r>  -14.4138    1.0000 </r>
       <r>  -14.4032    1.0000 </r>
       <r>  -14.3279    1.0000 </r>
       <r>  -14.2984    1.0000 </r>
       <r>  -14.2843    1.0000 </r>
       <r>  -14.1640    1.0000 </r>
       <r>  -14.1583    1.0000 </r>
       <r>  -14.1452    1.0000 </r>
       <r>  -14.1253    1.0000 </r>
       <r>  -14.1099    1.0000 </r>
       <r>  -14.1021    1.0000 </r>
       <r>  -14.0895    1.0000 </r>
       <r>  -14.0829    1.0000 </r>
       <r>  -14.0611    1.0000 </r>
       <r>  -14.0347    1.0000 </r>
       <r>  -14.0060    1.0000 </r>
       <r>  -13.9937    1.0000 </r>
       <r>  -13.8745    1.0000 </r>
       <r>  -13.8658    1.0000 </r>
       <r>  -13.8267    1.0000 </r>
       <r>  -13.7759    1.0000 </r>
       <r>   -8.4240    1.0000 </r>
       <r>   -8.0415    1.0000 </r>
       <r>   -7.9399    1.0000 </r>
       <r>   -7.8852    1.0000 </r>
       <r>   -7.8349    1.0000 </r>
       <r>   -7.8179    1.0000 </r>
       <r>   -7.7518    1.0000 </r>
       <r>   -7.4051    1.0000 </r>
       <r>   -7.3887    1.0000 </r>
       <r>   -7.3797    1.0000 </r>
       <r>   -7.3726    1.0000 </r>
       <r>   -7.3688    1.0000 </r>
       <r>   -7.3643    1.0000 </r>
       <r>   -7.3626    1.0000 </r>
       <r>   -7.3561    1.0000 </r>
       <r>   -7.3362    1.0000 </r>
       <r>   -7.3348    1.0000 </r>
       <r>   -7.3215    1.0000 </r>
       <r>   -7.3208    1.0000 </r>
       <r>   -7.3195    1.0000 </r>
       <r>   -7.3097    1.0000 </r>
       <r>   -7.2958    1.0000 </r>
       <r>   -7.2941    1.0000 </r>
       <r>   -7.2828    1.0000 </r>
       <r>   -7.2782    1.0000 </r>
       <r>   -7.2615    1.0000 </r>
       <r>   -7.2504    1.0000 </r>
       <r>   -7.2390    1.0000 </r>
       <r>   -6.7535    1.0000 </r>
       <r>   -3.6493    1.0000 </r>
       <r>   -3.6245    1.0000 </r>
       <r>   -3.5184    1.0000 </r>
       <r>   -3.4366    1.0000 </r>
       <r>   -3.3990    1.0000 </r>
       <r>   -3.3650    1.0000 </r>
       <r>   -3.3068    1.0000 </r>
       <r>   -3.2960    1.0000 </r>
       <r>   -3.2300    1.0000 </r>
       <r>   -3.2164    1.0000 </r>
       <r>   -3.1545    1.0000 </r>
       <r>   -3.0383    1.0000 </r>
       <r>   -2.5277    1.0000 </r>
       <r>   -2.3385    1.0000 </r>
       <r>   -2.2846    1.0000 </r>
       <r>   -2.2783    1.0000 </r>
       <r>   -2.1991    1.0000 </r>
       <r>   -2.1003    1.0000 </r>
       <r>   -2.0849    1.0000 </r>
       <r>   -2.0660    1.0000 </r>
       <r>   -1.9978    1.0000 </r>
       <r>   -1.9780    1.0000 </r>
       <r>   -1.9249    1.0000 </r>
       <r>   -1.9053    1.0000 </r>
       <r>   -1.8673    1.0000 </r>
       <r>   -1.8376    1.0000 </r>
       <r>   -1.7556    1.0000 </r>
       <r>   -1.7421    1.0000 </r>
       <r>   -1.7105    1.0000 </r>
       <r>   -1.6996    1.0000 </r>
       <r>   -1.6953    1.0000 </r>
       <r>   -1.6622    1.0000 </r>
       <r>   -1.6317    1.0000 </r>
       <r>   -1.6283    1.0000 </r>
       <r>   -1.6079    1.0000 </r>
       <r>   -1.5906    1.0000 </r>
       <r>   -1.5836    1.0000 </r>
       <r>   -1.5587    1.0000 </r>
       <r>   -1.5489    1.0000 </r>
       <r>   -1.5462    1.0000 </r>
       <r>   -1.5324    1.0000 </r>
       <r>   -1.5125    1.0000 </r>
       <r>   -1.4972    1.0000 </r>
       <r>   -1.4836    1.0000 </r>
       <r>   -1.4466    1.0000 </r>
       <r>   -1.4455    1.0000 </r>
       <r>   -1.4424    1.0000 </r>
       <r>   -1.4058    1.0000 </r>
       <r>   -1.3953    1.0000 </r>
       <r>   -1.3846    1.0000 </r>
       <r>   -1.3775    1.0000 </r>
       <r>   -1.3532    1.0000 </r>
       <r>   -1.3250    1.0000 </r>
       <r>   -1.3216    1.0000 </r>
       <r>   -1.2896    1.0000 </r>
       <r>   -1.2857    1.0000 </r>
       <r>   -1.2645    1.0000 </r>
       <r>   -1.2512    1.0000 </r>
       <r>   -1.2380    1.0000 </r>
       <r>   -1.1612    1.0000 </r>
       <r>   -1.0971    1.0000 </r>
       <r>   -1.0938    1.0000 </r>
       <r>   -1.0695    1.0000 </r>
       <r>   -1.0621    1.0000 </r>
       <r>   -0.9519    1.0000 </r>
       <r>   -0.8353    1.0000 </r>
       <r>   -0.8057    1.0000 </r>
       <r>   -0.7790    1.0000 </r>
       <r>   -0.4041    1.0000 </r>
       <r>   -0.3442    1.0000 </r>
       <r>   -0.3068    1.0000 </r>
       <r>    0.2085    1.0000 </r>
       <r>    2.5630    0.0000 </r>
       <r>    2.6782    0.0000 </r>
       <r>    2.7793    0.0000 </r>
       <r>    2.8882    0.0000 </r>
       <r>    2.9131    0.0000 </r>
       <r>    2.9567    0.0000 </r>
       <r>    2.9777    0.0000 </r>
       <r>    3.0098    0.0000 </r>
       <r>    3.1849    0.0000 </r>
       <r>    3.3165    0.0000 </r>
       <r>    3.3853    0.0000 </r>
       <r>    3.4239    0.0000 </r>
       <r>    4.5495    0.0000 </r>
       <r>    4.7787    0.0000 </r>
       <r>    5.3546    0.0000 </r>
       <r>    5.3631    0.0000 </r>
       <r>    5.5011    0.0000 </r>
       <r>    5.5532    0.0000 </r>
       <r>    5.5694    0.0000 </r>
       <r>    5.7060    0.0000 </r>
       <r>    5.8082    0.0000 </r>
       <r>    5.8236    0.0000 </r>
       <r>    5.9152    0.0000 </r>
       <r>    5.9658    0.0000 </r>
       <r>    5.9946    0.0000 </r>
       <r>    6.0445    0.0000 </r>
       <r>    6.0608    0.0000 </r>
       <r>    6.1050    0.0000 </r>
       <r>    6.1702    0.0000 </r>
       <r>    6.2352    0.0000 </r>
       <r>    6.2609    0.0000 </r>
       <r>    6.2842    0.0000 </r>
       <r>    6.4115    0.0000 </r>
       <r>    6.4180    0.0000 </r>
       <r>    6.5127    0.0000 </r>
       <r>    6.6389    0.0000 </r>
      </set>
      <set comment="kpoint 2">
       <r>  -21.4017    1.0000 </r>
       <r>  -20.9726    1.0000 </r>
       <r>  -20.9687    1.0000 </r>
       <r>  -20.9099    1.0000 </r>
       <r>  -20.9063    1.0000 </r>
       <r>  -20.8735    1.0000 </r>
       <r>  -20.8707    1.0000 </r>
       <r>  -16.7739    1.0000 </r>
       <r>  -16.7686    1.0000 </r>
       <r>  -16.7474    1.0000 </r>
       <r>  -16.7414    1.0000 </r>
       <r>  -16.7330    1.0000 </r>
       <r>  -16.7311    1.0000 </r>
       <r>  -16.7048    1.0000 </r>
       <r>  -16.7041    1.0000 </r>
       <r>  -16.6387    1.0000 </r>
       <r>  -16.6380    1.0000 </r>
       <r>  -16.6307    1.0000 </r>
       <r>  -16.6303    1.0000 </r>
       <r>  -16.6259    1.0000 </r>
       <r>  -16.6253    1.0000 </r>
       <r>  -16.6157    1.0000 </r>
       <r>  -16.6151    1.0000 </r>
       <r>  -16.6091    1.0000 </r>
       <r>  -16.6084    1.0000 </r>
       <r>  -16.6049    1.0000 </r>
       <r>  -16.6042    1.0000 </r>
       <r>  -16.5926    1.0000 </r>
       <r>  -16.5908    1.0000 </r>
       <r>  -16.5659    1.0000 </r>
       <r>  -16.5651    1.0000 </r>
       <r>  -16.5497    1.0000 </r>
       <r>  -16.5469    1.0000 </r>
       <r>  -16.5325    1.0000 </r>
       <r>  -16.5270    1.0000 </r>
       <r>  -16.4751    1.0000 </r>
       <r>  -16.4742    1.0000 </r>
       <r>  -16.4674    1.0000 </r>
       <r>  -16.4668    1.0000 </r>
       <r>  -16.4614    1.0000 </r>
       <r>  -16.4602    1.0000 </r>
       <r>  -16.4552    1.0000 </r>
       <r>  -16.4530    1.0000 </r>
       <r>  -16.4501    1.0000 </r>
       <r>  -16.4477    1.0000 </r>
       <r>  -16.4377    1.0000 </r>
       <r>  -16.4357    1.0000 </r>
       <r>  -14.5904    1.0000 </r>
       <r>  -14.5877    1.0000 </r>
       <r>  -14.4608    1.0000 </r>
       <r>  -14.4092    1.0000 </r>
       <r>  -14.3265    1.0000 </r>
       <r>  -14.3054    1.0000 </r>
       <r>  -14.2790    1.0000 </r>
       <r>  -14.2523    1.0000 </r>
       <r>  -14.1783    1.0000 </r>
       <r>  -14.1679    1.0000 </r>
       <r>  -14.1433    1.0000 </r>
       <r>  -14.1412    1.0000 </r>
       <r>  -14.1138    1.0000 </r>
       <r>  -14.1101    1.0000 </r>
       <r>  -14.1035    1.0000 </r>
       <r>  -14.0951    1.0000 </r>
       <r>  -14.0858    1.0000 </r>
       <r>  -14.0555    1.0000 </r>
       <r>  -13.9189    1.0000 </r>
       <r>  -13.9081    1.0000 </r>
       <r>  -13.8811    1.0000 </r>
       <r>  -13.8746    1.0000 </r>
       <r>  -13.8552    1.0000 </r>
       <r>  -13.8297    1.0000 </r>
       <r>   -8.1948    1.0000 </r>
       <r>   -8.1832    1.0000 </r>
       <r>   -7.9485    1.0000 </r>
       <r>   -7.8632    1.0000 </r>
       <r>   -7.8242    1.0000 </r>
       <r>   -7.6818    1.0000 </r>
       <r>   -7.6683    1.0000 </r>
       <r>   -7.6311    1.0000 </r>
       <r>   -7.6027    1.0000 </r>
       <r>   -7.3860    1.0000 </r>
       <r>   -7.3743    1.0000 </r>
       <r>   -7.3672    1.0000 </r>
       <r>   -7.3662    1.0000 </r>
       <r>   -7.3627    1.0000 </r>
       <r>   -7.3508    1.0000 </r>
       <r>   -7.3393    1.0000 </r>
       <r>   -7.3313    1.0000 </r>
       <r>   -7.3239    1.0000 </r>
       <r>   -7.3191    1.0000 </r>
       <r>   -7.3165    1.0000 </r>
       <r>   -7.2959    1.0000 </r>
       <r>   -7.2932    1.0000 </r>
       <r>   -7.2876    1.0000 </r>
       <r>   -7.2792    1.0000 </r>
       <r>   -7.2763    1.0000 </r>
       <r>   -7.2609    1.0000 </r>
       <r>   -7.2541    1.0000 </r>
       <r>   -7.0939    1.0000 </r>
       <r>   -7.0551    1.0000 </r>
       <r>   -3.5847    1.0000 </r>
       <r>   -3.4718    1.0000 </r>
       <r>   -3.3785    1.0000 </r>
       <r>   -3.3691    1.0000 </r>
       <r>   -3.2967    1.0000 </r>
       <r>   -3.2665    1.0000 </r>
       <r>   -3.2399    1.0000 </r>
       <r>   -3.2282    1.0000 </r>
       <r>   -2.8697    1.0000 </r>
       <r>   -2.7952    1.0000 </r>
       <r>   -2.7003    1.0000 </r>
       <r>   -2.6994    1.0000 </r>
       <r>   -2.5317    1.0000 </r>
       <r>   -2.4881    1.0000 </r>
       <r>   -2.4620    1.0000 </r>
       <r>   -2.4522    1.0000 </r>
       <r>   -2.3695    1.0000 </r>
       <r>   -2.3550    1.0000 </r>
       <r>   -2.2321    1.0000 </r>
       <r>   -2.2164    1.0000 </r>
       <r>   -2.1731    1.0000 </r>
       <r>   -2.0613    1.0000 </r>
       <r>   -2.0538    1.0000 </r>
       <r>   -1.9874    1.0000 </r>
       <r>   -1.9527    1.0000 </r>
       <r>   -1.8822    1.0000 </r>
       <r>   -1.8799    1.0000 </r>
       <r>   -1.8161    1.0000 </r>
       <r>   -1.7933    1.0000 </r>
       <r>   -1.7901    1.0000 </r>
       <r>   -1.7214    1.0000 </r>
       <r>   -1.6734    1.0000 </r>
       <r>   -1.6722    1.0000 </r>
       <r>   -1.6482    1.0000 </r>
       <r>   -1.6337    1.0000 </r>
       <r>   -1.6126    1.0000 </r>
       <r>   -1.5888    1.0000 </r>
       <r>   -1.5818    1.0000 </r>
       <r>   -1.5519    1.0000 </r>
       <r>   -1.5385    1.0000 </r>
       <r>   -1.5191    1.0000 </r>
       <r>   -1.5085    1.0000 </r>
       <r>   -1.4726    1.0000 </r>
       <r>   -1.4669    1.0000 </r>
       <r>   -1.4531    1.0000 </r>
       <r>   -1.4496    1.0000 </r>
       <r>   -1.4172    1.0000 </r>
       <r>   -1.3976    1.0000 </r>
       <r>   -1.3903    1.0000 </r>
       <r>   -1.3883    1.0000 </r>
       <r>   -1.3550    1.0000 </r>
       <r>   -1.3510    1.0000 </r>
       <r>   -1.3334    1.0000 </r>
       <r>   -1.3118    1.0000 </r>
       <r>   -1.2848    1.0000 </r>
       <r>   -1.2772    1.0000 </r>
       <r>   -1.2512    1.0000 </r>
       <r>   -1.2120    1.0000 </r>
       <r>   -1.1758    1.0000 </r>
       <r>   -1.1728    1.0000 </r>
       <r>   -1.1688    1.0000 </r>
       <r>   -1.1229    1.0000 </r>
       <r>   -1.1022    1.0000 </r>
       <r>   -1.0798    1.0000 </r>
       <r>   -0.9608    1.0000 </r>
       <r>   -0.9175    1.0000 </r>
       <r>   -0.7580    1.0000 </r>
       <r>   -0.7289    1.0000 </r>
       <r>   -0.6828    1.0000 </r>
       <r>   -0.6153    1.0000 </r>
       <r>   -0.2494    1.0000 </r>
       <r>   -0.1222    1.0000 </r>
       <r>    2.7291    0.0000 </r>
       <r>    2.7795    0.0000 </r>
       <r>    2.7991    0.0000 </r>
       <r>    2.8035    0.0000 </r>
       <r>    3.0676    0.0000 </r>
       <r>    3.0793    0.0000 </r>
       <r>    3.1952    0.0000 </r>
       <r>    3.2440    0.0000 </r>
       <r>    3.7498    0.0000 </r>
       <r>    4.1301    0.0000 </r>
       <r>    4.2923    0.0000 </r>
       <r>    4.3668    0.0000 </r>
       <r>    4.3944    0.0000 </r>
       <r>    4.4360    0.0000 </r>
       <r>    4.5470    0.0000 </r>
       <r>    4.7169    0.0000 </r>
       <r>    5.2662    0.0000 </r>
       <r>    5.4086    0.0000 </r>
       <r>    5.4211    0.0000 </r>
       <r>    5.4768    0.0000 </r>
       <r>    5.5903    0.0000 </r>
       <r>    5.6053    0.0000 </r>
       <r>    5.7444    0.0000 </r>
       <r>    5.7969    0.0000 </r>
       <r>    5.8465    0.0000 </r>
       <r>    5.9830    0.0000 </r>
       <r>    6.0538    0.0000 </r>
       <r>    6.1238    0.0000 </r>
       <r>    6.1675    0.0000 </r>
       <r>    6.2007    0.0000 </r>
       <r>    6.2929    0.0000 </r>
       <r>    6.3093    0.0000 </r>
       <r>    6.3748    0.0000 </r>
       <r>    6.4941    0.0000 </r>
       <r>    6.5488    0.0000 </r>
       <r>    6.6137    0.0000 </r>
      </set>
      <set comment="kpoint 3">
       <r>  -21.4017    1.0000 </r>
       <r>  -20.9724    1.0000 </r>
       <r>  -20.9688    1.0000 </r>
       <r>  -20.9098    1.0000 </r>
       <r>  -20.9065    1.0000 </r>
       <r>  -20.8733    1.0000 </r>
       <r>  -20.8710    1.0000 </r>
       <r>  -16.7917    1.0000 </r>
       <r>  -16.7738    1.0000 </r>
       <r>  -16.7594    1.0000 </r>
       <r>  -16.7425    1.0000 </r>
       <r>  -16.7101    1.0000 </r>
       <r>  -16.7091    1.0000 </r>
       <r>  -16.7024    1.0000 </r>
       <r>  -16.6965    1.0000 </r>
       <r>  -16.6393    1.0000 </r>
       <r>  -16.6384    1.0000 </r>
       <r>  -16.6311    1.0000 </r>
       <r>  -16.6304    1.0000 </r>
       <r>  -16.6258    1.0000 </r>
       <r>  -16.6251    1.0000 </r>
       <r>  -16.6157    1.0000 </r>
       <r>  -16.6151    1.0000 </r>
       <r>  -16.6092    1.0000 </r>
       <r>  -16.6084    1.0000 </r>
       <r>  -16.6049    1.0000 </r>
       <r>  -16.6042    1.0000 </r>
       <r>  -16.5988    1.0000 </r>
       <r>  -16.5917    1.0000 </r>
       <r>  -16.5814    1.0000 </r>
       <r>  -16.5801    1.0000 </r>
       <r>  -16.5508    1.0000 </r>
       <r>  -16.5397    1.0000 </r>
       <r>  -16.5316    1.0000 </r>
       <r>  -16.5123    1.0000 </r>
       <r>  -16.4750    1.0000 </r>
       <r>  -16.4741    1.0000 </r>
       <r>  -16.4676    1.0000 </r>
       <r>  -16.4669    1.0000 </r>
       <r>  -16.4614    1.0000 </r>
       <r>  -16.4602    1.0000 </r>
       <r>  -16.4551    1.0000 </r>
       <r>  -16.4529    1.0000 </r>
       <r>  -16.4500    1.0000 </r>
       <r>  -16.4476    1.0000 </r>
       <r>  -16.4377    1.0000 </r>
       <r>  -16.4357    1.0000 </r>
       <r>  -14.6464    1.0000 </r>
       <r>  -14.4625    1.0000 </r>
       <r>  -14.4214    1.0000 </r>
       <r>  -14.4111    1.0000 </r>
       <r>  -14.4005    1.0000 </r>
       <r>  -14.3540    1.0000 </r>
       <r>  -14.3023    1.0000 </r>
       <r>  -14.2931    1.0000 </r>
       <r>  -14.2312    1.0000 </r>
       <r>  -14.2000    1.0000 </r>
       <r>  -14.1265    1.0000 </r>
       <r>  -14.0970    1.0000 </r>
       <r>  -14.0875    1.0000 </r>
       <r>  -14.0854    1.0000 </r>
       <r>  -14.0630    1.0000 </r>
       <r>  -14.0398    1.0000 </r>
       <r>  -14.0234    1.0000 </r>
       <r>  -13.9978    1.0000 </r>
       <r>  -13.9875    1.0000 </r>
       <r>  -13.9812    1.0000 </r>
       <r>  -13.9294    1.0000 </r>
       <r>  -13.9048    1.0000 </r>
       <r>  -13.8510    1.0000 </r>
       <r>  -13.7774    1.0000 </r>
       <r>   -8.3039    1.0000 </r>
       <r>   -8.0417    1.0000 </r>
       <r>   -7.9958    1.0000 </r>
       <r>   -7.8917    1.0000 </r>
       <r>   -7.8257    1.0000 </r>
       <r>   -7.7196    1.0000 </r>
       <r>   -7.6508    1.0000 </r>
       <r>   -7.5626    1.0000 </r>
       <r>   -7.5525    1.0000 </r>
       <r>   -7.3807    1.0000 </r>
       <r>   -7.3760    1.0000 </r>
       <r>   -7.3684    1.0000 </r>
       <r>   -7.3657    1.0000 </r>
       <r>   -7.3597    1.0000 </r>
       <r>   -7.3587    1.0000 </r>
       <r>   -7.3335    1.0000 </r>
       <r>   -7.3317    1.0000 </r>
       <r>   -7.3159    1.0000 </r>
       <r>   -7.3083    1.0000 </r>
       <r>   -7.3077    1.0000 </r>
       <r>   -7.3033    1.0000 </r>
       <r>   -7.2886    1.0000 </r>
       <r>   -7.2877    1.0000 </r>
       <r>   -7.2848    1.0000 </r>
       <r>   -7.2759    1.0000 </r>
       <r>   -7.2727    1.0000 </r>
       <r>   -7.2657    1.0000 </r>
       <r>   -7.1794    1.0000 </r>
       <r>   -7.0007    1.0000 </r>
       <r>   -3.6504    1.0000 </r>
       <r>   -3.6188    1.0000 </r>
       <r>   -3.5078    1.0000 </r>
       <r>   -3.3998    1.0000 </r>
       <r>   -3.3163    1.0000 </r>
       <r>   -3.2683    1.0000 </r>
       <r>   -3.2370    1.0000 </r>
       <r>   -3.0881    1.0000 </r>
       <r>   -2.7060    1.0000 </r>
       <r>   -2.6821    1.0000 </r>
       <r>   -2.6640    1.0000 </r>
       <r>   -2.5683    1.0000 </r>
       <r>   -2.5542    1.0000 </r>
       <r>   -2.5391    1.0000 </r>
       <r>   -2.5039    1.0000 </r>
       <r>   -2.4594    1.0000 </r>
       <r>   -2.4373    1.0000 </r>
       <r>   -2.2585    1.0000 </r>
       <r>   -2.2275    1.0000 </r>
       <r>   -2.1883    1.0000 </r>
       <r>   -2.1774    1.0000 </r>
       <r>   -2.0552    1.0000 </r>
       <r>   -2.0547    1.0000 </r>
       <r>   -2.0148    1.0000 </r>
       <r>   -1.9752    1.0000 </r>
       <r>   -1.9632    1.0000 </r>
       <r>   -1.8928    1.0000 </r>
       <r>   -1.8371    1.0000 </r>
       <r>   -1.7897    1.0000 </r>
       <r>   -1.7775    1.0000 </r>
       <r>   -1.7094    1.0000 </r>
       <r>   -1.6926    1.0000 </r>
       <r>   -1.6768    1.0000 </r>
       <r>   -1.6577    1.0000 </r>
       <r>   -1.6055    1.0000 </r>
       <r>   -1.6006    1.0000 </r>
       <r>   -1.5629    1.0000 </r>
       <r>   -1.5584    1.0000 </r>
       <r>   -1.5545    1.0000 </r>
       <r>   -1.5140    1.0000 </r>
       <r>   -1.5059    1.0000 </r>
       <r>   -1.4909    1.0000 </r>
       <r>   -1.4876    1.0000 </r>
       <r>   -1.4566    1.0000 </r>
       <r>   -1.4241    1.0000 </r>
       <r>   -1.4230    1.0000 </r>
       <r>   -1.4069    1.0000 </r>
       <r>   -1.4022    1.0000 </r>
       <r>   -1.3767    1.0000 </r>
       <r>   -1.3685    1.0000 </r>
       <r>   -1.3664    1.0000 </r>
       <r>   -1.3338    1.0000 </r>
       <r>   -1.2991    1.0000 </r>
       <r>   -1.2968    1.0000 </r>
       <r>   -1.2848    1.0000 </r>
       <r>   -1.2665    1.0000 </r>
       <r>   -1.2574    1.0000 </r>
       <r>   -1.2386    1.0000 </r>
       <r>   -1.2259    1.0000 </r>
       <r>   -1.1945    1.0000 </r>
       <r>   -1.1614    1.0000 </r>
       <r>   -1.1508    1.0000 </r>
       <r>   -1.1294    1.0000 </r>
       <r>   -1.1075    1.0000 </r>
       <r>   -1.0676    1.0000 </r>
       <r>   -0.8673    1.0000 </r>
       <r>   -0.7769    1.0000 </r>
       <r>   -0.7538    1.0000 </r>
       <r>   -0.6420    1.0000 </r>
       <r>   -0.6366    1.0000 </r>
       <r>   -0.3534    1.0000 </r>
       <r>   -0.1249    1.0000 </r>
       <r>    2.6750    0.0000 </r>
       <r>    2.8929    0.0000 </r>
       <r>    2.9183    0.0000 </r>
       <r>    3.0148    0.0000 </r>
       <r>    3.0427    0.0000 </r>
       <r>    3.0544    0.0000 </r>
       <r>    3.2401    0.0000 </r>
       <r>    3.3021    0.0000 </r>
       <r>    4.0713    0.0000 </r>
       <r>    4.0934    0.0000 </r>
       <r>    4.1544    0.0000 </r>
       <r>    4.3386    0.0000 </r>
       <r>    4.3443    0.0000 </r>
       <r>    4.3739    0.0000 </r>
       <r>    4.5846    0.0000 </r>
       <r>    4.6217    0.0000 </r>
       <r>    4.7209    0.0000 </r>
       <r>    5.2754    0.0000 </r>
       <r>    5.4436    0.0000 </r>
       <r>    5.5102    0.0000 </r>
       <r>    5.5613    0.0000 </r>
       <r>    5.6188    0.0000 </r>
       <r>    5.7553    0.0000 </r>
       <r>    5.8125    0.0000 </r>
       <r>    5.8521    0.0000 </r>
       <r>    5.9505    0.0000 </r>
       <r>    6.0759    0.0000 </r>
       <r>    6.0989    0.0000 </r>
       <r>    6.1512    0.0000 </r>
       <r>    6.2160    0.0000 </r>
       <r>    6.3440    0.0000 </r>
       <r>    6.4007    0.0000 </r>
       <r>    6.4345    0.0000 </r>
       <r>    6.4557    0.0000 </r>
       <r>    6.5436    0.0000 </r>
       <r>    6.5523    0.0000 </r>
      </set>
      <set comment="kpoint 4">
       <r>  -21.4017    1.0000 </r>
       <r>  -20.9725    1.0000 </r>
       <r>  -20.9688    1.0000 </r>
       <r>  -20.9098    1.0000 </r>
       <r>  -20.9065    1.0000 </r>
       <r>  -20.8733    1.0000 </r>
       <r>  -20.8710    1.0000 </r>
       <r>  -16.7739    1.0000 </r>
       <r>  -16.7685    1.0000 </r>
       <r>  -16.7459    1.0000 </r>
       <r>  -16.7388    1.0000 </r>
       <r>  -16.7306    1.0000 </r>
       <r>  -16.7278    1.0000 </r>
       <r>  -16.7023    1.0000 </r>
       <r>  -16.7016    1.0000 </r>
       <r>  -16.6386    1.0000 </r>
       <r>  -16.6379    1.0000 </r>
       <r>  -16.6307    1.0000 </r>
       <r>  -16.6302    1.0000 </r>
       <r>  -16.6259    1.0000 </r>
       <r>  -16.6252    1.0000 </r>
       <r>  -16.6157    1.0000 </r>
       <r>  -16.6152    1.0000 </r>
       <r>  -16.6092    1.0000 </r>
       <r>  -16.6084    1.0000 </r>
       <r>  -16.6050    1.0000 </r>
       <r>  -16.6042    1.0000 </r>
       <r>  -16.5940    1.0000 </r>
       <r>  -16.5926    1.0000 </r>
       <r>  -16.5688    1.0000 </r>
       <r>  -16.5682    1.0000 </r>
       <r>  -16.5541    1.0000 </r>
       <r>  -16.5499    1.0000 </r>
       <r>  -16.5333    1.0000 </r>
       <r>  -16.5272    1.0000 </r>
       <r>  -16.4750    1.0000 </r>
       <r>  -16.4741    1.0000 </r>
       <r>  -16.4675    1.0000 </r>
       <r>  -16.4669    1.0000 </r>
       <r>  -16.4614    1.0000 </r>
       <r>  -16.4602    1.0000 </r>
       <r>  -16.4551    1.0000 </r>
       <r>  -16.4529    1.0000 </r>
       <r>  -16.4501    1.0000 </r>
       <r>  -16.4477    1.0000 </r>
       <r>  -16.4377    1.0000 </r>
       <r>  -16.4356    1.0000 </r>
       <r>  -14.5879    1.0000 </r>
       <r>  -14.5851    1.0000 </r>
       <r>  -14.4614    1.0000 </r>
       <r>  -14.4089    1.0000 </r>
       <r>  -14.3265    1.0000 </r>
       <r>  -14.3184    1.0000 </r>
       <r>  -14.2988    1.0000 </r>
       <r>  -14.2923    1.0000 </r>
       <r>  -14.1929    1.0000 </r>
       <r>  -14.1900    1.0000 </r>
       <r>  -14.1525    1.0000 </r>
       <r>  -14.1385    1.0000 </r>
       <r>  -14.0995    1.0000 </r>
       <r>  -14.0986    1.0000 </r>
       <r>  -14.0594    1.0000 </r>
       <r>  -14.0545    1.0000 </r>
       <r>  -14.0071    1.0000 </r>
       <r>  -13.9931    1.0000 </r>
       <r>  -13.9519    1.0000 </r>
       <r>  -13.9382    1.0000 </r>
       <r>  -13.9272    1.0000 </r>
       <r>  -13.8899    1.0000 </r>
       <r>  -13.8678    1.0000 </r>
       <r>  -13.8299    1.0000 </r>
       <r>   -8.0897    1.0000 </r>
       <r>   -8.0407    1.0000 </r>
       <r>   -7.9244    1.0000 </r>
       <r>   -7.8602    1.0000 </r>
       <r>   -7.8498    1.0000 </r>
       <r>   -7.8226    1.0000 </r>
       <r>   -7.7850    1.0000 </r>
       <r>   -7.5493    1.0000 </r>
       <r>   -7.4597    1.0000 </r>
       <r>   -7.4095    1.0000 </r>
       <r>   -7.3782    1.0000 </r>
       <r>   -7.3765    1.0000 </r>
       <r>   -7.3617    1.0000 </r>
       <r>   -7.3571    1.0000 </r>
       <r>   -7.3547    1.0000 </r>
       <r>   -7.3486    1.0000 </r>
       <r>   -7.3269    1.0000 </r>
       <r>   -7.3248    1.0000 </r>
       <r>   -7.3238    1.0000 </r>
       <r>   -7.3107    1.0000 </r>
       <r>   -7.3027    1.0000 </r>
       <r>   -7.2985    1.0000 </r>
       <r>   -7.2883    1.0000 </r>
       <r>   -7.2872    1.0000 </r>
       <r>   -7.2795    1.0000 </r>
       <r>   -7.2702    1.0000 </r>
       <r>   -7.2672    1.0000 </r>
       <r>   -7.2638    1.0000 </r>
       <r>   -7.2274    1.0000 </r>
       <r>   -3.5796    1.0000 </r>
       <r>   -3.4495    1.0000 </r>
       <r>   -3.2937    1.0000 </r>
       <r>   -3.2482    1.0000 </r>
       <r>   -2.9418    1.0000 </r>
       <r>   -2.9334    1.0000 </r>
       <r>   -2.8312    1.0000 </r>
       <r>   -2.8279    1.0000 </r>
       <r>   -2.7698    1.0000 </r>
       <r>   -2.7079    1.0000 </r>
       <r>   -2.6616    1.0000 </r>
       <r>   -2.6361    1.0000 </r>
       <r>   -2.5595    1.0000 </r>
       <r>   -2.5088    1.0000 </r>
       <r>   -2.4765    1.0000 </r>
       <r>   -2.4497    1.0000 </r>
       <r>   -2.4257    1.0000 </r>
       <r>   -2.3957    1.0000 </r>
       <r>   -2.3593    1.0000 </r>
       <r>   -2.3062    1.0000 </r>
       <r>   -2.2999    1.0000 </r>
       <r>   -2.2689    1.0000 </r>
       <r>   -2.1444    1.0000 </r>
       <r>   -2.1017    1.0000 </r>
       <r>   -1.9559    1.0000 </r>
       <r>   -1.9495    1.0000 </r>
       <r>   -1.9290    1.0000 </r>
       <r>   -1.8824    1.0000 </r>
       <r>   -1.8688    1.0000 </r>
       <r>   -1.8263    1.0000 </r>
       <r>   -1.8134    1.0000 </r>
       <r>   -1.8051    1.0000 </r>
       <r>   -1.7517    1.0000 </r>
       <r>   -1.7475    1.0000 </r>
       <r>   -1.6973    1.0000 </r>
       <r>   -1.6632    1.0000 </r>
       <r>   -1.6512    1.0000 </r>
       <r>   -1.6318    1.0000 </r>
       <r>   -1.5953    1.0000 </r>
       <r>   -1.5707    1.0000 </r>
       <r>   -1.5665    1.0000 </r>
       <r>   -1.5365    1.0000 </r>
       <r>   -1.4973    1.0000 </r>
       <r>   -1.4711    1.0000 </r>
       <r>   -1.4266    1.0000 </r>
       <r>   -1.4189    1.0000 </r>
       <r>   -1.3940    1.0000 </r>
       <r>   -1.3930    1.0000 </r>
       <r>   -1.3651    1.0000 </r>
       <r>   -1.3264    1.0000 </r>
       <r>   -1.3224    1.0000 </r>
       <r>   -1.3212    1.0000 </r>
       <r>   -1.3098    1.0000 </r>
       <r>   -1.2801    1.0000 </r>
       <r>   -1.2598    1.0000 </r>
       <r>   -1.2384    1.0000 </r>
       <r>   -1.2319    1.0000 </r>
       <r>   -1.2187    1.0000 </r>
       <r>   -1.1917    1.0000 </r>
       <r>   -1.1789    1.0000 </r>
       <r>   -1.1733    1.0000 </r>
       <r>   -1.1597    1.0000 </r>
       <r>   -1.1240    1.0000 </r>
       <r>   -1.0910    1.0000 </r>
       <r>   -1.0262    1.0000 </r>
       <r>   -0.9165    1.0000 </r>
       <r>   -0.9123    1.0000 </r>
       <r>   -0.8791    1.0000 </r>
       <r>   -0.7218    1.0000 </r>
       <r>   -0.6942    1.0000 </r>
       <r>   -0.5425    1.0000 </r>
       <r>   -0.4799    1.0000 </r>
       <r>    2.8756    0.0000 </r>
       <r>    2.8862    0.0000 </r>
       <r>    3.0785    0.0000 </r>
       <r>    3.1340    0.0000 </r>
       <r>    3.6929    0.0000 </r>
       <r>    3.9861    0.0000 </r>
       <r>    4.0571    0.0000 </r>
       <r>    4.0854    0.0000 </r>
       <r>    4.1563    0.0000 </r>
       <r>    4.1958    0.0000 </r>
       <r>    4.2008    0.0000 </r>
       <r>    4.3232    0.0000 </r>
       <r>    4.3373    0.0000 </r>
       <r>    4.4232    0.0000 </r>
       <r>    4.4404    0.0000 </r>
       <r>    4.5031    0.0000 </r>
       <r>    4.5221    0.0000 </r>
       <r>    4.6303    0.0000 </r>
       <r>    4.7718    0.0000 </r>
       <r>    4.8110    0.0000 </r>
       <r>    5.4711    0.0000 </r>
       <r>    5.5136    0.0000 </r>
       <r>    5.5843    0.0000 </r>
       <r>    5.7289    0.0000 </r>
       <r>    5.8335    0.0000 </r>
       <r>    5.9738    0.0000 </r>
       <r>    5.9804    0.0000 </r>
       <r>    6.0005    0.0000 </r>
       <r>    6.0718    0.0000 </r>
       <r>    6.1868    0.0000 </r>
       <r>    6.3004    0.0000 </r>
       <r>    6.3098    0.0000 </r>
       <r>    6.3712    0.0000 </r>
       <r>    6.3889    0.0000 </r>
       <r>    6.5000    0.0000 </r>
       <r>    6.5201    0.0000 </r>
      </set>
      <set comment="kpoint 5">
       <r>  -21.4017    1.0000 </r>
       <r>  -20.9726    1.0000 </r>
       <r>  -20.9687    1.0000 </r>
       <r>  -20.9099    1.0000 </r>
       <r>  -20.9063    1.0000 </r>
       <r>  -20.8735    1.0000 </r>
       <r>  -20.8708    1.0000 </r>
       <r>  -16.7828    1.0000 </r>
       <r>  -16.7773    1.0000 </r>
       <r>  -16.7410    1.0000 </r>
       <r>  -16.7367    1.0000 </r>
       <r>  -16.7218    1.0000 </r>
       <r>  -16.7209    1.0000 </r>
       <r>  -16.7118    1.0000 </r>
       <r>  -16.7103    1.0000 </r>
       <r>  -16.6391    1.0000 </r>
       <r>  -16.6386    1.0000 </r>
       <r>  -16.6311    1.0000 </r>
       <r>  -16.6306    1.0000 </r>
       <r>  -16.6257    1.0000 </r>
       <r>  -16.6251    1.0000 </r>
       <r>  -16.6157    1.0000 </r>
       <r>  -16.6151    1.0000 </r>
       <r>  -16.6091    1.0000 </r>
       <r>  -16.6083    1.0000 </r>
       <r>  -16.6048    1.0000 </r>
       <r>  -16.6041    1.0000 </r>
       <r>  -16.5827    1.0000 </r>
       <r>  -16.5810    1.0000 </r>
       <r>  -16.5729    1.0000 </r>
       <r>  -16.5726    1.0000 </r>
       <r>  -16.5561    1.0000 </r>
       <r>  -16.5543    1.0000 </r>
       <r>  -16.5267    1.0000 </r>
       <r>  -16.5247    1.0000 </r>
       <r>  -16.4751    1.0000 </r>
       <r>  -16.4742    1.0000 </r>
       <r>  -16.4676    1.0000 </r>
       <r>  -16.4670    1.0000 </r>
       <r>  -16.4611    1.0000 </r>
       <r>  -16.4599    1.0000 </r>
       <r>  -16.4552    1.0000 </r>
       <r>  -16.4530    1.0000 </r>
       <r>  -16.4502    1.0000 </r>
       <r>  -16.4478    1.0000 </r>
       <r>  -16.4377    1.0000 </r>
       <r>  -16.4357    1.0000 </r>
       <r>  -14.6437    1.0000 </r>
       <r>  -14.5082    1.0000 </r>
       <r>  -14.4308    1.0000 </r>
       <r>  -14.4090    1.0000 </r>
       <r>  -14.4040    1.0000 </r>
       <r>  -14.3082    1.0000 </r>
       <r>  -14.2760    1.0000 </r>
       <r>  -14.2491    1.0000 </r>
       <r>  -14.1772    1.0000 </r>
       <r>  -14.1639    1.0000 </r>
       <r>  -14.1605    1.0000 </r>
       <r>  -14.1340    1.0000 </r>
       <r>  -14.1314    1.0000 </r>
       <r>  -14.1176    1.0000 </r>
       <r>  -14.0990    1.0000 </r>
       <r>  -14.0923    1.0000 </r>
       <r>  -14.0207    1.0000 </r>
       <r>  -14.0036    1.0000 </r>
       <r>  -13.9453    1.0000 </r>
       <r>  -13.9350    1.0000 </r>
       <r>  -13.9233    1.0000 </r>
       <r>  -13.9174    1.0000 </r>
       <r>  -13.8131    1.0000 </r>
       <r>  -13.8103    1.0000 </r>
       <r>   -8.2764    1.0000 </r>
       <r>   -8.1572    1.0000 </r>
       <r>   -7.9074    1.0000 </r>
       <r>   -7.8335    1.0000 </r>
       <r>   -7.8253    1.0000 </r>
       <r>   -7.6869    1.0000 </r>
       <r>   -7.6453    1.0000 </r>
       <r>   -7.6439    1.0000 </r>
       <r>   -7.6052    1.0000 </r>
       <r>   -7.3804    1.0000 </r>
       <r>   -7.3762    1.0000 </r>
       <r>   -7.3724    1.0000 </r>
       <r>   -7.3690    1.0000 </r>
       <r>   -7.3564    1.0000 </r>
       <r>   -7.3510    1.0000 </r>
       <r>   -7.3412    1.0000 </r>
       <r>   -7.3332    1.0000 </r>
       <r>   -7.3232    1.0000 </r>
       <r>   -7.3219    1.0000 </r>
       <r>   -7.3027    1.0000 </r>
       <r>   -7.2983    1.0000 </r>
       <r>   -7.2882    1.0000 </r>
       <r>   -7.2854    1.0000 </r>
       <r>   -7.2730    1.0000 </r>
       <r>   -7.2729    1.0000 </r>
       <r>   -7.2699    1.0000 </r>
       <r>   -7.2657    1.0000 </r>
       <r>   -7.0781    1.0000 </r>
       <r>   -7.0742    1.0000 </r>
       <r>   -3.6765    1.0000 </r>
       <r>   -3.5395    1.0000 </r>
       <r>   -3.3883    1.0000 </r>
       <r>   -3.3771    1.0000 </r>
       <r>   -3.2965    1.0000 </r>
       <r>   -3.2863    1.0000 </r>
       <r>   -3.1699    1.0000 </r>
       <r>   -3.1311    1.0000 </r>
       <r>   -2.9424    1.0000 </r>
       <r>   -2.7442    1.0000 </r>
       <r>   -2.7072    1.0000 </r>
       <r>   -2.6804    1.0000 </r>
       <r>   -2.5809    1.0000 </r>
       <r>   -2.5362    1.0000 </r>
       <r>   -2.4475    1.0000 </r>
       <r>   -2.4451    1.0000 </r>
       <r>   -2.3141    1.0000 </r>
       <r>   -2.3076    1.0000 </r>
       <r>   -2.2565    1.0000 </r>
       <r>   -2.2441    1.0000 </r>
       <r>   -2.1886    1.0000 </r>
       <r>   -2.0818    1.0000 </r>
       <r>   -1.9878    1.0000 </r>
       <r>   -1.9544    1.0000 </r>
       <r>   -1.9504    1.0000 </r>
       <r>   -1.9366    1.0000 </r>
       <r>   -1.9196    1.0000 </r>
       <r>   -1.8346    1.0000 </r>
       <r>   -1.8098    1.0000 </r>
       <r>   -1.7396    1.0000 </r>
       <r>   -1.6768    1.0000 </r>
       <r>   -1.6611    1.0000 </r>
       <r>   -1.6534    1.0000 </r>
       <r>   -1.6448    1.0000 </r>
       <r>   -1.6155    1.0000 </r>
       <r>   -1.6123    1.0000 </r>
       <r>   -1.5892    1.0000 </r>
       <r>   -1.5874    1.0000 </r>
       <r>   -1.5464    1.0000 </r>
       <r>   -1.5231    1.0000 </r>
       <r>   -1.5137    1.0000 </r>
       <r>   -1.5113    1.0000 </r>
       <r>   -1.4903    1.0000 </r>
       <r>   -1.4779    1.0000 </r>
       <r>   -1.4695    1.0000 </r>
       <r>   -1.4522    1.0000 </r>
       <r>   -1.4406    1.0000 </r>
       <r>   -1.4091    1.0000 </r>
       <r>   -1.3817    1.0000 </r>
       <r>   -1.3669    1.0000 </r>
       <r>   -1.3586    1.0000 </r>
       <r>   -1.3580    1.0000 </r>
       <r>   -1.3172    1.0000 </r>
       <r>   -1.2967    1.0000 </r>
       <r>   -1.2828    1.0000 </r>
       <r>   -1.2780    1.0000 </r>
       <r>   -1.2246    1.0000 </r>
       <r>   -1.2155    1.0000 </r>
       <r>   -1.1859    1.0000 </r>
       <r>   -1.1699    1.0000 </r>
       <r>   -1.1494    1.0000 </r>
       <r>   -1.1277    1.0000 </r>
       <r>   -1.1050    1.0000 </r>
       <r>   -1.0969    1.0000 </r>
       <r>   -0.9579    1.0000 </r>
       <r>   -0.9427    1.0000 </r>
       <r>   -0.7684    1.0000 </r>
       <r>   -0.7209    1.0000 </r>
       <r>   -0.6638    1.0000 </r>
       <r>   -0.6369    1.0000 </r>
       <r>   -0.2110    1.0000 </r>
       <r>   -0.1262    1.0000 </r>
       <r>    2.7019    0.0000 </r>
       <r>    2.7717    0.0000 </r>
       <r>    2.7776    0.0000 </r>
       <r>    2.8333    0.0000 </r>
       <r>    3.0818    0.0000 </r>
       <r>    3.0926    0.0000 </r>
       <r>    3.1887    0.0000 </r>
       <r>    3.2628    0.0000 </r>
       <r>    3.7288    0.0000 </r>
       <r>    4.2330    0.0000 </r>
       <r>    4.2662    0.0000 </r>
       <r>    4.2838    0.0000 </r>
       <r>    4.3016    0.0000 </r>
       <r>    4.5363    0.0000 </r>
       <r>    4.6753    0.0000 </r>
       <r>    4.6761    0.0000 </r>
       <r>    5.2056    0.0000 </r>
       <r>    5.3063    0.0000 </r>
       <r>    5.4194    0.0000 </r>
       <r>    5.4634    0.0000 </r>
       <r>    5.4991    0.0000 </r>
       <r>    5.5084    0.0000 </r>
       <r>    5.7445    0.0000 </r>
       <r>    5.7619    0.0000 </r>
       <r>    5.8172    0.0000 </r>
       <r>    5.9556    0.0000 </r>
       <r>    6.0828    0.0000 </r>
       <r>    6.1413    0.0000 </r>
       <r>    6.1986    0.0000 </r>
       <r>    6.2732    0.0000 </r>
       <r>    6.3429    0.0000 </r>
       <r>    6.3596    0.0000 </r>
       <r>    6.4769    0.0000 </r>
       <r>    6.5229    0.0000 </r>
       <r>    6.5555    0.0000 </r>
       <r>    6.5861    0.0000 </r>
      </set>
      <set comment="kpoint 6">
       <r>  -21.4017    1.0000 </r>
       <r>  -20.9725    1.0000 </r>
       <r>  -20.9686    1.0000 </r>
       <r>  -20.9099    1.0000 </r>
       <r>  -20.9062    1.0000 </r>
       <r>  -20.8735    1.0000 </r>
       <r>  -20.8707    1.0000 </r>
       <r>  -16.7598    1.0000 </r>
       <r>  -16.7558    1.0000 </r>
       <r>  -16.7449    1.0000 </r>
       <r>  -16.7380    1.0000 </r>
       <r>  -16.7338    1.0000 </r>
       <r>  -16.7312    1.0000 </r>
       <r>  -16.7214    1.0000 </r>
       <r>  -16.7206    1.0000 </r>
       <r>  -16.6385    1.0000 </r>
       <r>  -16.6379    1.0000 </r>
       <r>  -16.6307    1.0000 </r>
       <r>  -16.6302    1.0000 </r>
       <r>  -16.6258    1.0000 </r>
       <r>  -16.6251    1.0000 </r>
       <r>  -16.6156    1.0000 </r>
       <r>  -16.6150    1.0000 </r>
       <r>  -16.6090    1.0000 </r>
       <r>  -16.6083    1.0000 </r>
       <r>  -16.6048    1.0000 </r>
       <r>  -16.6041    1.0000 </r>
       <r>  -16.5733    1.0000 </r>
       <r>  -16.5731    1.0000 </r>
       <r>  -16.5654    1.0000 </r>
       <r>  -16.5643    1.0000 </r>
       <r>  -16.5561    1.0000 </r>
       <r>  -16.5543    1.0000 </r>
       <r>  -16.5437    1.0000 </r>
       <r>  -16.5421    1.0000 </r>
       <r>  -16.4750    1.0000 </r>
       <r>  -16.4741    1.0000 </r>
       <r>  -16.4674    1.0000 </r>
       <r>  -16.4668    1.0000 </r>
       <r>  -16.4611    1.0000 </r>
       <r>  -16.4599    1.0000 </r>
       <r>  -16.4551    1.0000 </r>
       <r>  -16.4529    1.0000 </r>
       <r>  -16.4501    1.0000 </r>
       <r>  -16.4477    1.0000 </r>
       <r>  -16.4376    1.0000 </r>
       <r>  -16.4356    1.0000 </r>
       <r>  -14.6010    1.0000 </r>
       <r>  -14.5696    1.0000 </r>
       <r>  -14.4869    1.0000 </r>
       <r>  -14.4574    1.0000 </r>
       <r>  -14.2562    1.0000 </r>
       <r>  -14.2541    1.0000 </r>
       <r>  -14.2397    1.0000 </r>
       <r>  -14.2336    1.0000 </r>
       <r>  -14.2131    1.0000 </r>
       <r>  -14.2055    1.0000 </r>
       <r>  -14.1988    1.0000 </r>
       <r>  -14.1813    1.0000 </r>
       <r>  -14.1321    1.0000 </r>
       <r>  -14.1242    1.0000 </r>
       <r>  -14.1081    1.0000 </r>
       <r>  -14.1002    1.0000 </r>
       <r>  -13.9668    1.0000 </r>
       <r>  -13.9489    1.0000 </r>
       <r>  -13.9302    1.0000 </r>
       <r>  -13.9233    1.0000 </r>
       <r>  -13.9121    1.0000 </r>
       <r>  -13.9099    1.0000 </r>
       <r>  -13.8622    1.0000 </r>
       <r>  -13.8538    1.0000 </r>
       <r>   -8.0913    1.0000 </r>
       <r>   -7.9835    1.0000 </r>
       <r>   -7.9740    1.0000 </r>
       <r>   -7.9262    1.0000 </r>
       <r>   -7.8319    1.0000 </r>
       <r>   -7.8194    1.0000 </r>
       <r>   -7.7691    1.0000 </r>
       <r>   -7.4504    1.0000 </r>
       <r>   -7.4293    1.0000 </r>
       <r>   -7.4150    1.0000 </r>
       <r>   -7.4047    1.0000 </r>
       <r>   -7.3762    1.0000 </r>
       <r>   -7.3724    1.0000 </r>
       <r>   -7.3672    1.0000 </r>
       <r>   -7.3639    1.0000 </r>
       <r>   -7.3576    1.0000 </r>
       <r>   -7.3428    1.0000 </r>
       <r>   -7.3294    1.0000 </r>
       <r>   -7.3263    1.0000 </r>
       <r>   -7.3235    1.0000 </r>
       <r>   -7.3000    1.0000 </r>
       <r>   -7.2962    1.0000 </r>
       <r>   -7.2956    1.0000 </r>
       <r>   -7.2791    1.0000 </r>
       <r>   -7.2745    1.0000 </r>
       <r>   -7.2707    1.0000 </r>
       <r>   -7.2675    1.0000 </r>
       <r>   -7.2646    1.0000 </r>
       <r>   -7.2422    1.0000 </r>
       <r>   -3.3731    1.0000 </r>
       <r>   -3.3577    1.0000 </r>
       <r>   -3.3122    1.0000 </r>
       <r>   -3.2986    1.0000 </r>
       <r>   -3.1289    1.0000 </r>
       <r>   -2.9271    1.0000 </r>
       <r>   -2.8949    1.0000 </r>
       <r>   -2.8086    1.0000 </r>
       <r>   -2.8079    1.0000 </r>
[...]
        <r>  0.0003  0.0004  0.0004 </r>
        <r>  0.0000  0.0008  0.0001 </r>
        <r>  0.0000  0.0008  0.0001 </r>
        <r>  0.0002  0.0003  0.0006 </r>
        <r>  0.0002  0.0013  0.0028 </r>
        <r>  0.0000  0.0011  0.0006 </r>
        <r>  0.0000  0.0003  0.0004 </r>
        <r>  0.0006  0.0025  0.0040 </r>
        <r>  0.0002  0.0000  0.1076 </r>
       </set>
       <set comment="band 199">
        <r>  0.0001  0.0003  0.0077 </r>
        <r>  0.0015  0.0004  0.0040 </r>
        <r>  0.0017  0.0001  0.0125 </r>
        <r>  0.0010  0.0001  0.0113 </r>
        <r>  0.0020  0.0003  0.0039 </r>
        <r>  0.0002  0.0004  0.0090 </r>
        <r>  0.0000  0.0038  0.0002 </r>
        <r>  0.0000  0.0040  0.0002 </r>
        <r>  0.0000  0.0082  0.0002 </r>
        <r>  0.0000  0.0084  0.0003 </r>
        <r>  0.0000  0.0048  0.0001 </r>
        <r>  0.0000  0.0049  0.0001 </r>
        <r>  0.0000  0.0046  0.0000 </r>
        <r>  0.0000  0.0044  0.0000 </r>
        <r>  0.0004  0.0021  0.0007 </r>
        <r>  0.0002  0.0025  0.0014 </r>
        <r>  0.0001  0.0016  0.0012 </r>
        <r>  0.0003  0.0020  0.0008 </r>
        <r>  0.0004  0.0023  0.0012 </r>
        <r>  0.0001  0.0012  0.0012 </r>
        <r>  0.0003  0.0018  0.0012 </r>
        <r>  0.0004  0.0016  0.0007 </r>
        <r>  0.0000  0.0005  0.0007 </r>
        <r>  0.0009  0.0015  0.0013 </r>
        <r>  0.0003  0.0017  0.0011 </r>
        <r>  0.0007  0.0008  0.0009 </r>
        <r>  0.0004  0.0036  0.0009 </r>
        <r>  0.0006  0.0010  0.0008 </r>
        <r>  0.0011  0.0027  0.0017 </r>
        <r>  0.0006  0.0060  0.0010 </r>
        <r>  0.0004  0.0066  0.0011 </r>
        <r>  0.0010  0.0030  0.0016 </r>
        <r>  0.0007  0.0006  0.0009 </r>
        <r>  0.0006  0.0033  0.0009 </r>
        <r>  0.0008  0.0015  0.0013 </r>
        <r>  0.0002  0.0004  0.0006 </r>
        <r>  0.0003  0.0009  0.0009 </r>
        <r>  0.0002  0.0019  0.0014 </r>
        <r>  0.0000  0.0103  0.0003 </r>
       </set>
       <set comment="band 200">
        <r>  0.0018  0.0003  0.0055 </r>
        <r>  0.0037  0.0003  0.0071 </r>
        <r>  0.0049  0.0009  0.0117 </r>
        <r>  0.0060  0.0008  0.0125 </r>
        <r>  0.0032  0.0004  0.0072 </r>
        <r>  0.0017  0.0002  0.0048 </r>
        <r>  0.0000  0.0057  0.0001 </r>
        <r>  0.0000  0.0056  0.0001 </r>
        <r>  0.0000  0.0019  0.0001 </r>
        <r>  0.0000  0.0015  0.0001 </r>
        <r>  0.0006  0.0022  0.0001 </r>
        <r>  0.0006  0.0021  0.0001 </r>
        <r>  0.0002  0.0019  0.0006 </r>
        <r>  0.0002  0.0013  0.0006 </r>
        <r>  0.0000  0.0022  0.0015 </r>
        <r>  0.0002  0.0017  0.0004 </r>
        <r>  0.0003  0.0016  0.0008 </r>
        <r>  0.0001  0.0012  0.0009 </r>
        <r>  0.0000  0.0013  0.0006 </r>
        <r>  0.0002  0.0019  0.0005 </r>
        <r>  0.0001  0.0023  0.0004 </r>
        <r>  0.0000  0.0026  0.0015 </r>
        <r>  0.0032  0.0050  0.0019 </r>
        <r>  0.0000  0.0019  0.0019 </r>
        <r>  0.0000  0.0001  0.0008 </r>
        <r>  0.0032  0.0006  0.0014 </r>
        <r>  0.0018  0.0007  0.0031 </r>
        <r>  0.0002  0.0032  0.0003 </r>
        <r>  0.0001  0.0013  0.0004 </r>
        <r>  0.0005  0.0014  0.0006 </r>
        <r>  0.0007  0.0009  0.0006 </r>
        <r>  0.0001  0.0009  0.0005 </r>
        <r>  0.0001  0.0036  0.0002 </r>
        <r>  0.0015  0.0011  0.0029 </r>
        <r>  0.0001  0.0020  0.0021 </r>
        <r>  0.0030  0.0050  0.0019 </r>
        <r>  0.0036  0.0005  0.0013 </r>
        <r>  0.0000  0.0000  0.0006 </r>
        <r>  0.0002  0.0000  0.0284 </r>
       </set>
       <set comment="band 201">
        <r>  0.0005  0.0005  0.0044 </r>
        <r>  0.0083  0.0011  0.0062 </r>
        <r>  0.0001  0.0001  0.0155 </r>
        <r>  0.0001  0.0001  0.0156 </r>
        <r>  0.0081  0.0011  0.0060 </r>
        <r>  0.0004  0.0005  0.0041 </r>
        <r>  0.0000  0.0053  0.0002 </r>
        <r>  0.0000  0.0051  0.0002 </r>
        <r>  0.0000  0.0068  0.0000 </r>
        <r>  0.0000  0.0069  0.0000 </r>
        <r>  0.0000  0.0018  0.0002 </r>
        <r>  0.0000  0.0018  0.0002 </r>
        <r>  0.0000  0.0068  0.0002 </r>
        <r>  0.0000  0.0066  0.0003 </r>
        <r>  0.0002  0.0039  0.0014 </r>
        <r>  0.0018  0.0035  0.0019 </r>
        <r>  0.0007  0.0017  0.0015 </r>
        <r>  0.0001  0.0033  0.0010 </r>
        <r>  0.0001  0.0032  0.0010 </r>
        <r>  0.0007  0.0016  0.0015 </r>
        <r>  0.0018  0.0032  0.0020 </r>
        <r>  0.0003  0.0039  0.0015 </r>
        <r>  0.0001  0.0012  0.0003 </r>
        <r>  0.0016  0.0031  0.0013 </r>
        <r>  0.0001  0.0017  0.0004 </r>
        <r>  0.0017  0.0004  0.0017 </r>
        <r>  0.0007  0.0015  0.0014 </r>
        <r>  0.0001  0.0006  0.0002 </r>
        <r>  0.0002  0.0013  0.0009 </r>
        <r>  0.0000  0.0031  0.0018 </r>
        <r>  0.0000  0.0031  0.0018 </r>
        <r>  0.0002  0.0013  0.0009 </r>
        <r>  0.0001  0.0006  0.0001 </r>
        <r>  0.0007  0.0014  0.0014 </r>
        <r>  0.0017  0.0031  0.0013 </r>
        <r>  0.0001  0.0013  0.0003 </r>
        <r>  0.0017  0.0004  0.0017 </r>
        <r>  0.0002  0.0019  0.0005 </r>
        <r>  0.0000  0.0055  0.0000 </r>
       </set>
       <set comment="band 202">
        <r>  0.0063  0.0004  0.0172 </r>
        <r>  0.0000  0.0002  0.0050 </r>
        <r>  0.0000  0.0014  0.0168 </r>
        <r>  0.0000  0.0014  0.0168 </r>
        <r>  0.0000  0.0002  0.0051 </r>
        <r>  0.0066  0.0004  0.0184 </r>
        <r>  0.0001  0.0029  0.0003 </r>
        <r>  0.0001  0.0027  0.0003 </r>
        <r>  0.0000  0.0067  0.0000 </r>
        <r>  0.0000  0.0066  0.0000 </r>
        <r>  0.0000  0.0096  0.0001 </r>
        <r>  0.0000  0.0094  0.0001 </r>
        <r>  0.0000  0.0050  0.0003 </r>
        <r>  0.0000  0.0051  0.0003 </r>
        <r>  0.0004  0.0023  0.0011 </r>
        <r>  0.0009  0.0026  0.0013 </r>
        <r>  0.0003  0.0032  0.0001 </r>
        <r>  0.0004  0.0044  0.0016 </r>
        <r>  0.0004  0.0046  0.0016 </r>
        <r>  0.0003  0.0031  0.0001 </r>
        <r>  0.0010  0.0025  0.0013 </r>
        <r>  0.0004  0.0022  0.0011 </r>
        <r>  0.0024  0.0008  0.0033 </r>
        <r>  0.0000  0.0036  0.0007 </r>
        <r>  0.0008  0.0017  0.0012 </r>
        <r>  0.0002  0.0028  0.0005 </r>
        <r>  0.0000  0.0001  0.0004 </r>
        <r>  0.0003  0.0025  0.0007 </r>
        <r>  0.0000  0.0002  0.0001 </r>
        <r>  0.0000  0.0022  0.0029 </r>
        <r>  0.0000  0.0021  0.0028 </r>
        <r>  0.0000  0.0002  0.0001 </r>
        <r>  0.0003  0.0025  0.0007 </r>
        <r>  0.0000  0.0001  0.0004 </r>
        <r>  0.0000  0.0037  0.0007 </r>
        <r>  0.0024  0.0009  0.0034 </r>
        <r>  0.0002  0.0029  0.0006 </r>
        <r>  0.0008  0.0018  0.0012 </r>
        <r>  0.0000  0.0013  0.0000 </r>
       </set>
       <set comment="band 203">
        <r>  0.0053  0.0008  0.0166 </r>
        <r>  0.0002  0.0005  0.0087 </r>
        <r>  0.0008  0.0012  0.0029 </r>
        <r>  0.0011  0.0012  0.0032 </r>
        <r>  0.0002  0.0005  0.0083 </r>
        <r>  0.0054  0.0008  0.0162 </r>
        <r>  0.0000  0.0062  0.0000 </r>
        <r>  0.0000  0.0062  0.0000 </r>
        <r>  0.0000  0.0047  0.0003 </r>
        <r>  0.0000  0.0048  0.0002 </r>
        <r>  0.0001  0.0137  0.0001 </r>
        <r>  0.0001  0.0144  0.0001 </r>
        <r>  0.0000  0.0047  0.0003 </r>
        <r>  0.0000  0.0046  0.0003 </r>
        <r>  0.0016  0.0017  0.0026 </r>
        <r>  0.0009  0.0024  0.0020 </r>
        <r>  0.0001  0.0044  0.0002 </r>
        <r>  0.0011  0.0019  0.0025 </r>
        <r>  0.0010  0.0020  0.0025 </r>
        <r>  0.0001  0.0043  0.0002 </r>
        <r>  0.0009  0.0022  0.0021 </r>
        <r>  0.0018  0.0018  0.0027 </r>
        <r>  0.0002  0.0008  0.0012 </r>
        <r>  0.0000  0.0010  0.0002 </r>
        <r>  0.0006  0.0048  0.0008 </r>
        <r>  0.0005  0.0002  0.0003 </r>
        <r>  0.0000  0.0041  0.0002 </r>
        <r>  0.0006  0.0024  0.0011 </r>
        <r>  0.0001  0.0016  0.0002 </r>
        <r>  0.0014  0.0002  0.0012 </r>
        <r>  0.0012  0.0003  0.0011 </r>
        <r>  0.0001  0.0019  0.0002 </r>
        <r>  0.0006  0.0021  0.0010 </r>
        <r>  0.0000  0.0041  0.0002 </r>
        <r>  0.0000  0.0009  0.0003 </r>
        <r>  0.0002  0.0008  0.0010 </r>
        <r>  0.0005  0.0002  0.0003 </r>
        <r>  0.0005  0.0050  0.0008 </r>
        <r>  0.0000  0.0000  0.0135 </r>
       </set>
       <set comment="band 204">
        <r>  0.0000  0.0003  0.0059 </r>
        <r>  0.0028  0.0008  0.0165 </r>
        <r>  0.0049  0.0010  0.0037 </r>
        <r>  0.0046  0.0010  0.0030 </r>
        <r>  0.0026  0.0008  0.0161 </r>
        <r>  0.0000  0.0004  0.0059 </r>
        <r>  0.0000  0.0017  0.0003 </r>
        <r>  0.0000  0.0014  0.0003 </r>
        <r>  0.0000  0.0049  0.0001 </r>
        <r>  0.0000  0.0050  0.0001 </r>
        <r>  0.0000  0.0004  0.0005 </r>
        <r>  0.0000  0.0005  0.0005 </r>
        <r>  0.0000  0.0043  0.0002 </r>
        <r>  0.0000  0.0045  0.0002 </r>
        <r>  0.0004  0.0055  0.0003 </r>
        <r>  0.0005  0.0027  0.0013 </r>
        <r>  0.0003  0.0016  0.0006 </r>
        <r>  0.0002  0.0037  0.0002 </r>
        <r>  0.0003  0.0038  0.0003 </r>
        <r>  0.0003  0.0014  0.0005 </r>
        <r>  0.0006  0.0030  0.0013 </r>
        <r>  0.0004  0.0061  0.0003 </r>
        <r>  0.0015  0.0008  0.0012 </r>
        <r>  0.0000  0.0021  0.0024 </r>
        <r>  0.0000  0.0014  0.0011 </r>
        <r>  0.0023  0.0002  0.0024 </r>
        <r>  0.0009  0.0035  0.0025 </r>
        <r>  0.0001  0.0001  0.0007 </r>
        <r>  0.0002  0.0017  0.0005 </r>
        <r>  0.0000  0.0021  0.0010 </r>
        <r>  0.0000  0.0021  0.0010 </r>
        <r>  0.0002  0.0019  0.0005 </r>
        <r>  0.0001  0.0001  0.0007 </r>
        <r>  0.0009  0.0034  0.0025 </r>
        <r>  0.0000  0.0021  0.0024 </r>
        <r>  0.0016  0.0010  0.0013 </r>
        <r>  0.0020  0.0002  0.0021 </r>
        <r>  0.0000  0.0016  0.0011 </r>
        <r>  0.0009  0.0000  0.0391 </r>
       </set>
       <set comment="band 205">
        <r>  0.0009  0.0001  0.0065 </r>
        <r>  0.0057  0.0003  0.0062 </r>
        <r>  0.0055  0.0014  0.0134 </r>
        <r>  0.0052  0.0016  0.0116 </r>
        <r>  0.0049  0.0004  0.0054 </r>
        <r>  0.0006  0.0001  0.0064 </r>
        <r>  0.0000  0.0110  0.0000 </r>
        <r>  0.0000  0.0116  0.0000 </r>
        <r>  0.0000  0.0008  0.0000 </r>
        <r>  0.0000  0.0006  0.0000 </r>
        <r>  0.0000  0.0029  0.0002 </r>
        <r>  0.0000  0.0029  0.0002 </r>
        <r>  0.0000  0.0017  0.0002 </r>
        <r>  0.0000  0.0015  0.0002 </r>
        <r>  0.0015  0.0027  0.0012 </r>
        <r>  0.0001  0.0022  0.0003 </r>
        <r>  0.0019  0.0037  0.0016 </r>
        <r>  0.0003  0.0025  0.0005 </r>
        <r>  0.0001  0.0027  0.0004 </r>
        <r>  0.0017  0.0041  0.0014 </r>
        <r>  0.0001  0.0025  0.0003 </r>
        <r>  0.0015  0.0027  0.0012 </r>
        <r>  0.0002  0.0044  0.0013 </r>
        <r>  0.0011  0.0005  0.0020 </r>
        <r>  0.0005  0.0029  0.0003 </r>
        <r>  0.0008  0.0015  0.0015 </r>
        <r>  0.0015  0.0027  0.0007 </r>
        <r>  0.0001  0.0015  0.0001 </r>
        <r>  0.0004  0.0039  0.0011 </r>
        <r>  0.0013  0.0025  0.0020 </r>
        <r>  0.0016  0.0024  0.0020 </r>
        <r>  0.0005  0.0040  0.0012 </r>
        <r>  0.0001  0.0011  0.0002 </r>
        <r>  0.0018  0.0025  0.0010 </r>
        <r>  0.0010  0.0003  0.0019 </r>
        <r>  0.0002  0.0045  0.0015 </r>
        <r>  0.0010  0.0014  0.0017 </r>
        <r>  0.0006  0.0026  0.0003 </r>
        <r>  0.0000  0.0022  0.0000 </r>
       </set>
       <set comment="band 206">
        <r>  0.0008  0.0003  0.0072 </r>
        <r>  0.0074  0.0015  0.0032 </r>
        <r>  0.0003  0.0018  0.0064 </r>
        <r>  0.0002  0.0015  0.0107 </r>
        <r>  0.0087  0.0011  0.0040 </r>
        <r>  0.0007  0.0002  0.0056 </r>
        <r>  0.0000  0.0069  0.0002 </r>
        <r>  0.0000  0.0071  0.0002 </r>
        <r>  0.0000  0.0091  0.0001 </r>
        <r>  0.0000  0.0084  0.0000 </r>
        <r>  0.0001  0.0050  0.0004 </r>
        <r>  0.0001  0.0051  0.0005 </r>
        <r>  0.0001  0.0040  0.0005 </r>
        <r>  0.0001  0.0043  0.0004 </r>
        <r>  0.0011  0.0023  0.0008 </r>
        <r>  0.0005  0.0022  0.0010 </r>
        <r>  0.0019  0.0015  0.0021 </r>
        <r>  0.0004  0.0026  0.0013 </r>
        <r>  0.0005  0.0022  0.0011 </r>
        <r>  0.0019  0.0015  0.0021 </r>
        <r>  0.0005  0.0027  0.0012 </r>
        <r>  0.0011  0.0030  0.0007 </r>
        <r>  0.0003  0.0008  0.0012 </r>
        <r>  0.0000  0.0063  0.0006 </r>
        <r>  0.0000  0.0003  0.0006 </r>
        <r>  0.0002  0.0016  0.0017 </r>
        <r>  0.0026  0.0007  0.0030 </r>
        <r>  0.0000  0.0054  0.0002 </r>
        <r>  0.0008  0.0008  0.0010 </r>
        <r>  0.0007  0.0051  0.0004 </r>
        <r>  0.0008  0.0053  0.0005 </r>
        <r>  0.0009  0.0009  0.0010 </r>
        <r>  0.0001  0.0056  0.0002 </r>
        <r>  0.0025  0.0009  0.0030 </r>
        <r>  0.0000  0.0061  0.0008 </r>
        <r>  0.0002  0.0004  0.0009 </r>
        <r>  0.0001  0.0018  0.0013 </r>
        <r>  0.0000  0.0004  0.0006 </r>
        <r>  0.0000  0.0000  0.0288 </r>
       </set>
       <set comment="band 207">
        <r>  0.0000  0.0014  0.0079 </r>
        <r>  0.0005  0.0010  0.0270 </r>
        <r>  0.0040  0.0009  0.0213 </r>
        <r>  0.0044  0.0011  0.0192 </r>
        <r>  0.0003  0.0013  0.0166 </r>
        <r>  0.0000  0.0010  0.0056 </r>
        <r>  0.0000  0.0021  0.0001 </r>
        <r>  0.0000  0.0025  0.0001 </r>
        <r>  0.0000  0.0027  0.0004 </r>
        <r>  0.0000  0.0025  0.0003 </r>
        <r>  0.0001  0.0037  0.0005 </r>
        <r>  0.0000  0.0033  0.0002 </r>
        <r>  0.0000  0.0052  0.0005 </r>
        <r>  0.0000  0.0025  0.0006 </r>
        <r>  0.0007  0.0039  0.0015 </r>
        <r>  0.0000  0.0019  0.0008 </r>
        <r>  0.0002  0.0006  0.0020 </r>
        <r>  0.0007  0.0005  0.0005 </r>
        <r>  0.0005  0.0006  0.0004 </r>
        <r>  0.0004  0.0008  0.0014 </r>
        <r>  0.0000  0.0014  0.0013 </r>
        <r>  0.0005  0.0030  0.0017 </r>
        <r>  0.0003  0.0032  0.0019 </r>
        <r>  0.0000  0.0013  0.0020 </r>
        <r>  0.0003  0.0006  0.0005 </r>
        <r>  0.0026  0.0001  0.0039 </r>
        <r>  0.0010  0.0005  0.0018 </r>
        <r>  0.0001  0.0010  0.0003 </r>
        <r>  0.0001  0.0032  0.0002 </r>
        <r>  0.0012  0.0007  0.0020 </r>
        <r>  0.0013  0.0010  0.0024 </r>
        <r>  0.0001  0.0024  0.0002 </r>
        <r>  0.0001  0.0014  0.0004 </r>
        <r>  0.0004  0.0006  0.0008 </r>
        <r>  0.0000  0.0020  0.0015 </r>
        <r>  0.0001  0.0033  0.0010 </r>
        <r>  0.0024  0.0001  0.0033 </r>
        <r>  0.0004  0.0009  0.0005 </r>
        <r>  0.0000  0.0006  0.0014 </r>
       </set>
       <set comment="band 208">
        <r>  0.0010  0.0005  0.0109 </r>
        <r>  0.0004  0.0001  0.0165 </r>
        <r>  0.0007  0.0001  0.0277 </r>
        <r>  0.0011  0.0006  0.0208 </r>
        <r>  0.0002  0.0009  0.0267 </r>
        <r>  0.0013  0.0002  0.0108 </r>
        <r>  0.0002  0.0035  0.0005 </r>
        <r>  0.0000  0.0066  0.0004 </r>
        <r>  0.0000  0.0005  0.0006 </r>
        <r>  0.0000  0.0014  0.0006 </r>
        <r>  0.0000  0.0023  0.0003 </r>
        <r>  0.0001  0.0043  0.0008 </r>
        <r>  0.0000  0.0016  0.0003 </r>
        <r>  0.0000  0.0083  0.0004 </r>
        <r>  0.0001  0.0025  0.0025 </r>
        <r>  0.0003  0.0012  0.0008 </r>
        <r>  0.0004  0.0007  0.0014 </r>
        <r>  0.0009  0.0001  0.0013 </r>
        <r>  0.0008  0.0002  0.0019 </r>
        <r>  0.0001  0.0030  0.0027 </r>
        <r>  0.0000  0.0008  0.0012 </r>
        <r>  0.0003  0.0010  0.0015 </r>
        <r>  0.0003  0.0003  0.0019 </r>
        <r>  0.0000  0.0021  0.0010 </r>
        <r>  0.0001  0.0007  0.0008 </r>
        <r>  0.0000  0.0032  0.0018 </r>
        <r>  0.0017  0.0008  0.0017 </r>
        <r>  0.0001  0.0007  0.0005 </r>
        <r>  0.0002  0.0002  0.0008 </r>
        <r>  0.0005  0.0007  0.0019 </r>
        <r>  0.0001  0.0015  0.0016 </r>
        <r>  0.0000  0.0012  0.0005 </r>
        <r>  0.0000  0.0011  0.0009 </r>
        <r>  0.0000  0.0014  0.0026 </r>
        <r>  0.0001  0.0010  0.0019 </r>
        <r>  0.0005  0.0004  0.0024 </r>
        <r>  0.0008  0.0022  0.0016 </r>
        <r>  0.0006  0.0010  0.0010 </r>
        <r>  0.0002  0.0004  0.0090 </r>
       </set>
      </set>
     </set>
    </set>
   </array>
  </projected>
 </calculation>
 <structure name="finalpos" >
  <crystal>
   <varray name="basis" >
    <v>       8.42001800       0.00000000       8.07798100 </v>
    <v>       0.00000000      11.76380800       0.00000000 </v>
    <v>      -8.42001800       0.00000000       8.07798100 </v>
   </varray>
   <i name="volume">   1600.27186790 </i>
   <varray name="rec_basis" >
    <v>       0.05938230      -0.00000000       0.06189665 </v>
    <v>       0.00000000       0.08500649      -0.00000000 </v>
    <v>      -0.05938230       0.00000000       0.06189665 </v>
   </varray>
  </crystal>
  <varray name="positions" >
   <v>       0.27093300       0.24724400       0.19542400 </v>
   <v>       0.76618200       0.24450400       0.74704000 </v>
   <v>       0.22302100       0.76744300       0.76870000 </v>
   <v>       0.27719400       0.23330500       0.73153800 </v>
   <v>       0.73385000       0.75511400       0.75341900 </v>
   <v>       0.22897800       0.75279400       0.30482600 </v>
   <v>       0.00043900       0.99456200       0.01021800 </v>
   <v>       0.49978900       0.00560100       0.48977000 </v>
   <v>       0.51181900       0.99834500       0.00133600 </v>
   <v>       0.98802300       0.00182600       0.49867500 </v>
   <v>       0.49988900       0.50013600       0.98840100 </v>
   <v>       0.99988000       0.50054500       0.51164800 </v>
   <v>       0.01084000       0.50108700       0.99997600 </v>
   <v>       0.48922900       0.49939700       0.50000900 </v>
   <v>       0.47967400       0.74714500       0.94286700 </v>
   <v>       0.95320500       0.75022000       0.46239400 </v>
   <v>       0.98669400       0.24937100       0.97590600 </v>
   <v>       0.43631100       0.25200000       0.46643100 </v>
   <v>       0.06430500       0.74847200       0.03376800 </v>
   <v>       0.51400500       0.75108800       0.52414000 </v>
   <v>       0.54565100       0.25012200       0.03671800 </v>
   <v>       0.02056100       0.25331100       0.55697400 </v>
   <v>       0.25257000       0.45762100       0.94791700 </v>
   <v>       0.74473600       0.47199400       0.52596600 </v>
   <v>       0.44396300       0.52806000       0.24539900 </v>
   <v>       0.98460200       0.56077000       0.75192000 </v>
   <v>       0.53893600       0.03183300       0.75028100 </v>
   <v>       0.05957000       0.02911300       0.25485300 </v>
   <v>       0.75916000       0.93353000       0.03039400 </v>
   <v>       0.24288300       0.97167900       0.54345200 </v>
   <v>       0.25712300       0.02864600       0.95666000 </v>
   <v>       0.74073200       0.06614300       0.46948300 </v>
   <v>       0.43998400       0.97147300       0.24521400 </v>
   <v>       0.96051400       0.96800800       0.74986500 </v>
   <v>       0.75552900       0.52615100       0.97356100 </v>
   <v>       0.24759400       0.54296300       0.55248300 </v>
   <v>       0.51554600       0.44032200       0.74814600 </v>
   <v>       0.05605100       0.47187700       0.25461600 </v>
   <v>       0.74984500       0.49732400       0.24971100 </v>
  </varray>
 </structure>
</modeling>
