CsPbBr3 cubic bulk                      
           1
     8.420018    0.000000    8.077981
     0.000000   11.763808    0.000000
    -8.420018    0.000000    8.077981
   Cs   Pb   Br   Cs
   6   8  24   1
Direct configuration=     1
   0.27093300  0.24724400  0.19542400
   0.76618200  0.24450400  0.74704000
   0.22302100  0.76744300  0.76870000
   0.27719400  0.23330500  0.73153800
   0.73385000  0.75511400  0.75341900
   0.22897800  0.75279400  0.30482600
   0.00043900  0.99456200  0.01021800
   0.49978900  0.00560100  0.48977000
   0.51181900  0.99834500  0.00133600
   0.98802300  0.00182600  0.49867500
   0.49988900  0.50013600  0.98840100
   0.99988000  0.50054500  0.51164800
   0.01084000  0.50108700  0.99997600
   0.48922900  0.49939700  0.50000900
   0.47967400  0.74714500  0.94286700
   0.95320500  0.75022000  0.46239400
   0.98669400  0.24937100  0.97590600
   0.43631100  0.25200000  0.46643100
   0.06430500  0.74847200  0.03376800
   0.51400500  0.75108800  0.52414000
   0.54565100  0.25012200  0.03671800
   0.02056100  0.25331100  0.55697400
   0.25257000  0.45762100  0.94791700
   0.74473600  0.47199400  0.52596600
   0.44396300  0.52806000  0.24539900
   0.98460200  0.56077000  0.75192000
   0.53893600  0.03183300  0.75028100
   0.05957000  0.02911300  0.25485300
   0.75916000  0.93353000  0.03039400
   0.24288300  0.97167900  0.54345200
   0.25712300  0.02864600  0.95666000
   0.74073200  0.06614300  0.46948300
   0.43998400  0.97147300  0.24521400
   0.96051400  0.96800800  0.74986500
   0.75552900  0.52615100  0.97356100
   0.24759400  0.54296300  0.55248300
   0.51554600  0.44032200  0.74814600
   0.05605100  0.47187700  0.25461600
   0.74984500  0.49732400  0.24971100
