|===============================================================================
|
|  DFTB+ release 22.2
|
|  Copyright (C) 2006 - 2022  DFTB+ developers group
|
|===============================================================================
|
|  When publishing results obtained with DFTB+, please cite the following
|  reference:
|
|  * DFTB+, a software package for efficient approximate density functional
|    theory based atomistic simulations, J. Chem. Phys. 152, 124101 (2020).
|    [doi: 10.1063/1.5143190]
|
|  You should also cite additional publications crediting the parametrization
|  data you use. Please consult the documentation of the SK-files for the
|  references.
|
|===============================================================================

Reading input file 'dftb_in.hsd'
Parser version: 12

--------------------------------------------------------------------------------
Reading SK-files:
/home/thism292/Documents/repos/CsPbBr3_CCS/Data/DFTB_CCS/DFTB_PARAMS/Cs_w3_00_c9_00_Pb_w3_00_c9_00_Br_w3_00_c9_00/Cs-Cs.skf
/home/thism292/Documents/repos/CsPbBr3_CCS/Data/DFTB_CCS/DFTB_PARAMS/Cs_w3_00_c9_00_Pb_w3_00_c9_00_Br_w3_00_c9_00/Cs-Pb.skf
/home/thism292/Documents/repos/CsPbBr3_CCS/Data/DFTB_CCS/DFTB_PARAMS/Cs_w3_00_c9_00_Pb_w3_00_c9_00_Br_w3_00_c9_00/Cs-Br.skf
/home/thism292/Documents/repos/CsPbBr3_CCS/Data/DFTB_CCS/DFTB_PARAMS/Cs_w3_00_c9_00_Pb_w3_00_c9_00_Br_w3_00_c9_00/Pb-Pb.skf
/home/thism292/Documents/repos/CsPbBr3_CCS/Data/DFTB_CCS/DFTB_PARAMS/Cs_w3_00_c9_00_Pb_w3_00_c9_00_Br_w3_00_c9_00/Pb-Br.skf
/home/thism292/Documents/repos/CsPbBr3_CCS/Data/DFTB_CCS/DFTB_PARAMS/Cs_w3_00_c9_00_Pb_w3_00_c9_00_Br_w3_00_c9_00/Br-Br.skf
Done.
WARNING!
-> This driver is deprecated and will be removed in future versions.
Please use the GeometryOptimisation driver instead.
Path: dftbplusinput/Driver/ConjugateGradient
Line: 5-8 (File: dftb_in.hsd)



Processed input in HSD format written to 'dftb_pin.hsd'

Starting initialization...
--------------------------------------------------------------------------------
WARNING!
-> Dipole printed for extended system : value printed is not well defined
OpenMP threads:              16
Chosen random seed:          29085418
Mode:                        Conjugate gradient relaxation
Self consistent charges:     Yes
SCC-tolerance:                 0.100000E-09
Max. scc iterations:                    100
Shell resolved Hubbard:      No
Spin polarisation:           No
Nr. of up electrons:           104.000000
Nr. of down electrons:         104.000000
Periodic boundaries:         Yes
Electronic solver:           Relatively robust
Mixer:                       Broyden mixer
Mixing parameter:                  0.200000
Maximal SCC-cycles:                     100
Nr. of chrg. vec. in memory:            100
Nr. of moved atoms:                      40
Max. nr. of geometry steps:            1000
Force tolerance:               0.100000E-07
Electronic temperature:              0.100000E-07 H      0.272114E-06 eV
Initial charges:             Set automatically (system chrg:   0.000E+00)
Included shells:            Cs:  s
                            Pb:  s, p
                            Br:  s, p
K-points and weights:           1:  0.000000  0.000000  0.000000     0.125000
                                2:  0.000000  0.000000  0.500000     0.125000
                                3:  0.000000  0.500000  0.000000     0.125000
                                4:  0.000000  0.500000  0.500000     0.125000
                                5:  0.500000  0.000000  0.000000     0.125000
                                6:  0.500000  0.000000  0.500000     0.125000
                                7:  0.500000  0.500000  0.000000     0.125000
                                8:  0.500000  0.500000  0.500000     0.125000

K-points in absolute space:     1:  0.000000  0.000000  0.000000
                                2:  0.000000  0.000000  0.022546
                                3:  0.000000  0.022546  0.000000
                                4:  0.000000  0.022546  0.022546
                                5:  0.022546  0.000000  0.000000
                                6:  0.022546  0.000000  0.022546
                                7:  0.022546  0.022546  0.000000
                                8:  0.022546  0.022546  0.022546

Extra options:
                             Mulliken analysis
Force type                   original

--------------------------------------------------------------------------------

***  Geometry step: 0

 iSCC Total electronic   Diff electronic      SCC error    
    1    0.00000000E+00    0.00000000E+00    0.12884755E+01
    2   -0.84073640E+02   -0.84073640E+02    0.86140302E+00
    3   -0.84233424E+02   -0.15978466E+00    0.34960619E+00
    4   -0.84387591E+02   -0.15416651E+00    0.28886653E+01
    5   -0.82361861E+02    0.20257295E+01    0.41306446E+00
    6   -0.84371501E+02   -0.20096400E+01    0.10134582E+00
    7   -0.84403853E+02   -0.32351613E-01    0.33098650E-01
    8   -0.84405619E+02   -0.17658325E-02    0.11283992E-01
    9   -0.84405804E+02   -0.18528613E-03    0.13473735E-02
   10   -0.84405828E+02   -0.24201458E-04    0.44853481E-03
   11   -0.84405829E+02   -0.30695576E-06    0.19646527E-04
   12   -0.84405829E+02   -0.38015060E-07    0.87951755E-06
   13   -0.84405829E+02   -0.71324280E-10    0.53875138E-07
   14   -0.84405829E+02   -0.71054274E-13    0.26754479E-07
   15   -0.84405829E+02    0.00000000E+00    0.40035037E-08
   16   -0.84405829E+02   -0.28421709E-13    0.57820237E-09
   17   -0.84405829E+02    0.28421709E-13    0.10569012E-09
   18   -0.84405829E+02   -0.14210855E-13    0.10566970E-09
   19   -0.84405829E+02    0.28421709E-13    0.14972246E-09
   20   -0.84405829E+02   -0.28421709E-13    0.17514878E-10

Total Energy:                      -84.4058286516 H        -2296.7995 eV
Extrapolated to 0K:                -84.4058286516 H        -2296.7995 eV
Total Mermin free energy:          -84.4058286516 H        -2296.7995 eV
Force related energy:              -84.4058286516 H        -2296.7995 eV

Volume:                              0.109065E+05 au^3   0.161617E+04 A^3
Pressure:                           -0.318177E-03 au    -0.936109E+10 Pa
Maximal force component:             0.556830E-02
Averaged force norm:                 0.620214E-02
>> Charges saved for restart in charges.bin

--------------------------------------------------------------------------------

***  Geometry step: 1

 iSCC Total electronic   Diff electronic      SCC error    
    1   -0.84405829E+02    0.00000000E+00    0.32017108E-02
    2   -0.84413361E+02   -0.75322279E-02    0.25385695E-02
    3   -0.84413361E+02   -0.21696476E-06    0.36810543E-03
    4   -0.84413361E+02   -0.10367945E-06    0.22104517E-04
    5   -0.84413361E+02   -0.44370680E-07    0.11735582E-04
    6   -0.84413361E+02   -0.17057289E-09    0.17357766E-07
    7   -0.84413361E+02   -0.60722982E-10    0.11835564E-08
    8   -0.84413361E+02    0.00000000E+00    0.35510350E-09
    9   -0.84413361E+02   -0.14210855E-13    0.13019616E-09
   10   -0.84413361E+02    0.00000000E+00    0.36046499E-10

Total Energy:                      -84.4133612447 H        -2297.0044 eV
Extrapolated to 0K:                -84.4133612447 H        -2297.0044 eV
Total Mermin free energy:          -84.4133612447 H        -2297.0044 eV
Force related energy:              -84.4133612447 H        -2297.0044 eV

Volume:                              0.109065E+05 au^3   0.161617E+04 A^3
Pressure:                           -0.316565E-03 au    -0.931366E+10 Pa
Maximal force component:             0.547650E-02
Averaged force norm:                 0.594671E-02
>> Charges saved for restart in charges.bin

--------------------------------------------------------------------------------

***  Geometry step: 2

 iSCC Total electronic   Diff electronic      SCC error    
    1   -0.84413361E+02    0.00000000E+00    0.51529315E-02
    2   -0.84424887E+02   -0.11525301E-01    0.40862223E-02
    3   -0.84424887E+02   -0.49199471E-06    0.52288336E-03
    4   -0.84424887E+02   -0.24156759E-06    0.32739031E-04
    5   -0.84424887E+02   -0.10638961E-06    0.18468173E-04
    6   -0.84424887E+02   -0.36779113E-09    0.28470532E-07
    7   -0.84424887E+02   -0.14740920E-09    0.21737856E-08
    8   -0.84424887E+02   -0.14210855E-13    0.81918294E-09
    9   -0.84424887E+02    0.14210855E-13    0.21679381E-09
   10   -0.84424887E+02   -0.14210855E-13    0.57050586E-10

Total Energy:                      -84.4248873860 H        -2297.3181 eV
Extrapolated to 0K:                -84.4248873860 H        -2297.3181 eV
Total Mermin free energy:          -84.4248873860 H        -2297.3181 eV
Force related energy:              -84.4248873860 H        -2297.3181 eV

Volume:                              0.109065E+05 au^3   0.161617E+04 A^3
Pressure:                           -0.313887E-03 au    -0.923487E+10 Pa
Maximal force component:             0.538514E-02
Averaged force norm:                 0.556198E-02
>> Charges saved for restart in charges.bin

--------------------------------------------------------------------------------

***  Geometry step: 3

 iSCC Total electronic   Diff electronic      SCC error    
    1   -0.84424887E+02    0.00000000E+00    0.82125255E-02
    2   -0.84441905E+02   -0.17017422E-01    0.65139574E-02
    3   -0.84441906E+02   -0.98460984E-06    0.67043930E-03
    4   -0.84441906E+02   -0.51074014E-06    0.45035189E-04
    5   -0.84441907E+02   -0.22945427E-06    0.26018449E-04
    6   -0.84441907E+02   -0.69545081E-09    0.47389803E-07
    7   -0.84441907E+02   -0.28346392E-09    0.43020387E-08
    8   -0.84441907E+02   -0.28421709E-13    0.14931150E-08
    9   -0.84441907E+02    0.28421709E-13    0.36406267E-09
   10   -0.84441907E+02   -0.14210855E-13    0.88327234E-10

Total Energy:                      -84.4419065341 H        -2297.7812 eV
Extrapolated to 0K:                -84.4419065341 H        -2297.7812 eV
Total Mermin free energy:          -84.4419065341 H        -2297.7812 eV
Force related energy:              -84.4419065341 H        -2297.7812 eV

Volume:                              0.109065E+05 au^3   0.161617E+04 A^3
Pressure:                           -0.309410E-03 au    -0.910314E+10 Pa
Maximal force component:             0.554018E-02
Averaged force norm:                 0.502277E-02
>> Charges saved for restart in charges.bin

--------------------------------------------------------------------------------

***  Geometry step: 4

 iSCC Total electronic   Diff electronic      SCC error    
    1   -0.84441907E+02    0.00000000E+00    0.12721889E-01
    2   -0.84465630E+02   -0.23723241E-01    0.10094193E-01
    3   -0.84465631E+02   -0.14768439E-05    0.89706717E-03
    4   -0.84465632E+02   -0.88227637E-06    0.51822895E-04
    5   -0.84465633E+02   -0.36735240E-06    0.30944417E-04
    6   -0.84465633E+02   -0.98218322E-09    0.79282149E-07
    7   -0.84465633E+02   -0.38502890E-09    0.80112406E-08
    8   -0.84465633E+02    0.00000000E+00    0.26741693E-08
    9   -0.84465633E+02    0.14210855E-13    0.61234245E-09
   10   -0.84465633E+02   -0.14210855E-13    0.13096857E-09
   11   -0.84465633E+02    0.14210855E-13    0.15390356E-10

Total Energy:                      -84.4656325030 H        -2298.4268 eV
Extrapolated to 0K:                -84.4656325030 H        -2298.4268 eV
Total Mermin free energy:          -84.4656325030 H        -2298.4268 eV
Force related energy:              -84.4656325030 H        -2298.4268 eV

Volume:                              0.109065E+05 au^3   0.161617E+04 A^3
Pressure:                           -0.301960E-03 au    -0.888398E+10 Pa
Maximal force component:             0.591202E-02
Averaged force norm:                 0.440690E-02
>> Charges saved for restart in charges.bin

--------------------------------------------------------------------------------

***  Geometry step: 5

 iSCC Total electronic   Diff electronic      SCC error    
    1   -0.84465633E+02    0.00000000E+00    0.17999597E-01
    2   -0.84496093E+02   -0.30460696E-01    0.14287588E-01
    3   -0.84496094E+02   -0.10667869E-05    0.99184259E-03
    4   -0.84496095E+02   -0.10366818E-05    0.27603299E-04
    5   -0.84496096E+02   -0.20794010E-06    0.13221446E-04
    6   -0.84496096E+02   -0.37196912E-09    0.13190052E-06
    7   -0.84496096E+02   -0.72432726E-10    0.12115827E-07
    8   -0.84496096E+02   -0.14210855E-13    0.43606407E-08
    9   -0.84496096E+02    0.00000000E+00    0.99401601E-09
   10   -0.84496096E+02   -0.14210855E-13    0.17612874E-09
   11   -0.84496096E+02    0.42632564E-13    0.14076740E-10

Total Energy:                      -84.4960955111 H        -2299.2557 eV
Extrapolated to 0K:                -84.4960955111 H        -2299.2557 eV
Total Mermin free energy:          -84.4960955111 H        -2299.2557 eV
Force related energy:              -84.4960955111 H        -2299.2557 eV

Volume:                              0.109065E+05 au^3   0.161617E+04 A^3
Pressure:                           -0.290147E-03 au    -0.853641E+10 Pa
Maximal force component:             0.675922E-02
Averaged force norm:                 0.418331E-02
>> Charges saved for restart in charges.bin

--------------------------------------------------------------------------------

***  Geometry step: 6

 iSCC Total electronic   Diff electronic      SCC error    
    1   -0.84496096E+02    0.00000000E+00    0.13299457E-01
    2   -0.84521289E+02   -0.25193589E-01    0.10561027E-01
    3   -0.84521291E+02   -0.21249982E-05    0.12966553E-02
    4   -0.84521293E+02   -0.13722239E-05    0.42819740E-04
    5   -0.84521293E+02   -0.47814855E-06    0.25885018E-04
    6   -0.84521293E+02   -0.92326502E-09    0.14673802E-06
    7   -0.84521293E+02   -0.18302160E-09    0.17383717E-07
    8   -0.84521293E+02   -0.28421709E-13    0.48989541E-08
    9   -0.84521293E+02   -0.28421709E-13    0.92366231E-09
   10   -0.84521293E+02    0.14210855E-13    0.16592251E-09
   11   -0.84521293E+02    0.14210855E-13    0.42972736E-10

Total Energy:                      -84.5212930765 H        -2299.9414 eV
Extrapolated to 0K:                -84.5212930765 H        -2299.9414 eV
Total Mermin free energy:          -84.5212930765 H        -2299.9414 eV
Force related energy:              -84.5212930765 H        -2299.9414 eV

Volume:                              0.109065E+05 au^3   0.161617E+04 A^3
Pressure:                           -0.279455E-03 au    -0.822186E+10 Pa
Maximal force component:             0.783271E-02
Averaged force norm:                 0.482988E-02
>> Charges saved for restart in charges.bin

--------------------------------------------------------------------------------

***  Geometry step: 7

 iSCC Total electronic   Diff electronic      SCC error    
    1   -0.84521293E+02    0.00000000E+00    0.51812194E-02
    2   -0.84544056E+02   -0.22762746E-01    0.39119953E-02
    3   -0.84544065E+02   -0.90191342E-05    0.13299607E-02
    4   -0.84544072E+02   -0.69500134E-05    0.51693226E-04
    5   -0.84544072E+02   -0.83363631E-07    0.33691175E-04
    6   -0.84544072E+02   -0.82860652E-09    0.15172075E-06
    7   -0.84544072E+02   -0.18287949E-09    0.47619856E-07
    8   -0.84544072E+02   -0.14210855E-13    0.58131757E-08
    9   -0.84544072E+02   -0.14210855E-13    0.68248006E-09
   10   -0.84544072E+02    0.00000000E+00    0.16405061E-09
   11   -0.84544072E+02    0.00000000E+00    0.17728041E-10

Total Energy:                      -84.5440718756 H        -2300.5612 eV
Extrapolated to 0K:                -84.5440718756 H        -2300.5612 eV
Total Mermin free energy:          -84.5440718756 H        -2300.5612 eV
Force related energy:              -84.5440718756 H        -2300.5612 eV

Volume:                              0.109065E+05 au^3   0.161617E+04 A^3
Pressure:                           -0.271866E-03 au    -0.799857E+10 Pa
Maximal force component:             0.888614E-02
Averaged force norm:                 0.596571E-02
>> Charges saved for restart in charges.bin

--------------------------------------------------------------------------------

***  Geometry step: 8

 iSCC Total electronic   Diff electronic      SCC error    
    1   -0.84544072E+02    0.00000000E+00    0.10971617E-01
    2   -0.84568382E+02   -0.24310172E-01    0.74242829E-02
    3   -0.84568401E+02   -0.18557380E-04    0.14584178E-02
    4   -0.84568415E+02   -0.14435916E-04    0.73659202E-04
    5   -0.84568415E+02   -0.69469891E-07    0.47268563E-04
    6   -0.84568415E+02   -0.30768632E-08    0.26298920E-06
    7   -0.84568415E+02   -0.44801141E-09    0.74493921E-07
    8   -0.84568415E+02   -0.14210855E-13    0.59643881E-08
    9   -0.84568415E+02    0.14210855E-13    0.27022712E-09
   10   -0.84568415E+02   -0.14210855E-13    0.15934404E-09
   11   -0.84568415E+02    0.00000000E+00    0.86426588E-10

Total Energy:                      -84.5684151138 H        -2301.2237 eV
Extrapolated to 0K:                -84.5684151138 H        -2301.2237 eV
Total Mermin free energy:          -84.5684151138 H        -2301.2237 eV
Force related energy:              -84.5684151138 H        -2301.2237 eV

Volume:                              0.109065E+05 au^3   0.161617E+04 A^3
Pressure:                           -0.268133E-03 au    -0.788874E+10 Pa
Maximal force component:             0.959969E-02
Averaged force norm:                 0.724682E-02
>> Charges saved for restart in charges.bin

--------------------------------------------------------------------------------

***  Geometry step: 9

 iSCC Total electronic   Diff electronic      SCC error    
    1   -0.84568415E+02    0.00000000E+00    0.17898241E-01
    2   -0.84596716E+02   -0.28301278E-01    0.14058101E-01
    3   -0.84596740E+02   -0.23582043E-04    0.27754252E-02
    4   -0.84596757E+02   -0.17155566E-04    0.14141836E-03
    5   -0.84596759E+02   -0.14032493E-05    0.57116551E-04
    6   -0.84596759E+02   -0.96086978E-08    0.38314963E-06
    7   -0.84596759E+02   -0.10092975E-08    0.81975605E-07
    8   -0.84596759E+02   -0.42632564E-13    0.60742451E-08
    9   -0.84596759E+02    0.00000000E+00    0.31684591E-09
   10   -0.84596759E+02    0.14210855E-13    0.21914982E-09
   11   -0.84596759E+02   -0.14210855E-13    0.97013828E-10

Total Energy:                      -84.5967585434 H        -2301.9949 eV
Extrapolated to 0K:                -84.5967585434 H        -2301.9949 eV
Total Mermin free energy:          -84.5967585434 H        -2301.9949 eV
Force related energy:              -84.5967585434 H        -2301.9949 eV

Volume:                              0.109065E+05 au^3   0.161617E+04 A^3
Pressure:                           -0.268022E-03 au    -0.788548E+10 Pa
Maximal force component:             0.106500E-01
Averaged force norm:                 0.834406E-02
>> Charges saved for restart in charges.bin

--------------------------------------------------------------------------------

***  Geometry step: 10

 iSCC Total electronic   Diff electronic      SCC error    
    1   -0.84596759E+02    0.00000000E+00    0.28543292E-01
    2   -0.84628579E+02   -0.31820702E-01    0.22454978E-01
    3   -0.84628599E+02   -0.19937835E-04    0.30990859E-02
    4   -0.84628613E+02   -0.13641067E-04    0.16775104E-03
    5   -0.84628615E+02   -0.25837718E-05    0.42036908E-04
    6   -0.84628615E+02   -0.10181125E-07    0.23894749E-06
    7   -0.84628615E+02   -0.12948078E-08    0.84533367E-07
    8   -0.84628615E+02   -0.42632564E-13    0.63036776E-08
    9   -0.84628615E+02   -0.28421709E-13    0.45900428E-09
   10   -0.84628615E+02    0.14210855E-13    0.30922079E-09
   11   -0.84628615E+02    0.14210855E-13    0.11516710E-09
   12   -0.84628615E+02   -0.14210855E-13    0.50475180E-11

Total Energy:                      -84.6286154199 H        -2302.8618 eV
Extrapolated to 0K:                -84.6286154199 H        -2302.8618 eV
Total Mermin free energy:          -84.6286154199 H        -2302.8618 eV
Force related energy:              -84.6286154199 H        -2302.8618 eV

Volume:                              0.109065E+05 au^3   0.161617E+04 A^3
Pressure:                           -0.270227E-03 au    -0.795035E+10 Pa
Maximal force component:             0.127316E-01
Averaged force norm:                 0.886958E-02
>> Charges saved for restart in charges.bin

--------------------------------------------------------------------------------

***  Geometry step: 11

 iSCC Total electronic   Diff electronic      SCC error    
    1   -0.84628615E+02    0.00000000E+00    0.33999481E-01
    2   -0.84668966E+02   -0.40350356E-01    0.26574058E-01
    3   -0.84669021E+02   -0.54782137E-04    0.40670181E-02
    4   -0.84669058E+02   -0.37479140E-04    0.27080845E-03
    5   -0.84669063E+02   -0.49320138E-05    0.37070817E-04
    6   -0.84669063E+02   -0.27325669E-07    0.86387411E-06
    7   -0.84669063E+02   -0.41107739E-09    0.20032061E-06
    8   -0.84669063E+02   -0.18474111E-12    0.95730126E-08
    9   -0.84669063E+02   -0.28421709E-13    0.33955481E-08
   10   -0.84669063E+02    0.00000000E+00    0.13409012E-08
   11   -0.84669063E+02    0.14210855E-13    0.15199220E-09
   12   -0.84669063E+02    0.00000000E+00    0.94813046E-11

Total Energy:                      -84.6690629966 H        -2303.9624 eV
Extrapolated to 0K:                -84.6690629966 H        -2303.9624 eV
Total Mermin free energy:          -84.6690629966 H        -2303.9624 eV
Force related energy:              -84.6690629966 H        -2303.9624 eV

Volume:                              0.109065E+05 au^3   0.161617E+04 A^3
Pressure:                           -0.266742E-03 au    -0.784782E+10 Pa
Maximal force component:             0.122014E-01
Averaged force norm:                 0.747130E-02
>> Charges saved for restart in charges.bin

--------------------------------------------------------------------------------

***  Geometry step: 12

 iSCC Total electronic   Diff electronic      SCC error    
    1   -0.84669063E+02    0.00000000E+00    0.27843900E-01
    2   -0.84697446E+02   -0.28383246E-01    0.21772755E-01
    3   -0.84697472E+02   -0.25870193E-04    0.28162004E-02
    4   -0.84697489E+02   -0.17375834E-04    0.15617804E-03
    5   -0.84697492E+02   -0.29280250E-05    0.21815848E-04
    6   -0.84697492E+02   -0.91344958E-08    0.59192646E-06
    7   -0.84697492E+02   -0.19804247E-09    0.27707731E-06
    8   -0.84697492E+02   -0.12789769E-12    0.18813448E-07
    9   -0.84697492E+02   -0.56843419E-13    0.35407608E-08
   10   -0.84697492E+02    0.14210855E-13    0.49068749E-09
   11   -0.84697492E+02   -0.14210855E-13    0.19561064E-09
   12   -0.84697492E+02    0.00000000E+00    0.19692692E-10

Total Energy:                      -84.6974924262 H        -2304.7360 eV
Extrapolated to 0K:                -84.6974924262 H        -2304.7360 eV
Total Mermin free energy:          -84.6974924262 H        -2304.7360 eV
Force related energy:              -84.6974924262 H        -2304.7360 eV

Volume:                              0.109065E+05 au^3   0.161617E+04 A^3
Pressure:                           -0.259165E-03 au    -0.762489E+10 Pa
Maximal force component:             0.915045E-02
Averaged force norm:                 0.451103E-02
>> Charges saved for restart in charges.bin

--------------------------------------------------------------------------------

***  Geometry step: 13

 iSCC Total electronic   Diff electronic      SCC error    
    1   -0.84697492E+02    0.00000000E+00    0.15513676E-01
    2   -0.84704576E+02   -0.70837021E-02    0.12240749E-01
    3   -0.84704578E+02   -0.18638287E-05    0.17132295E-02
    4   -0.84704579E+02   -0.14273042E-05    0.31274253E-04
    5   -0.84704580E+02   -0.34019111E-06    0.71185174E-05
    6   -0.84704580E+02   -0.14817658E-09    0.76792530E-06
    7   -0.84704580E+02   -0.21373125E-10    0.48663330E-07
    8   -0.84704580E+02   -0.35527137E-12    0.17103114E-07
    9   -0.84704580E+02    0.00000000E+00    0.30689680E-08
   10   -0.84704580E+02    0.00000000E+00    0.60941632E-09
   11   -0.84704580E+02    0.14210855E-13    0.21350033E-10

Total Energy:                      -84.7045797598 H        -2304.9289 eV
Extrapolated to 0K:                -84.7045797598 H        -2304.9289 eV
Total Mermin free energy:          -84.7045797598 H        -2304.9289 eV
Force related energy:              -84.7045797598 H        -2304.9289 eV

Volume:                              0.109065E+05 au^3   0.161617E+04 A^3
Pressure:                           -0.249999E-03 au    -0.735521E+10 Pa
Maximal force component:             0.639188E-02
Averaged force norm:                 0.462226E-02
>> Charges saved for restart in charges.bin

--------------------------------------------------------------------------------

***  Geometry step: 14

 iSCC Total electronic   Diff electronic      SCC error    
    1   -0.84704580E+02    0.00000000E+00    0.21536463E-02
    2   -0.84705154E+02   -0.57392245E-03    0.17192489E-02
    3   -0.84705154E+02   -0.25712262E-06    0.33559731E-03
    4   -0.84705154E+02   -0.16610650E-06    0.11203251E-04
    5   -0.84705154E+02   -0.29031156E-07    0.63721918E-05
    6   -0.84705154E+02   -0.24968472E-10    0.18451524E-06
    7   -0.84705154E+02   -0.13230306E-10    0.10268294E-07
    8   -0.84705154E+02   -0.42632564E-13    0.81824778E-09
    9   -0.84705154E+02   -0.14210855E-13    0.60920624E-09
   10   -0.84705154E+02    0.14210855E-13    0.15436877E-09
   11   -0.84705154E+02    0.14210855E-13    0.38227199E-11

Total Energy:                      -84.7051541346 H        -2304.9445 eV
Extrapolated to 0K:                -84.7051541346 H        -2304.9445 eV
Total Mermin free energy:          -84.7051541346 H        -2304.9445 eV
Force related energy:              -84.7051541346 H        -2304.9445 eV

Volume:                              0.109065E+05 au^3   0.161617E+04 A^3
Pressure:                           -0.251992E-03 au    -0.741385E+10 Pa
Maximal force component:             0.561365E-02
Averaged force norm:                 0.397497E-02
>> Charges saved for restart in charges.bin

--------------------------------------------------------------------------------

***  Geometry step: 15

 iSCC Total electronic   Diff electronic      SCC error    
    1   -0.84705154E+02    0.00000000E+00    0.12646692E-01
    2   -0.84717248E+02   -0.12094106E-01    0.10084490E-01
    3   -0.84717261E+02   -0.12733807E-04    0.23833712E-02
    4   -0.84717269E+02   -0.84270248E-05    0.11529609E-03
    5   -0.84717270E+02   -0.99042353E-06    0.50590534E-04
    6   -0.84717270E+02   -0.47866422E-08    0.48568988E-05
    7   -0.84717270E+02   -0.15205615E-08    0.18388274E-06
    8   -0.84717270E+02   -0.23234747E-10    0.87016629E-07
    9   -0.84717270E+02   -0.28421709E-13    0.37751666E-07
   10   -0.84717270E+02    0.00000000E+00    0.17004487E-08
   11   -0.84717270E+02    0.14210855E-13    0.12583357E-09
   12   -0.84717270E+02   -0.28421709E-13    0.37487347E-10

Total Energy:                      -84.7172703983 H        -2305.2742 eV
Extrapolated to 0K:                -84.7172703983 H        -2305.2742 eV
Total Mermin free energy:          -84.7172703983 H        -2305.2742 eV
Force related energy:              -84.7172703983 H        -2305.2742 eV

Volume:                              0.109065E+05 au^3   0.161617E+04 A^3
Pressure:                           -0.248391E-03 au    -0.730792E+10 Pa
Maximal force component:             0.722210E-02
Averaged force norm:                 0.494218E-02
>> Charges saved for restart in charges.bin

--------------------------------------------------------------------------------

***  Geometry step: 16

 iSCC Total electronic   Diff electronic      SCC error    
    1   -0.84717270E+02    0.00000000E+00    0.12308068E-01
    2   -0.84728316E+02   -0.11045984E-01    0.97957376E-02
    3   -0.84728333E+02   -0.16882700E-04    0.26572180E-02
    4   -0.84728345E+02   -0.11302606E-04    0.15051197E-03
    5   -0.84728346E+02   -0.93648515E-06    0.58878758E-04
    6   -0.84728346E+02   -0.13480161E-07    0.94548203E-05
    7   -0.84728346E+02   -0.40029136E-08    0.73072343E-06
    8   -0.84728346E+02   -0.44693138E-10    0.13473665E-06
    9   -0.84728346E+02   -0.31263880E-12    0.13954881E-07
   10   -0.84728346E+02   -0.28421709E-13    0.19869630E-08
   11   -0.84728346E+02    0.28421709E-13    0.12866419E-09
   12   -0.84728346E+02    0.00000000E+00    0.47230664E-10

Total Energy:                      -84.7283455219 H        -2305.5756 eV
Extrapolated to 0K:                -84.7283455219 H        -2305.5756 eV
Total Mermin free energy:          -84.7283455219 H        -2305.5756 eV
Force related energy:              -84.7283455219 H        -2305.5756 eV

Volume:                              0.109065E+05 au^3   0.161617E+04 A^3
Pressure:                           -0.243673E-03 au    -0.716909E+10 Pa
Maximal force component:             0.922733E-02
Averaged force norm:                 0.591772E-02
>> Charges saved for restart in charges.bin

--------------------------------------------------------------------------------

***  Geometry step: 17

 iSCC Total electronic   Diff electronic      SCC error    
    1   -0.84728346E+02    0.00000000E+00    0.11198745E-01
    2   -0.84736972E+02   -0.86261809E-02    0.88862575E-02
    3   -0.84736990E+02   -0.18768971E-04    0.26918257E-02
    4   -0.84737003E+02   -0.12585493E-04    0.20130399E-03
    5   -0.84737004E+02   -0.75066805E-06    0.69942156E-04
    6   -0.84737004E+02   -0.26719945E-07    0.13256459E-04
    7   -0.84737004E+02   -0.63327832E-08    0.14437200E-05
    8   -0.84737004E+02   -0.62954086E-10    0.10782601E-06
    9   -0.84737004E+02   -0.11084467E-11    0.30934388E-07
   10   -0.84737004E+02    0.28421709E-13    0.48797304E-08
   11   -0.84737004E+02    0.00000000E+00    0.18379431E-09
   12   -0.84737004E+02   -0.42632564E-13    0.64205530E-10

Total Energy:                      -84.7370038410 H        -2305.8112 eV
Extrapolated to 0K:                -84.7370038410 H        -2305.8112 eV
Total Mermin free energy:          -84.7370038410 H        -2305.8112 eV
Force related energy:              -84.7370038410 H        -2305.8112 eV

Volume:                              0.109065E+05 au^3   0.161617E+04 A^3
Pressure:                           -0.237842E-03 au    -0.699755E+10 Pa
Maximal force component:             0.106756E-01
Averaged force norm:                 0.683775E-02
>> Charges saved for restart in charges.bin

--------------------------------------------------------------------------------

***  Geometry step: 18

 iSCC Total electronic   Diff electronic      SCC error    
    1   -0.84737004E+02    0.00000000E+00    0.94450998E-02
    2   -0.84741995E+02   -0.49907510E-02    0.75531058E-02
    3   -0.84742013E+02   -0.18188688E-04    0.25206598E-02
    4   -0.84742025E+02   -0.12097249E-04    0.25614413E-03
    5   -0.84742025E+02   -0.51186909E-06    0.75748320E-04
    6   -0.84742025E+02   -0.41679371E-07    0.17204643E-04
    7   -0.84742025E+02   -0.68787358E-08    0.21213991E-05
    8   -0.84742025E+02   -0.86529894E-10    0.12453794E-06
    9   -0.84742025E+02   -0.21458391E-11    0.88041434E-07
   10   -0.84742025E+02   -0.56843419E-13    0.11174591E-07
   11   -0.84742025E+02    0.42632564E-13    0.21084201E-09
   12   -0.84742025E+02   -0.14210855E-13    0.73757001E-10

Total Energy:                      -84.7420254385 H        -2305.9478 eV
Extrapolated to 0K:                -84.7420254385 H        -2305.9478 eV
Total Mermin free energy:          -84.7420254385 H        -2305.9478 eV
Force related energy:              -84.7420254385 H        -2305.9478 eV

Volume:                              0.109065E+05 au^3   0.161617E+04 A^3
Pressure:                           -0.231065E-03 au    -0.679817E+10 Pa
Maximal force component:             0.115546E-01
Averaged force norm:                 0.775875E-02
>> Charges saved for restart in charges.bin

--------------------------------------------------------------------------------

***  Geometry step: 19

 iSCC Total electronic   Diff electronic      SCC error    
    1   -0.84742025E+02    0.00000000E+00    0.78561067E-02
    2   -0.84742502E+02   -0.47650135E-03    0.59160940E-02
    3   -0.84742518E+02   -0.15796534E-04    0.21885934E-02
    4   -0.84742528E+02   -0.10272480E-04    0.30654382E-03
    5   -0.84742528E+02   -0.29456766E-06    0.67135984E-04
    6   -0.84742528E+02   -0.50896105E-07    0.20963490E-04
    7   -0.84742528E+02   -0.52168474E-08    0.24806356E-05
    8   -0.84742528E+02   -0.12339285E-09    0.19962112E-06
    9   -0.84742528E+02   -0.27995384E-11    0.15421365E-06
   10   -0.84742528E+02   -0.14210855E-13    0.20210338E-07
   11   -0.84742528E+02    0.28421709E-13    0.23687452E-09
   12   -0.84742528E+02   -0.14210855E-13    0.71153750E-10

Total Energy:                      -84.7425283597 H        -2305.9615 eV
Extrapolated to 0K:                -84.7425283597 H        -2305.9615 eV
Total Mermin free energy:          -84.7425283597 H        -2305.9615 eV
Force related energy:              -84.7425283597 H        -2305.9615 eV

Volume:                              0.109065E+05 au^3   0.161617E+04 A^3
Pressure:                           -0.223638E-03 au    -0.657965E+10 Pa
Maximal force component:             0.119092E-01
Averaged force norm:                 0.876487E-02
>> Charges saved for restart in charges.bin

--------------------------------------------------------------------------------

***  Geometry step: 20

 iSCC Total electronic   Diff electronic      SCC error    
    1   -0.84742528E+02    0.00000000E+00    0.30426149E-02
    2   -0.84742904E+02   -0.37520183E-03    0.21677025E-02
    3   -0.84742906E+02   -0.23990523E-05    0.83246403E-03
    4   -0.84742908E+02   -0.15528312E-05    0.11227334E-03
    5   -0.84742908E+02   -0.39957641E-07    0.26155270E-04
    6   -0.84742908E+02   -0.86538989E-08    0.76799578E-05
    7   -0.84742908E+02   -0.40486725E-09    0.93741046E-06
    8   -0.84742908E+02   -0.16598278E-10    0.93243518E-07
    9   -0.84742908E+02   -0.36948222E-12    0.32525934E-07
   10   -0.84742908E+02    0.00000000E+00    0.74347417E-08
   11   -0.84742908E+02   -0.28421709E-13    0.84332541E-10

Total Energy:                      -84.7429075624 H        -2305.9718 eV
Extrapolated to 0K:                -84.7429075624 H        -2305.9718 eV
Total Mermin free energy:          -84.7429075624 H        -2305.9718 eV
Force related energy:              -84.7429075624 H        -2305.9718 eV

Volume:                              0.109065E+05 au^3   0.161617E+04 A^3
Pressure:                           -0.226686E-03 au    -0.666933E+10 Pa
Maximal force component:             0.118245E-01
Averaged force norm:                 0.834490E-02
>> Charges saved for restart in charges.bin

--------------------------------------------------------------------------------

***  Geometry step: 21

 iSCC Total electronic   Diff electronic      SCC error    
    1   -0.84742908E+02    0.00000000E+00    0.16404471E-01
    2   -0.84759531E+02   -0.16623374E-01    0.10245318E-01
    3   -0.84759586E+02   -0.55543819E-04    0.38151374E-02
    4   -0.84759616E+02   -0.29747186E-04    0.59411036E-03
    5   -0.84759617E+02   -0.65315930E-06    0.17968251E-03
    6   -0.84759617E+02   -0.10886231E-06    0.32009559E-04
    7   -0.84759617E+02   -0.31352442E-07    0.46121892E-05
    8   -0.84759617E+02   -0.28380498E-09    0.11182142E-05
    9   -0.84759617E+02   -0.64375172E-11    0.32464623E-06
   10   -0.84759617E+02   -0.54001248E-12    0.88891281E-07
   11   -0.84759617E+02    0.00000000E+00    0.24227216E-08
   12   -0.84759617E+02   -0.14210855E-13    0.29154101E-09
   13   -0.84759617E+02    0.28421709E-13    0.30355274E-10

Total Energy:                      -84.7596170208 H        -2306.4265 eV
Extrapolated to 0K:                -84.7596170208 H        -2306.4265 eV
Total Mermin free energy:          -84.7596170208 H        -2306.4265 eV
Force related energy:              -84.7596170208 H        -2306.4265 eV

Volume:                              0.109065E+05 au^3   0.161617E+04 A^3
Pressure:                           -0.219836E-03 au    -0.646778E+10 Pa
Maximal force component:             0.111189E-01
Averaged force norm:                 0.115976E-01
>> Charges saved for restart in charges.bin

--------------------------------------------------------------------------------

***  Geometry step: 22

 iSCC Total electronic   Diff electronic      SCC error    
    1   -0.84759617E+02    0.00000000E+00    0.19512658E-01
    2   -0.84775980E+02   -0.16362817E-01    0.11897712E-01
    3   -0.84776074E+02   -0.93763078E-04    0.31318414E-02
    4   -0.84776124E+02   -0.50487434E-04    0.81695295E-03
    5   -0.84776125E+02   -0.50854497E-06    0.22917429E-03
    6   -0.84776125E+02   -0.43759982E-07    0.34038238E-04
    7   -0.84776125E+02   -0.40337980E-07    0.34149775E-05
    8   -0.84776125E+02   -0.43063153E-09    0.17730463E-05
    9   -0.84776125E+02   -0.55848659E-11    0.77450074E-06
   10   -0.84776125E+02   -0.11084467E-11    0.90559708E-07
   11   -0.84776125E+02   -0.42632564E-13    0.57165703E-08
   12   -0.84776125E+02    0.00000000E+00    0.49814997E-09
   13   -0.84776125E+02    0.00000000E+00    0.49038107E-10

Total Energy:                      -84.7761246813 H        -2306.8757 eV
Extrapolated to 0K:                -84.7761246813 H        -2306.8757 eV
Total Mermin free energy:          -84.7761246813 H        -2306.8757 eV
Force related energy:              -84.7761246813 H        -2306.8757 eV

Volume:                              0.109065E+05 au^3   0.161617E+04 A^3
Pressure:                           -0.212007E-03 au    -0.623746E+10 Pa
Maximal force component:             0.166407E-01
Averaged force norm:                 0.156972E-01
>> Charges saved for restart in charges.bin

--------------------------------------------------------------------------------

***  Geometry step: 23

 iSCC Total electronic   Diff electronic      SCC error    
    1   -0.84776125E+02    0.00000000E+00    0.23788526E-01
    2   -0.84791242E+02   -0.15117106E-01    0.14535572E-01
    3   -0.84791370E+02   -0.12849037E-03    0.21590481E-02
    4   -0.84791439E+02   -0.69148419E-04    0.84358349E-03
    5   -0.84791440E+02   -0.53230664E-06    0.36821787E-03
    6   -0.84791440E+02    0.59030185E-08    0.33142642E-04
    7   -0.84791440E+02   -0.25228118E-07    0.41109718E-05
    8   -0.84791440E+02   -0.57244165E-09    0.20607782E-05
    9   -0.84791440E+02   -0.36237680E-11    0.11134422E-05
   10   -0.84791440E+02   -0.13926638E-11    0.44325061E-07
   11   -0.84791440E+02   -0.56843419E-13    0.74149145E-08
   12   -0.84791440E+02   -0.14210855E-13    0.63105343E-09
   13   -0.84791440E+02    0.00000000E+00    0.11704238E-09
   14   -0.84791440E+02    0.28421709E-13    0.17895463E-10

Total Energy:                      -84.7914399782 H        -2307.2925 eV
Extrapolated to 0K:                -84.7914399782 H        -2307.2925 eV
Total Mermin free energy:          -84.7914399782 H        -2307.2925 eV
Force related energy:              -84.7914399782 H        -2307.2925 eV

Volume:                              0.109065E+05 au^3   0.161617E+04 A^3
Pressure:                           -0.203783E-03 au    -0.599550E+10 Pa
Maximal force component:             0.216501E-01
Averaged force norm:                 0.196182E-01
>> Charges saved for restart in charges.bin

--------------------------------------------------------------------------------

***  Geometry step: 24

 iSCC Total electronic   Diff electronic      SCC error    
    1   -0.84791440E+02    0.00000000E+00    0.27397288E-01
    2   -0.84804793E+02   -0.13352739E-01    0.16859260E-01
    3   -0.84804947E+02   -0.15456206E-03    0.11557975E-02
    4   -0.84805031E+02   -0.83245226E-04    0.49104294E-03
    5   -0.84805031E+02   -0.53526566E-06    0.29065288E-03
    6   -0.84805031E+02    0.53000520E-08    0.30800848E-04
    7   -0.84805031E+02   -0.10857022E-07    0.33584959E-05
    8   -0.84805031E+02   -0.66823702E-09    0.15258330E-05
    9   -0.84805031E+02   -0.46469495E-11    0.25036001E-06
   10   -0.84805031E+02   -0.90949470E-12    0.17852591E-07
   11   -0.84805031E+02    0.00000000E+00    0.61837859E-08
   12   -0.84805031E+02   -0.28421709E-13    0.77914297E-09
   13   -0.84805031E+02   -0.14210855E-13    0.20029312E-09
   14   -0.84805031E+02    0.42632564E-13    0.18454238E-10

Total Energy:                      -84.8050310659 H        -2307.6623 eV
Extrapolated to 0K:                -84.8050310659 H        -2307.6623 eV
Total Mermin free energy:          -84.8050310659 H        -2307.6623 eV
Force related energy:              -84.8050310659 H        -2307.6623 eV

Volume:                              0.109065E+05 au^3   0.161617E+04 A^3
Pressure:                           -0.195612E-03 au    -0.575510E+10 Pa
Maximal force component:             0.259326E-01
Averaged force norm:                 0.230481E-01
>> Charges saved for restart in charges.bin

--------------------------------------------------------------------------------

***  Geometry step: 25

 iSCC Total electronic   Diff electronic      SCC error    
    1   -0.84805031E+02    0.00000000E+00    0.29495761E-01
    2   -0.84816523E+02   -0.11491833E-01    0.18244889E-01
    3   -0.84816694E+02   -0.17146913E-03    0.20635718E-02
    4   -0.84816787E+02   -0.92697044E-04    0.87443884E-03
    5   -0.84816788E+02   -0.52998244E-06    0.43684614E-03
    6   -0.84816788E+02    0.11079450E-07    0.28864827E-04
    7   -0.84816788E+02   -0.24885608E-07    0.49200957E-05
    8   -0.84816788E+02   -0.59257843E-09    0.27211909E-05
    9   -0.84816788E+02   -0.53290705E-11    0.12636583E-05
   10   -0.84816788E+02   -0.17763568E-11    0.52974029E-07
   11   -0.84816788E+02   -0.71054274E-13    0.11480512E-07
   12   -0.84816788E+02    0.00000000E+00    0.27796627E-08
   13   -0.84816788E+02    0.14210855E-13    0.30444669E-09
   14   -0.84816788E+02   -0.56843419E-13    0.49824145E-10

Total Energy:                      -84.8167876095 H        -2307.9822 eV
Extrapolated to 0K:                -84.8167876095 H        -2307.9822 eV
Total Mermin free energy:          -84.8167876095 H        -2307.9822 eV
Force related energy:              -84.8167876095 H        -2307.9822 eV

Volume:                              0.109065E+05 au^3   0.161617E+04 A^3
Pressure:                           -0.187770E-03 au    -0.552440E+10 Pa
Maximal force component:             0.295104E-01
Averaged force norm:                 0.259053E-01
>> Charges saved for restart in charges.bin

--------------------------------------------------------------------------------

***  Geometry step: 26

 iSCC Total electronic   Diff electronic      SCC error    
    1   -0.84816788E+02    0.00000000E+00    0.30474242E-01
    2   -0.84826644E+02   -0.98561286E-02    0.18930885E-01
    3   -0.84826825E+02   -0.18113338E-03    0.28993786E-02
    4   -0.84826923E+02   -0.98578486E-04    0.10625278E-02
    5   -0.84826924E+02   -0.52433418E-06    0.44838598E-03
    6   -0.84826924E+02    0.71142665E-08    0.24417352E-04
    7   -0.84826924E+02   -0.44269711E-07    0.63388298E-05
    8   -0.84826924E+02   -0.37115910E-09    0.34404171E-05
    9   -0.84826924E+02   -0.76312290E-11    0.16717015E-05
   10   -0.84826924E+02   -0.27711167E-11    0.84460869E-07
   11   -0.84826924E+02   -0.15631940E-12    0.15801572E-07
   12   -0.84826924E+02    0.28421709E-13    0.48816347E-08
   13   -0.84826924E+02   -0.14210855E-13    0.42485127E-09
   14   -0.84826924E+02   -0.14210855E-13    0.91231023E-10

Total Energy:                      -84.8269240118 H        -2308.2580 eV
Extrapolated to 0K:                -84.8269240118 H        -2308.2580 eV
Total Mermin free energy:          -84.8269240118 H        -2308.2580 eV
Force related energy:              -84.8269240118 H        -2308.2580 eV

Volume:                              0.109065E+05 au^3   0.161617E+04 A^3
Pressure:                           -0.180365E-03 au    -0.530653E+10 Pa
Maximal force component:             0.324311E-01
Averaged force norm:                 0.281928E-01
>> Charges saved for restart in charges.bin

--------------------------------------------------------------------------------

***  Geometry step: 27

 iSCC Total electronic   Diff electronic      SCC error    
    1   -0.84826924E+02    0.00000000E+00    0.30670182E-01
    2   -0.84835575E+02   -0.86511603E-02    0.19117539E-01
    3   -0.84835761E+02   -0.18602611E-03    0.33780259E-02
    4   -0.84835863E+02   -0.10214978E-03    0.11147616E-02
    5   -0.84835864E+02   -0.53544625E-06    0.44324632E-03
    6   -0.84835864E+02   -0.27485783E-08    0.16617803E-04
    7   -0.84835864E+02   -0.54471741E-07    0.60614909E-05
    8   -0.84835864E+02   -0.13751844E-09    0.33798671E-05
    9   -0.84835864E+02   -0.83701934E-11    0.18180848E-05
   10   -0.84835864E+02   -0.24300562E-11    0.10535742E-06
   11   -0.84835864E+02   -0.19895197E-12    0.17181970E-07
   12   -0.84835864E+02    0.28421709E-13    0.70162463E-08
   13   -0.84835864E+02   -0.28421709E-13    0.48682169E-09
   14   -0.84835864E+02    0.28421709E-13    0.12458834E-09
   15   -0.84835864E+02   -0.14210855E-13    0.15347723E-10

Total Energy:                      -84.8358639408 H        -2308.5013 eV
Extrapolated to 0K:                -84.8358639408 H        -2308.5013 eV
Total Mermin free energy:          -84.8358639408 H        -2308.5013 eV
Force related energy:              -84.8358639408 H        -2308.5013 eV

Volume:                              0.109065E+05 au^3   0.161617E+04 A^3
Pressure:                           -0.173352E-03 au    -0.510019E+10 Pa
Maximal force component:             0.347513E-01
Averaged force norm:                 0.299481E-01
>> Charges saved for restart in charges.bin

--------------------------------------------------------------------------------

***  Geometry step: 28

 iSCC Total electronic   Diff electronic      SCC error    
    1   -0.84835864E+02    0.00000000E+00    0.30341800E-01
    2   -0.84843838E+02   -0.79738005E-02    0.18956464E-01
    3   -0.84844026E+02   -0.18818846E-03    0.34898070E-02
    4   -0.84844130E+02   -0.10439264E-03    0.11388933E-02
    5   -0.84844131E+02   -0.57061247E-06    0.45523911E-03
    6   -0.84844131E+02   -0.74921047E-08    0.24276169E-04
    7   -0.84844131E+02   -0.54504952E-07    0.62439653E-05
    8   -0.84844131E+02   -0.17463719E-09    0.35004440E-05
    9   -0.84844131E+02   -0.12562396E-10    0.17605169E-05
   10   -0.84844131E+02   -0.17479351E-11    0.11699180E-06
   11   -0.84844131E+02   -0.24158453E-12    0.20345642E-07
   12   -0.84844131E+02    0.14210855E-13    0.93863157E-08
   13   -0.84844131E+02   -0.28421709E-13    0.56242833E-09
   14   -0.84844131E+02    0.28421709E-13    0.13827517E-09
   15   -0.84844131E+02   -0.14210855E-13    0.19640289E-10

Total Energy:                      -84.8441309552 H        -2308.7263 eV
Extrapolated to 0K:                -84.8441309552 H        -2308.7263 eV
Total Mermin free energy:          -84.8441309552 H        -2308.7263 eV
Force related energy:              -84.8441309552 H        -2308.7263 eV

Volume:                              0.109065E+05 au^3   0.161617E+04 A^3
Pressure:                           -0.166573E-03 au    -0.490073E+10 Pa
Maximal force component:             0.365301E-01
Averaged force norm:                 0.312236E-01
>> Charges saved for restart in charges.bin

--------------------------------------------------------------------------------

***  Geometry step: 29

 iSCC Total electronic   Diff electronic      SCC error    
    1   -0.84844131E+02    0.00000000E+00    0.29674202E-01
    2   -0.84851958E+02   -0.78273427E-02    0.18557823E-01
    3   -0.84852147E+02   -0.18893651E-03    0.32536782E-02
    4   -0.84852253E+02   -0.10588912E-03    0.11574182E-02
    5   -0.84852254E+02   -0.62804486E-06    0.48376855E-03
    6   -0.84852254E+02   -0.58013683E-08    0.38037475E-04
    7   -0.84852254E+02   -0.44966640E-07    0.62808091E-05
    8   -0.84852254E+02   -0.77031359E-09    0.33466935E-05
    9   -0.84852254E+02   -0.19866775E-10    0.18055607E-05
   10   -0.84852254E+02   -0.30553338E-11    0.13421439E-06
   11   -0.84852254E+02   -0.19895197E-12    0.22459916E-07
   12   -0.84852254E+02    0.14210855E-13    0.12309078E-07
   13   -0.84852254E+02    0.00000000E+00    0.63341021E-09
   14   -0.84852254E+02   -0.14210855E-13    0.13297718E-09
   15   -0.84852254E+02    0.28421709E-13    0.20639490E-10

Total Energy:                      -84.8522538031 H        -2308.9473 eV
Extrapolated to 0K:                -84.8522538031 H        -2308.9473 eV
Total Mermin free energy:          -84.8522538031 H        -2308.9473 eV
Force related energy:              -84.8522538031 H        -2308.9473 eV

Volume:                              0.109065E+05 au^3   0.161617E+04 A^3
Pressure:                           -0.159797E-03 au    -0.470139E+10 Pa
Maximal force component:             0.378261E-01
Averaged force norm:                 0.320790E-01
>> Charges saved for restart in charges.bin

--------------------------------------------------------------------------------

***  Geometry step: 30

 iSCC Total electronic   Diff electronic      SCC error    
    1   -0.84852254E+02    0.00000000E+00    0.28795378E-01
    2   -0.84860388E+02   -0.81337100E-02    0.18001568E-01
    3   -0.84860576E+02   -0.18891707E-03    0.27137123E-02
    4   -0.84860683E+02   -0.10686686E-03    0.11164864E-02
    5   -0.84860684E+02   -0.70655805E-06    0.51370737E-03
    6   -0.84860684E+02   -0.18920900E-08    0.46212568E-04
    7   -0.84860684E+02   -0.28095144E-07    0.74907930E-05
    8   -0.84860684E+02   -0.18628867E-08    0.30887179E-05
    9   -0.84860684E+02   -0.23021585E-10    0.15923775E-05
   10   -0.84860684E+02   -0.28990144E-11    0.14053680E-06
   11   -0.84860684E+02   -0.14210855E-12    0.24200145E-07
   12   -0.84860684E+02    0.00000000E+00    0.14467322E-07
   13   -0.84860684E+02   -0.28421709E-13    0.73834805E-09
   14   -0.84860684E+02    0.00000000E+00    0.10774848E-09
   15   -0.84860684E+02    0.00000000E+00    0.18404389E-10

Total Energy:                      -84.8606840354 H        -2309.1767 eV
Extrapolated to 0K:                -84.8606840354 H        -2309.1767 eV
Total Mermin free energy:          -84.8606840354 H        -2309.1767 eV
Force related energy:              -84.8606840354 H        -2309.1767 eV

Volume:                              0.109065E+05 au^3   0.161617E+04 A^3
Pressure:                           -0.152769E-03 au    -0.449462E+10 Pa
Maximal force component:             0.386968E-01
Averaged force norm:                 0.325789E-01
>> Charges saved for restart in charges.bin

--------------------------------------------------------------------------------

***  Geometry step: 31

 iSCC Total electronic   Diff electronic      SCC error    
    1   -0.84860684E+02    0.00000000E+00    0.42137594E-01
    2   -0.84887305E+02   -0.26620492E-01    0.26088403E-01
    3   -0.84887523E+02   -0.21801621E-03    0.15431147E-02
    4   -0.84887656E+02   -0.13377523E-03    0.85943305E-03
    5   -0.84887657E+02   -0.52297106E-06    0.42720101E-03
    6   -0.84887657E+02   -0.78656512E-08    0.77602822E-04
    7   -0.84887657E+02   -0.60750267E-08    0.72987364E-05
    8   -0.84887657E+02   -0.28677789E-08    0.27095489E-05
    9   -0.84887657E+02   -0.21685764E-10    0.10034960E-05
   10   -0.84887657E+02   -0.13926638E-11    0.10610040E-06
   11   -0.84887657E+02   -0.99475983E-13    0.15741320E-07
   12   -0.84887657E+02   -0.14210855E-13    0.82903506E-08
   13   -0.84887657E+02    0.28421709E-13    0.76577411E-09
   14   -0.84887657E+02   -0.28421709E-13    0.52928328E-10

Total Energy:                      -84.8876568590 H        -2309.9107 eV
Extrapolated to 0K:                -84.8876568590 H        -2309.9107 eV
Total Mermin free energy:          -84.8876568590 H        -2309.9107 eV
Force related energy:              -84.8876568590 H        -2309.9107 eV

Volume:                              0.109065E+05 au^3   0.161617E+04 A^3
Pressure:                           -0.141985E-03 au    -0.417733E+10 Pa
Maximal force component:             0.391363E-01
Averaged force norm:                 0.325045E-01
>> Charges saved for restart in charges.bin

--------------------------------------------------------------------------------

***  Geometry step: 32

 iSCC Total electronic   Diff electronic      SCC error    
    1   -0.84887657E+02    0.00000000E+00    0.40597552E-01
    2   -0.84914410E+02   -0.26752994E-01    0.25199093E-01
    3   -0.84914613E+02   -0.20363895E-03    0.14382819E-02
    4   -0.84914740E+02   -0.12698982E-03    0.39671949E-03
    5   -0.84914741E+02   -0.64458145E-06    0.25807698E-03
    6   -0.84914741E+02   -0.12785492E-07    0.82389575E-04
    7   -0.84914741E+02   -0.11097541E-08    0.64771429E-05
    8   -0.84914741E+02   -0.10528112E-08    0.20805130E-05
    9   -0.84914741E+02   -0.17578827E-10    0.49054431E-06
   10   -0.84914741E+02   -0.86686214E-12    0.38175245E-07
   11   -0.84914741E+02    0.00000000E+00    0.95642481E-08
   12   -0.84914741E+02    0.00000000E+00    0.50868660E-08
   13   -0.84914741E+02    0.14210855E-13    0.95897423E-09
   14   -0.84914741E+02    0.00000000E+00    0.33711700E-10

Total Energy:                      -84.9147411415 H        -2310.6477 eV
Extrapolated to 0K:                -84.9147411415 H        -2310.6477 eV
Total Mermin free energy:          -84.9147411415 H        -2310.6477 eV
Force related energy:              -84.9147411415 H        -2310.6477 eV

Volume:                              0.109065E+05 au^3   0.161617E+04 A^3
Pressure:                           -0.130097E-03 au    -0.382759E+10 Pa
Maximal force component:             0.388659E-01
Averaged force norm:                 0.319341E-01
>> Charges saved for restart in charges.bin

--------------------------------------------------------------------------------

***  Geometry step: 33

 iSCC Total electronic   Diff electronic      SCC error    
    1   -0.84914741E+02    0.00000000E+00    0.38929479E-01
    2   -0.84940682E+02   -0.25941264E-01    0.24234431E-01
    3   -0.84940872E+02   -0.18943651E-03    0.13893241E-02
    4   -0.84940992E+02   -0.11969013E-03    0.36851371E-03
    5   -0.84940992E+02   -0.81085757E-06    0.24351942E-03
    6   -0.84940992E+02   -0.13804055E-07    0.75808297E-04
    7   -0.84940992E+02   -0.13296244E-08    0.58342487E-05
    8   -0.84940992E+02   -0.95285202E-09    0.15765730E-05
    9   -0.84940992E+02   -0.14850343E-10    0.33541015E-06
   10   -0.84940992E+02   -0.68212103E-12    0.44263935E-07
   11   -0.84940992E+02    0.14210855E-13    0.12257114E-07
   12   -0.84940992E+02   -0.14210855E-13    0.43751331E-08
   13   -0.84940992E+02    0.14210855E-13    0.10285568E-08
   14   -0.84940992E+02   -0.28421709E-13    0.34380498E-10

Total Energy:                      -84.9409923586 H        -2311.3620 eV
Extrapolated to 0K:                -84.9409923586 H        -2311.3620 eV
Total Mermin free energy:          -84.9409923586 H        -2311.3620 eV
Force related energy:              -84.9409923586 H        -2311.3620 eV

Volume:                              0.109065E+05 au^3   0.161617E+04 A^3
Pressure:                           -0.117139E-03 au    -0.344636E+10 Pa
Maximal force component:             0.379658E-01
Averaged force norm:                 0.310101E-01
>> Charges saved for restart in charges.bin

--------------------------------------------------------------------------------

***  Geometry step: 34

 iSCC Total electronic   Diff electronic      SCC error    
    1   -0.84940992E+02    0.00000000E+00    0.37200720E-01
    2   -0.84965001E+02   -0.24009026E-01    0.23239459E-01
    3   -0.84965177E+02   -0.17590121E-03    0.13772609E-02
    4   -0.84965289E+02   -0.11213074E-03    0.59968308E-03
    5   -0.84965290E+02   -0.10229248E-05    0.33929731E-03
    6   -0.84965290E+02   -0.15994090E-07    0.68660987E-04
    7   -0.84965290E+02   -0.15951400E-08    0.67930678E-05
    8   -0.84965290E+02   -0.26876847E-08    0.20788544E-05
    9   -0.84965290E+02   -0.15418777E-10    0.48952488E-06
   10   -0.84965290E+02   -0.98054898E-12    0.14284079E-07
   11   -0.84965290E+02   -0.99475983E-13    0.80766916E-08
   12   -0.84965290E+02    0.14210855E-13    0.44389918E-08
   13   -0.84965290E+02   -0.14210855E-13    0.85937124E-09
   14   -0.84965290E+02   -0.28421709E-13    0.40626169E-10

Total Energy:                      -84.9652904602 H        -2312.0232 eV
Extrapolated to 0K:                -84.9652904602 H        -2312.0232 eV
Total Mermin free energy:          -84.9652904602 H        -2312.0232 eV
Force related energy:              -84.9652904602 H        -2312.0232 eV

Volume:                              0.109065E+05 au^3   0.161617E+04 A^3
Pressure:                           -0.103260E-03 au    -0.303801E+10 Pa
Maximal force component:             0.365005E-01
Averaged force norm:                 0.298864E-01
>> Charges saved for restart in charges.bin

--------------------------------------------------------------------------------

***  Geometry step: 35

 iSCC Total electronic   Diff electronic      SCC error    
    1   -0.84965290E+02    0.00000000E+00    0.35449410E-01
    2   -0.84986065E+02   -0.20774609E-01    0.22241561E-01
    3   -0.84986229E+02   -0.16343861E-03    0.14819341E-02
    4   -0.84986333E+02   -0.10454745E-03    0.72837724E-03
    5   -0.84986334E+02   -0.12761690E-05    0.37025767E-03
    6   -0.84986334E+02   -0.20077181E-07    0.84464239E-04
    7   -0.84986334E+02   -0.35196166E-08    0.76651891E-05
    8   -0.84986334E+02   -0.33600713E-08    0.25532797E-05
    9   -0.84986334E+02   -0.17863044E-10    0.73188196E-06
   10   -0.84986334E+02   -0.16910917E-11    0.17774174E-07
   11   -0.84986334E+02   -0.22737368E-12    0.11932492E-07
   12   -0.84986334E+02    0.00000000E+00    0.44251217E-08
   13   -0.84986334E+02    0.14210855E-13    0.55759131E-09
   14   -0.84986334E+02   -0.14210855E-13    0.81143092E-10

Total Energy:                      -84.9863343580 H        -2312.5958 eV
Extrapolated to 0K:                -84.9863343580 H        -2312.5958 eV
Total Mermin free energy:          -84.9863343580 H        -2312.5958 eV
Force related energy:              -84.9863343580 H        -2312.5958 eV

Volume:                              0.109065E+05 au^3   0.161617E+04 A^3
Pressure:                           -0.887185E-04 au    -0.261019E+10 Pa
Maximal force component:             0.345379E-01
Averaged force norm:                 0.287400E-01
>> Charges saved for restart in charges.bin

--------------------------------------------------------------------------------

***  Geometry step: 36

 iSCC Total electronic   Diff electronic      SCC error    
    1   -0.84986334E+02    0.00000000E+00    0.33699140E-01
    2   -0.85002425E+02   -0.16090930E-01    0.21256313E-01
    3   -0.85002578E+02   -0.15255274E-03    0.17681251E-02
    4   -0.85002675E+02   -0.97265394E-04    0.75089499E-03
    5   -0.85002677E+02   -0.15612448E-05    0.38276873E-03
    6   -0.85002677E+02   -0.23718584E-07    0.88678733E-04
    7   -0.85002677E+02   -0.34836489E-08    0.84063211E-05
    8   -0.85002677E+02   -0.34897880E-08    0.26855119E-05
    9   -0.85002677E+02   -0.22069457E-10    0.78065802E-06
   10   -0.85002677E+02   -0.24016344E-11    0.14995170E-07
   11   -0.85002677E+02   -0.19895197E-12    0.10579483E-07
   12   -0.85002677E+02   -0.28421709E-13    0.42384642E-08
   13   -0.85002677E+02    0.42632564E-13    0.73271167E-09
   14   -0.85002677E+02   -0.42632564E-13    0.49988014E-10

Total Energy:                      -85.0026766985 H        -2313.0405 eV
Extrapolated to 0K:                -85.0026766985 H        -2313.0405 eV
Total Mermin free energy:          -85.0026766985 H        -2313.0405 eV
Force related energy:              -85.0026766985 H        -2313.0405 eV

Volume:                              0.109065E+05 au^3   0.161617E+04 A^3
Pressure:                           -0.738647E-04 au    -0.217317E+10 Pa
Maximal force component:             0.332448E-01
Averaged force norm:                 0.277800E-01
>> Charges saved for restart in charges.bin

--------------------------------------------------------------------------------

***  Geometry step: 37

 iSCC Total electronic   Diff electronic      SCC error    
    1   -0.85002677E+02    0.00000000E+00    0.31967280E-01
    2   -0.85012560E+02   -0.98836971E-02    0.20292027E-01
    3   -0.85012704E+02   -0.14392859E-03    0.19834659E-02
    4   -0.85012795E+02   -0.90754038E-04    0.66214045E-03
    5   -0.85012797E+02   -0.18572231E-05    0.37465798E-03
    6   -0.85012797E+02   -0.24134565E-07    0.83021455E-04
    7   -0.85012797E+02   -0.20967121E-08    0.89237392E-05
    8   -0.85012797E+02   -0.31764529E-08    0.27925481E-05
    9   -0.85012797E+02   -0.27000624E-10    0.65033024E-06
   10   -0.85012797E+02   -0.26574298E-11    0.17791590E-07
   11   -0.85012797E+02   -0.18474111E-12    0.85075181E-08
   12   -0.85012797E+02    0.14210855E-13    0.39589425E-08
   13   -0.85012797E+02   -0.14210855E-13    0.10191297E-08
   14   -0.85012797E+02    0.28421709E-13    0.86187946E-10

Total Energy:                      -85.0127969648 H        -2313.3159 eV
Extrapolated to 0K:                -85.0127969648 H        -2313.3159 eV
Total Mermin free energy:          -85.0127969648 H        -2313.3159 eV
Force related energy:              -85.0127969648 H        -2313.3159 eV

Volume:                              0.109065E+05 au^3   0.161617E+04 A^3
Pressure:                           -0.590957E-04 au    -0.173865E+10 Pa
Maximal force component:             0.378542E-01
Averaged force norm:                 0.272441E-01
>> Charges saved for restart in charges.bin

--------------------------------------------------------------------------------

***  Geometry step: 38

 iSCC Total electronic   Diff electronic      SCC error    
    1   -0.85012797E+02    0.00000000E+00    0.30268020E-01
    2   -0.85014977E+02   -0.21804745E-02    0.19353087E-01
    3   -0.85015116E+02   -0.13843601E-03    0.23734985E-02
    4   -0.85015202E+02   -0.85633182E-04    0.45411945E-03
    5   -0.85015204E+02   -0.21349963E-05    0.30357244E-03
    6   -0.85015204E+02   -0.21330834E-07    0.64368999E-04
    7   -0.85015204E+02   -0.34060719E-08    0.89369634E-05
    8   -0.85015204E+02   -0.19394832E-08    0.28567911E-05
    9   -0.85015204E+02   -0.28165914E-10    0.59124075E-06
   10   -0.85015204E+02   -0.25011104E-11    0.47510196E-07
   11   -0.85015204E+02   -0.14210855E-12    0.15889263E-07
   12   -0.85015204E+02    0.00000000E+00    0.73510495E-08
   13   -0.85015204E+02    0.28421709E-13    0.12651826E-08
   14   -0.85015204E+02   -0.28421709E-13    0.13036594E-09
   15   -0.85015204E+02    0.14210855E-13    0.18110846E-10

Total Energy:                      -85.0152036703 H        -2313.3814 eV
Extrapolated to 0K:                -85.0152036703 H        -2313.3814 eV
Total Mermin free energy:          -85.0152036703 H        -2313.3814 eV
Force related energy:              -85.0152036703 H        -2313.3814 eV

Volume:                              0.109065E+05 au^3   0.161617E+04 A^3
Pressure:                           -0.447995E-04 au    -0.131805E+10 Pa
Maximal force component:             0.424370E-01
Averaged force norm:                 0.273664E-01
>> Charges saved for restart in charges.bin

--------------------------------------------------------------------------------

***  Geometry step: 39

 iSCC Total electronic   Diff electronic      SCC error    
    1   -0.85015204E+02    0.00000000E+00    0.68107825E-02
    2   -0.85015395E+02   -0.19168120E-03    0.43438068E-02
    3   -0.85015403E+02   -0.72718157E-05    0.59490812E-03
    4   -0.85015407E+02   -0.44369345E-05    0.82174501E-04
    5   -0.85015407E+02   -0.12251172E-06    0.51621110E-04
    6   -0.85015407E+02   -0.10319638E-08    0.16403261E-04
    7   -0.85015407E+02   -0.17652724E-09    0.20385933E-05
    8   -0.85015407E+02   -0.62669869E-10    0.19951593E-06
    9   -0.85015407E+02   -0.14352963E-11    0.50262652E-07
   10   -0.85015407E+02   -0.28421709E-13    0.14495707E-07
   11   -0.85015407E+02    0.14210855E-13    0.31556322E-08
   12   -0.85015407E+02   -0.14210855E-13    0.60185457E-09
   13   -0.85015407E+02    0.14210855E-13    0.75841111E-10

Total Energy:                      -85.0154071840 H        -2313.3869 eV
Extrapolated to 0K:                -85.0154071840 H        -2313.3869 eV
Total Mermin free energy:          -85.0154071840 H        -2313.3869 eV
Force related energy:              -85.0154071840 H        -2313.3869 eV

Volume:                              0.109065E+05 au^3   0.161617E+04 A^3
Pressure:                           -0.479939E-04 au    -0.141203E+10 Pa
Maximal force component:             0.413955E-01
Averaged force norm:                 0.272702E-01
>> Charges saved for restart in charges.bin

--------------------------------------------------------------------------------

***  Geometry step: 40

 iSCC Total electronic   Diff electronic      SCC error    
    1   -0.85015407E+02    0.00000000E+00    0.49901380E-01
    2   -0.85069452E+02   -0.54044425E-01    0.30657589E-01
    3   -0.85070703E+02   -0.12517330E-02    0.31223174E-02
    4   -0.85071420E+02   -0.71668505E-03    0.14455277E-02
    5   -0.85071422E+02   -0.24482403E-05    0.74523069E-03
    6   -0.85071423E+02   -0.79510826E-07    0.15197331E-03
    7   -0.85071423E+02   -0.68065191E-07    0.17742899E-04
    8   -0.85071423E+02   -0.89967926E-08    0.74514568E-05
    9   -0.85071423E+02   -0.11526424E-09    0.13453199E-05
   10   -0.85071423E+02   -0.29729108E-10    0.18715744E-06
   11   -0.85071423E+02   -0.65369932E-12    0.12929229E-06
   12   -0.85071423E+02   -0.14210855E-13    0.17443846E-07
   13   -0.85071423E+02    0.00000000E+00    0.13553527E-08
   14   -0.85071423E+02    0.14210855E-13    0.20236834E-09
   15   -0.85071423E+02   -0.28421709E-13    0.78826723E-10

Total Energy:                      -85.0714226322 H        -2314.9112 eV
Extrapolated to 0K:                -85.0714226322 H        -2314.9112 eV
Total Mermin free energy:          -85.0714226322 H        -2314.9112 eV
Force related energy:              -85.0714226322 H        -2314.9112 eV

Volume:                              0.109065E+05 au^3   0.161617E+04 A^3
Pressure:                           -0.321017E-04 au    -0.944465E+09 Pa
Maximal force component:             0.352206E-01
Averaged force norm:                 0.222118E-01
>> Charges saved for restart in charges.bin

--------------------------------------------------------------------------------

***  Geometry step: 41

 iSCC Total electronic   Diff electronic      SCC error    
    1   -0.85071423E+02    0.00000000E+00    0.47873826E-01
    2   -0.85102581E+02   -0.31158086E-01    0.30160812E-01
    3   -0.85103679E+02   -0.10987197E-02    0.40351624E-02
    4   -0.85104355E+02   -0.67580383E-03    0.16373135E-02
    5   -0.85104357E+02   -0.21972974E-05    0.91050923E-03
    6   -0.85104357E+02   -0.52768087E-07    0.13647031E-03
    7   -0.85104358E+02   -0.68574423E-07    0.17417736E-04
    8   -0.85104358E+02   -0.84708063E-08    0.56536098E-05
    9   -0.85104358E+02   -0.59230842E-10    0.19867991E-05
   10   -0.85104358E+02   -0.19014124E-10    0.20757193E-06
   11   -0.85104358E+02   -0.24158453E-12    0.11556961E-06
   12   -0.85104358E+02    0.00000000E+00    0.12861332E-07
   13   -0.85104358E+02   -0.14210855E-13    0.13911925E-08
   14   -0.85104358E+02    0.14210855E-13    0.76792350E-10

Total Energy:                      -85.1043575695 H        -2315.8074 eV
Extrapolated to 0K:                -85.1043575695 H        -2315.8074 eV
Total Mermin free energy:          -85.1043575695 H        -2315.8074 eV
Force related energy:              -85.1043575695 H        -2315.8074 eV

Volume:                              0.109065E+05 au^3   0.161617E+04 A^3
Pressure:                           -0.155621E-04 au    -0.457851E+09 Pa
Maximal force component:             0.284075E-01
Averaged force norm:                 0.184229E-01
>> Charges saved for restart in charges.bin

--------------------------------------------------------------------------------

***  Geometry step: 42

 iSCC Total electronic   Diff electronic      SCC error    
    1   -0.85104358E+02    0.00000000E+00    0.46643153E-01
    2   -0.85109560E+02   -0.52022840E-02    0.29575931E-01
    3   -0.85110542E+02   -0.98249437E-03    0.47991624E-02
    4   -0.85111183E+02   -0.64070564E-03    0.16383723E-02
    5   -0.85111185E+02   -0.22926775E-05    0.10161252E-02
    6   -0.85111185E+02   -0.49253913E-07    0.14271929E-03
    7   -0.85111185E+02   -0.76515590E-07    0.15383121E-04
    8   -0.85111185E+02   -0.88820542E-08    0.62631288E-05
    9   -0.85111185E+02   -0.37317704E-10    0.23395000E-05
   10   -0.85111185E+02   -0.16314061E-10    0.14888314E-06
   11   -0.85111185E+02   -0.19895197E-12    0.87374600E-07
   12   -0.85111185E+02    0.00000000E+00    0.43512047E-08
   13   -0.85111185E+02    0.00000000E+00    0.11746684E-08
   14   -0.85111185E+02    0.00000000E+00    0.74035444E-10

Total Energy:                      -85.1111854808 H        -2315.9932 eV
Extrapolated to 0K:                -85.1111854808 H        -2315.9932 eV
Total Mermin free energy:          -85.1111854808 H        -2315.9932 eV
Force related energy:              -85.1111854808 H        -2315.9932 eV

Volume:                              0.109065E+05 au^3   0.161617E+04 A^3
Pressure:                            0.100359E-05 au     0.295267E+08 Pa
Maximal force component:             0.212600E-01
Averaged force norm:                 0.182567E-01
>> Charges saved for restart in charges.bin

--------------------------------------------------------------------------------

***  Geometry step: 43

 iSCC Total electronic   Diff electronic      SCC error    
    1   -0.85111185E+02    0.00000000E+00    0.12015575E-01
    2   -0.85111943E+02   -0.75782603E-03    0.76040294E-02
    3   -0.85112010E+02   -0.66288577E-04    0.13155962E-02
    4   -0.85112053E+02   -0.43364712E-04    0.43133568E-03
    5   -0.85112053E+02   -0.15896467E-06    0.23033237E-03
    6   -0.85112053E+02   -0.67767161E-08    0.38442051E-04
    7   -0.85112053E+02   -0.33956411E-08    0.26663332E-05
    8   -0.85112053E+02   -0.61258731E-09    0.97411367E-06
    9   -0.85112053E+02   -0.25153213E-11    0.66462409E-06
   10   -0.85112053E+02   -0.71054274E-13    0.34784779E-07
   11   -0.85112053E+02    0.00000000E+00    0.12744641E-08
   12   -0.85112053E+02    0.00000000E+00    0.43741322E-09
   13   -0.85112053E+02   -0.14210855E-13    0.67711170E-10

Total Energy:                      -85.1120531299 H        -2316.0168 eV
Extrapolated to 0K:                -85.1120531299 H        -2316.0168 eV
Total Mermin free energy:          -85.1120531299 H        -2316.0168 eV
Force related energy:              -85.1120531299 H        -2316.0168 eV

Volume:                              0.109065E+05 au^3   0.161617E+04 A^3
Pressure:                           -0.320947E-05 au    -0.944259E+08 Pa
Maximal force component:             0.229546E-01
Averaged force norm:                 0.178455E-01
>> Charges saved for restart in charges.bin

--------------------------------------------------------------------------------

***  Geometry step: 44

 iSCC Total electronic   Diff electronic      SCC error    
    1   -0.85112053E+02    0.00000000E+00    0.12200363E+00
    2   -0.85167400E+02   -0.55346569E-01    0.78678317E-01
    3   -0.85171115E+02   -0.37153294E-02    0.61690294E-02
    4   -0.85173472E+02   -0.23573422E-02    0.29162223E-02
    5   -0.85173485E+02   -0.12581593E-04    0.13631809E-02
    6   -0.85173486E+02   -0.62926451E-06    0.28363181E-03
    7   -0.85173486E+02   -0.27942046E-06    0.48202832E-04
    8   -0.85173486E+02   -0.27190694E-07    0.82342646E-05
    9   -0.85173486E+02   -0.57362115E-09    0.19524653E-05
   10   -0.85173486E+02   -0.34916070E-10    0.52763473E-06
   11   -0.85173486E+02   -0.73896445E-12    0.21466962E-06
   12   -0.85173486E+02   -0.85265128E-13    0.90821746E-08
   13   -0.85173486E+02    0.14210855E-13    0.19081785E-08
   14   -0.85173486E+02   -0.14210855E-13    0.30879388E-09
   15   -0.85173486E+02    0.00000000E+00    0.55695004E-10

Total Energy:                      -85.1734858891 H        -2317.6885 eV
Extrapolated to 0K:                -85.1734858891 H        -2317.6885 eV
Total Mermin free energy:          -85.1734858891 H        -2317.6885 eV
Force related energy:              -85.1734858891 H        -2317.6885 eV

Volume:                              0.109065E+05 au^3   0.161617E+04 A^3
Pressure:                           -0.419605E-04 au    -0.123452E+10 Pa
Maximal force component:             0.140046E-01
Averaged force norm:                 0.991724E-02
>> Charges saved for restart in charges.bin

--------------------------------------------------------------------------------

***  Geometry step: 45

 iSCC Total electronic   Diff electronic      SCC error    
    1   -0.85173486E+02    0.00000000E+00    0.11909655E+00
    2   -0.85150642E+02    0.22844022E-01    0.74660633E-01
    3   -0.85154368E+02   -0.37265090E-02    0.59759231E-02
    4   -0.85156606E+02   -0.22379320E-02    0.36356497E-02
    5   -0.85156613E+02   -0.69029145E-05    0.16096914E-02
    6   -0.85156614E+02   -0.11511355E-05    0.27882677E-03
    7   -0.85156615E+02   -0.34158927E-06    0.45265429E-04
    8   -0.85156615E+02   -0.57752857E-07    0.15420864E-04
    9   -0.85156615E+02   -0.86811269E-09    0.31883632E-05
   10   -0.85156615E+02   -0.93095309E-10    0.58475156E-06
   11   -0.85156615E+02   -0.14637180E-11    0.26817343E-06
   12   -0.85156615E+02   -0.42632564E-13    0.54198797E-07
   13   -0.85156615E+02   -0.42632564E-13    0.13630865E-07
   14   -0.85156615E+02    0.00000000E+00    0.19220536E-08
   15   -0.85156615E+02    0.28421709E-13    0.12010259E-09
   16   -0.85156615E+02   -0.28421709E-13    0.12102042E-10

Total Energy:                      -85.1566147621 H        -2317.2294 eV
Extrapolated to 0K:                -85.1566147621 H        -2317.2294 eV
Total Mermin free energy:          -85.1566147621 H        -2317.2294 eV
Force related energy:              -85.1566147621 H        -2317.2294 eV

Volume:                              0.109065E+05 au^3   0.161617E+04 A^3
Pressure:                           -0.804361E-04 au    -0.236651E+10 Pa
Maximal force component:             0.301169E-01
Averaged force norm:                 0.188745E-01
>> Charges saved for restart in charges.bin

--------------------------------------------------------------------------------

***  Geometry step: 46

 iSCC Total electronic   Diff electronic      SCC error    
    1   -0.85156615E+02    0.00000000E+00    0.84251436E-01
    2   -0.85173448E+02   -0.16833573E-01    0.51996377E-01
    3   -0.85175273E+02   -0.18243110E-02    0.39620984E-02
    4   -0.85176337E+02   -0.10644013E-02    0.17024146E-02
    5   -0.85176340E+02   -0.27312100E-05    0.12211368E-02
    6   -0.85176340E+02   -0.34113130E-06    0.12649647E-03
    7   -0.85176340E+02   -0.87293998E-07    0.40565835E-04
    8   -0.85176340E+02   -0.12022170E-07    0.48543689E-05
    9   -0.85176340E+02   -0.46293280E-09    0.15206128E-05
   10   -0.85176340E+02   -0.13315571E-10    0.38177045E-06
   11   -0.85176340E+02   -0.44053650E-12    0.12939962E-06
   12   -0.85176340E+02   -0.28421709E-13    0.14989252E-07
   13   -0.85176340E+02    0.00000000E+00    0.15110517E-08
   14   -0.85176340E+02   -0.14210855E-13    0.67432415E-09
   15   -0.85176340E+02    0.42632564E-13    0.20598689E-10

Total Energy:                      -85.1763402194 H        -2317.7661 eV
Extrapolated to 0K:                -85.1763402194 H        -2317.7661 eV
Total Mermin free energy:          -85.1763402194 H        -2317.7661 eV
Force related energy:              -85.1763402194 H        -2317.7661 eV

Volume:                              0.109065E+05 au^3   0.161617E+04 A^3
Pressure:                           -0.532079E-04 au    -0.156543E+10 Pa
Maximal force component:             0.138404E-01
Averaged force norm:                 0.115037E-01
>> Charges saved for restart in charges.bin

--------------------------------------------------------------------------------

***  Geometry step: 47

 iSCC Total electronic   Diff electronic      SCC error    
    1   -0.85176340E+02    0.00000000E+00    0.32685784E-01
    2   -0.85212622E+02   -0.36282106E-01    0.21038243E-01
    3   -0.85212927E+02   -0.30430255E-03    0.34324582E-02
    4   -0.85213099E+02   -0.17211692E-03    0.86827813E-03
    5   -0.85213102E+02   -0.34382566E-05    0.57002418E-03
    6   -0.85213102E+02   -0.12090098E-07    0.75055568E-04
    7   -0.85213102E+02   -0.16615871E-07    0.63025671E-05
    8   -0.85213102E+02   -0.18858941E-08    0.28985296E-05
    9   -0.85213102E+02   -0.16555646E-10    0.10139874E-05
   10   -0.85213102E+02   -0.23021585E-11    0.51159598E-07
   11   -0.85213102E+02   -0.14210855E-13    0.29694349E-07
   12   -0.85213102E+02    0.14210855E-13    0.25659777E-08
   13   -0.85213102E+02   -0.28421709E-13    0.23603919E-09
   14   -0.85213102E+02    0.00000000E+00    0.18868906E-10

Total Energy:                      -85.2131022140 H        -2318.7665 eV
Extrapolated to 0K:                -85.2131022140 H        -2318.7665 eV
Total Mermin free energy:          -85.2131022140 H        -2318.7665 eV
Force related energy:              -85.2131022140 H        -2318.7665 eV

Volume:                              0.109065E+05 au^3   0.161617E+04 A^3
Pressure:                           -0.472466E-04 au    -0.139004E+10 Pa
Maximal force component:             0.917944E-02
Averaged force norm:                 0.626675E-02
>> Charges saved for restart in charges.bin

--------------------------------------------------------------------------------

***  Geometry step: 48

 iSCC Total electronic   Diff electronic      SCC error    
    1   -0.85213102E+02    0.00000000E+00    0.27526006E-01
    2   -0.85217764E+02   -0.46615107E-02    0.19131849E-01
    3   -0.85217929E+02   -0.16519633E-03    0.28016937E-02
    4   -0.85218030E+02   -0.10136160E-03    0.11416427E-02
    5   -0.85218032E+02   -0.17848681E-05    0.57739388E-03
    6   -0.85218032E+02   -0.15191063E-07    0.82375988E-04
    7   -0.85218032E+02   -0.25516712E-07    0.44053609E-05
    8   -0.85218032E+02   -0.15306796E-08    0.33809775E-05
    9   -0.85218032E+02   -0.18616220E-11    0.90264060E-06
   10   -0.85218032E+02   -0.14068746E-11    0.29152148E-07
   11   -0.85218032E+02   -0.85265128E-13    0.18777452E-07
   12   -0.85218032E+02    0.14210855E-13    0.49627302E-08
   13   -0.85218032E+02   -0.28421709E-13    0.29410474E-09
   14   -0.85218032E+02    0.28421709E-13    0.14004797E-10

Total Energy:                      -85.2180321098 H        -2318.9006 eV
Extrapolated to 0K:                -85.2180321098 H        -2318.9006 eV
Total Mermin free energy:          -85.2180321098 H        -2318.9006 eV
Force related energy:              -85.2180321098 H        -2318.9006 eV

Volume:                              0.109065E+05 au^3   0.161617E+04 A^3
Pressure:                           -0.402340E-04 au    -0.118373E+10 Pa
Maximal force component:             0.925125E-02
Averaged force norm:                 0.675805E-02
>> Charges saved for restart in charges.bin

--------------------------------------------------------------------------------

***  Geometry step: 49

[...]
Extrapolated to 0K:                -85.3123648783 H        -2321.4676 eV
Total Mermin free energy:          -85.3123648783 H        -2321.4676 eV
Force related energy:              -85.3123648783 H        -2321.4676 eV

Volume:                              0.109065E+05 au^3   0.161617E+04 A^3
Pressure:                           -0.235459E-04 au    -0.692743E+09 Pa
Maximal force component:             0.115135E-07
Averaged force norm:                 0.751574E-08
>> Charges saved for restart in charges.bin

--------------------------------------------------------------------------------

***  Geometry step: 480

 iSCC Total electronic   Diff electronic      SCC error    
    1   -0.85312365E+02    0.00000000E+00    0.19661893E-06
    2   -0.85312365E+02    0.00000000E+00    0.12593090E-06
    3   -0.85312365E+02    0.28421709E-13    0.17079933E-07
    4   -0.85312365E+02   -0.14210855E-13    0.32363844E-08
    5   -0.85312365E+02    0.14210855E-13    0.85815632E-09
    6   -0.85312365E+02    0.14210855E-13    0.86021856E-10

Total Energy:                      -85.3123648783 H        -2321.4676 eV
Extrapolated to 0K:                -85.3123648783 H        -2321.4676 eV
Total Mermin free energy:          -85.3123648783 H        -2321.4676 eV
Force related energy:              -85.3123648783 H        -2321.4676 eV

Volume:                              0.109065E+05 au^3   0.161617E+04 A^3
Pressure:                           -0.235459E-04 au    -0.692744E+09 Pa
Maximal force component:             0.430758E-07
Averaged force norm:                 0.220887E-07
>> Charges saved for restart in charges.bin

--------------------------------------------------------------------------------

***  Geometry step: 481

 iSCC Total electronic   Diff electronic      SCC error    
    1   -0.85312365E+02    0.00000000E+00    0.11588490E-06
    2   -0.85312365E+02   -0.28421709E-13    0.74225354E-07
    3   -0.85312365E+02   -0.14210855E-13    0.10079935E-07
    4   -0.85312365E+02    0.28421709E-13    0.18993722E-08
    5   -0.85312365E+02    0.00000000E+00    0.50537363E-09
    6   -0.85312365E+02   -0.28421709E-13    0.50841109E-10

Total Energy:                      -85.3123648783 H        -2321.4676 eV
Extrapolated to 0K:                -85.3123648783 H        -2321.4676 eV
Total Mermin free energy:          -85.3123648783 H        -2321.4676 eV
Force related energy:              -85.3123648783 H        -2321.4676 eV

Volume:                              0.109065E+05 au^3   0.161617E+04 A^3
Pressure:                           -0.235459E-04 au    -0.692744E+09 Pa
Maximal force component:             0.117312E-07
Averaged force norm:                 0.791736E-08
>> Charges saved for restart in charges.bin

--------------------------------------------------------------------------------

***  Geometry step: 482

 iSCC Total electronic   Diff electronic      SCC error    
    1   -0.85312365E+02    0.00000000E+00    0.29974947E-07
    2   -0.85312365E+02    0.00000000E+00    0.19561218E-07
    3   -0.85312365E+02    0.28421709E-13    0.26545499E-08
    4   -0.85312365E+02   -0.42632564E-13    0.25998920E-09
    5   -0.85312365E+02    0.28421709E-13    0.85665475E-10

Total Energy:                      -85.3123648783 H        -2321.4676 eV
Extrapolated to 0K:                -85.3123648783 H        -2321.4676 eV
Total Mermin free energy:          -85.3123648783 H        -2321.4676 eV
Force related energy:              -85.3123648783 H        -2321.4676 eV

Volume:                              0.109065E+05 au^3   0.161617E+04 A^3
Pressure:                           -0.235459E-04 au    -0.692743E+09 Pa
Maximal force component:             0.726305E-08
Averaged force norm:                 0.569841E-08
>> Charges saved for restart in charges.bin

--------------------------------------------------------------------------------

***  Geometry step: 483

 iSCC Total electronic   Diff electronic      SCC error    
    1   -0.85312365E+02    0.00000000E+00    0.48497770E-07
    2   -0.85312365E+02    0.00000000E+00    0.31650533E-07
    3   -0.85312365E+02   -0.28421709E-13    0.43114707E-08
    4   -0.85312365E+02    0.42632564E-13    0.43704113E-09
    5   -0.85312365E+02   -0.28421709E-13    0.14251522E-09
    6   -0.85312365E+02   -0.14210855E-13    0.29314995E-10

Total Energy:                      -85.3123648783 H        -2321.4676 eV
Extrapolated to 0K:                -85.3123648783 H        -2321.4676 eV
Total Mermin free energy:          -85.3123648783 H        -2321.4676 eV
Force related energy:              -85.3123648783 H        -2321.4676 eV

Volume:                              0.109065E+05 au^3   0.161617E+04 A^3
Pressure:                           -0.235458E-04 au    -0.692742E+09 Pa
Maximal force component:             0.152603E-07
Averaged force norm:                 0.116272E-07
>> Charges saved for restart in charges.bin

--------------------------------------------------------------------------------

***  Geometry step: 484

 iSCC Total electronic   Diff electronic      SCC error    
    1   -0.85312365E+02    0.00000000E+00    0.21533313E-07
    2   -0.85312365E+02   -0.42632564E-13    0.14053045E-07
    3   -0.85312365E+02    0.14210855E-13    0.19165269E-08
    4   -0.85312365E+02   -0.14210855E-13    0.18338198E-09
    5   -0.85312365E+02    0.28421709E-13    0.60971506E-10

Total Energy:                      -85.3123648783 H        -2321.4676 eV
Extrapolated to 0K:                -85.3123648783 H        -2321.4676 eV
Total Mermin free energy:          -85.3123648783 H        -2321.4676 eV
Force related energy:              -85.3123648783 H        -2321.4676 eV

Volume:                              0.109065E+05 au^3   0.161617E+04 A^3
Pressure:                           -0.235458E-04 au    -0.692742E+09 Pa
Maximal force component:             0.114656E-07
Averaged force norm:                 0.815216E-08
>> Charges saved for restart in charges.bin

--------------------------------------------------------------------------------

***  Geometry step: 485

 iSCC Total electronic   Diff electronic      SCC error    
    1   -0.85312365E+02    0.00000000E+00    0.75902888E-07
    2   -0.85312365E+02   -0.42632564E-13    0.48927339E-07
    3   -0.85312365E+02    0.14210855E-13    0.95389390E-08
    4   -0.85312365E+02    0.28421709E-13    0.19421146E-08
    5   -0.85312365E+02   -0.28421709E-13    0.33928632E-09
    6   -0.85312365E+02    0.14210855E-13    0.51940230E-10

Total Energy:                      -85.3123648783 H        -2321.4676 eV
Extrapolated to 0K:                -85.3123648783 H        -2321.4676 eV
Total Mermin free energy:          -85.3123648783 H        -2321.4676 eV
Force related energy:              -85.3123648783 H        -2321.4676 eV

Volume:                              0.109065E+05 au^3   0.161617E+04 A^3
Pressure:                           -0.235458E-04 au    -0.692742E+09 Pa
Maximal force component:             0.206922E-07
Averaged force norm:                 0.107527E-07
>> Charges saved for restart in charges.bin

--------------------------------------------------------------------------------

***  Geometry step: 486

 iSCC Total electronic   Diff electronic      SCC error    
    1   -0.85312365E+02    0.00000000E+00    0.68556005E-09
    2   -0.85312365E+02    0.14210855E-13    0.44249049E-09
    3   -0.85312365E+02   -0.28421709E-13    0.97383879E-10

Total Energy:                      -85.3123648783 H        -2321.4676 eV
Extrapolated to 0K:                -85.3123648783 H        -2321.4676 eV
Total Mermin free energy:          -85.3123648783 H        -2321.4676 eV
Force related energy:              -85.3123648783 H        -2321.4676 eV

Volume:                              0.109065E+05 au^3   0.161617E+04 A^3
Pressure:                           -0.235458E-04 au    -0.692742E+09 Pa
Maximal force component:             0.204677E-07
Averaged force norm:                 0.106555E-07
>> Charges saved for restart in charges.bin

--------------------------------------------------------------------------------

***  Geometry step: 487

 iSCC Total electronic   Diff electronic      SCC error    
    1   -0.85312365E+02    0.00000000E+00    0.52918233E-07
    2   -0.85312365E+02   -0.14210855E-13    0.32507082E-07
    3   -0.85312365E+02   -0.14210855E-13    0.49373878E-08
    4   -0.85312365E+02    0.00000000E+00    0.12819681E-08
    5   -0.85312365E+02    0.14210855E-13    0.22811575E-09
    6   -0.85312365E+02    0.00000000E+00    0.52639670E-10

Total Energy:                      -85.3123648783 H        -2321.4676 eV
Extrapolated to 0K:                -85.3123648783 H        -2321.4676 eV
Total Mermin free energy:          -85.3123648783 H        -2321.4676 eV
Force related energy:              -85.3123648783 H        -2321.4676 eV

Volume:                              0.109065E+05 au^3   0.161617E+04 A^3
Pressure:                           -0.235458E-04 au    -0.692742E+09 Pa
Maximal force component:             0.116319E-07
Averaged force norm:                 0.709927E-08
>> Charges saved for restart in charges.bin

--------------------------------------------------------------------------------

***  Geometry step: 488

 iSCC Total electronic   Diff electronic      SCC error    
    1   -0.85312365E+02    0.00000000E+00    0.85617375E-07
    2   -0.85312365E+02    0.14210855E-13    0.52588748E-07
    3   -0.85312365E+02    0.14210855E-13    0.79775098E-08
    4   -0.85312365E+02   -0.42632564E-13    0.20788918E-08
    5   -0.85312365E+02    0.00000000E+00    0.36813325E-09
    6   -0.85312365E+02    0.28421709E-13    0.85035090E-10

Total Energy:                      -85.3123648783 H        -2321.4676 eV
Extrapolated to 0K:                -85.3123648783 H        -2321.4676 eV
Total Mermin free energy:          -85.3123648783 H        -2321.4676 eV
Force related energy:              -85.3123648783 H        -2321.4676 eV

Volume:                              0.109065E+05 au^3   0.161617E+04 A^3
Pressure:                           -0.235458E-04 au    -0.692742E+09 Pa
Maximal force component:             0.359626E-07
Averaged force norm:                 0.182214E-07
>> Charges saved for restart in charges.bin

--------------------------------------------------------------------------------

***  Geometry step: 489

 iSCC Total electronic   Diff electronic      SCC error    
    1   -0.85312365E+02    0.00000000E+00    0.60382728E-07
    2   -0.85312365E+02   -0.14210855E-13    0.37091234E-07
    3   -0.85312365E+02   -0.14210855E-13    0.56454441E-08
    4   -0.85312365E+02   -0.14210855E-13    0.14582778E-08
    5   -0.85312365E+02    0.00000000E+00    0.26110897E-09
    6   -0.85312365E+02    0.00000000E+00    0.60079053E-10

Total Energy:                      -85.3123648783 H        -2321.4676 eV
Extrapolated to 0K:                -85.3123648783 H        -2321.4676 eV
Total Mermin free energy:          -85.3123648783 H        -2321.4676 eV
Force related energy:              -85.3123648783 H        -2321.4676 eV

Volume:                              0.109065E+05 au^3   0.161617E+04 A^3
Pressure:                           -0.235458E-04 au    -0.692742E+09 Pa
Maximal force component:             0.145171E-07
Averaged force norm:                 0.916916E-08
>> Charges saved for restart in charges.bin

--------------------------------------------------------------------------------

***  Geometry step: 490

 iSCC Total electronic   Diff electronic      SCC error    
    1   -0.85312365E+02    0.00000000E+00    0.12078551E-06
    2   -0.85312365E+02   -0.14210855E-13    0.78495235E-07
    3   -0.85312365E+02    0.14210855E-13    0.14155705E-07
    4   -0.85312365E+02   -0.14210855E-13    0.28513159E-08
    5   -0.85312365E+02    0.00000000E+00    0.48556392E-09
    6   -0.85312365E+02    0.00000000E+00    0.77446050E-10

Total Energy:                      -85.3123648783 H        -2321.4676 eV
Extrapolated to 0K:                -85.3123648783 H        -2321.4676 eV
Total Mermin free energy:          -85.3123648783 H        -2321.4676 eV
Force related energy:              -85.3123648783 H        -2321.4676 eV

Volume:                              0.109065E+05 au^3   0.161617E+04 A^3
Pressure:                           -0.235458E-04 au    -0.692742E+09 Pa
Maximal force component:             0.301167E-07
Averaged force norm:                 0.166565E-07
>> Charges saved for restart in charges.bin

--------------------------------------------------------------------------------

***  Geometry step: 491

 iSCC Total electronic   Diff electronic      SCC error    
    1   -0.85312365E+02    0.00000000E+00    0.47236322E-07
    2   -0.85312365E+02   -0.14210855E-13    0.30697207E-07
    3   -0.85312365E+02    0.00000000E+00    0.55433329E-08
    4   -0.85312365E+02    0.00000000E+00    0.11080257E-08
    5   -0.85312365E+02    0.00000000E+00    0.18959778E-09
    6   -0.85312365E+02    0.14210855E-13    0.30399683E-10

Total Energy:                      -85.3123648783 H        -2321.4676 eV
Extrapolated to 0K:                -85.3123648783 H        -2321.4676 eV
Total Mermin free energy:          -85.3123648783 H        -2321.4676 eV
Force related energy:              -85.3123648783 H        -2321.4676 eV

Volume:                              0.109065E+05 au^3   0.161617E+04 A^3
Pressure:                           -0.235458E-04 au    -0.692742E+09 Pa
Maximal force component:             0.142430E-07
Averaged force norm:                 0.948863E-08
>> Charges saved for restart in charges.bin

--------------------------------------------------------------------------------

***  Geometry step: 492

 iSCC Total electronic   Diff electronic      SCC error    
    1   -0.85312365E+02    0.00000000E+00    0.34098298E-07
    2   -0.85312365E+02   -0.42632564E-13    0.22374701E-07
    3   -0.85312365E+02    0.14210855E-13    0.26247440E-08
    4   -0.85312365E+02    0.00000000E+00    0.62393679E-09
    5   -0.85312365E+02    0.14210855E-13    0.15140261E-09
    6   -0.85312365E+02    0.00000000E+00    0.29526381E-10

Total Energy:                      -85.3123648783 H        -2321.4676 eV
Extrapolated to 0K:                -85.3123648783 H        -2321.4676 eV
Total Mermin free energy:          -85.3123648783 H        -2321.4676 eV
Force related energy:              -85.3123648783 H        -2321.4676 eV

Volume:                              0.109065E+05 au^3   0.161617E+04 A^3
Pressure:                           -0.235458E-04 au    -0.692742E+09 Pa
Maximal force component:             0.115072E-07
Averaged force norm:                 0.665132E-08
>> Charges saved for restart in charges.bin

--------------------------------------------------------------------------------

***  Geometry step: 493

 iSCC Total electronic   Diff electronic      SCC error    
    1   -0.85312365E+02    0.00000000E+00    0.55195459E-07
    2   -0.85312365E+02   -0.14210855E-13    0.36219955E-07
    3   -0.85312365E+02   -0.14210855E-13    0.42504444E-08
    4   -0.85312365E+02    0.14210855E-13    0.10098632E-08
    5   -0.85312365E+02    0.00000000E+00    0.24536723E-09
    6   -0.85312365E+02    0.00000000E+00    0.47314486E-10

Total Energy:                      -85.3123648783 H        -2321.4676 eV
Extrapolated to 0K:                -85.3123648783 H        -2321.4676 eV
Total Mermin free energy:          -85.3123648783 H        -2321.4676 eV
Force related energy:              -85.3123648783 H        -2321.4676 eV

Volume:                              0.109065E+05 au^3   0.161617E+04 A^3
Pressure:                           -0.235459E-04 au    -0.692743E+09 Pa
Maximal force component:             0.224730E-07
Averaged force norm:                 0.119498E-07
>> Charges saved for restart in charges.bin

--------------------------------------------------------------------------------

***  Geometry step: 494

 iSCC Total electronic   Diff electronic      SCC error    
    1   -0.85312365E+02    0.00000000E+00    0.18297611E-07
    2   -0.85312365E+02    0.28421709E-13    0.12006051E-07
    3   -0.85312365E+02   -0.71054274E-13    0.14083308E-08
    4   -0.85312365E+02    0.56843419E-13    0.32963887E-09
    5   -0.85312365E+02    0.00000000E+00    0.80940032E-10

Total Energy:                      -85.3123648783 H        -2321.4676 eV
Extrapolated to 0K:                -85.3123648783 H        -2321.4676 eV
Total Mermin free energy:          -85.3123648783 H        -2321.4676 eV
Force related energy:              -85.3123648783 H        -2321.4676 eV

Volume:                              0.109065E+05 au^3   0.161617E+04 A^3
Pressure:                           -0.235458E-04 au    -0.692742E+09 Pa
Maximal force component:             0.157487E-07
Averaged force norm:                 0.929663E-08
>> Charges saved for restart in charges.bin

--------------------------------------------------------------------------------

***  Geometry step: 495

 iSCC Total electronic   Diff electronic      SCC error    
    1   -0.85312365E+02    0.00000000E+00    0.20842913E-06
    2   -0.85312365E+02    0.42632564E-13    0.13296369E-06
    3   -0.85312365E+02   -0.28421709E-13    0.12508939E-07
    4   -0.85312365E+02   -0.28421709E-13    0.42077154E-08
    5   -0.85312365E+02    0.28421709E-13    0.54273830E-09
    6   -0.85312365E+02    0.00000000E+00    0.72439832E-10

Total Energy:                      -85.3123648783 H        -2321.4676 eV
Extrapolated to 0K:                -85.3123648783 H        -2321.4676 eV
Total Mermin free energy:          -85.3123648783 H        -2321.4676 eV
Force related energy:              -85.3123648783 H        -2321.4676 eV

Volume:                              0.109065E+05 au^3   0.161617E+04 A^3
Pressure:                           -0.235458E-04 au    -0.692742E+09 Pa
Maximal force component:             0.319351E-07
Averaged force norm:                 0.174770E-07
>> Charges saved for restart in charges.bin

--------------------------------------------------------------------------------

***  Geometry step: 496

 iSCC Total electronic   Diff electronic      SCC error    
    1   -0.85312365E+02    0.00000000E+00    0.10363500E-06
    2   -0.85312365E+02   -0.14210855E-13    0.66115240E-07
    3   -0.85312365E+02    0.14210855E-13    0.62030250E-08
    4   -0.85312365E+02   -0.28421709E-13    0.20881109E-08
    5   -0.85312365E+02    0.14210855E-13    0.26930103E-09
    6   -0.85312365E+02    0.00000000E+00    0.36093351E-10

Total Energy:                      -85.3123648783 H        -2321.4676 eV
Extrapolated to 0K:                -85.3123648783 H        -2321.4676 eV
Total Mermin free energy:          -85.3123648783 H        -2321.4676 eV
Force related energy:              -85.3123648783 H        -2321.4676 eV

Volume:                              0.109065E+05 au^3   0.161617E+04 A^3
Pressure:                           -0.235458E-04 au    -0.692742E+09 Pa
Maximal force component:             0.927786E-08
Averaged force norm:                 0.747079E-08
>> Charges saved for restart in charges.bin

Geometry converged

--------------------------------------------------------------------------------
DFTB+ running times                          cpu [s]             wall clock [s]
--------------------------------------------------------------------------------
Pre-SCC initialisation                 +     339.54 (  0.6%)      24.53 (  0.7%)
SCC                                    +   50791.98 ( 91.0%)    3273.49 ( 90.9%)
Post-SCC processing                    +    4672.96 (  8.4%)     302.76 (  8.4%)
Post-geometry optimisation             +       0.05 (  0.0%)       0.00 (  0.0%)
--------------------------------------------------------------------------------
Missing                                +       0.09 (  0.0%)       0.00 (  0.0%)
Total                                  =   55804.62 (100.0%)    3600.78 (100.0%)
--------------------------------------------------------------------------------
