  39  39   1   0
  0.4103261E+02  0.1166835E-08  0.1176381E-08  0.1166835E-08  0.5000000E-15
   1.0000000000000000E-004
  CAR 
 CsPbBr3 cubic bulk                      
      7.96894190    -22.41317421  301      0.32277601      1.00000000
    -22.413  0.0000E+00  0.0000E+00
    -22.312  0.0000E+00  0.0000E+00
    -22.211  0.0000E+00  0.0000E+00
    -22.109  0.0000E+00  0.0000E+00
    -22.008  0.0000E+00  0.0000E+00
    -21.907  0.0000E+00  0.0000E+00
    -21.806  0.0000E+00  0.0000E+00
    -21.704  0.0000E+00  0.0000E+00
    -21.603  0.0000E+00  0.0000E+00
    -21.502  0.0000E+00  0.0000E+00
    -21.400  0.0000E+00  0.0000E+00
    -21.299  0.0000E+00  0.0000E+00
    -21.198  0.0000E+00  0.0000E+00
    -21.097  0.0000E+00  0.0000E+00
    -20.995  0.5924E+02  0.6000E+01
    -20.894  0.7257E+02  0.1335E+02
    -20.793  0.0000E+00  0.1400E+02
    -20.692  0.0000E+00  0.1400E+02
    -20.590  0.0000E+00  0.1400E+02
    -20.489  0.0000E+00  0.1400E+02
    -20.388  0.0000E+00  0.1400E+02
    -20.286  0.0000E+00  0.1400E+02
    -20.185  0.0000E+00  0.1400E+02
    -20.084  0.0000E+00  0.1400E+02
    -19.983  0.0000E+00  0.1400E+02
    -19.881  0.0000E+00  0.1400E+02
    -19.780  0.0000E+00  0.1400E+02
    -19.679  0.0000E+00  0.1400E+02
    -19.578  0.0000E+00  0.1400E+02
    -19.476  0.0000E+00  0.1400E+02
    -19.375  0.0000E+00  0.1400E+02
    -19.274  0.0000E+00  0.1400E+02
    -19.172  0.0000E+00  0.1400E+02
    -19.071  0.0000E+00  0.1400E+02
    -18.970  0.0000E+00  0.1400E+02
    -18.869  0.0000E+00  0.1400E+02
    -18.767  0.0000E+00  0.1400E+02
    -18.666  0.0000E+00  0.1400E+02
    -18.565  0.0000E+00  0.1400E+02
    -18.463  0.0000E+00  0.1400E+02
    -18.362  0.0000E+00  0.1400E+02
    -18.261  0.0000E+00  0.1400E+02
    -18.160  0.0000E+00  0.1400E+02
    -18.058  0.0000E+00  0.1400E+02
    -17.957  0.0000E+00  0.1400E+02
    -17.856  0.0000E+00  0.1400E+02
    -17.755  0.0000E+00  0.1400E+02
    -17.653  0.0000E+00  0.1400E+02
    -17.552  0.0000E+00  0.1400E+02
    -17.451  0.0000E+00  0.1400E+02
    -17.349  0.0000E+00  0.1400E+02
    -17.248  0.0000E+00  0.1400E+02
    -17.147  0.0000E+00  0.1400E+02
    -17.046  0.0000E+00  0.1400E+02
    -16.944  0.1512E-06  0.1400E+02
    -16.843  0.5026E+02  0.1909E+02
    -16.742  0.1169E+03  0.3483E+02
    -16.641  0.1580E+03  0.5400E+02
    -16.539  0.6087E+02  0.6016E+02
    -16.438  0.1248E+03  0.7414E+02
    -16.337  0.1185E+03  0.9400E+02
    -16.235  0.0000E+00  0.9400E+02
    -16.134  0.0000E+00  0.9400E+02
    -16.033  0.0000E+00  0.9400E+02
    -15.932  0.0000E+00  0.9400E+02
    -15.830  0.0000E+00  0.9400E+02
    -15.729  0.0000E+00  0.9400E+02
    -15.628  0.0000E+00  0.9400E+02
    -15.527  0.0000E+00  0.9400E+02
    -15.425  0.0000E+00  0.9400E+02
    -15.324  0.0000E+00  0.9400E+02
    -15.223  0.0000E+00  0.9400E+02
    -15.121  0.0000E+00  0.9400E+02
    -15.020  0.0000E+00  0.9400E+02
    -14.919  0.2342E+01  0.9424E+02
    -14.818  0.9874E+01  0.9600E+02
    -14.716  0.7613E+01  0.9677E+02
    -14.615  0.2932E+02  0.9997E+02
    -14.514  0.1266E+01  0.1001E+03
    -14.413  0.2179E+02  0.1040E+03
    -14.311  0.3479E+02  0.1075E+03
    -14.210  0.3868E+02  0.1122E+03
    -14.109  0.6877E+02  0.1210E+03
    -14.007  0.7387E+02  0.1290E+03
    -13.906  0.6334E+02  0.1354E+03
    -13.805  0.2715E+02  0.1395E+03
    -13.704  0.3122E-09  0.1400E+03
    -13.602  0.1975E+02  0.1420E+03
    -13.501  0.0000E+00  0.1420E+03
    -13.400  0.0000E+00  0.1420E+03
    -13.299  0.0000E+00  0.1420E+03
    -13.197  0.0000E+00  0.1420E+03
    -13.096  0.0000E+00  0.1420E+03
    -12.995  0.0000E+00  0.1420E+03
    -12.893  0.0000E+00  0.1420E+03
    -12.792  0.0000E+00  0.1420E+03
    -12.691  0.0000E+00  0.1420E+03
    -12.590  0.0000E+00  0.1420E+03
    -12.488  0.0000E+00  0.1420E+03
    -12.387  0.0000E+00  0.1420E+03
    -12.286  0.0000E+00  0.1420E+03
    -12.185  0.0000E+00  0.1420E+03
    -12.083  0.0000E+00  0.1420E+03
    -11.982  0.0000E+00  0.1420E+03
    -11.881  0.0000E+00  0.1420E+03
    -11.779  0.0000E+00  0.1420E+03
    -11.678  0.0000E+00  0.1420E+03
    -11.577  0.0000E+00  0.1420E+03
    -11.476  0.0000E+00  0.1420E+03
    -11.374  0.0000E+00  0.1420E+03
    -11.273  0.0000E+00  0.1420E+03
    -11.172  0.0000E+00  0.1420E+03
    -11.071  0.0000E+00  0.1420E+03
    -10.969  0.0000E+00  0.1420E+03
    -10.868  0.0000E+00  0.1420E+03
    -10.767  0.0000E+00  0.1420E+03
    -10.665  0.0000E+00  0.1420E+03
    -10.564  0.0000E+00  0.1420E+03
    -10.463  0.0000E+00  0.1420E+03
    -10.362  0.0000E+00  0.1420E+03
    -10.260  0.0000E+00  0.1420E+03
    -10.159  0.0000E+00  0.1420E+03
    -10.058  0.0000E+00  0.1420E+03
     -9.957  0.0000E+00  0.1420E+03
     -9.855  0.0000E+00  0.1420E+03
     -9.754  0.0000E+00  0.1420E+03
     -9.653  0.0000E+00  0.1420E+03
     -9.551  0.0000E+00  0.1420E+03
     -9.450  0.0000E+00  0.1420E+03
     -9.349  0.0000E+00  0.1420E+03
     -9.248  0.0000E+00  0.1420E+03
     -9.146  0.0000E+00  0.1420E+03
     -9.045  0.0000E+00  0.1420E+03
     -8.944  0.0000E+00  0.1420E+03
     -8.842  0.0000E+00  0.1420E+03
     -8.741  0.0000E+00  0.1420E+03
     -8.640  0.0000E+00  0.1420E+03
     -8.539  0.6506E-06  0.1420E+03
     -8.437  0.2474E+01  0.1423E+03
     -8.336  0.1124E-02  0.1425E+03
     -8.235  0.9474E+01  0.1435E+03
     -8.134  0.3281E+01  0.1443E+03
     -8.032  0.9397E+01  0.1457E+03
     -7.931  0.1228E+02  0.1472E+03
     -7.830  0.1891E+02  0.1492E+03
     -7.728  0.2223E+02  0.1518E+03
     -7.627  0.1131E+02  0.1534E+03
     -7.526  0.2137E+02  0.1564E+03
     -7.425  0.7394E+02  0.1647E+03
     -7.323  0.2082E+03  0.1896E+03
     -7.222  0.5315E+02  0.1981E+03
     -7.121  0.2647E+01  0.1985E+03
     -7.020  0.7226E+01  0.1995E+03
     -6.918  0.2469E+01  0.1997E+03
     -6.817  0.0000E+00  0.1998E+03
     -6.716  0.2468E+01  0.2000E+03
     -6.614  0.0000E+00  0.2000E+03
     -6.513  0.0000E+00  0.2000E+03
     -6.412  0.0000E+00  0.2000E+03
     -6.311  0.0000E+00  0.2000E+03
     -6.209  0.0000E+00  0.2000E+03
     -6.108  0.0000E+00  0.2000E+03
     -6.007  0.0000E+00  0.2000E+03
     -5.906  0.0000E+00  0.2000E+03
     -5.804  0.0000E+00  0.2000E+03
     -5.703  0.0000E+00  0.2000E+03
     -5.602  0.0000E+00  0.2000E+03
     -5.500  0.0000E+00  0.2000E+03
     -5.399  0.0000E+00  0.2000E+03
     -5.298  0.0000E+00  0.2000E+03
     -5.197  0.0000E+00  0.2000E+03
     -5.095  0.0000E+00  0.2000E+03
     -4.994  0.0000E+00  0.2000E+03
     -4.893  0.0000E+00  0.2000E+03
     -4.792  0.0000E+00  0.2000E+03
     -4.690  0.0000E+00  0.2000E+03
     -4.589  0.0000E+00  0.2000E+03
     -4.488  0.0000E+00  0.2000E+03
     -4.386  0.0000E+00  0.2000E+03
     -4.285  0.0000E+00  0.2000E+03
     -4.184  0.0000E+00  0.2000E+03
     -4.083  0.0000E+00  0.2000E+03
     -3.981  0.0000E+00  0.2000E+03
     -3.880  0.0000E+00  0.2000E+03
     -3.779  0.0000E+00  0.2000E+03
     -3.678  0.9999E+01  0.2010E+03
     -3.576  0.1160E+02  0.2029E+03
     -3.475  0.2467E+01  0.2040E+03
     -3.374  0.9130E+01  0.2049E+03
     -3.272  0.2195E+02  0.2075E+03
     -3.171  0.2469E+02  0.2113E+03
     -3.070  0.7818E+01  0.2120E+03
     -2.969  0.1669E+02  0.2144E+03
     -2.867  0.1933E+02  0.2167E+03
     -2.766  0.2515E+02  0.2195E+03
     -2.665  0.2428E+02  0.2230E+03
     -2.564  0.2199E+02  0.2257E+03
     -2.462  0.3793E+02  0.2306E+03
     -2.361  0.3599E+02  0.2351E+03
     -2.260  0.2832E+02  0.2394E+03
     -2.158  0.3863E+02  0.2444E+03
     -2.057  0.1964E+02  0.2472E+03
     -1.956  0.3340E+02  0.2516E+03
     -1.855  0.5355E+02  0.2582E+03
     -1.753  0.3987E+02  0.2635E+03
     -1.652  0.6911E+02  0.2717E+03
     -1.551  0.7817E+02  0.2809E+03
     -1.450  0.6014E+02  0.2903E+03
     -1.348  0.9655E+02  0.3023E+03
     -1.247  0.6086E+02  0.3109E+03
     -1.146  0.5969E+02  0.3185E+03
     -1.044  0.4021E+02  0.3243E+03
     -0.943  0.4009E+02  0.3293E+03
     -0.842  0.2681E+02  0.3332E+03
     -0.741  0.2855E+02  0.3374E+03
     -0.639  0.1309E+02  0.3391E+03
     -0.538  0.4842E+01  0.3402E+03
     -0.437  0.7388E+01  0.3412E+03
     -0.336  0.6980E+01  0.3420E+03
     -0.234  0.4927E+01  0.3427E+03
     -0.133  0.4646E+01  0.3432E+03
     -0.032  0.2552E+01  0.3435E+03
      0.070  0.0000E+00  0.3438E+03
      0.171  0.0000E+00  0.3438E+03
      0.272  0.1560E+01  0.3439E+03
      0.373  0.0000E+00  0.3440E+03
      0.475  0.0000E+00  0.3440E+03
      0.576  0.0000E+00  0.3440E+03
      0.677  0.0000E+00  0.3440E+03
      0.779  0.0000E+00  0.3440E+03
      0.880  0.0000E+00  0.3440E+03
      0.981  0.0000E+00  0.3440E+03
      1.082  0.0000E+00  0.3440E+03
      1.184  0.0000E+00  0.3440E+03
      1.285  0.0000E+00  0.3440E+03
      1.386  0.0000E+00  0.3440E+03
      1.487  0.0000E+00  0.3440E+03
      1.589  0.0000E+00  0.3440E+03
      1.690  0.0000E+00  0.3440E+03
      1.791  0.0000E+00  0.3440E+03
      1.893  0.0000E+00  0.3440E+03
      1.994  0.0000E+00  0.3440E+03
      2.095  0.0000E+00  0.3440E+03
      2.196  0.0000E+00  0.3440E+03
      2.298  0.0000E+00  0.3440E+03
      2.399  0.1612E-11  0.3440E+03
      2.500  0.3265E+01  0.3443E+03
      2.601  0.5094E+01  0.3450E+03
      2.703  0.1395E+02  0.3469E+03
      2.804  0.7564E+01  0.3478E+03
      2.905  0.7417E+01  0.3490E+03
      3.007  0.1879E+02  0.3512E+03
      3.108  0.6762E+01  0.3522E+03
      3.209  0.1504E+02  0.3545E+03
      3.310  0.7601E-01  0.3550E+03
      3.412  0.4943E+01  0.3558E+03
      3.513  0.0000E+00  0.3560E+03
      3.614  0.3249E-04  0.3560E+03
      3.715  0.4937E+01  0.3565E+03
      3.817  0.7484E+01  0.3573E+03
      3.918  0.5474E+01  0.3581E+03
      4.019  0.1523E+02  0.3600E+03
      4.121  0.1415E+02  0.3617E+03
      4.222  0.1877E+02  0.3639E+03
      4.323  0.2904E+02  0.3674E+03
      4.424  0.2453E+02  0.3710E+03
      4.526  0.2311E+02  0.3738E+03
      4.627  0.1466E+02  0.3762E+03
      4.728  0.2103E+02  0.3786E+03
      4.829  0.9780E+01  0.3797E+03
      4.931  0.5906E+01  0.3803E+03
      5.032  0.2468E+01  0.3808E+03
      5.133  0.0000E+00  0.3808E+03
      5.235  0.3525E+01  0.3811E+03
      5.336  0.1184E+02  0.3824E+03
      5.437  0.1077E+02  0.3838E+03
      5.538  0.1615E+02  0.3859E+03
      5.640  0.2285E+02  0.3886E+03
      5.741  0.9810E+01  0.3900E+03
      5.842  0.1006E+02  0.3913E+03
      5.943  0.2717E+02  0.3943E+03
      6.045  0.3058E+02  0.3978E+03
      6.146  0.2725E+02  0.4008E+03
      6.247  0.2644E+02  0.4042E+03
      6.349  0.2778E+02  0.4078E+03
      6.450  0.3355E+02  0.4119E+03
      6.551  0.2440E+02  0.4152E+03
      6.652  0.4937E+01  0.4160E+03
      6.754  0.0000E+00  0.4160E+03
      6.855  0.0000E+00  0.4160E+03
      6.956  0.0000E+00  0.4160E+03
      7.057  0.0000E+00  0.4160E+03
      7.159  0.0000E+00  0.4160E+03
      7.260  0.0000E+00  0.4160E+03
      7.361  0.0000E+00  0.4160E+03
      7.463  0.0000E+00  0.4160E+03
      7.564  0.0000E+00  0.4160E+03
      7.665  0.0000E+00  0.4160E+03
      7.766  0.0000E+00  0.4160E+03
      7.868  0.0000E+00  0.4160E+03
      7.969  0.0000E+00  0.4160E+03
      7.96894190    -22.41317421  301      0.32277601      1.00000000
    -22.413  0.0000E+00  0.0000E+00  0.0000E+00
    -22.312  0.0000E+00  0.0000E+00  0.0000E+00
    -22.211  0.0000E+00  0.0000E+00  0.0000E+00
    -22.109  0.0000E+00  0.0000E+00  0.0000E+00
    -22.008  0.0000E+00  0.0000E+00  0.0000E+00
    -21.907  0.0000E+00  0.0000E+00  0.0000E+00
    -21.806  0.0000E+00  0.0000E+00  0.0000E+00
    -21.704  0.0000E+00  0.0000E+00  0.0000E+00
    -21.603  0.0000E+00  0.0000E+00  0.0000E+00
    -21.502  0.0000E+00  0.0000E+00  0.0000E+00
    -21.400  0.0000E+00  0.0000E+00  0.0000E+00
    -21.299  0.0000E+00  0.0000E+00  0.0000E+00
    -21.198  0.0000E+00  0.0000E+00  0.0000E+00
    -21.097  0.0000E+00  0.0000E+00  0.0000E+00
    -20.995  0.1752E+02  0.1401E-04  0.6557E-05
    -20.894  0.4096E-02  0.2415E-06  0.3043E-07
    -20.793  0.0000E+00  0.0000E+00  0.0000E+00
    -20.692  0.0000E+00  0.0000E+00  0.0000E+00
    -20.590  0.0000E+00  0.0000E+00  0.0000E+00
    -20.489  0.0000E+00  0.0000E+00  0.0000E+00
    -20.388  0.0000E+00  0.0000E+00  0.0000E+00
    -20.286  0.0000E+00  0.0000E+00  0.0000E+00
    -20.185  0.0000E+00  0.0000E+00  0.0000E+00
    -20.084  0.0000E+00  0.0000E+00  0.0000E+00
    -19.983  0.0000E+00  0.0000E+00  0.0000E+00
    -19.881  0.0000E+00  0.0000E+00  0.0000E+00
    -19.780  0.0000E+00  0.0000E+00  0.0000E+00
    -19.679  0.0000E+00  0.0000E+00  0.0000E+00
    -19.578  0.0000E+00  0.0000E+00  0.0000E+00
    -19.476  0.0000E+00  0.0000E+00  0.0000E+00
    -19.375  0.0000E+00  0.0000E+00  0.0000E+00
    -19.274  0.0000E+00  0.0000E+00  0.0000E+00
    -19.172  0.0000E+00  0.0000E+00  0.0000E+00
    -19.071  0.0000E+00  0.0000E+00  0.0000E+00
    -18.970  0.0000E+00  0.0000E+00  0.0000E+00
    -18.869  0.0000E+00  0.0000E+00  0.0000E+00
    -18.767  0.0000E+00  0.0000E+00  0.0000E+00
    -18.666  0.0000E+00  0.0000E+00  0.0000E+00
    -18.565  0.0000E+00  0.0000E+00  0.0000E+00
    -18.463  0.0000E+00  0.0000E+00  0.0000E+00
    -18.362  0.0000E+00  0.0000E+00  0.0000E+00
    -18.261  0.0000E+00  0.0000E+00  0.0000E+00
    -18.160  0.0000E+00  0.0000E+00  0.0000E+00
    -18.058  0.0000E+00  0.0000E+00  0.0000E+00
    -17.957  0.0000E+00  0.0000E+00  0.0000E+00
    -17.856  0.0000E+00  0.0000E+00  0.0000E+00
    -17.755  0.0000E+00  0.0000E+00  0.0000E+00
    -17.653  0.0000E+00  0.0000E+00  0.0000E+00
    -17.552  0.0000E+00  0.0000E+00  0.0000E+00
    -17.451  0.0000E+00  0.0000E+00  0.0000E+00
    -17.349  0.0000E+00  0.0000E+00  0.0000E+00
    -17.248  0.0000E+00  0.0000E+00  0.0000E+00
    -17.147  0.0000E+00  0.0000E+00  0.0000E+00
    -17.046  0.0000E+00  0.0000E+00  0.0000E+00
    -16.944  0.7582E-14  0.1532E-13  0.2862E-13
    -16.843  0.1596E-04  0.3136E-04  0.8659E-05
    -16.742  0.1995E-04  0.2317E-04  0.4241E-05
    -16.641  0.5539E-04  0.2842E-04  0.3447E-05
    -16.539  0.4985E-04  0.4230E-04  0.7475E-05
    -16.438  0.4067E-04  0.2868E-04  0.3493E-05
    -16.337  0.2597E-05  0.1806E-05  0.2219E-06
    -16.235  0.0000E+00  0.0000E+00  0.0000E+00
    -16.134  0.0000E+00  0.0000E+00  0.0000E+00
    -16.033  0.0000E+00  0.0000E+00  0.0000E+00
    -15.932  0.0000E+00  0.0000E+00  0.0000E+00
    -15.830  0.0000E+00  0.0000E+00  0.0000E+00
    -15.729  0.0000E+00  0.0000E+00  0.0000E+00
    -15.628  0.0000E+00  0.0000E+00  0.0000E+00
    -15.527  0.0000E+00  0.0000E+00  0.0000E+00
    -15.425  0.0000E+00  0.0000E+00  0.0000E+00
    -15.324  0.0000E+00  0.0000E+00  0.0000E+00
    -15.223  0.0000E+00  0.0000E+00  0.0000E+00
    -15.121  0.0000E+00  0.0000E+00  0.0000E+00
    -15.020  0.0000E+00  0.0000E+00  0.0000E+00
    -14.919  0.6129E-03  0.2536E-03  0.1126E-04
    -14.818  0.2593E-09  0.1817E-02  0.1333E-03
    -14.716  0.2259E-02  0.8968E-03  0.2451E-04
    -14.615  0.1132E-03  0.2168E-02  0.1262E-03
    -14.514  0.1321E-04  0.7843E-04  0.2635E-05
    -14.413  0.6210E-03  0.1043E-02  0.1141E-03
    -14.311  0.1819E-02  0.2582E-02  0.2004E-03
    -14.210  0.8269E-03  0.3016E-02  0.1375E-03
    -14.109  0.5716E-03  0.2240E-02  0.3153E-03
    -14.007  0.1627E-02  0.4014E-02  0.3915E-03
    -13.906  0.1041E-02  0.3460E-02  0.3484E-03
    -13.805  0.8065E-03  0.2096E-02  0.1693E-03
    -13.704  0.1205E-20  0.2485E-14  0.2924E-15
    -13.602  0.9044E-04  0.2880E-03  0.2063E-04
    -13.501  0.0000E+00  0.0000E+00  0.0000E+00
    -13.400  0.0000E+00  0.0000E+00  0.0000E+00
    -13.299  0.0000E+00  0.0000E+00  0.0000E+00
    -13.197  0.0000E+00  0.0000E+00  0.0000E+00
    -13.096  0.0000E+00  0.0000E+00  0.0000E+00
    -12.995  0.0000E+00  0.0000E+00  0.0000E+00
    -12.893  0.0000E+00  0.0000E+00  0.0000E+00
    -12.792  0.0000E+00  0.0000E+00  0.0000E+00
    -12.691  0.0000E+00  0.0000E+00  0.0000E+00
    -12.590  0.0000E+00  0.0000E+00  0.0000E+00
    -12.488  0.0000E+00  0.0000E+00  0.0000E+00
    -12.387  0.0000E+00  0.0000E+00  0.0000E+00
    -12.286  0.0000E+00  0.0000E+00  0.0000E+00
    -12.185  0.0000E+00  0.0000E+00  0.0000E+00
    -12.083  0.0000E+00  0.0000E+00  0.0000E+00
    -11.982  0.0000E+00  0.0000E+00  0.0000E+00
    -11.881  0.0000E+00  0.0000E+00  0.0000E+00
    -11.779  0.0000E+00  0.0000E+00  0.0000E+00
    -11.678  0.0000E+00  0.0000E+00  0.0000E+00
    -11.577  0.0000E+00  0.0000E+00  0.0000E+00
    -11.476  0.0000E+00  0.0000E+00  0.0000E+00
    -11.374  0.0000E+00  0.0000E+00  0.0000E+00
    -11.273  0.0000E+00  0.0000E+00  0.0000E+00
    -11.172  0.0000E+00  0.0000E+00  0.0000E+00
    -11.071  0.0000E+00  0.0000E+00  0.0000E+00
    -10.969  0.0000E+00  0.0000E+00  0.0000E+00
    -10.868  0.0000E+00  0.0000E+00  0.0000E+00
    -10.767  0.0000E+00  0.0000E+00  0.0000E+00
    -10.665  0.0000E+00  0.0000E+00  0.0000E+00
    -10.564  0.0000E+00  0.0000E+00  0.0000E+00
    -10.463  0.0000E+00  0.0000E+00  0.0000E+00
    -10.362  0.0000E+00  0.0000E+00  0.0000E+00
    -10.260  0.0000E+00  0.0000E+00  0.0000E+00
    -10.159  0.0000E+00  0.0000E+00  0.0000E+00
    -10.058  0.0000E+00  0.0000E+00  0.0000E+00
     -9.957  0.0000E+00  0.0000E+00  0.0000E+00
     -9.855  0.0000E+00  0.0000E+00  0.0000E+00
     -9.754  0.0000E+00  0.0000E+00  0.0000E+00
     -9.653  0.0000E+00  0.0000E+00  0.0000E+00
     -9.551  0.0000E+00  0.0000E+00  0.0000E+00
     -9.450  0.0000E+00  0.0000E+00  0.0000E+00
     -9.349  0.0000E+00  0.0000E+00  0.0000E+00
     -9.248  0.0000E+00  0.0000E+00  0.0000E+00
     -9.146  0.0000E+00  0.0000E+00  0.0000E+00
     -9.045  0.0000E+00  0.0000E+00  0.0000E+00
     -8.944  0.0000E+00  0.0000E+00  0.0000E+00
     -8.842  0.0000E+00  0.0000E+00  0.0000E+00
     -8.741  0.0000E+00  0.0000E+00  0.0000E+00
     -8.640  0.0000E+00  0.0000E+00  0.0000E+00
     -8.539  0.1730E-19  0.3339E-09  0.4661E-11
     -8.437  0.6595E-13  0.1274E-02  0.1773E-04
     -8.336  0.1377E-13  0.1895E-05  0.1239E-07
     -8.235  0.2762E-04  0.1867E-01  0.6257E-04
     -8.134  0.2019E-04  0.6244E-02  0.1380E-04
     -8.032  0.1045E-03  0.2667E-01  0.3570E-04
     -7.931  0.1737E-05  0.6081E-01  0.3126E-04
     -7.830  0.1493E-03  0.2351E+00  0.1543E-03
     -7.728  0.2662E-03  0.4684E+00  0.2598E-03
     -7.627  0.8614E-05  0.1594E+00  0.4176E-04
     -7.526  0.4065E-04  0.4198E+00  0.4867E-04
     -7.425  0.5549E-04  0.1881E+02  0.3256E-04
     -7.323  0.5103E-04  0.1524E+02  0.9964E-04
     -7.222  0.3903E-04  0.5283E+00  0.4091E-04
     -7.121  0.2477E-04  0.5998E-01  0.7111E-05
     -7.020  0.4276E-04  0.2851E-01  0.2116E-04
     -6.918  0.2769E-04  0.9700E-02  0.1010E-04
     -6.817  0.0000E+00  0.0000E+00  0.0000E+00
     -6.716  0.3208E-04  0.4159E-02  0.4488E-05
     -6.614  0.0000E+00  0.0000E+00  0.0000E+00
     -6.513  0.0000E+00  0.0000E+00  0.0000E+00
     -6.412  0.0000E+00  0.0000E+00  0.0000E+00
     -6.311  0.0000E+00  0.0000E+00  0.0000E+00
     -6.209  0.0000E+00  0.0000E+00  0.0000E+00
     -6.108  0.0000E+00  0.0000E+00  0.0000E+00
     -6.007  0.0000E+00  0.0000E+00  0.0000E+00
     -5.906  0.0000E+00  0.0000E+00  0.0000E+00
     -5.804  0.0000E+00  0.0000E+00  0.0000E+00
     -5.703  0.0000E+00  0.0000E+00  0.0000E+00
     -5.602  0.0000E+00  0.0000E+00  0.0000E+00
     -5.500  0.0000E+00  0.0000E+00  0.0000E+00
     -5.399  0.0000E+00  0.0000E+00  0.0000E+00
     -5.298  0.0000E+00  0.0000E+00  0.0000E+00
     -5.197  0.0000E+00  0.0000E+00  0.0000E+00
     -5.095  0.0000E+00  0.0000E+00  0.0000E+00
     -4.994  0.0000E+00  0.0000E+00  0.0000E+00
     -4.893  0.0000E+00  0.0000E+00  0.0000E+00
     -4.792  0.0000E+00  0.0000E+00  0.0000E+00
     -4.690  0.0000E+00  0.0000E+00  0.0000E+00
     -4.589  0.0000E+00  0.0000E+00  0.0000E+00
     -4.488  0.0000E+00  0.0000E+00  0.0000E+00
     -4.386  0.0000E+00  0.0000E+00  0.0000E+00
     -4.285  0.0000E+00  0.0000E+00  0.0000E+00
     -4.184  0.0000E+00  0.0000E+00  0.0000E+00
     -4.083  0.0000E+00  0.0000E+00  0.0000E+00
     -3.981  0.0000E+00  0.0000E+00  0.0000E+00
     -3.880  0.0000E+00  0.0000E+00  0.0000E+00
     -3.779  0.0000E+00  0.0000E+00  0.0000E+00
     -3.678  0.5977E-05  0.7577E-02  0.6071E-03
     -3.576  0.6466E-04  0.7275E-02  0.7388E-03
     -3.475  0.1448E-12  0.1102E-02  0.8713E-04
     -3.374  0.2561E-04  0.8356E-02  0.3922E-03
     -3.272  0.1508E-03  0.7705E-02  0.1226E-02
     -3.171  0.3078E-03  0.1323E-01  0.1363E-02
     -3.070  0.1040E-05  0.3144E-03  0.1358E-03
     -2.969  0.4062E-03  0.1966E-01  0.1239E-02
     -2.867  0.2624E-03  0.3435E-01  0.2723E-02
     -2.766  0.1253E-02  0.1667E-01  0.1224E-02
     -2.665  0.7995E-03  0.2073E-01  0.1818E-02
     -2.564  0.4454E-02  0.1544E-01  0.1909E-02
     -2.462  0.9270E-02  0.5430E-01  0.3276E-02
     -2.361  0.5348E-02  0.1150E-01  0.5434E-02
     -2.260  0.1003E-01  0.1648E-01  0.2545E-02
     -2.158  0.1070E-01  0.9066E-01  0.6089E-02
     -2.057  0.1194E-02  0.2401E-01  0.3325E-02
     -1.956  0.2221E-02  0.4726E-01  0.5523E-02
     -1.855  0.1811E-02  0.6743E-01  0.6434E-02
     -1.753  0.5552E-02  0.5028E-01  0.5141E-02
     -1.652  0.2887E-02  0.1012E+00  0.1554E-01
     -1.551  0.4973E-02  0.6025E-01  0.1843E-01
     -1.450  0.2650E-02  0.4600E-01  0.6797E-02
     -1.348  0.3172E-02  0.8244E-01  0.1400E-01
     -1.247  0.1162E-02  0.4091E-01  0.1226E-01
     -1.146  0.2800E-02  0.3941E-01  0.6774E-02
     -1.044  0.7038E-03  0.1372E-01  0.3378E-02
     -0.943  0.8726E-03  0.4019E-01  0.6020E-02
     -0.842  0.7131E-03  0.1302E-01  0.4816E-02
     -0.741  0.2129E-02  0.2895E-01  0.7435E-02
     -0.639  0.1136E-02  0.1094E-01  0.2948E-02
     -0.538  0.2349E-03  0.5139E-03  0.3182E-03
     -0.437  0.4944E-04  0.2265E-02  0.5942E-03
     -0.336  0.8822E-05  0.2924E-02  0.1047E-02
     -0.234  0.3247E-12  0.1774E-03  0.2020E-03
     -0.133  0.5070E-08  0.1012E-02  0.2819E-03
     -0.032  0.2979E-12  0.1354E-04  0.1967E-03
      0.070  0.0000E+00  0.0000E+00  0.0000E+00
      0.171  0.0000E+00  0.0000E+00  0.0000E+00
      0.272  0.1466E-12  0.9618E-05  0.1588E-03
      0.373  0.0000E+00  0.0000E+00  0.0000E+00
      0.475  0.0000E+00  0.0000E+00  0.0000E+00
      0.576  0.0000E+00  0.0000E+00  0.0000E+00
      0.677  0.0000E+00  0.0000E+00  0.0000E+00
      0.779  0.0000E+00  0.0000E+00  0.0000E+00
      0.880  0.0000E+00  0.0000E+00  0.0000E+00
      0.981  0.0000E+00  0.0000E+00  0.0000E+00
      1.082  0.0000E+00  0.0000E+00  0.0000E+00
      1.184  0.0000E+00  0.0000E+00  0.0000E+00
      1.285  0.0000E+00  0.0000E+00  0.0000E+00
      1.386  0.0000E+00  0.0000E+00  0.0000E+00
      1.487  0.0000E+00  0.0000E+00  0.0000E+00
      1.589  0.0000E+00  0.0000E+00  0.0000E+00
      1.690  0.0000E+00  0.0000E+00  0.0000E+00
      1.791  0.0000E+00  0.0000E+00  0.0000E+00
      1.893  0.0000E+00  0.0000E+00  0.0000E+00
      1.994  0.0000E+00  0.0000E+00  0.0000E+00
      2.095  0.0000E+00  0.0000E+00  0.0000E+00
      2.196  0.0000E+00  0.0000E+00  0.0000E+00
      2.298  0.0000E+00  0.0000E+00  0.0000E+00
      2.399  0.2210E-24  0.2128E-17  0.4561E-15
      2.500  0.4220E-05  0.9222E-04  0.8913E-03
      2.601  0.1599E-04  0.7315E-03  0.8956E-03
      2.703  0.4206E-04  0.1628E-02  0.2953E-02
      2.804  0.4063E-04  0.4590E-03  0.1869E-02
      2.905  0.3489E-04  0.8488E-03  0.1345E-02
      3.007  0.3803E-03  0.2228E-02  0.4075E-02
      3.108  0.4747E-03  0.9139E-03  0.7040E-03
      3.209  0.1098E-02  0.3321E-02  0.2954E-02
      3.310  0.1689E-05  0.1963E-05  0.6343E-05
      3.412  0.1041E-02  0.1401E-02  0.8777E-03
      3.513  0.0000E+00  0.0000E+00  0.0000E+00
      3.614  0.1475E-09  0.1240E-07  0.3179E-07
      3.715  0.1088E-03  0.1560E-02  0.4759E-02
      3.817  0.5929E-04  0.2067E-02  0.3818E-02
      3.918  0.2909E-04  0.4271E-03  0.2601E-02
      4.019  0.5935E-08  0.1101E-02  0.5486E-02
      4.121  0.3161E-03  0.7878E-03  0.4507E-02
      4.222  0.4580E-03  0.1657E-02  0.5367E-02
      4.323  0.1204E-02  0.3036E-02  0.1021E-01
      4.424  0.9549E-03  0.5098E-02  0.1392E-01
      4.526  0.1868E-02  0.4681E-02  0.9034E-02
      4.627  0.3678E-03  0.2690E-02  0.8159E-02
      4.728  0.5647E-02  0.4970E-02  0.9895E-02
      4.829  0.9895E-02  0.1322E-02  0.5773E-02
      4.931  0.6913E-03  0.1006E-03  0.1468E-02
      5.032  0.1221E-11  0.1631E-05  0.7514E-03
      5.133  0.0000E+00  0.0000E+00  0.0000E+00
      5.235  0.9884E-10  0.8637E-04  0.8527E-02
      5.336  0.1195E-01  0.2233E-02  0.5299E-02
      5.437  0.1639E-01  0.2219E-02  0.1434E-01
      5.538  0.2686E-02  0.2655E-02  0.1294E-01
      5.640  0.3224E-02  0.1312E-02  0.1677E-01
      5.741  0.8267E-02  0.1984E-02  0.2597E-01
      5.842  0.5747E-02  0.1165E-02  0.9631E-02
      5.943  0.5562E-01  0.1003E-01  0.1777E+00
      6.045  0.8148E-01  0.3133E-01  0.4832E+00
      6.146  0.6156E-01  0.6345E-02  0.2242E+00
      6.247  0.5198E-01  0.1020E-01  0.3188E+00
      6.349  0.2725E-01  0.1240E-01  0.3360E+00
      6.450  0.2571E-01  0.3002E-01  0.6109E+00
      6.551  0.4953E-02  0.1940E-01  0.2798E+00
      6.652  0.4213E-02  0.6667E-02  0.9543E-01
      6.754  0.0000E+00  0.0000E+00  0.0000E+00
      6.855  0.0000E+00  0.0000E+00  0.0000E+00
      6.956  0.0000E+00  0.0000E+00  0.0000E+00
      7.057  0.0000E+00  0.0000E+00  0.0000E+00
      7.159  0.0000E+00  0.0000E+00  0.0000E+00
      7.260  0.0000E+00  0.0000E+00  0.0000E+00
      7.361  0.0000E+00  0.0000E+00  0.0000E+00
      7.463  0.0000E+00  0.0000E+00  0.0000E+00
      7.564  0.0000E+00  0.0000E+00  0.0000E+00
      7.665  0.0000E+00  0.0000E+00  0.0000E+00
      7.766  0.0000E+00  0.0000E+00  0.0000E+00
      7.868  0.0000E+00  0.0000E+00  0.0000E+00
      7.969  0.0000E+00  0.0000E+00  0.0000E+00
      7.96894190    -22.41317421  301      0.32277601      1.00000000
    -22.413  0.0000E+00  0.0000E+00  0.0000E+00
    -22.312  0.0000E+00  0.0000E+00  0.0000E+00
    -22.211  0.0000E+00  0.0000E+00  0.0000E+00
    -22.109  0.0000E+00  0.0000E+00  0.0000E+00
    -22.008  0.0000E+00  0.0000E+00  0.0000E+00
    -21.907  0.0000E+00  0.0000E+00  0.0000E+00
    -21.806  0.0000E+00  0.0000E+00  0.0000E+00
    -21.704  0.0000E+00  0.0000E+00  0.0000E+00
    -21.603  0.0000E+00  0.0000E+00  0.0000E+00
    -21.502  0.0000E+00  0.0000E+00  0.0000E+00
    -21.400  0.0000E+00  0.0000E+00  0.0000E+00
    -21.299  0.0000E+00  0.0000E+00  0.0000E+00
    -21.198  0.0000E+00  0.0000E+00  0.0000E+00
    -21.097  0.0000E+00  0.0000E+00  0.0000E+00
    -20.995  0.3078E-03  0.5041E-07  0.3947E-08
    -20.894  0.1183E+02  0.4203E-04  0.5324E-06
    -20.793  0.0000E+00  0.0000E+00  0.0000E+00
    -20.692  0.0000E+00  0.0000E+00  0.0000E+00
    -20.590  0.0000E+00  0.0000E+00  0.0000E+00
    -20.489  0.0000E+00  0.0000E+00  0.0000E+00
    -20.388  0.0000E+00  0.0000E+00  0.0000E+00
    -20.286  0.0000E+00  0.0000E+00  0.0000E+00
    -20.185  0.0000E+00  0.0000E+00  0.0000E+00
    -20.084  0.0000E+00  0.0000E+00  0.0000E+00
    -19.983  0.0000E+00  0.0000E+00  0.0000E+00
    -19.881  0.0000E+00  0.0000E+00  0.0000E+00
    -19.780  0.0000E+00  0.0000E+00  0.0000E+00
    -19.679  0.0000E+00  0.0000E+00  0.0000E+00
    -19.578  0.0000E+00  0.0000E+00  0.0000E+00
    -19.476  0.0000E+00  0.0000E+00  0.0000E+00
    -19.375  0.0000E+00  0.0000E+00  0.0000E+00
    -19.274  0.0000E+00  0.0000E+00  0.0000E+00
    -19.172  0.0000E+00  0.0000E+00  0.0000E+00
    -19.071  0.0000E+00  0.0000E+00  0.0000E+00
    -18.970  0.0000E+00  0.0000E+00  0.0000E+00
    -18.869  0.0000E+00  0.0000E+00  0.0000E+00
    -18.767  0.0000E+00  0.0000E+00  0.0000E+00
    -18.666  0.0000E+00  0.0000E+00  0.0000E+00
    -18.565  0.0000E+00  0.0000E+00  0.0000E+00
    -18.463  0.0000E+00  0.0000E+00  0.0000E+00
    -18.362  0.0000E+00  0.0000E+00  0.0000E+00
    -18.261  0.0000E+00  0.0000E+00  0.0000E+00
    -18.160  0.0000E+00  0.0000E+00  0.0000E+00
    -18.058  0.0000E+00  0.0000E+00  0.0000E+00
    -17.957  0.0000E+00  0.0000E+00  0.0000E+00
    -17.856  0.0000E+00  0.0000E+00  0.0000E+00
    -17.755  0.0000E+00  0.0000E+00  0.0000E+00
    -17.653  0.0000E+00  0.0000E+00  0.0000E+00
    -17.552  0.0000E+00  0.0000E+00  0.0000E+00
    -17.451  0.0000E+00  0.0000E+00  0.0000E+00
    -17.349  0.0000E+00  0.0000E+00  0.0000E+00
    -17.248  0.0000E+00  0.0000E+00  0.0000E+00
    -17.147  0.0000E+00  0.0000E+00  0.0000E+00
    -17.046  0.0000E+00  0.0000E+00  0.0000E+00
    -16.944  0.4216E-12  0.7333E-13  0.8350E-14
    -16.843  0.4999E-04  0.2614E-04  0.4894E-05
    -16.742  0.2974E-04  0.1635E-04  0.2537E-05
    -16.641  0.2914E-05  0.1610E-05  0.2314E-06
    -16.539  0.3712E-04  0.2782E-04  0.5362E-05
    -16.438  0.1271E-04  0.4332E-04  0.8806E-05
    -16.337  0.5394E-04  0.3028E-04  0.3412E-05
    -16.235  0.0000E+00  0.0000E+00  0.0000E+00
    -16.134  0.0000E+00  0.0000E+00  0.0000E+00
    -16.033  0.0000E+00  0.0000E+00  0.0000E+00
    -15.932  0.0000E+00  0.0000E+00  0.0000E+00
    -15.830  0.0000E+00  0.0000E+00  0.0000E+00
    -15.729  0.0000E+00  0.0000E+00  0.0000E+00
    -15.628  0.0000E+00  0.0000E+00  0.0000E+00
    -15.527  0.0000E+00  0.0000E+00  0.0000E+00
    -15.425  0.0000E+00  0.0000E+00  0.0000E+00
    -15.324  0.0000E+00  0.0000E+00  0.0000E+00
    -15.223  0.0000E+00  0.0000E+00  0.0000E+00
    -15.121  0.0000E+00  0.0000E+00  0.0000E+00
    -15.020  0.0000E+00  0.0000E+00  0.0000E+00
    -14.919  0.4335E-05  0.3486E-05  0.9685E-07
    -14.818  0.4386E-11  0.1711E-05  0.1052E-05
    -14.716  0.1482E-03  0.5394E-04  0.5283E-06
    -14.615  0.5202E-03  0.5725E-03  0.3554E-04
    -14.514  0.1019E-03  0.4395E-04  0.1387E-05
    -14.413  0.2901E-02  0.1464E-02  0.4147E-04
    -14.311  0.2176E-02  0.4537E-02  0.2584E-03
    -14.210  0.1735E-02  0.7057E-02  0.3084E-03
    -14.109  0.2629E-02  0.5409E-02  0.4526E-03
    -14.007  0.1449E-02  0.3960E-02  0.5140E-03
    -13.906  0.1126E-02  0.4018E-02  0.5739E-03
    -13.805  0.1467E-03  0.5170E-03  0.9897E-04
    -13.704  0.2283E-21  0.4427E-14  0.1595E-15
    -13.602  0.6582E-05  0.1812E-03  0.2827E-04
    -13.501  0.0000E+00  0.0000E+00  0.0000E+00
    -13.400  0.0000E+00  0.0000E+00  0.0000E+00