<?xml version="1.0" encoding="ISO-8859-1"?>
<modeling>
 <generator>
  <i name="program" type="string">vasp </i>
  <i name="version" type="string">5.4.4.18Apr17-6-g9f103f2a35  </i>
  <i name="subversion" type="string">(build Jun 22 2020 09:27:21) complex            parallel </i>
  <i name="platform" type="string">tx2_gcc-7.3_libsci-18.07_cray-fftw-3.3.8 </i>
  <i name="date" type="string">2021 10 12 </i>
  <i name="time" type="string">05:51:58 </i>
 </generator>
 <incar>
  <i type="string" name="SYSTEM"> CsPbBr3 cubic bulk</i>
  <i type="string" name="PREC">accurate</i>
  <i type="string" name="ALGO"> NORMAL   ! Electronic minimisation algo</i>
  <i type="logical" name="ADDGRID"> T  </i>
  <i type="int" name="ISPIN">     1</i>
  <i type="int" name="NELM">   200</i>
  <i type="int" name="IBRION">     2</i>
  <i name="EDIFF">      0.00000100</i>
  <i name="EDIFFG">     -0.01000000</i>
  <i type="int" name="NSW">     0</i>
  <i type="int" name="ISIF">     2</i>
  <i type="int" name="ISYM">     0</i>
  <i name="ENCUT">    300.00000000</i>
  <i name="POTIM">      0.50000000</i>
  <i name="NUPDOWN">      0.00000000</i>
  <i name="NELECT">    344.00000000</i>
  <i type="string" name="LREAL"> AUTO</i>
  <i type="int" name="ISMEAR">     0</i>
  <i name="SIGMA">      0.01000000</i>
  <i type="logical" name="LWAVE"> F  </i>
  <i type="logical" name="LCHARG"> F  </i>
  <i type="logical" name="LVHAR"> T  </i>
  <i type="int" name="LORBIT">    10</i>
  <i type="logical" name="LASPH"> T  </i>
  <v type="int" name="KPOINT_BSE">    -1     0     0     0</v>
  <i type="int" name="NELM">   200</i>
  <i type="string" name="METAGGA"> SCAN       ! PBE exchange-correlation</i>
  <i type="logical" name="LASPH"> T  </i>
 </incar>
 <structure name="primitive_cell" >
  <crystal>
   <varray name="basis" >
    <v>       8.42001800       0.00000000       8.07798100 </v>
    <v>       0.00000000      11.76380800       0.00000000 </v>
    <v>      -8.42001800       0.00000000       8.07798100 </v>
   </varray>
   <i name="volume">   1600.27186790 </i>
   <varray name="rec_basis" >
    <v>       0.05938230      -0.00000000       0.06189665 </v>
    <v>       0.00000000       0.08500649      -0.00000000 </v>
    <v>      -0.05938230       0.00000000       0.06189665 </v>
   </varray>
  </crystal>
  <varray name="positions" >
   <v>       0.27040000       0.24999800       0.20782800 </v>
   <v>       0.04164800       0.04843000       0.25163300 </v>
   <v>       0.04164700       0.45156700       0.25163400 </v>
   <v>       0.45070900      -0.01385100       0.24516700 </v>
   <v>       0.45070800      -0.48615100       0.24516500 </v>
   <v>       0.46364400       0.25000400       0.47594200 </v>
   <v>      -0.46756400       0.24999600       0.01941600 </v>
   <v>       0.24744100       0.03693500      -0.04926600 </v>
   <v>       0.24744200       0.46306400      -0.04926600 </v>
   <v>      -0.04134100       0.25000200      -0.02997200 </v>
   <v>      -0.49966800      -0.49825200      -0.00217800 </v>
   <v>      -0.49966900      -0.00175200      -0.00218400 </v>
   <v>      -0.00183100      -0.49849600       0.00187400 </v>
   <v>      -0.00182900      -0.00151400       0.00187000 </v>
   <v>       0.03368500       0.25000000      -0.45397200 </v>
   <v>      -0.49750900      -0.00101800       0.49757400 </v>
   <v>      -0.49750500      -0.49897600       0.49757200 </v>
   <v>       0.25412800      -0.02419600      -0.44254800 </v>
   <v>       0.25412900      -0.47580000      -0.44254800 </v>
   <v>       0.00236600       0.00006100       0.49763500 </v>
   <v>       0.00236600       0.49993700       0.49763600 </v>
   <v>       0.29339500       0.25000100      -0.26856400 </v>
   <v>      -0.22013000       0.25000100       0.22505100 </v>
   <v>       0.46968200      -0.25000100       0.27697500 </v>
   <v>      -0.24997300       0.45313100       0.45771600 </v>
   <v>      -0.24997100       0.04687100       0.45771900 </v>
   <v>       0.04049000      -0.25000100       0.02370200 </v>
   <v>      -0.24954400      -0.03837800       0.04969700 </v>
   <v>      -0.24954300      -0.46162500       0.04969400 </v>
   <v>      -0.44603500       0.03236700      -0.25025800 </v>
   <v>      -0.44603500       0.46763500      -0.25025800 </v>
   <v>       0.46497200      -0.25000400      -0.05328800 </v>
   <v>      -0.05003400      -0.03054500      -0.25099300 </v>
   <v>      -0.05003600      -0.46945200      -0.25099400 </v>
   <v>      -0.02840800      -0.25000000       0.48152900 </v>
   <v>      -0.46267500      -0.24999300      -0.46309100 </v>
   <v>       0.20209800      -0.24999900      -0.23735200 </v>
   <v>      -0.22788900       0.25000100      -0.28902000 </v>
   <v>      -0.26592300      -0.24999900      -0.20905700 </v>
  </varray>
 </structure>
 <varray name="primitive_index" >
  <v type="int" >        1 </v>
  <v type="int" >       28 </v>
  <v type="int" >       38 </v>
  <v type="int" >       33 </v>
  <v type="int" >       25 </v>
  <v type="int" >       18 </v>
  <v type="int" >       21 </v>
  <v type="int" >       31 </v>
  <v type="int" >       23 </v>
  <v type="int" >       17 </v>
  <v type="int" >       11 </v>
  <v type="int" >        9 </v>
  <v type="int" >       13 </v>
  <v type="int" >        7 </v>
  <v type="int" >       22 </v>
  <v type="int" >        8 </v>
  <v type="int" >       14 </v>
  <v type="int" >       30 </v>
  <v type="int" >       36 </v>
  <v type="int" >       10 </v>
  <v type="int" >       12 </v>
  <v type="int" >        4 </v>
  <v type="int" >        5 </v>
  <v type="int" >       39 </v>
  <v type="int" >       24 </v>
  <v type="int" >       32 </v>
  <v type="int" >       19 </v>
  <v type="int" >       29 </v>
  <v type="int" >       35 </v>
  <v type="int" >       27 </v>
  <v type="int" >       37 </v>
  <v type="int" >       15 </v>
  <v type="int" >       34 </v>
  <v type="int" >       26 </v>
  <v type="int" >       16 </v>
  <v type="int" >       20 </v>
  <v type="int" >        3 </v>
  <v type="int" >        2 </v>
  <v type="int" >        6 </v>
 </varray>
 <kpoints>
  <generation param="Gamma">
   <v type="int" name="divisions">       2        2        2 </v>
   <v name="usershift">      0.00000000       0.00000000       0.00000000 </v>
   <v name="genvec1">      0.50000000       0.00000000       0.00000000 </v>
   <v name="genvec2">      0.00000000       0.50000000       0.00000000 </v>
   <v name="genvec3">      0.00000000       0.00000000       0.50000000 </v>
   <v name="shift">      0.00000000       0.00000000       0.00000000 </v>
  </generation>
  <varray name="kpointlist" >
   <v>       0.00000000       0.00000000       0.00000000 </v>
   <v>       0.50000000       0.00000000       0.00000000 </v>
   <v>       0.00000000       0.50000000       0.00000000 </v>
   <v>       0.50000000       0.50000000       0.00000000 </v>
   <v>       0.00000000       0.00000000       0.50000000 </v>
   <v>       0.50000000       0.00000000       0.50000000 </v>
   <v>       0.00000000       0.50000000       0.50000000 </v>
   <v>       0.50000000       0.50000000       0.50000000 </v>
  </varray>
  <varray name="weights" >
   <v>       0.12500000 </v>
   <v>       0.12500000 </v>
   <v>       0.12500000 </v>
   <v>       0.12500000 </v>
   <v>       0.12500000 </v>
   <v>       0.12500000 </v>
   <v>       0.12500000 </v>
   <v>       0.12500000 </v>
  </varray>
 </kpoints>
 <parameters>
  <separator name="general" >
   <i type="string" name="SYSTEM">CsPbBr3 cubic bulk</i>
   <i type="logical" name="LCOMPAT"> F  </i>
  </separator>
  <separator name="electronic" >
   <i type="string" name="PREC">accura</i>
   <i name="ENMAX">    300.00000000</i>
   <i name="ENAUG">    503.85200000</i>
   <i name="EDIFF">      0.00000100</i>
   <i type="int" name="IALGO">    38</i>
   <i type="int" name="IWAVPR">    10</i>
   <i type="int" name="NBANDS">   208</i>
   <i name="NELECT">    344.00000000</i>
   <i type="int" name="TURBO">     0</i>
   <i type="int" name="IRESTART">     0</i>
   <i type="int" name="NREBOOT">     0</i>
   <i type="int" name="NMIN">     0</i>
   <i name="EREF">      0.00000000</i>
   <separator name="electronic smearing" >
    <i type="int" name="ISMEAR">     0</i>
    <i name="SIGMA">      0.01000000</i>
    <i name="KSPACING">      0.50000000</i>
    <i type="logical" name="KGAMMA"> T  </i>
   </separator>
   <separator name="electronic projectors" >
    <i type="logical" name="LREAL"> T  </i>
    <v name="ROPT">     -0.00025000     -0.00025000     -0.00025000     -0.00025000</v>
    <i type="int" name="LMAXPAW">  -100</i>
    <i type="int" name="LMAXMIX">     2</i>
    <i type="logical" name="NLSPLINE"> F  </i>
   </separator>
   <separator name="electronic startup" >
    <i type="int" name="ISTART">     0</i>
    <i type="int" name="ICHARG">     2</i>
    <i type="int" name="INIWAV">     1</i>
   </separator>
   <separator name="electronic spin" >
    <i type="int" name="ISPIN">     1</i>
    <i type="logical" name="LNONCOLLINEAR"> F  </i>
    <v name="MAGMOM">      0.00000000      0.00000000      0.00000000      0.00000000      0.00000000      0.00000000      0.00000000      0.00000000      0.00000000      0.00000000      0.00000000      0.00000000      0.00000000      0.00000000      0.00000000      0.00000000      0.00000000      0.00000000      0.00000000      0.00000000
      0.00000000      0.00000000      0.00000000      0.00000000      0.00000000      0.00000000      0.00000000      0.00000000      0.00000000      0.00000000      0.00000000      0.00000000      0.00000000      0.00000000      0.00000000      0.00000000      0.00000000      0.00000000      0.00000000</v>
    <i name="NUPDOWN">      0.00000000</i>
    <i type="logical" name="LSORBIT"> F  </i>
    <v name="SAXIS">      0.00000000      0.00000000      1.00000000</v>
    <i type="logical" name="LSPIRAL"> F  </i>
    <v name="QSPIRAL">      0.00000000      0.00000000      0.00000000</v>
    <i type="logical" name="LZEROZ"> F  </i>
   </separator>
   <separator name="electronic exchange-correlation" >
    <i type="logical" name="LASPH"> T  </i>
    <i type="logical" name="LMETAGGA"> F  </i>
   </separator>
   <separator name="electronic convergence" >
    <i type="int" name="NELM">   200</i>
    <i type="int" name="NELMDL">    -5</i>
    <i type="int" name="NELMIN">     2</i>
    <i name="ENINI">    300.00000000</i>
    <separator name="electronic convergence detail" >
     <i type="logical" name="LDIAG"> T  </i>
     <i type="logical" name="LSUBROT"> F  </i>
     <i name="WEIMIN">      0.00000000</i>
     <i name="EBREAK">      0.00000000</i>
     <i name="DEPER">      0.30000000</i>
     <i type="int" name="NRMM">     4</i>
     <i name="TIME">      0.40000000</i>
    </separator>
   </separator>
   <separator name="electronic mixer" >
    <i name="AMIX">      0.40000000</i>
    <i name="BMIX">      1.00000000</i>
    <i name="AMIN">      0.10000000</i>
    <i name="AMIX_MAG">      1.60000000</i>
    <i name="BMIX_MAG">      1.00000000</i>
    <separator name="electronic mixer details" >
     <i type="int" name="IMIX">     4</i>
     <i type="logical" name="MIXFIRST"> F  </i>
     <i type="int" name="MAXMIX">   -45</i>
     <i name="WC">    100.00000000</i>
     <i type="int" name="INIMIX">     1</i>
     <i type="int" name="MIXPRE">     1</i>
     <i type="int" name="MREMOVE">     5</i>
    </separator>
   </separator>
   <separator name="electronic dipolcorrection" >
    <i type="logical" name="LDIPOL"> F  </i>
    <i type="logical" name="LMONO"> F  </i>
    <i type="int" name="IDIPOL">     0</i>
    <i name="EPSILON">      1.00000000</i>
    <v name="DIPOL">   -100.00000000   -100.00000000   -100.00000000</v>
    <i name="EFIELD">      0.00000000</i>
   </separator>
  </separator>
  <separator name="grids" >
   <i type="int" name="NGX">    70</i>
   <i type="int" name="NGY">    70</i>
   <i type="int" name="NGZ">    70</i>
   <i type="int" name="NGXF">   140</i>
   <i type="int" name="NGYF">   140</i>
   <i type="int" name="NGZF">   140</i>
   <i type="logical" name="ADDGRID"> T  </i>
  </separator>
  <separator name="ionic" >
   <i type="int" name="NSW">     0</i>
   <i type="int" name="IBRION">    -1</i>
   <i type="int" name="MDALGO">     0</i>
   <i type="int" name="ISIF">     2</i>
   <i name="PSTRESS">      0.00000000</i>
   <i name="EDIFFG">     -0.01000000</i>
   <i type="int" name="NFREE">     1</i>
   <i name="POTIM">      0.50000000</i>
   <i name="SMASS">     -3.00000000</i>
   <i name="SCALEE">      1.00000000</i>
  </separator>
  <separator name="ionic md" >
   <i name="TEBEG">      0.00010000</i>
   <i name="TEEND">      0.00010000</i>
   <i type="int" name="NBLOCK">     1</i>
   <i type="int" name="KBLOCK">     1</i>
   <i type="int" name="NPACO">   256</i>
   <i name="APACO">     16.00000000</i>
  </separator>
  <separator name="symmetry" >
   <i type="int" name="ISYM">     0</i>
   <i name="SYMPREC">      0.00001000</i>
  </separator>
  <separator name="dos" >
   <i type="int" name="LORBIT">    10</i>
   <v name="RWIGS">     -1.00000000     -1.00000000     -1.00000000     -1.00000000</v>
   <i type="int" name="NEDOS">   301</i>
   <i name="EMIN">     10.00000000</i>
   <i name="EMAX">    -10.00000000</i>
   <i name="EFERMI">      0.00000000</i>
  </separator>
  <separator name="writing" >
   <i type="int" name="NWRITE">     2</i>
   <i type="logical" name="LWAVE"> F  </i>
   <i type="logical" name="LDOWNSAMPLE"> F  </i>
   <i type="logical" name="LCHARG"> F  </i>
   <i type="logical" name="LPARD"> F  </i>
   <i type="logical" name="LVTOT"> F  </i>
   <i type="logical" name="LVHAR"> T  </i>
   <i type="logical" name="LELF"> F  </i>
   <i type="logical" name="LOPTICS"> F  </i>
   <v name="STM">      0.00000000      0.00000000      0.00000000      0.00000000      0.00000000      0.00000000      0.00000000</v>
  </separator>
  <separator name="performance" >
   <i type="int" name="NPAR">     8</i>
   <i type="int" name="NSIM">     4</i>
   <i type="int" name="NBLK">    -1</i>
   <i type="logical" name="LPLANE"> T  </i>
   <i type="logical" name="LSCALAPACK"> T  </i>
   <i type="logical" name="LSCAAWARE"> F  </i>
   <i type="logical" name="LSCALU"> F  </i>
   <i type="logical" name="LASYNC"> F  </i>
   <i type="logical" name="LORBITALREAL"> F  </i>
  </separator>
  <separator name="miscellaneous" >
   <i type="int" name="IDIOT">     3</i>
   <i type="int" name="ISPECIAL">     0</i>
   <i type="logical" name="LMUSIC"> F  </i>
   <v name="POMASS">    132.90000000    207.20000000     79.90400000    132.90000000</v>
   <v name="DARWINR">      0.00000000      0.00000000      0.00000000      0.00000000</v>
   <v name="DARWINV">      1.00000000      1.00000000      1.00000000      1.00000000</v>
   <i type="logical" name="LCORR"> T  </i>
  </separator>
  <i type="logical" name="GGA_COMPAT"> T  </i>
  <i type="logical" name="LBERRY"> F  </i>
  <i type="int" name="ICORELEVEL">     0</i>
  <i type="logical" name="LDAU"> F  </i>
  <i type="int" name="I_CONSTRAINED_M">     0</i>
  <separator name="electronic exchange-correlation" >
   <i type="string" name="GGA">--</i>
   <i type="int" name="VOSKOWN">     0</i>
   <i type="logical" name="LHFCALC"> F  </i>
   <i type="string" name="PRECFOCK"></i>
   <i type="logical" name="LSYMGRAD"> F  </i>
   <i type="logical" name="LHFONE"> F  </i>
   <i type="logical" name="LRHFCALC"> F  </i>
   <i type="logical" name="LTHOMAS"> F  </i>
   <i type="logical" name="LMODELHF"> F  </i>
   <i name="ENCUT4O">     -1.00000000</i>
   <i type="int" name="EXXOEP">     0</i>
   <i type="int" name="FOURORBIT">     0</i>
   <i name="AEXX">      0.00000000</i>
   <i name="HFALPHA">      0.00000000</i>
   <i name="MCALPHA">      0.00000000</i>
   <i name="ALDAX">      1.00000000</i>
   <i name="AGGAX">      1.00000000</i>
   <i name="ALDAC">      1.00000000</i>
   <i name="AGGAC">      1.00000000</i>
   <i type="int" name="NKREDX">     1</i>
   <i type="int" name="NKREDY">     1</i>
   <i type="int" name="NKREDZ">     1</i>
   <i type="logical" name="SHIFTRED"> F  </i>
   <i type="logical" name="ODDONLY"> F  </i>
   <i type="logical" name="EVENONLY"> F  </i>
   <i type="int" name="LMAXFOCK">     0</i>
   <i type="int" name="NMAXFOCKAE">     0</i>
   <i type="logical" name="LFOCKAEDFT"> F  </i>
   <i name="HFSCREEN">      0.00000000</i>
   <i name="HFSCREENC">      0.00000000</i>
   <i type="int" name="NBANDSGWLOW">     0</i>
  </separator>
  <separator name="vdW DFT" >
   <i type="logical" name="LUSE_VDW"> F  </i>
   <i name="Zab_VDW">     -0.84910000</i>
   <i name="PARAM1">      0.12340000</i>
   <i name="PARAM2">      1.00000000</i>
   <i name="PARAM3">      0.00000000</i>
  </separator>
  <separator name="model GW" >
   <i type="int" name="MODEL_GW">     0</i>
   <i name="MODEL_EPS0">     24.61956720</i>
   <i name="MODEL_ALPHA">      1.00000000</i>
  </separator>
  <separator name="linear response parameters" >
   <i type="logical" name="LEPSILON"> F  </i>
   <i type="logical" name="LRPA"> F  </i>
   <i type="logical" name="LNABLA"> F  </i>
   <i type="logical" name="LVEL"> F  </i>
   <i type="int" name="KINTER">     0</i>
   <i name="CSHIFT">      0.10000000</i>
   <i name="OMEGAMAX">     -1.00000000</i>
   <i name="DEG_THRESHOLD">      0.00200000</i>
   <i name="RTIME">     -0.10000000</i>
   <i name="WPLASMAI">      0.00000000</i>
   <v name="DFIELD">      0.00000000      0.00000000      0.00000000</v>
   <v name="WPLASMA">      0.00000000      0.00000000      0.00000000      0.00000000      0.00000000      0.00000000      0.00000000      0.00000000      0.00000000</v>
  </separator>
  <separator name="orbital magnetization" >
   <i type="logical" name="NUCIND"> F  </i>
   <v name="MAGPOS">      0.00000000      0.00000000      0.00000000</v>
   <i type="logical" name="LNICSALL"> T  </i>
   <i type="logical" name="ORBITALMAG"> F  </i>
   <i type="logical" name="LMAGBLOCH"> F  </i>
   <i type="logical" name="LCHIMAG"> F  </i>
   <i type="logical" name="LGAUGE"> T  </i>
   <i type="int" name="MAGATOM">     0</i>
   <v name="MAGDIPOL">      0.00000000      0.00000000      0.00000000</v>
   <v name="AVECCONST">      0.00000000      0.00000000      0.00000000</v>
  </separator>
  <separator name="response functions" >
   <i type="logical" name="LADDER"> F  </i>
   <i type="logical" name="LRPAFORCE"> F  </i>
   <i type="logical" name="LFXC"> F  </i>
   <i type="logical" name="LHARTREE"> T  </i>
   <i type="int" name="IBSE">     0</i>
   <v type="int" name="KPOINT">    -1     0     0     0</v>
   <i type="logical" name="LTCTE"> F  </i>
   <i type="logical" name="LTETE"> F  </i>
   <i type="logical" name="LTRIPLET"> F  </i>
   <i type="logical" name="LFXCEPS"> F  </i>
   <i type="logical" name="LFXHEG"> F  </i>
   <i type="int" name="NATURALO">     2</i>
   <i type="logical" name="L2ORDER"> F  </i>
   <i type="logical" name="LMP2LT"> F  </i>
   <i type="logical" name="LUSEW"> F  </i>
   <i name="ENCUTGW">     -2.00000000</i>
   <i name="ENCUTGWSOFT">     -2.00000000</i>
   <i name="ENCUTLF">     -1.00000000</i>
   <i type="int" name="LMAXMP2">    -1</i>
   <i name="SCISSOR">      0.00000000</i>
   <i type="int" name="NOMEGA">     0</i>
   <i type="int" name="NOMEGAR">     0</i>
   <i type="int" name="NBANDSGW">    -1</i>
   <i type="int" name="NBANDSO">    -1</i>
   <i type="int" name="NBANDSV">    -1</i>
   <i type="int" name="NELM">   200</i>
   <i type="int" name="NELMHF">     1</i>
   <i type="int" name="DIM">     3</i>
   <i type="int" name="ANTIRES">     0</i>
   <i name="OMEGAMAX">    -30.00000000</i>
   <i name="OMEGAMIN">    -30.00000000</i>
   <i name="OMEGATL">   -200.00000000</i>
   <i type="int" name="OMEGAGRID">   140</i>
   <i name="CSHIFT">     -0.10000000</i>
   <i type="logical" name="SELFENERGY"> F  </i>
   <i type="logical" name="LSPECTRAL"> F  </i>
   <i type="logical" name="LSPECTRALGW"> F  </i>
   <i type="logical" name="LSINGLES"> F  </i>
   <i type="logical" name="LFERMIGW"> F  </i>
   <i type="logical" name="ODDONLYGW"> F  </i>
   <i type="logical" name="EVENONLYGW"> F  </i>
   <i type="int" name="NKREDLFX">     1</i>
   <i type="int" name="NKREDLFY">     1</i>
   <i type="int" name="NKREDLFZ">     1</i>
   <i type="int" name="MAXMEM">  2800</i>
   <i type="int" name="TELESCOPE">     0</i>
   <i type="int" name="TAUPAR">     1</i>
   <i type="int" name="OMEGAPAR">    -1</i>
   <i name="LAMBDA">      1.00000000</i>
  </separator>
  <separator name="External order field" >
   <i name="OFIELD_KAPPA">      0.00000000</i>
   <v name="OFIELD_K">      0.00000000      0.00000000      0.00000000</v>
   <i name="OFIELD_Q6_NEAR">      0.00000000</i>
   <i name="OFIELD_Q6_FAR">      0.00000000</i>
   <i name="OFIELD_A">      0.00000000</i>
  </separator>
 </parameters>
 <atominfo>
  <atoms>      39 </atoms>
  <types>       4 </types>
  <array name="atoms" >
   <dimension dim="1">ion</dimension>
   <field type="string">element</field>
   <field type="int">atomtype</field>
   <set>
    <rc><c>Cs</c><c>   1</c></rc>
    <rc><c>Cs</c><c>   1</c></rc>
    <rc><c>Cs</c><c>   1</c></rc>
    <rc><c>Cs</c><c>   1</c></rc>
    <rc><c>Cs</c><c>   1</c></rc>
    <rc><c>Cs</c><c>   1</c></rc>
    <rc><c>Pb</c><c>   2</c></rc>
    <rc><c>Pb</c><c>   2</c></rc>
    <rc><c>Pb</c><c>   2</c></rc>
    <rc><c>Pb</c><c>   2</c></rc>
    <rc><c>Pb</c><c>   2</c></rc>
    <rc><c>Pb</c><c>   2</c></rc>
    <rc><c>Pb</c><c>   2</c></rc>
    <rc><c>Pb</c><c>   2</c></rc>
    <rc><c>Br</c><c>   3</c></rc>
    <rc><c>Br</c><c>   3</c></rc>
    <rc><c>Br</c><c>   3</c></rc>
    <rc><c>Br</c><c>   3</c></rc>
    <rc><c>Br</c><c>   3</c></rc>
    <rc><c>Br</c><c>   3</c></rc>
    <rc><c>Br</c><c>   3</c></rc>
    <rc><c>Br</c><c>   3</c></rc>
    <rc><c>Br</c><c>   3</c></rc>
    <rc><c>Br</c><c>   3</c></rc>
    <rc><c>Br</c><c>   3</c></rc>
    <rc><c>Br</c><c>   3</c></rc>
    <rc><c>Br</c><c>   3</c></rc>
    <rc><c>Br</c><c>   3</c></rc>
    <rc><c>Br</c><c>   3</c></rc>
    <rc><c>Br</c><c>   3</c></rc>
    <rc><c>Br</c><c>   3</c></rc>
    <rc><c>Br</c><c>   3</c></rc>
    <rc><c>Br</c><c>   3</c></rc>
    <rc><c>Br</c><c>   3</c></rc>
    <rc><c>Br</c><c>   3</c></rc>
    <rc><c>Br</c><c>   3</c></rc>
    <rc><c>Br</c><c>   3</c></rc>
    <rc><c>Br</c><c>   3</c></rc>
    <rc><c>Cs</c><c>   4</c></rc>
   </set>
  </array>
  <array name="atomtypes" >
   <dimension dim="1">type</dimension>
   <field type="int">atomspertype</field>
   <field type="string">element</field>
   <field>mass</field>
   <field>valence</field>
   <field type="string">pseudopotential</field>
   <set>
    <rc><c>   6</c><c>Cs</c><c>    132.90000000</c><c>      9.00000000</c><c>  PAW_PBE Cs_sv 08Apr2002               </c></rc>
    <rc><c>   8</c><c>Pb</c><c>    207.20000000</c><c>     14.00000000</c><c>  PAW_PBE Pb_d 06Sep2000                </c></rc>
    <rc><c>  24</c><c>Br</c><c>     79.90400000</c><c>      7.00000000</c><c>  PAW_PBE Br 06Sep2000                  </c></rc>
    <rc><c>   1</c><c>Cs</c><c>    132.90000000</c><c>      9.00000000</c><c>  PAW_PBE Cs_sv 08Apr2002               </c></rc>
   </set>
  </array>
 </atominfo>
 <structure name="initialpos" >
  <crystal>
   <varray name="basis" >
    <v>       8.42001800       0.00000000       8.07798100 </v>
    <v>       0.00000000      11.76380800       0.00000000 </v>
    <v>      -8.42001800       0.00000000       8.07798100 </v>
   </varray>
   <i name="volume">   1600.27186790 </i>
   <varray name="rec_basis" >
    <v>       0.05938230      -0.00000000       0.06189665 </v>
    <v>       0.00000000       0.08500649      -0.00000000 </v>
    <v>      -0.05938230       0.00000000       0.06189665 </v>
   </varray>
  </crystal>
  <varray name="positions" >
   <v>       0.27040000       0.24999800       0.20782800 </v>
   <v>       0.77211100       0.25000100       0.71098000 </v>
   <v>       0.20209800       0.75000100       0.76264800 </v>
   <v>       0.29339500       0.25000100       0.73143600 </v>
   <v>       0.77987000       0.25000100       0.22505100 </v>
   <v>       0.73407700       0.75000100       0.79094300 </v>
   <v>       0.99817100       0.99848600       0.00187000 </v>
   <v>       0.50249100       0.99898200       0.49757400 </v>
   <v>       0.50033100       0.99824800       0.99781600 </v>
   <v>       0.00236600       0.00006100       0.49763500 </v>
   <v>       0.50033200       0.50174800       0.99782200 </v>
   <v>       0.00236600       0.49993700       0.49763600 </v>
   <v>       0.99816900       0.50150400       0.00187400 </v>
   <v>       0.50249500       0.50102400       0.49757200 </v>
   <v>       0.46497200       0.74999600       0.94671200 </v>
   <v>       0.97159200       0.75000000       0.48152900 </v>
   <v>       0.95865900       0.25000200       0.97002800 </v>
   <v>       0.46364400       0.25000400       0.47594200 </v>
   <v>       0.04049000       0.74999900       0.02370200 </v>
   <v>       0.53732500       0.75000700       0.53690900 </v>
   <v>       0.53243600       0.24999600       0.01941600 </v>
   <v>       0.03368500       0.25000000       0.54602800 </v>
   <v>       0.24744200       0.46306400       0.95073400 </v>
   <v>       0.75002700       0.45313100       0.45771600 </v>
   <v>       0.45070800       0.51384900       0.24516500 </v>
   <v>       0.94996400       0.53054800       0.74900600 </v>
   <v>       0.55396500       0.03236700       0.74974200 </v>
   <v>       0.04164800       0.04843000       0.25163300 </v>
   <v>       0.75045600       0.96162200       0.04969700 </v>
   <v>       0.25412800       0.97580400       0.55745200 </v>
   <v>       0.24744100       0.03693500       0.95073400 </v>
   <v>       0.75002900       0.04687100       0.45771900 </v>
   <v>       0.45070900       0.98614900       0.24516700 </v>
   <v>       0.94996600       0.96945500       0.74900700 </v>
   <v>       0.75045700       0.53837500       0.04969400 </v>
   <v>       0.25412900       0.52420000       0.55745200 </v>
   <v>       0.55396500       0.46763500       0.74974200 </v>
   <v>       0.04164700       0.45156700       0.25163400 </v>
   <v>       0.46968200       0.74999900       0.27697500 </v>
  </varray>
 </structure>
 <calculation>
  <scstep>
   <time name="dav">   16.52   16.52</time>
   <time name="total">   17.99   18.00</time>
   <energy>
    <i name="alphaZ">    835.99855037 </i>
    <i name="ewald"> -17369.21099798 </i>
    <i name="hartreedc">  -7751.32087050 </i>
    <i name="XCdc">    906.02995851 </i>
    <i name="pawpsdc">  21217.07306836 </i>
    <i name="pawaedc"> -22257.58625956 </i>
    <i name="eentropy">     -0.00066855 </i>
    <i name="bandstr">   -243.31472898 </i>
    <i name="atom">  26024.88362379 </i>
    <i name="e_fr_energy">   1362.55167545 </i>
    <i name="e_wo_entrp">   1362.55234401 </i>
    <i name="e_0_energy">   1362.55200973 </i>
   </energy>
  </scstep>
  <scstep>
   <time name="dav">   18.37   18.39</time>
   <time name="total">   18.37   18.39</time>
   <energy>
    <i name="e_fr_energy">  -1088.19430575 </i>
    <i name="e_wo_entrp">  -1088.19430575 </i>
    <i name="e_0_energy">  -1088.19430575 </i>
   </energy>
  </scstep>
  <scstep>
   <time name="dav">   19.19   19.22</time>
   <time name="total">   19.19   19.22</time>
   <energy>
    <i name="e_fr_energy">  -1451.16149590 </i>
    <i name="e_wo_entrp">  -1451.16149590 </i>
    <i name="e_0_energy">  -1451.16149590 </i>
   </energy>
  </scstep>
  <scstep>
   <time name="dav">   17.96   18.01</time>
   <time name="total">   17.96   18.01</time>
   <energy>
    <i name="e_fr_energy">  -1463.51731124 </i>
    <i name="e_wo_entrp">  -1463.51731124 </i>
    <i name="e_0_energy">  -1463.51731124 </i>
   </energy>
  </scstep>
  <scstep>
   <time name="dav">   19.07   19.13</time>
   <time name="total">   21.79   21.85</time>
   <energy>
    <i name="e_fr_energy">  -1464.05928609 </i>
    <i name="e_wo_entrp">  -1464.05928609 </i>
    <i name="e_0_energy">  -1464.05928609 </i>
   </energy>
  </scstep>
  <scstep>
   <time name="dav">   19.13   19.13</time>
   <time name="total">   23.28   23.32</time>
   <energy>
    <i name="e_fr_energy">  -1384.96324302 </i>
    <i name="e_wo_entrp">  -1384.96324302 </i>
    <i name="e_0_energy">  -1384.96324302 </i>
   </energy>
  </scstep>
  <scstep>
   <time name="dav">   18.53   18.53</time>
   <time name="total">   22.73   22.74</time>
   <energy>
    <i name="e_fr_energy">  -1384.55933685 </i>
    <i name="e_wo_entrp">  -1384.55933685 </i>
    <i name="e_0_energy">  -1384.55933685 </i>
   </energy>
  </scstep>
  <scstep>
   <time name="dav">   17.89   17.89</time>
   <time name="total">   22.03   22.09</time>
   <energy>
    <i name="e_fr_energy">  -1384.74277206 </i>
    <i name="e_wo_entrp">  -1384.74277206 </i>
    <i name="e_0_energy">  -1384.74277206 </i>
   </energy>
  </scstep>
  <scstep>
   <time name="dav">   17.13   17.13</time>
   <time name="total">   21.29   21.29</time>
   <energy>
    <i name="e_fr_energy">  -1384.82826783 </i>
    <i name="e_wo_entrp">  -1384.82826783 </i>
    <i name="e_0_energy">  -1384.82826783 </i>
   </energy>
  </scstep>
  <scstep>
   <time name="dav">   20.06   20.07</time>
   <time name="total">   24.22   24.26</time>
   <energy>
    <i name="e_fr_energy">  -1384.83074752 </i>
    <i name="e_wo_entrp">  -1384.83074752 </i>
    <i name="e_0_energy">  -1384.83074752 </i>
   </energy>
  </scstep>
  <scstep>
   <time name="dav">   17.29   17.29</time>
   <time name="total">   21.49   21.50</time>
   <energy>
    <i name="e_fr_energy">  -1384.83393367 </i>
    <i name="e_wo_entrp">  -1384.83393367 </i>
    <i name="e_0_energy">  -1384.83393367 </i>
   </energy>
  </scstep>
  <scstep>
   <time name="dav">   17.28   17.28</time>
   <time name="total">   21.45   21.61</time>
   <energy>
    <i name="e_fr_energy">  -1384.83609177 </i>
    <i name="e_wo_entrp">  -1384.83609177 </i>
    <i name="e_0_energy">  -1384.83609177 </i>
   </energy>
  </scstep>
  <scstep>
   <time name="dav">   19.45   19.45</time>
   <time name="total">   23.64   23.66</time>
   <energy>
    <i name="e_fr_energy">  -1384.83592932 </i>
    <i name="e_wo_entrp">  -1384.83592932 </i>
    <i name="e_0_energy">  -1384.83592932 </i>
   </energy>
  </scstep>
  <scstep>
   <time name="dav">   17.49   17.49</time>
   <time name="total">   21.68   21.70</time>
   <energy>
    <i name="e_fr_energy">  -1384.83592643 </i>
    <i name="e_wo_entrp">  -1384.83592643 </i>
    <i name="e_0_energy">  -1384.83592643 </i>
   </energy>
  </scstep>
  <scstep>
   <time name="dav">   16.87   16.87</time>
   <time name="total">   21.03   21.06</time>
   <energy>
    <i name="e_fr_energy">  -1384.83593496 </i>
    <i name="e_wo_entrp">  -1384.83593496 </i>
    <i name="e_0_energy">  -1384.83593496 </i>
   </energy>
  </scstep>
  <scstep>
   <time name="dav">   17.23   17.23</time>
   <time name="total">   21.41   21.44</time>
   <energy>
    <i name="e_fr_energy">  -1384.83599370 </i>
    <i name="e_wo_entrp">  -1384.83599370 </i>
    <i name="e_0_energy">  -1384.83599370 </i>
   </energy>
  </scstep>
  <scstep>
   <time name="dav">   16.42   16.42</time>
   <time name="total">   20.58   20.64</time>
   <energy>
    <i name="e_fr_energy">  -1384.83599567 </i>
    <i name="e_wo_entrp">  -1384.83599567 </i>
    <i name="e_0_energy">  -1384.83599567 </i>
   </energy>
  </scstep>
  <scstep>
   <time name="dav">   13.47   13.47</time>
   <time name="total">   17.66   17.68</time>
   <energy>
    <i name="e_fr_energy">  -1384.83599298 </i>
    <i name="e_wo_entrp">  -1384.83599298 </i>
    <i name="e_0_energy">  -1384.83599298 </i>
   </energy>
  </scstep>
  <scstep>
   <time name="dav">   13.36   13.36</time>
   <time name="total">   14.83   14.88</time>
   <energy>
    <i name="alphaZ">    835.99855037 </i>
    <i name="ewald"> -17369.21099798 </i>
    <i name="hartreedc">  -7786.54487435 </i>
    <i name="XCdc">    947.94250430 </i>
    <i name="pawpsdc">  22851.84289541 </i>
    <i name="pawaedc"> -23891.31637158 </i>
    <i name="eentropy">     -0.00000000 </i>
    <i name="bandstr">  -2998.43132362 </i>
    <i name="atom">  26024.88362379 </i>
    <i name="e_fr_energy">  -1384.83599367 </i>
    <i name="e_wo_entrp">  -1384.83599367 </i>
    <i name="e_0_energy">  -1384.83599367 </i>
   </energy>
  </scstep>
  <structure>
   <crystal>
    <varray name="basis" >
     <v>       8.42001800       0.00000000       8.07798100 </v>
     <v>       0.00000000      11.76380800       0.00000000 </v>
     <v>      -8.42001800       0.00000000       8.07798100 </v>
    </varray>
    <i name="volume">   1600.27186790 </i>
    <varray name="rec_basis" >
     <v>       0.05938230      -0.00000000       0.06189665 </v>
     <v>       0.00000000       0.08500649      -0.00000000 </v>
     <v>      -0.05938230       0.00000000       0.06189665 </v>
    </varray>
   </crystal>
   <varray name="positions" >
    <v>       0.27040000       0.24999800       0.20782800 </v>
    <v>       0.77211100       0.25000100       0.71098000 </v>
    <v>       0.20209800       0.75000100       0.76264800 </v>
    <v>       0.29339500       0.25000100       0.73143600 </v>
    <v>       0.77987000       0.25000100       0.22505100 </v>
    <v>       0.73407700       0.75000100       0.79094300 </v>
    <v>       0.99817100       0.99848600       0.00187000 </v>
    <v>       0.50249100       0.99898200       0.49757400 </v>
    <v>       0.50033100       0.99824800       0.99781600 </v>
    <v>       0.00236600       0.00006100       0.49763500 </v>
    <v>       0.50033200       0.50174800       0.99782200 </v>
    <v>       0.00236600       0.49993700       0.49763600 </v>
    <v>       0.99816900       0.50150400       0.00187400 </v>
    <v>       0.50249500       0.50102400       0.49757200 </v>
    <v>       0.46497200       0.74999600       0.94671200 </v>
    <v>       0.97159200       0.75000000       0.48152900 </v>
    <v>       0.95865900       0.25000200       0.97002800 </v>
    <v>       0.46364400       0.25000400       0.47594200 </v>
    <v>       0.04049000       0.74999900       0.02370200 </v>
    <v>       0.53732500       0.75000700       0.53690900 </v>
    <v>       0.53243600       0.24999600       0.01941600 </v>
    <v>       0.03368500       0.25000000       0.54602800 </v>
    <v>       0.24744200       0.46306400       0.95073400 </v>
    <v>       0.75002700       0.45313100       0.45771600 </v>
    <v>       0.45070800       0.51384900       0.24516500 </v>
    <v>       0.94996400       0.53054800       0.74900600 </v>
    <v>       0.55396500       0.03236700       0.74974200 </v>
    <v>       0.04164800       0.04843000       0.25163300 </v>
    <v>       0.75045600       0.96162200       0.04969700 </v>
    <v>       0.25412800       0.97580400       0.55745200 </v>
    <v>       0.24744100       0.03693500       0.95073400 </v>
    <v>       0.75002900       0.04687100       0.45771900 </v>
    <v>       0.45070900       0.98614900       0.24516700 </v>
    <v>       0.94996600       0.96945500       0.74900700 </v>
    <v>       0.75045700       0.53837500       0.04969400 </v>
    <v>       0.25412900       0.52420000       0.55745200 </v>
    <v>       0.55396500       0.46763500       0.74974200 </v>
    <v>       0.04164700       0.45156700       0.25163400 </v>
    <v>       0.46968200       0.74999900       0.27697500 </v>
   </varray>
  </structure>
  <varray name="forces" >
   <v>       0.00642036      -0.00000114      -0.02787541 </v>
   <v>       0.03774691      -0.00000164       0.02806153 </v>
   <v>      -0.04337880      -0.00001525      -0.07655756 </v>
   <v>      -0.00197796      -0.00000004      -0.02195809 </v>
   <v>       0.05207853      -0.00006401       0.04143110 </v>
   <v>       0.04459187      -0.00002680       0.08595092 </v>
   <v>      -0.03536417      -0.07249665       0.02876772 </v>
   <v>      -0.25041077       0.36906460       0.31734046 </v>
   <v>       0.24227954       0.13607812      -0.07333890 </v>
   <v>       0.01309039      -0.16542632      -0.06396037 </v>
   <v>       0.24247495      -0.13580531      -0.07375175 </v>
   <v>       0.01303952       0.16545559      -0.06380348 </v>
   <v>      -0.03521365       0.07250641       0.02871255 </v>
   <v>      -0.25057749      -0.36908024       0.31742407 </v>
   <v>      -0.07372621      -0.00001240       0.05295436 </v>
   <v>      -0.01769352      -0.00001713       0.05286694 </v>
   <v>       0.00845093      -0.00010715      -0.00811151 </v>
   <v>       0.02422805       0.00005580      -0.02474302 </v>
   <v>       0.04314169       0.00009371      -0.01436219 </v>
   <v>      -0.48396278      -0.00007221       0.84033133 </v>
   <v>      -0.03158833       0.00001000      -0.02518786 </v>
   <v>      -0.00806915       0.00000433       0.02112051 </v>
   <v>       0.05082862      -0.00310526       0.03137865 </v>
   <v>      -0.10576014      -0.00417745      -0.07120983 </v>
   <v>       0.07569080      -3.02375872      -0.54937516 </v>
   <v>      -0.00996561      -0.02073407      -0.00628486 </v>
   <v>       0.01425462      -0.01064069      -0.04153156 </v>
   <v>       0.00043142       0.06073348       0.00505273 </v>
   <v>      -0.07359601       0.00156596      -0.07105655 </v>
   <v>       0.09321794       0.01910253       0.07040482 </v>
   <v>       0.05086190       0.00308885       0.03137168 </v>
   <v>      -0.10579728       0.00417972      -0.07122665 </v>
   <v>       0.07577150       3.02375746      -0.54941254 </v>
   <v>      -0.00997339       0.02067786      -0.00634649 </v>
   <v>      -0.07365639      -0.00158236      -0.07101191 </v>
   <v>       0.09320245      -0.01911251       0.07034638 </v>
   <v>       0.01433752       0.01062947      -0.04160033 </v>
   <v>       0.00046897      -0.06076157       0.00506420 </v>
   <v>       0.41410316      -0.00000497      -0.07587391 </v>
  </varray>
  <varray name="stress" >
   <v>       5.18626748      -0.00029992      -3.59201249 </v>
   <v>      -0.00029976      24.12242425       0.00006953 </v>
   <v>      -3.59194399       0.00006981       8.27120070 </v>
  </varray>
  <energy>
   <i name="e_fr_energy">  -1384.83599367 </i>
   <i name="e_wo_entrp">  -1384.83599367 </i>
   <i name="e_0_energy">     -0.00000000 </i>
  </energy>
  <time name="totalsc">  447.58  448.38</time>
  <eigenvalues>
   <array>
    <dimension dim="1">band</dimension>
    <dimension dim="2">kpoint</dimension>
    <dimension dim="3">spin</dimension>
    <field>eigene</field>
    <field>occ</field>
    <set>
     <set comment="spin 1">
      <set comment="kpoint 1">
       <r>  -21.0322    1.0000 </r>
       <r>  -21.0244    1.0000 </r>
       <r>  -21.0207    1.0000 </r>
       <r>  -20.9597    1.0000 </r>
       <r>  -20.9569    1.0000 </r>
       <r>  -20.9519    1.0000 </r>
       <r>  -20.8973    1.0000 </r>
       <r>  -16.9061    1.0000 </r>
       <r>  -16.8768    1.0000 </r>
       <r>  -16.8540    1.0000 </r>
       <r>  -16.8280    1.0000 </r>
       <r>  -16.8161    1.0000 </r>
       <r>  -16.7944    1.0000 </r>
       <r>  -16.7911    1.0000 </r>
       <r>  -16.7748    1.0000 </r>
       <r>  -16.7562    1.0000 </r>
       <r>  -16.7551    1.0000 </r>
       <r>  -16.7370    1.0000 </r>
       <r>  -16.7363    1.0000 </r>
       <r>  -16.7176    1.0000 </r>
       <r>  -16.7171    1.0000 </r>
       <r>  -16.7112    1.0000 </r>
       <r>  -16.7098    1.0000 </r>
       <r>  -16.6864    1.0000 </r>
       <r>  -16.6862    1.0000 </r>
       <r>  -16.6819    1.0000 </r>
       <r>  -16.6812    1.0000 </r>
       <r>  -16.5745    1.0000 </r>
       <r>  -16.5553    1.0000 </r>
       <r>  -16.5539    1.0000 </r>
       <r>  -16.5209    1.0000 </r>
       <r>  -16.5146    1.0000 </r>
       <r>  -16.4881    1.0000 </r>
       <r>  -16.4879    1.0000 </r>
       <r>  -16.4568    1.0000 </r>
       <r>  -16.4394    1.0000 </r>
       <r>  -16.4387    1.0000 </r>
       <r>  -16.4370    1.0000 </r>
       <r>  -16.4365    1.0000 </r>
       <r>  -16.4266    1.0000 </r>
       <r>  -16.4256    1.0000 </r>
       <r>  -16.3965    1.0000 </r>
       <r>  -16.3964    1.0000 </r>
       <r>  -16.3845    1.0000 </r>
       <r>  -16.3831    1.0000 </r>
       <r>  -16.3790    1.0000 </r>
       <r>  -16.3778    1.0000 </r>
       <r>  -14.8924    1.0000 </r>
       <r>  -14.7262    1.0000 </r>
       <r>  -14.6297    1.0000 </r>
       <r>  -14.5004    1.0000 </r>
       <r>  -14.4247    1.0000 </r>
       <r>  -14.3819    1.0000 </r>
       <r>  -14.3563    1.0000 </r>
       <r>  -14.2991    1.0000 </r>
       <r>  -14.1858    1.0000 </r>
       <r>  -14.1638    1.0000 </r>
       <r>  -14.1380    1.0000 </r>
       <r>  -14.1235    1.0000 </r>
       <r>  -14.1211    1.0000 </r>
       <r>  -14.1151    1.0000 </r>
       <r>  -14.1147    1.0000 </r>
       <r>  -14.0727    1.0000 </r>
       <r>  -14.0562    1.0000 </r>
       <r>  -14.0493    1.0000 </r>
       <r>  -14.0286    1.0000 </r>
       <r>  -13.9326    1.0000 </r>
       <r>  -13.8701    1.0000 </r>
       <r>  -13.8644    1.0000 </r>
       <r>  -13.7960    1.0000 </r>
       <r>  -13.6333    1.0000 </r>
       <r>   -8.5032    1.0000 </r>
       <r>   -8.0387    1.0000 </r>
       <r>   -7.9804    1.0000 </r>
       <r>   -7.9450    1.0000 </r>
       <r>   -7.7837    1.0000 </r>
       <r>   -7.6096    1.0000 </r>
       <r>   -7.4962    1.0000 </r>
       <r>   -7.4495    1.0000 </r>
       <r>   -7.4339    1.0000 </r>
       <r>   -7.4292    1.0000 </r>
       <r>   -7.4244    1.0000 </r>
       <r>   -7.4238    1.0000 </r>
       <r>   -7.3964    1.0000 </r>
       <r>   -7.3821    1.0000 </r>
       <r>   -7.3759    1.0000 </r>
       <r>   -7.3738    1.0000 </r>
       <r>   -7.3710    1.0000 </r>
       <r>   -7.3622    1.0000 </r>
       <r>   -7.3582    1.0000 </r>
       <r>   -7.3553    1.0000 </r>
       <r>   -7.3460    1.0000 </r>
       <r>   -7.3381    1.0000 </r>
       <r>   -7.3364    1.0000 </r>
       <r>   -7.3175    1.0000 </r>
       <r>   -7.3068    1.0000 </r>
       <r>   -7.2868    1.0000 </r>
       <r>   -7.2863    1.0000 </r>
       <r>   -7.2588    1.0000 </r>
       <r>   -6.7408    1.0000 </r>
       <r>   -3.7186    1.0000 </r>
       <r>   -3.6566    1.0000 </r>
       <r>   -3.5822    1.0000 </r>
       <r>   -3.5708    1.0000 </r>
       <r>   -3.4262    1.0000 </r>
       <r>   -3.3320    1.0000 </r>
       <r>   -3.3250    1.0000 </r>
       <r>   -3.2635    1.0000 </r>
       <r>   -3.2630    1.0000 </r>
       <r>   -3.2231    1.0000 </r>
       <r>   -3.1494    1.0000 </r>
       <r>   -3.0421    1.0000 </r>
       <r>   -2.5613    1.0000 </r>
       <r>   -2.3866    1.0000 </r>
       <r>   -2.3303    1.0000 </r>
       <r>   -2.2629    1.0000 </r>
       <r>   -2.2529    1.0000 </r>
       <r>   -2.2328    1.0000 </r>
       <r>   -2.1546    1.0000 </r>
       <r>   -2.1081    1.0000 </r>
       <r>   -2.0005    1.0000 </r>
       <r>   -1.9950    1.0000 </r>
       <r>   -1.9701    1.0000 </r>
       <r>   -1.9307    1.0000 </r>
       <r>   -1.9069    1.0000 </r>
       <r>   -1.8917    1.0000 </r>
       <r>   -1.8540    1.0000 </r>
       <r>   -1.8115    1.0000 </r>
       <r>   -1.7954    1.0000 </r>
       <r>   -1.7259    1.0000 </r>
       <r>   -1.7030    1.0000 </r>
       <r>   -1.6947    1.0000 </r>
       <r>   -1.6576    1.0000 </r>
       <r>   -1.6476    1.0000 </r>
       <r>   -1.6303    1.0000 </r>
       <r>   -1.6103    1.0000 </r>
       <r>   -1.5907    1.0000 </r>
       <r>   -1.5641    1.0000 </r>
       <r>   -1.5583    1.0000 </r>
       <r>   -1.5399    1.0000 </r>
       <r>   -1.5295    1.0000 </r>
       <r>   -1.5232    1.0000 </r>
       <r>   -1.5052    1.0000 </r>
       <r>   -1.4892    1.0000 </r>
       <r>   -1.4873    1.0000 </r>
       <r>   -1.4398    1.0000 </r>
       <r>   -1.4375    1.0000 </r>
       <r>   -1.4174    1.0000 </r>
       <r>   -1.4081    1.0000 </r>
       <r>   -1.3670    1.0000 </r>
       <r>   -1.3479    1.0000 </r>
       <r>   -1.3388    1.0000 </r>
       <r>   -1.3076    1.0000 </r>
       <r>   -1.2970    1.0000 </r>
       <r>   -1.2939    1.0000 </r>
       <r>   -1.2753    1.0000 </r>
       <r>   -1.2186    1.0000 </r>
       <r>   -1.2035    1.0000 </r>
       <r>   -1.1988    1.0000 </r>
       <r>   -1.1312    1.0000 </r>
       <r>   -1.0921    1.0000 </r>
       <r>   -1.0349    1.0000 </r>
       <r>   -0.9909    1.0000 </r>
       <r>   -0.9483    1.0000 </r>
       <r>   -0.9426    1.0000 </r>
       <r>   -0.8292    1.0000 </r>
       <r>   -0.7733    1.0000 </r>
       <r>   -0.7580    1.0000 </r>
       <r>   -0.3954    1.0000 </r>
       <r>   -0.3421    1.0000 </r>
       <r>   -0.2823    1.0000 </r>
       <r>    0.2698    1.0000 </r>
       <r>    2.4490    0.0000 </r>
       <r>    2.5034    0.0000 </r>
       <r>    2.6495    0.0000 </r>
       <r>    2.8005    0.0000 </r>
       <r>    2.8223    0.0000 </r>
       <r>    2.9684    0.0000 </r>
       <r>    2.9848    0.0000 </r>
       <r>    3.0141    0.0000 </r>
       <r>    3.0518    0.0000 </r>
       <r>    3.3236    0.0000 </r>
       <r>    3.3643    0.0000 </r>
       <r>    3.4314    0.0000 </r>
       <r>    4.7613    0.0000 </r>
       <r>    4.8933    0.0000 </r>
       <r>    5.2702    0.0000 </r>
       <r>    5.3455    0.0000 </r>
       <r>    5.5811    0.0000 </r>
       <r>    5.6049    0.0000 </r>
       <r>    5.6247    0.0000 </r>
       <r>    5.6705    0.0000 </r>
       <r>    5.7294    0.0000 </r>
       <r>    5.8255    0.0000 </r>
       <r>    5.9250    0.0000 </r>
       <r>    5.9729    0.0000 </r>
       <r>    6.0225    0.0000 </r>
       <r>    6.0725    0.0000 </r>
       <r>    6.1417    0.0000 </r>
       <r>    6.1667    0.0000 </r>
       <r>    6.2637    0.0000 </r>
       <r>    6.2810    0.0000 </r>
       <r>    6.3245    0.0000 </r>
       <r>    6.3261    0.0000 </r>
       <r>    6.3339    0.0000 </r>
       <r>    6.3664    0.0000 </r>
       <r>    6.4832    0.0000 </r>
       <r>    6.5830    0.0000 </r>
      </set>
      <set comment="kpoint 2">
       <r>  -21.0322    1.0000 </r>
       <r>  -21.0243    1.0000 </r>
       <r>  -21.0207    1.0000 </r>
       <r>  -20.9597    1.0000 </r>
       <r>  -20.9569    1.0000 </r>
       <r>  -20.9519    1.0000 </r>
       <r>  -20.8973    1.0000 </r>
       <r>  -16.9061    1.0000 </r>
       <r>  -16.8765    1.0000 </r>
       <r>  -16.8533    1.0000 </r>
       <r>  -16.8267    1.0000 </r>
       <r>  -16.8147    1.0000 </r>
       <r>  -16.7936    1.0000 </r>
       <r>  -16.7889    1.0000 </r>
       <r>  -16.7726    1.0000 </r>
       <r>  -16.7561    1.0000 </r>
       <r>  -16.7551    1.0000 </r>
       <r>  -16.7370    1.0000 </r>
       <r>  -16.7363    1.0000 </r>
       <r>  -16.7176    1.0000 </r>
       <r>  -16.7170    1.0000 </r>
       <r>  -16.7113    1.0000 </r>
       <r>  -16.7099    1.0000 </r>
       <r>  -16.6864    1.0000 </r>
       <r>  -16.6862    1.0000 </r>
       <r>  -16.6820    1.0000 </r>
       <r>  -16.6811    1.0000 </r>
       <r>  -16.5753    1.0000 </r>
       <r>  -16.5574    1.0000 </r>
       <r>  -16.5562    1.0000 </r>
       <r>  -16.5225    1.0000 </r>
       <r>  -16.5158    1.0000 </r>
       <r>  -16.4901    1.0000 </r>
       <r>  -16.4890    1.0000 </r>
       <r>  -16.4570    1.0000 </r>
       <r>  -16.4394    1.0000 </r>
       <r>  -16.4386    1.0000 </r>
       <r>  -16.4370    1.0000 </r>
       <r>  -16.4365    1.0000 </r>
       <r>  -16.4266    1.0000 </r>
       <r>  -16.4256    1.0000 </r>
       <r>  -16.3965    1.0000 </r>
       <r>  -16.3964    1.0000 </r>
       <r>  -16.3845    1.0000 </r>
       <r>  -16.3831    1.0000 </r>
       <r>  -16.3790    1.0000 </r>
       <r>  -16.3778    1.0000 </r>
       <r>  -14.8926    1.0000 </r>
       <r>  -14.7252    1.0000 </r>
       <r>  -14.6297    1.0000 </r>
       <r>  -14.4991    1.0000 </r>
       <r>  -14.4205    1.0000 </r>
       <r>  -14.3813    1.0000 </r>
       <r>  -14.3494    1.0000 </r>
       <r>  -14.3464    1.0000 </r>
       <r>  -14.2262    1.0000 </r>
       <r>  -14.1999    1.0000 </r>
       <r>  -14.1389    1.0000 </r>
       <r>  -14.1285    1.0000 </r>
       <r>  -14.0762    1.0000 </r>
       <r>  -14.0640    1.0000 </r>
       <r>  -14.0622    1.0000 </r>
       <r>  -14.0615    1.0000 </r>
       <r>  -14.0320    1.0000 </r>
       <r>  -14.0276    1.0000 </r>
       <r>  -14.0188    1.0000 </r>
       <r>  -13.9581    1.0000 </r>
       <r>  -13.9082    1.0000 </r>
       <r>  -13.8863    1.0000 </r>
       <r>  -13.8038    1.0000 </r>
       <r>  -13.6355    1.0000 </r>
       <r>   -8.4174    1.0000 </r>
       <r>   -8.0259    1.0000 </r>
       <r>   -7.9710    1.0000 </r>
       <r>   -7.8878    1.0000 </r>
       <r>   -7.8042    1.0000 </r>
       <r>   -7.5530    1.0000 </r>
       <r>   -7.5465    1.0000 </r>
       <r>   -7.5290    1.0000 </r>
       <r>   -7.4766    1.0000 </r>
       <r>   -7.4445    1.0000 </r>
       <r>   -7.4294    1.0000 </r>
       <r>   -7.4193    1.0000 </r>
       <r>   -7.4112    1.0000 </r>
       <r>   -7.3892    1.0000 </r>
       <r>   -7.3776    1.0000 </r>
       <r>   -7.3752    1.0000 </r>
       <r>   -7.3713    1.0000 </r>
       <r>   -7.3676    1.0000 </r>
       <r>   -7.3576    1.0000 </r>
       <r>   -7.3509    1.0000 </r>
       <r>   -7.3437    1.0000 </r>
       <r>   -7.3420    1.0000 </r>
       <r>   -7.3319    1.0000 </r>
       <r>   -7.3268    1.0000 </r>
       <r>   -7.3078    1.0000 </r>
       <r>   -7.2984    1.0000 </r>
       <r>   -7.2909    1.0000 </r>
       <r>   -7.2252    1.0000 </r>
       <r>   -6.9506    1.0000 </r>
       <r>   -3.7105    1.0000 </r>
       <r>   -3.6536    1.0000 </r>
       <r>   -3.5765    1.0000 </r>
       <r>   -3.5692    1.0000 </r>
       <r>   -3.2755    1.0000 </r>
       <r>   -3.2718    1.0000 </r>
       <r>   -3.2258    1.0000 </r>
       <r>   -3.0580    1.0000 </r>
       <r>   -2.7864    1.0000 </r>
       <r>   -2.7072    1.0000 </r>
       <r>   -2.7007    1.0000 </r>
       <r>   -2.6372    1.0000 </r>
       <r>   -2.5960    1.0000 </r>
       <r>   -2.5640    1.0000 </r>
       <r>   -2.5143    1.0000 </r>
       <r>   -2.4750    1.0000 </r>
       <r>   -2.4471    1.0000 </r>
       <r>   -2.3658    1.0000 </r>
       <r>   -2.2505    1.0000 </r>
       <r>   -2.2115    1.0000 </r>
       <r>   -2.1738    1.0000 </r>
       <r>   -2.1391    1.0000 </r>
       <r>   -2.0602    1.0000 </r>
       <r>   -2.0480    1.0000 </r>
       <r>   -2.0087    1.0000 </r>
       <r>   -1.9308    1.0000 </r>
       <r>   -1.9223    1.0000 </r>
       <r>   -1.8763    1.0000 </r>
       <r>   -1.8581    1.0000 </r>
       <r>   -1.8180    1.0000 </r>
       <r>   -1.7681    1.0000 </r>
       <r>   -1.7097    1.0000 </r>
       <r>   -1.7057    1.0000 </r>
       <r>   -1.6857    1.0000 </r>
       <r>   -1.6749    1.0000 </r>
       <r>   -1.6723    1.0000 </r>
       <r>   -1.6308    1.0000 </r>
       <r>   -1.5665    1.0000 </r>
       <r>   -1.5632    1.0000 </r>
       <r>   -1.5403    1.0000 </r>
       <r>   -1.5296    1.0000 </r>
       <r>   -1.4702    1.0000 </r>
       <r>   -1.4695    1.0000 </r>
       <r>   -1.4403    1.0000 </r>
       <r>   -1.4269    1.0000 </r>
       <r>   -1.4193    1.0000 </r>
       <r>   -1.4050    1.0000 </r>
       <r>   -1.3909    1.0000 </r>
       <r>   -1.3746    1.0000 </r>
       <r>   -1.3691    1.0000 </r>
       <r>   -1.3513    1.0000 </r>
       <r>   -1.3347    1.0000 </r>
       <r>   -1.3280    1.0000 </r>
       <r>   -1.3009    1.0000 </r>
       <r>   -1.2739    1.0000 </r>
       <r>   -1.2695    1.0000 </r>
       <r>   -1.2561    1.0000 </r>
       <r>   -1.2241    1.0000 </r>
       <r>   -1.2142    1.0000 </r>
       <r>   -1.1540    1.0000 </r>
       <r>   -1.1103    1.0000 </r>
       <r>   -1.0838    1.0000 </r>
       <r>   -1.0354    1.0000 </r>
       <r>   -0.9823    1.0000 </r>
       <r>   -0.9507    1.0000 </r>
       <r>   -0.8441    1.0000 </r>
       <r>   -0.8224    1.0000 </r>
       <r>   -0.7615    1.0000 </r>
       <r>   -0.6246    1.0000 </r>
       <r>   -0.5172    1.0000 </r>
       <r>   -0.3843    1.0000 </r>
       <r>   -0.0187    1.0000 </r>
       <r>    2.5348    0.0000 </r>
       <r>    2.5575    0.0000 </r>
       <r>    2.8624    0.0000 </r>
       <r>    2.9243    0.0000 </r>
       <r>    2.9309    0.0000 </r>
       <r>    2.9405    0.0000 </r>
       <r>    3.2238    0.0000 </r>
       <r>    3.3389    0.0000 </r>
       <r>    3.9048    0.0000 </r>
       <r>    4.1199    0.0000 </r>
       <r>    4.2185    0.0000 </r>
       <r>    4.2427    0.0000 </r>
       <r>    4.4333    0.0000 </r>
       <r>    4.5112    0.0000 </r>
       <r>    4.5389    0.0000 </r>
       <r>    4.7204    0.0000 </r>
       <r>    4.9579    0.0000 </r>
       <r>    5.3319    0.0000 </r>
       <r>    5.4173    0.0000 </r>
       <r>    5.5381    0.0000 </r>
       <r>    5.5498    0.0000 </r>
       <r>    5.6730    0.0000 </r>
       <r>    5.7747    0.0000 </r>
       <r>    5.8519    0.0000 </r>
       <r>    5.8890    0.0000 </r>
       <r>    5.9099    0.0000 </r>
       <r>    6.0739    0.0000 </r>
       <r>    6.1518    0.0000 </r>
       <r>    6.1902    0.0000 </r>
       <r>    6.2489    0.0000 </r>
       <r>    6.2863    0.0000 </r>
       <r>    6.2996    0.0000 </r>
       <r>    6.4243    0.0000 </r>
       <r>    6.4450    0.0000 </r>
       <r>    6.4508    0.0000 </r>
       <r>    6.4868    0.0000 </r>
      </set>
      <set comment="kpoint 3">
       <r>  -21.0316    1.0000 </r>
       <r>  -21.0243    1.0000 </r>
       <r>  -21.0213    1.0000 </r>
       <r>  -20.9595    1.0000 </r>
       <r>  -20.9571    1.0000 </r>
       <r>  -20.9519    1.0000 </r>
       <r>  -20.8972    1.0000 </r>
       <r>  -16.8872    1.0000 </r>
       <r>  -16.8867    1.0000 </r>
       <r>  -16.8376    1.0000 </r>
       <r>  -16.8362    1.0000 </r>
       <r>  -16.8088    1.0000 </r>
       <r>  -16.8080    1.0000 </r>
       <r>  -16.7892    1.0000 </r>
       <r>  -16.7892    1.0000 </r>
       <r>  -16.7557    1.0000 </r>
       <r>  -16.7555    1.0000 </r>
       <r>  -16.7367    1.0000 </r>
       <r>  -16.7366    1.0000 </r>
       <r>  -16.7174    1.0000 </r>
       <r>  -16.7173    1.0000 </r>
       <r>  -16.7105    1.0000 </r>
       <r>  -16.7104    1.0000 </r>
       <r>  -16.6863    1.0000 </r>
       <r>  -16.6863    1.0000 </r>
       <r>  -16.6815    1.0000 </r>
       <r>  -16.6815    1.0000 </r>
       <r>  -16.5551    1.0000 </r>
       <r>  -16.5549    1.0000 </r>
       <r>  -16.5480    1.0000 </r>
       <r>  -16.5451    1.0000 </r>
       <r>  -16.4954    1.0000 </r>
       <r>  -16.4949    1.0000 </r>
       <r>  -16.4800    1.0000 </r>
       <r>  -16.4798    1.0000 </r>
       <r>  -16.4391    1.0000 </r>
       <r>  -16.4390    1.0000 </r>
       <r>  -16.4368    1.0000 </r>
       <r>  -16.4368    1.0000 </r>
       <r>  -16.4262    1.0000 </r>
       <r>  -16.4259    1.0000 </r>
       <r>  -16.3964    1.0000 </r>
       <r>  -16.3964    1.0000 </r>
       <r>  -16.3840    1.0000 </r>
       <r>  -16.3835    1.0000 </r>
       <r>  -16.3785    1.0000 </r>
       <r>  -16.3782    1.0000 </r>
       <r>  -14.9138    1.0000 </r>
       <r>  -14.6909    1.0000 </r>
       <r>  -14.6272    1.0000 </r>
       <r>  -14.4986    1.0000 </r>
       <r>  -14.4757    1.0000 </r>
       <r>  -14.3814    1.0000 </r>
       <r>  -14.2858    1.0000 </r>
       <r>  -14.2793    1.0000 </r>
       <r>  -14.2104    1.0000 </r>
       <r>  -14.1834    1.0000 </r>
       <r>  -14.1652    1.0000 </r>
       <r>  -14.1515    1.0000 </r>
       <r>  -14.1232    1.0000 </r>
       <r>  -14.1160    1.0000 </r>
       <r>  -14.1149    1.0000 </r>
       <r>  -14.0712    1.0000 </r>
       <r>  -14.0675    1.0000 </r>
       <r>  -14.0568    1.0000 </r>
       <r>  -13.9472    1.0000 </r>
       <r>  -13.9040    1.0000 </r>
       <r>  -13.8763    1.0000 </r>
       <r>  -13.8450    1.0000 </r>
       <r>  -13.8341    1.0000 </r>
       <r>  -13.6527    1.0000 </r>
       <r>   -8.2929    1.0000 </r>
       <r>   -8.2785    1.0000 </r>
       <r>   -7.8388    1.0000 </r>
       <r>   -7.7655    1.0000 </r>
       <r>   -7.7414    1.0000 </r>
       <r>   -7.6594    1.0000 </r>
       <r>   -7.6360    1.0000 </r>
       <r>   -7.5297    1.0000 </r>
       <r>   -7.4737    1.0000 </r>
       <r>   -7.4439    1.0000 </r>
       <r>   -7.4251    1.0000 </r>
       <r>   -7.4201    1.0000 </r>
       <r>   -7.4177    1.0000 </r>
       <r>   -7.4004    1.0000 </r>
       <r>   -7.3878    1.0000 </r>
       <r>   -7.3809    1.0000 </r>
       <r>   -7.3731    1.0000 </r>
       <r>   -7.3658    1.0000 </r>
       <r>   -7.3579    1.0000 </r>
       <r>   -7.3540    1.0000 </r>
       <r>   -7.3540    1.0000 </r>
       <r>   -7.3382    1.0000 </r>
       <r>   -7.3335    1.0000 </r>
       <r>   -7.3236    1.0000 </r>
       <r>   -7.3064    1.0000 </r>
       <r>   -7.2987    1.0000 </r>
       <r>   -7.2914    1.0000 </r>
       <r>   -7.1105    1.0000 </r>
       <r>   -7.0668    1.0000 </r>
       <r>   -3.7190    1.0000 </r>
       <r>   -3.6033    1.0000 </r>
       <r>   -3.3901    1.0000 </r>
       <r>   -3.3764    1.0000 </r>
       <r>   -3.2765    1.0000 </r>
       <r>   -3.2521    1.0000 </r>
       <r>   -3.2342    1.0000 </r>
       <r>   -3.1959    1.0000 </r>
       <r>   -2.9128    1.0000 </r>
       <r>   -2.8743    1.0000 </r>
       <r>   -2.7922    1.0000 </r>
       <r>   -2.7289    1.0000 </r>
       <r>   -2.5144    1.0000 </r>
       <r>   -2.4653    1.0000 </r>
       <r>   -2.3789    1.0000 </r>
       <r>   -2.3678    1.0000 </r>
       <r>   -2.3498    1.0000 </r>
       <r>   -2.3284    1.0000 </r>
       <r>   -2.2273    1.0000 </r>
       <r>   -2.2069    1.0000 </r>
       <r>   -2.1958    1.0000 </r>
       <r>   -2.1736    1.0000 </r>
       <r>   -2.1360    1.0000 </r>
       <r>   -2.0397    1.0000 </r>
       <r>   -2.0188    1.0000 </r>
       <r>   -1.9800    1.0000 </r>
       <r>   -1.9284    1.0000 </r>
       <r>   -1.9007    1.0000 </r>
       <r>   -1.8647    1.0000 </r>
       <r>   -1.8520    1.0000 </r>
       <r>   -1.8196    1.0000 </r>
       <r>   -1.7418    1.0000 </r>
       <r>   -1.7224    1.0000 </r>
       <r>   -1.6674    1.0000 </r>
       <r>   -1.6260    1.0000 </r>
       <r>   -1.6074    1.0000 </r>
       <r>   -1.5851    1.0000 </r>
       <r>   -1.5802    1.0000 </r>
       <r>   -1.5532    1.0000 </r>
       <r>   -1.5520    1.0000 </r>
       <r>   -1.5490    1.0000 </r>
       <r>   -1.4997    1.0000 </r>
       <r>   -1.4915    1.0000 </r>
       <r>   -1.4863    1.0000 </r>
       <r>   -1.4595    1.0000 </r>
       <r>   -1.4573    1.0000 </r>
       <r>   -1.4411    1.0000 </r>
       <r>   -1.4320    1.0000 </r>
       <r>   -1.4086    1.0000 </r>
       <r>   -1.3847    1.0000 </r>
       <r>   -1.3771    1.0000 </r>
       <r>   -1.3612    1.0000 </r>
       <r>   -1.3313    1.0000 </r>
       <r>   -1.3242    1.0000 </r>
       <r>   -1.2782    1.0000 </r>
       <r>   -1.2613    1.0000 </r>
       <r>   -1.2076    1.0000 </r>
       <r>   -1.1821    1.0000 </r>
       <r>   -1.1488    1.0000 </r>
       <r>   -1.1471    1.0000 </r>
       <r>   -1.1321    1.0000 </r>
       <r>   -1.0085    1.0000 </r>
       <r>   -0.9870    1.0000 </r>
       <r>   -0.9720    1.0000 </r>
       <r>   -0.9339    1.0000 </r>
       <r>   -0.8719    1.0000 </r>
       <r>   -0.7769    1.0000 </r>
       <r>   -0.7562    1.0000 </r>
       <r>   -0.7430    1.0000 </r>
       <r>   -0.6788    1.0000 </r>
       <r>   -0.2529    1.0000 </r>
       <r>   -0.1413    1.0000 </r>
       <r>    2.6142    0.0000 </r>
       <r>    2.6149    0.0000 </r>
       <r>    2.8328    0.0000 </r>
       <r>    2.8421    0.0000 </r>
       <r>    3.1301    0.0000 </r>
       <r>    3.1505    0.0000 </r>
       <r>    3.1742    0.0000 </r>
       <r>    3.1964    0.0000 </r>
       <r>    3.8058    0.0000 </r>
       <r>    4.1001    0.0000 </r>
       <r>    4.2593    0.0000 </r>
       <r>    4.2775    0.0000 </r>
       <r>    4.4566    0.0000 </r>
       <r>    4.5004    0.0000 </r>
       <r>    4.6695    0.0000 </r>
       <r>    4.8168    0.0000 </r>
       <r>    5.2645    0.0000 </r>
       <r>    5.3129    0.0000 </r>
       <r>    5.4008    0.0000 </r>
       <r>    5.4532    0.0000 </r>
       <r>    5.4821    0.0000 </r>
       <r>    5.5047    0.0000 </r>
       <r>    5.7548    0.0000 </r>
       <r>    5.8676    0.0000 </r>
       <r>    5.8710    0.0000 </r>
       <r>    5.9616    0.0000 </r>
       <r>    6.0344    0.0000 </r>
       <r>    6.1440    0.0000 </r>
       <r>    6.1838    0.0000 </r>
       <r>    6.2667    0.0000 </r>
       <r>    6.3621    0.0000 </r>
       <r>    6.3773    0.0000 </r>
       <r>    6.4221    0.0000 </r>
       <r>    6.4785    0.0000 </r>
       <r>    6.5564    0.0000 </r>
       <r>    6.5879    0.0000 </r>
      </set>
      <set comment="kpoint 4">
       <r>  -21.0316    1.0000 </r>
       <r>  -21.0243    1.0000 </r>
       <r>  -21.0213    1.0000 </r>
       <r>  -20.9595    1.0000 </r>
       <r>  -20.9571    1.0000 </r>
       <r>  -20.9519    1.0000 </r>
       <r>  -20.8973    1.0000 </r>
       <r>  -16.8873    1.0000 </r>
       <r>  -16.8867    1.0000 </r>
       <r>  -16.8364    1.0000 </r>
       <r>  -16.8350    1.0000 </r>
       <r>  -16.8083    1.0000 </r>
       <r>  -16.8075    1.0000 </r>
       <r>  -16.7866    1.0000 </r>
       <r>  -16.7866    1.0000 </r>
       <r>  -16.7557    1.0000 </r>
       <r>  -16.7555    1.0000 </r>
       <r>  -16.7368    1.0000 </r>
       <r>  -16.7367    1.0000 </r>
       <r>  -16.7174    1.0000 </r>
       <r>  -16.7173    1.0000 </r>
       <r>  -16.7105    1.0000 </r>
       <r>  -16.7104    1.0000 </r>
       <r>  -16.6863    1.0000 </r>
       <r>  -16.6863    1.0000 </r>
       <r>  -16.6816    1.0000 </r>
       <r>  -16.6816    1.0000 </r>
       <r>  -16.5567    1.0000 </r>
       <r>  -16.5567    1.0000 </r>
       <r>  -16.5498    1.0000 </r>
       <r>  -16.5466    1.0000 </r>
       <r>  -16.4976    1.0000 </r>
       <r>  -16.4970    1.0000 </r>
       <r>  -16.4802    1.0000 </r>
       <r>  -16.4800    1.0000 </r>
       <r>  -16.4391    1.0000 </r>
       <r>  -16.4391    1.0000 </r>
       <r>  -16.4368    1.0000 </r>
       <r>  -16.4368    1.0000 </r>
       <r>  -16.4262    1.0000 </r>
       <r>  -16.4260    1.0000 </r>
       <r>  -16.3964    1.0000 </r>
       <r>  -16.3964    1.0000 </r>
       <r>  -16.3841    1.0000 </r>
       <r>  -16.3835    1.0000 </r>
       <r>  -16.3786    1.0000 </r>
       <r>  -16.3782    1.0000 </r>
       <r>  -14.9140    1.0000 </r>
       <r>  -14.6906    1.0000 </r>
       <r>  -14.6276    1.0000 </r>
       <r>  -14.4986    1.0000 </r>
       <r>  -14.4698    1.0000 </r>
       <r>  -14.3814    1.0000 </r>
       <r>  -14.3208    1.0000 </r>
       <r>  -14.2801    1.0000 </r>
       <r>  -14.2650    1.0000 </r>
       <r>  -14.1906    1.0000 </r>
       <r>  -14.1850    1.0000 </r>
       <r>  -14.1415    1.0000 </r>
       <r>  -14.0748    1.0000 </r>
       <r>  -14.0663    1.0000 </r>
       <r>  -14.0642    1.0000 </r>
       <r>  -14.0640    1.0000 </r>
       <r>  -14.0358    1.0000 </r>
       <r>  -14.0339    1.0000 </r>
       <r>  -13.9721    1.0000 </r>
       <r>  -13.9378    1.0000 </r>
       <r>  -13.9101    1.0000 </r>
       <r>  -13.8522    1.0000 </r>
       <r>  -13.8383    1.0000 </r>
       <r>  -13.6537    1.0000 </r>
       <r>   -8.2166    1.0000 </r>
       <r>   -8.1972    1.0000 </r>
       <r>   -7.8150    1.0000 </r>
       <r>   -7.7804    1.0000 </r>
       <r>   -7.7770    1.0000 </r>
       <r>   -7.6641    1.0000 </r>
       <r>   -7.6108    1.0000 </r>
       <r>   -7.5176    1.0000 </r>
       <r>   -7.4607    1.0000 </r>
       <r>   -7.4411    1.0000 </r>
       <r>   -7.4327    1.0000 </r>
       <r>   -7.4309    1.0000 </r>
       <r>   -7.4259    1.0000 </r>
       <r>   -7.3989    1.0000 </r>
       <r>   -7.3952    1.0000 </r>
       <r>   -7.3785    1.0000 </r>
       <r>   -7.3737    1.0000 </r>
       <r>   -7.3705    1.0000 </r>
       <r>   -7.3598    1.0000 </r>
       <r>   -7.3589    1.0000 </r>
       <r>   -7.3522    1.0000 </r>
       <r>   -7.3429    1.0000 </r>
       <r>   -7.3378    1.0000 </r>
       <r>   -7.3339    1.0000 </r>
       <r>   -7.3064    1.0000 </r>
       <r>   -7.2965    1.0000 </r>
       <r>   -7.2941    1.0000 </r>
       <r>   -7.2674    1.0000 </r>
       <r>   -7.2297    1.0000 </r>
       <r>   -3.7159    1.0000 </r>
       <r>   -3.5982    1.0000 </r>
       <r>   -3.2504    1.0000 </r>
       <r>   -3.2077    1.0000 </r>
       <r>   -2.9852    1.0000 </r>
       <r>   -2.9761    1.0000 </r>
       <r>   -2.8852    1.0000 </r>
       <r>   -2.8230    1.0000 </r>
       <r>   -2.7827    1.0000 </r>
       <r>   -2.7511    1.0000 </r>
       <r>   -2.6409    1.0000 </r>
       <r>   -2.6209    1.0000 </r>
       <r>   -2.5581    1.0000 </r>
       <r>   -2.5039    1.0000 </r>
       <r>   -2.4916    1.0000 </r>
       <r>   -2.4747    1.0000 </r>
       <r>   -2.4470    1.0000 </r>
       <r>   -2.4250    1.0000 </r>
       <r>   -2.3618    1.0000 </r>
       <r>   -2.3521    1.0000 </r>
       <r>   -2.2681    1.0000 </r>
       <r>   -2.2453    1.0000 </r>
       <r>   -2.1841    1.0000 </r>
       <r>   -2.1773    1.0000 </r>
       <r>   -2.1125    1.0000 </r>
       <r>   -1.9909    1.0000 </r>
       <r>   -1.9229    1.0000 </r>
       <r>   -1.9183    1.0000 </r>
       <r>   -1.8782    1.0000 </r>
       <r>   -1.8602    1.0000 </r>
       <r>   -1.8442    1.0000 </r>
       <r>   -1.8227    1.0000 </r>
       <r>   -1.7977    1.0000 </r>
       <r>   -1.7454    1.0000 </r>
       <r>   -1.7450    1.0000 </r>
       <r>   -1.7256    1.0000 </r>
       <r>   -1.6566    1.0000 </r>
       <r>   -1.6485    1.0000 </r>
       <r>   -1.6347    1.0000 </r>
       <r>   -1.6149    1.0000 </r>
       <r>   -1.5785    1.0000 </r>
       <r>   -1.5490    1.0000 </r>
       <r>   -1.5317    1.0000 </r>
       <r>   -1.5066    1.0000 </r>
       <r>   -1.4472    1.0000 </r>
       <r>   -1.4214    1.0000 </r>
       <r>   -1.4096    1.0000 </r>
       <r>   -1.3742    1.0000 </r>
       <r>   -1.3661    1.0000 </r>
       <r>   -1.3537    1.0000 </r>
       <r>   -1.3499    1.0000 </r>
       <r>   -1.3266    1.0000 </r>
       <r>   -1.3233    1.0000 </r>
       <r>   -1.2789    1.0000 </r>
       <r>   -1.2497    1.0000 </r>
       <r>   -1.2309    1.0000 </r>
       <r>   -1.2128    1.0000 </r>
       <r>   -1.1957    1.0000 </r>
       <r>   -1.1705    1.0000 </r>
       <r>   -1.1294    1.0000 </r>
       <r>   -1.1233    1.0000 </r>
       <r>   -1.0732    1.0000 </r>
       <r>   -1.0603    1.0000 </r>
       <r>   -1.0201    1.0000 </r>
       <r>   -0.9571    1.0000 </r>
       <r>   -0.8805    1.0000 </r>
       <r>   -0.8785    1.0000 </r>
       <r>   -0.8663    1.0000 </r>
       <r>   -0.7924    1.0000 </r>
       <r>   -0.7041    1.0000 </r>
       <r>   -0.5505    1.0000 </r>
       <r>   -0.4699    1.0000 </r>
       <r>    2.6822    0.0000 </r>
       <r>    2.6972    0.0000 </r>
       <r>    3.1073    0.0000 </r>
       <r>    3.1300    0.0000 </r>
       <r>    3.7578    0.0000 </r>
       <r>    3.9994    0.0000 </r>
       <r>    4.0439    0.0000 </r>
       <r>    4.0593    0.0000 </r>
       <r>    4.2039    0.0000 </r>
       <r>    4.2667    0.0000 </r>
       <r>    4.3250    0.0000 </r>
       <r>    4.3283    0.0000 </r>
       <r>    4.3638    0.0000 </r>
       <r>    4.4006    0.0000 </r>
       <r>    4.4626    0.0000 </r>
       <r>    4.5079    0.0000 </r>
       <r>    4.5629    0.0000 </r>
       <r>    4.5973    0.0000 </r>
       <r>    4.7239    0.0000 </r>
       <r>    4.8033    0.0000 </r>
       <r>    5.3636    0.0000 </r>
       <r>    5.5245    0.0000 </r>
       <r>    5.5824    0.0000 </r>
       <r>    5.7744    0.0000 </r>
       <r>    5.8119    0.0000 </r>
       <r>    5.8662    0.0000 </r>
       <r>    6.0016    0.0000 </r>
       <r>    6.0128    0.0000 </r>
       <r>    6.0785    0.0000 </r>
       <r>    6.1886    0.0000 </r>
       <r>    6.1983    0.0000 </r>
       <r>    6.2424    0.0000 </r>
       <r>    6.3805    0.0000 </r>
       <r>    6.4183    0.0000 </r>
       <r>    6.4838    0.0000 </r>
       <r>    6.5315    0.0000 </r>
      </set>
      <set comment="kpoint 5">
       <r>  -21.0321    1.0000 </r>
       <r>  -21.0244    1.0000 </r>
       <r>  -21.0207    1.0000 </r>
       <r>  -20.9597    1.0000 </r>
       <r>  -20.9569    1.0000 </r>
       <r>  -20.9519    1.0000 </r>
       <r>  -20.8973    1.0000 </r>
       <r>  -16.8989    1.0000 </r>
       <r>  -16.8588    1.0000 </r>
       <r>  -16.8481    1.0000 </r>
       <r>  -16.8336    1.0000 </r>
       <r>  -16.8161    1.0000 </r>
       <r>  -16.8135    1.0000 </r>
       <r>  -16.7992    1.0000 </r>
       <r>  -16.7749    1.0000 </r>
       <r>  -16.7564    1.0000 </r>
       <r>  -16.7552    1.0000 </r>
       <r>  -16.7370    1.0000 </r>
       <r>  -16.7364    1.0000 </r>
       <r>  -16.7177    1.0000 </r>
       <r>  -16.7171    1.0000 </r>
       <r>  -16.7113    1.0000 </r>
       <r>  -16.7098    1.0000 </r>
       <r>  -16.6864    1.0000 </r>
       <r>  -16.6862    1.0000 </r>
       <r>  -16.6820    1.0000 </r>
       <r>  -16.6812    1.0000 </r>
       <r>  -16.5726    1.0000 </r>
       <r>  -16.5447    1.0000 </r>
       <r>  -16.5444    1.0000 </r>
       <r>  -16.5159    1.0000 </r>
       <r>  -16.5147    1.0000 </r>
       <r>  -16.4999    1.0000 </r>
       <r>  -16.4999    1.0000 </r>
       <r>  -16.4612    1.0000 </r>
       <r>  -16.4395    1.0000 </r>
       <r>  -16.4389    1.0000 </r>
       <r>  -16.4370    1.0000 </r>
       <r>  -16.4366    1.0000 </r>
       <r>  -16.4265    1.0000 </r>
       <r>  -16.4254    1.0000 </r>
       <r>  -16.3965    1.0000 </r>
       <r>  -16.3964    1.0000 </r>
       <r>  -16.3846    1.0000 </r>
       <r>  -16.3831    1.0000 </r>
       <r>  -16.3790    1.0000 </r>
       <r>  -16.3778    1.0000 </r>
       <r>  -14.8906    1.0000 </r>
       <r>  -14.7189    1.0000 </r>
       <r>  -14.6479    1.0000 </r>
       <r>  -14.5093    1.0000 </r>
       <r>  -14.4392    1.0000 </r>
       <r>  -14.3531    1.0000 </r>
       <r>  -14.3232    1.0000 </r>
       <r>  -14.2703    1.0000 </r>
       <r>  -14.2161    1.0000 </r>
       <r>  -14.1893    1.0000 </r>
       <r>  -14.1683    1.0000 </r>
       <r>  -14.1480    1.0000 </r>
       <r>  -14.1301    1.0000 </r>
       <r>  -14.1182    1.0000 </r>
       <r>  -14.1141    1.0000 </r>
       <r>  -14.1046    1.0000 </r>
       <r>  -14.0434    1.0000 </r>
       <r>  -13.9569    1.0000 </r>
       <r>  -13.9426    1.0000 </r>
       <r>  -13.9201    1.0000 </r>
       <r>  -13.9153    1.0000 </r>
       <r>  -13.9030    1.0000 </r>
       <r>  -13.8063    1.0000 </r>
       <r>  -13.6418    1.0000 </r>
       <r>   -8.3127    1.0000 </r>
       <r>   -8.2261    1.0000 </r>
       <r>   -7.9044    1.0000 </r>
       <r>   -7.8624    1.0000 </r>
       <r>   -7.7090    1.0000 </r>
       <r>   -7.6534    1.0000 </r>
       <r>   -7.6300    1.0000 </r>
       <r>   -7.5123    1.0000 </r>
       <r>   -7.4715    1.0000 </r>
       <r>   -7.4425    1.0000 </r>
       <r>   -7.4260    1.0000 </r>
       <r>   -7.4177    1.0000 </r>
       <r>   -7.4167    1.0000 </r>
       <r>   -7.3861    1.0000 </r>
       <r>   -7.3784    1.0000 </r>
       <r>   -7.3747    1.0000 </r>
       <r>   -7.3735    1.0000 </r>
       <r>   -7.3710    1.0000 </r>
       <r>   -7.3604    1.0000 </r>
       <r>   -7.3582    1.0000 </r>
       <r>   -7.3489    1.0000 </r>
       <r>   -7.3398    1.0000 </r>
       <r>   -7.3313    1.0000 </r>
       <r>   -7.3303    1.0000 </r>
       <r>   -7.3061    1.0000 </r>
       <r>   -7.2941    1.0000 </r>
       <r>   -7.2899    1.0000 </r>
       <r>   -7.0838    1.0000 </r>
       <r>   -7.0299    1.0000 </r>
       <r>   -3.6653    1.0000 </r>
       <r>   -3.5607    1.0000 </r>
       <r>   -3.3913    1.0000 </r>
       <r>   -3.3631    1.0000 </r>
       <r>   -3.2796    1.0000 </r>
       <r>   -3.2435    1.0000 </r>
       <r>   -3.2368    1.0000 </r>
       <r>   -3.1355    1.0000 </r>
       <r>   -3.0126    1.0000 </r>
       <r>   -2.9614    1.0000 </r>
       <r>   -2.8363    1.0000 </r>
       <r>   -2.7132    1.0000 </r>
       <r>   -2.5691    1.0000 </r>
       <r>   -2.5418    1.0000 </r>
       <r>   -2.5127    1.0000 </r>
       <r>   -2.4396    1.0000 </r>
       <r>   -2.4120    1.0000 </r>
       <r>   -2.2890    1.0000 </r>
       <r>   -2.2651    1.0000 </r>
       <r>   -2.2563    1.0000 </r>
       <r>   -2.2125    1.0000 </r>
       <r>   -2.1717    1.0000 </r>
       <r>   -2.1388    1.0000 </r>
       <r>   -1.9660    1.0000 </r>
       <r>   -1.9528    1.0000 </r>
       <r>   -1.9524    1.0000 </r>
       <r>   -1.9040    1.0000 </r>
       <r>   -1.9016    1.0000 </r>
       <r>   -1.8524    1.0000 </r>
       <r>   -1.7931    1.0000 </r>
       <r>   -1.7047    1.0000 </r>
       <r>   -1.7029    1.0000 </r>
       <r>   -1.6957    1.0000 </r>
       <r>   -1.6633    1.0000 </r>
       <r>   -1.6589    1.0000 </r>
       <r>   -1.6180    1.0000 </r>
       <r>   -1.6024    1.0000 </r>
       <r>   -1.5825    1.0000 </r>
       <r>   -1.5777    1.0000 </r>
       <r>   -1.5750    1.0000 </r>
       <r>   -1.5406    1.0000 </r>
       <r>   -1.5406    1.0000 </r>
       <r>   -1.5153    1.0000 </r>
       <r>   -1.5007    1.0000 </r>
       <r>   -1.4706    1.0000 </r>
       <r>   -1.4225    1.0000 </r>
       <r>   -1.4225    1.0000 </r>
       <r>   -1.3922    1.0000 </r>
       <r>   -1.3914    1.0000 </r>
       <r>   -1.3690    1.0000 </r>
       <r>   -1.3676    1.0000 </r>
       <r>   -1.3450    1.0000 </r>
       <r>   -1.3099    1.0000 </r>
       <r>   -1.2963    1.0000 </r>
       <r>   -1.2791    1.0000 </r>
       <r>   -1.2433    1.0000 </r>
       <r>   -1.2243    1.0000 </r>
       <r>   -1.2171    1.0000 </r>
       <r>   -1.2075    1.0000 </r>
       <r>   -1.1422    1.0000 </r>
       <r>   -1.1090    1.0000 </r>
       <r>   -1.0831    1.0000 </r>
       <r>   -0.9747    1.0000 </r>
       <r>   -0.9226    1.0000 </r>
       <r>   -0.9067    1.0000 </r>
       <r>   -0.8972    1.0000 </r>
       <r>   -0.7490    1.0000 </r>
       <r>   -0.7304    1.0000 </r>
       <r>   -0.7157    1.0000 </r>
       <r>   -0.6354    1.0000 </r>
       <r>   -0.1923    1.0000 </r>
       <r>   -0.0719    1.0000 </r>
       <r>    2.6472    0.0000 </r>
       <r>    2.6756    0.0000 </r>
       <r>    2.7556    0.0000 </r>
       <r>    2.8063    0.0000 </r>
       <r>    3.1145    0.0000 </r>
       <r>    3.1232    0.0000 </r>
       <r>    3.1768    0.0000 </r>
       <r>    3.2177    0.0000 </r>
       <r>    3.8255    0.0000 </r>
       <r>    3.9801    0.0000 </r>
       <r>    4.1454    0.0000 </r>
       <r>    4.3543    0.0000 </r>
       <r>    4.3642    0.0000 </r>
       <r>    4.3949    0.0000 </r>
       <r>    4.6508    0.0000 </r>
       <r>    4.7495    0.0000 </r>
       <r>    5.2033    0.0000 </r>
       <r>    5.2959    0.0000 </r>
       <r>    5.3609    0.0000 </r>
       <r>    5.4398    0.0000 </r>
       <r>    5.4729    0.0000 </r>
       <r>    5.6316    0.0000 </r>
       <r>    5.6472    0.0000 </r>
       <r>    5.8646    0.0000 </r>
       <r>    5.9608    0.0000 </r>
       <r>    6.0104    0.0000 </r>
       <r>    6.0454    0.0000 </r>
       <r>    6.1153    0.0000 </r>
       <r>    6.1254    0.0000 </r>
       <r>    6.1975    0.0000 </r>
       <r>    6.3164    0.0000 </r>
       <r>    6.3763    0.0000 </r>
       <r>    6.4307    0.0000 </r>
       <r>    6.4618    0.0000 </r>
       <r>    6.5024    0.0000 </r>
       <r>    6.5351    0.0000 </r>
      </set>
      <set comment="kpoint 6">
       <r>  -21.0320    1.0000 </r>
       <r>  -21.0244    1.0000 </r>
       <r>  -21.0207    1.0000 </r>
       <r>  -20.9597    1.0000 </r>
       <r>  -20.9568    1.0000 </r>
       <r>  -20.9519    1.0000 </r>
       <r>  -20.8972    1.0000 </r>
       <r>  -16.8988    1.0000 </r>
       <r>  -16.8585    1.0000 </r>
       <r>  -16.8479    1.0000 </r>
       <r>  -16.8319    1.0000 </r>
       <r>  -16.8148    1.0000 </r>
       <r>  -16.8126    1.0000 </r>
       <r>  -16.7967    1.0000 </r>
       <r>  -16.7726    1.0000 </r>
       <r>  -16.7563    1.0000 </r>
       <r>  -16.7551    1.0000 </r>
       <r>  -16.7370    1.0000 </r>
       <r>  -16.7364    1.0000 </r>
       <r>  -16.7176    1.0000 </r>
       <r>  -16.7170    1.0000 </r>
       <r>  -16.7112    1.0000 </r>
       <r>  -16.7098    1.0000 </r>
       <r>  -16.6863    1.0000 </r>
       <r>  -16.6861    1.0000 </r>
       <r>  -16.6819    1.0000 </r>
       <r>  -16.6811    1.0000 </r>
       <r>  -16.5738    1.0000 </r>
       <r>  -16.5477    1.0000 </r>
       <r>  -16.5462    1.0000 </r>
       <r>  -16.5167    1.0000 </r>
       <r>  -16.5152    1.0000 </r>
       <r>  -16.5018    1.0000 </r>
       <r>  -16.5012    1.0000 </r>
       <r>  -16.4617    1.0000 </r>
       <r>  -16.4394    1.0000 </r>
       <r>  -16.4388    1.0000 </r>
       <r>  -16.4370    1.0000 </r>
       <r>  -16.4365    1.0000 </r>
       <r>  -16.4265    1.0000 </r>
       <r>  -16.4255    1.0000 </r>
       <r>  -16.3964    1.0000 </r>
       <r>  -16.3963    1.0000 </r>
       <r>  -16.3845    1.0000 </r>
       <r>  -16.3830    1.0000 </r>
       <r>  -16.3790    1.0000 </r>
       <r>  -16.3777    1.0000 </r>
       <r>  -14.8910    1.0000 </r>
       <r>  -14.7188    1.0000 </r>
       <r>  -14.6476    1.0000 </r>
       <r>  -14.5071    1.0000 </r>
       <r>  -14.4368    1.0000 </r>
       <r>  -14.3495    1.0000 </r>
       <r>  -14.3228    1.0000 </r>
       <r>  -14.3059    1.0000 </r>
       <r>  -14.2736    1.0000 </r>
       <r>  -14.2125    1.0000 </r>
       <r>  -14.1674    1.0000 </r>
       <r>  -14.1607    1.0000 </r>
       <r>  -14.0829    1.0000 </r>
       <r>  -14.0701    1.0000 </r>
       <r>  -14.0508    1.0000 </r>
       <r>  -14.0405    1.0000 </r>
       <r>  -14.0221    1.0000 </r>
       <r>  -13.9722    1.0000 </r>
       <r>  -13.9664    1.0000 </r>
       <r>  -13.9607    1.0000 </r>
       <r>  -13.9256    1.0000 </r>
       <r>  -13.9236    1.0000 </r>
       <r>  -13.8131    1.0000 </r>
       <r>  -13.6448    1.0000 </r>
       <r>   -8.2391    1.0000 </r>
       <r>   -8.1184    1.0000 </r>
       <r>   -7.8643    1.0000 </r>
       <r>   -7.8344    1.0000 </r>
       <r>   -7.8001    1.0000 </r>
       <r>   -7.7724    1.0000 </r>
       <r>   -7.5980    1.0000 </r>
       <r>   -7.4747    1.0000 </r>
       <r>   -7.4524    1.0000 </r>
       <r>   -7.4404    1.0000 </r>
       <r>   -7.4268    1.0000 </r>
       <r>   -7.4215    1.0000 </r>
       <r>   -7.4156    1.0000 </r>
       <r>   -7.3995    1.0000 </r>
       <r>   -7.3835    1.0000 </r>
       <r>   -7.3748    1.0000 </r>
       <r>   -7.3698    1.0000 </r>
       <r>   -7.3621    1.0000 </r>
       <r>   -7.3618    1.0000 </r>
       <r>   -7.3576    1.0000 </r>
       <r>   -7.3452    1.0000 </r>
       <r>   -7.3340    1.0000 </r>
       <r>   -7.3331    1.0000 </r>
       <r>   -7.3149    1.0000 </r>
       <r>   -7.3059    1.0000 </r>
       <r>   -7.2963    1.0000 </r>
       <r>   -7.2918    1.0000 </r>
       <r>   -7.2597    1.0000 </r>
       <r>   -7.1927    1.0000 </r>
       <r>   -3.6603    1.0000 </r>
[...]
        <r>  0.0014  0.0019  0.0011 </r>
        <r>  0.0004  0.0016  0.0006 </r>
        <r>  0.0004  0.0019  0.0045 </r>
        <r>  0.0002  0.0011  0.0002 </r>
        <r>  0.0000  0.0012  0.0004 </r>
        <r>  0.0004  0.0014  0.0007 </r>
        <r>  0.0003  0.0001  0.0003 </r>
        <r>  0.0009  0.0011  0.0008 </r>
        <r>  0.0000  0.0002  0.0157 </r>
       </set>
       <set comment="band 199">
        <r>  0.0000  0.0000  0.0007 </r>
        <r>  0.0000  0.0000  0.0083 </r>
        <r>  0.0052  0.0010  0.0270 </r>
        <r>  0.0000  0.0000  0.0015 </r>
        <r>  0.0000  0.0000  0.0014 </r>
        <r>  0.0004  0.0005  0.0053 </r>
        <r>  0.0000  0.0049  0.0000 </r>
        <r>  0.0000  0.0015  0.0007 </r>
        <r>  0.0000  0.0029  0.0006 </r>
        <r>  0.0002  0.0005  0.0001 </r>
        <r>  0.0000  0.0029  0.0006 </r>
        <r>  0.0002  0.0005  0.0001 </r>
        <r>  0.0000  0.0049  0.0000 </r>
        <r>  0.0000  0.0015  0.0007 </r>
        <r>  0.0004  0.0047  0.0074 </r>
        <r>  0.0005  0.0012  0.0004 </r>
        <r>  0.0000  0.0003  0.0001 </r>
        <r>  0.0000  0.0002  0.0002 </r>
        <r>  0.0002  0.0057  0.0007 </r>
        <r>  0.0004  0.0017  0.0060 </r>
        <r>  0.0000  0.0010  0.0005 </r>
        <r>  0.0000  0.0002  0.0004 </r>
        <r>  0.0001  0.0044  0.0007 </r>
        <r>  0.0003  0.0003  0.0001 </r>
        <r>  0.0001  0.0006  0.0011 </r>
        <r>  0.0010  0.0023  0.0010 </r>
        <r>  0.0012  0.0013  0.0011 </r>
        <r>  0.0001  0.0001  0.0002 </r>
        <r>  0.0001  0.0020  0.0010 </r>
        <r>  0.0002  0.0026  0.0008 </r>
        <r>  0.0001  0.0044  0.0007 </r>
        <r>  0.0003  0.0003  0.0001 </r>
        <r>  0.0001  0.0006  0.0011 </r>
        <r>  0.0010  0.0023  0.0010 </r>
        <r>  0.0001  0.0020  0.0010 </r>
        <r>  0.0002  0.0026  0.0008 </r>
        <r>  0.0012  0.0013  0.0011 </r>
        <r>  0.0001  0.0001  0.0002 </r>
        <r>  0.0006  0.0007  0.0594 </r>
       </set>
       <set comment="band 200">
        <r>  0.0051  0.0008  0.0127 </r>
        <r>  0.0045  0.0020  0.0129 </r>
        <r>  0.0000  0.0001  0.0019 </r>
        <r>  0.0038  0.0027  0.0128 </r>
        <r>  0.0087  0.0021  0.0037 </r>
        <r>  0.0000  0.0007  0.0078 </r>
        <r>  0.0000  0.0022  0.0000 </r>
        <r>  0.0001  0.0058  0.0001 </r>
        <r>  0.0000  0.0054  0.0001 </r>
        <r>  0.0000  0.0013  0.0000 </r>
        <r>  0.0000  0.0054  0.0001 </r>
        <r>  0.0000  0.0013  0.0000 </r>
        <r>  0.0000  0.0022  0.0000 </r>
        <r>  0.0001  0.0058  0.0001 </r>
        <r>  0.0000  0.0085  0.0001 </r>
        <r>  0.0000  0.0000  0.0000 </r>
        <r>  0.0001  0.0051  0.0002 </r>
        <r>  0.0004  0.0069  0.0016 </r>
        <r>  0.0000  0.0001  0.0000 </r>
        <r>  0.0000  0.0005  0.0001 </r>
        <r>  0.0099  0.0007  0.0069 </r>
        <r>  0.0001  0.0014  0.0031 </r>
        <r>  0.0007  0.0017  0.0005 </r>
        <r>  0.0000  0.0015  0.0006 </r>
        <r>  0.0004  0.0024  0.0016 </r>
        <r>  0.0001  0.0001  0.0004 </r>
        <r>  0.0027  0.0054  0.0023 </r>
        <r>  0.0000  0.0010  0.0006 </r>
        <r>  0.0005  0.0018  0.0004 </r>
        <r>  0.0000  0.0014  0.0003 </r>
        <r>  0.0007  0.0017  0.0005 </r>
        <r>  0.0000  0.0015  0.0006 </r>
        <r>  0.0004  0.0024  0.0016 </r>
        <r>  0.0001  0.0001  0.0004 </r>
        <r>  0.0005  0.0018  0.0004 </r>
        <r>  0.0000  0.0014  0.0003 </r>
        <r>  0.0027  0.0054  0.0023 </r>
        <r>  0.0000  0.0010  0.0006 </r>
        <r>  0.0000  0.0005  0.0060 </r>
       </set>
       <set comment="band 201">
        <r>  0.0135  0.0010  0.0123 </r>
        <r>  0.0031  0.0028  0.0028 </r>
        <r>  0.0000  0.0000  0.0078 </r>
        <r>  0.0083  0.0010  0.0110 </r>
        <r>  0.0007  0.0007  0.0043 </r>
        <r>  0.0000  0.0007  0.0097 </r>
        <r>  0.0000  0.0026  0.0001 </r>
        <r>  0.0000  0.0057  0.0001 </r>
        <r>  0.0001  0.0054  0.0001 </r>
        <r>  0.0000  0.0119  0.0001 </r>
        <r>  0.0001  0.0054  0.0001 </r>
        <r>  0.0000  0.0120  0.0001 </r>
        <r>  0.0000  0.0026  0.0001 </r>
        <r>  0.0000  0.0057  0.0001 </r>
        <r>  0.0000  0.0001  0.0002 </r>
        <r>  0.0000  0.0038  0.0001 </r>
        <r>  0.0001  0.0000  0.0019 </r>
        <r>  0.0069  0.0018  0.0057 </r>
        <r>  0.0000  0.0001  0.0002 </r>
        <r>  0.0000  0.0084  0.0002 </r>
        <r>  0.0000  0.0032  0.0004 </r>
        <r>  0.0010  0.0043  0.0022 </r>
        <r>  0.0002  0.0015  0.0017 </r>
        <r>  0.0006  0.0033  0.0009 </r>
        <r>  0.0004  0.0027  0.0008 </r>
        <r>  0.0000  0.0014  0.0005 </r>
        <r>  0.0022  0.0033  0.0024 </r>
        <r>  0.0003  0.0020  0.0006 </r>
        <r>  0.0000  0.0002  0.0001 </r>
        <r>  0.0011  0.0008  0.0009 </r>
        <r>  0.0002  0.0015  0.0017 </r>
        <r>  0.0006  0.0033  0.0009 </r>
        <r>  0.0004  0.0027  0.0008 </r>
        <r>  0.0000  0.0014  0.0005 </r>
        <r>  0.0000  0.0002  0.0001 </r>
        <r>  0.0011  0.0008  0.0010 </r>
        <r>  0.0022  0.0033  0.0024 </r>
        <r>  0.0003  0.0021  0.0006 </r>
        <r>  0.0000  0.0007  0.0014 </r>
       </set>
       <set comment="band 202">
        <r>  0.0000  0.0001  0.0050 </r>
        <r>  0.0000  0.0007  0.0063 </r>
        <r>  0.0058  0.0002  0.0097 </r>
        <r>  0.0000  0.0000  0.0142 </r>
        <r>  0.0000  0.0005  0.0068 </r>
        <r>  0.0106  0.0007  0.0108 </r>
        <r>  0.0000  0.0048  0.0001 </r>
        <r>  0.0000  0.0009  0.0001 </r>
        <r>  0.0000  0.0097  0.0001 </r>
        <r>  0.0000  0.0083  0.0001 </r>
        <r>  0.0000  0.0097  0.0001 </r>
        <r>  0.0000  0.0083  0.0001 </r>
        <r>  0.0000  0.0048  0.0001 </r>
        <r>  0.0000  0.0009  0.0001 </r>
        <r>  0.0001  0.0043  0.0011 </r>
        <r>  0.0000  0.0030  0.0003 </r>
        <r>  0.0000  0.0070  0.0001 </r>
        <r>  0.0000  0.0000  0.0001 </r>
        <r>  0.0018  0.0007  0.0013 </r>
        <r>  0.0001  0.0024  0.0019 </r>
        <r>  0.0000  0.0001  0.0001 </r>
        <r>  0.0000  0.0002  0.0002 </r>
        <r>  0.0012  0.0042  0.0011 </r>
        <r>  0.0001  0.0002  0.0008 </r>
        <r>  0.0000  0.0005  0.0007 </r>
        <r>  0.0021  0.0018  0.0024 </r>
        <r>  0.0002  0.0012  0.0023 </r>
        <r>  0.0003  0.0051  0.0002 </r>
        <r>  0.0019  0.0023  0.0023 </r>
        <r>  0.0001  0.0017  0.0011 </r>
        <r>  0.0012  0.0042  0.0011 </r>
        <r>  0.0001  0.0003  0.0008 </r>
        <r>  0.0000  0.0005  0.0007 </r>
        <r>  0.0021  0.0018  0.0024 </r>
        <r>  0.0019  0.0023  0.0023 </r>
        <r>  0.0001  0.0017  0.0011 </r>
        <r>  0.0002  0.0012  0.0023 </r>
        <r>  0.0003  0.0051  0.0002 </r>
        <r>  0.0001  0.0049  0.0027 </r>
       </set>
       <set comment="band 203">
        <r>  0.0000  0.0000  0.0152 </r>
        <r>  0.0000  0.0000  0.0043 </r>
        <r>  0.0107  0.0008  0.0010 </r>
        <r>  0.0000  0.0013  0.0018 </r>
        <r>  0.0000  0.0008  0.0100 </r>
        <r>  0.0061  0.0007  0.0152 </r>
        <r>  0.0001  0.0055  0.0000 </r>
        <r>  0.0000  0.0106  0.0006 </r>
        <r>  0.0000  0.0023  0.0006 </r>
        <r>  0.0000  0.0036  0.0002 </r>
        <r>  0.0000  0.0023  0.0006 </r>
        <r>  0.0000  0.0036  0.0002 </r>
        <r>  0.0001  0.0056  0.0000 </r>
        <r>  0.0000  0.0106  0.0005 </r>
        <r>  0.0019  0.0023  0.0013 </r>
        <r>  0.0001  0.0022  0.0004 </r>
        <r>  0.0000  0.0002  0.0000 </r>
        <r>  0.0000  0.0037  0.0002 </r>
        <r>  0.0002  0.0036  0.0004 </r>
        <r>  0.0018  0.0026  0.0043 </r>
        <r>  0.0000  0.0051  0.0011 </r>
        <r>  0.0000  0.0013  0.0001 </r>
        <r>  0.0009  0.0009  0.0017 </r>
        <r>  0.0001  0.0032  0.0012 </r>
        <r>  0.0002  0.0025  0.0015 </r>
        <r>  0.0001  0.0016  0.0008 </r>
        <r>  0.0006  0.0015  0.0003 </r>
        <r>  0.0001  0.0011  0.0003 </r>
        <r>  0.0017  0.0018  0.0016 </r>
        <r>  0.0018  0.0020  0.0029 </r>
        <r>  0.0009  0.0009  0.0016 </r>
        <r>  0.0001  0.0032  0.0012 </r>
        <r>  0.0002  0.0025  0.0015 </r>
        <r>  0.0001  0.0016  0.0008 </r>
        <r>  0.0017  0.0018  0.0016 </r>
        <r>  0.0018  0.0020  0.0029 </r>
        <r>  0.0006  0.0015  0.0003 </r>
        <r>  0.0001  0.0011  0.0003 </r>
        <r>  0.0000  0.0012  0.0175 </r>
       </set>
       <set comment="band 204">
        <r>  0.0001  0.0008  0.0130 </r>
        <r>  0.0153  0.0014  0.0042 </r>
        <r>  0.0000  0.0005  0.0054 </r>
        <r>  0.0058  0.0023  0.0111 </r>
        <r>  0.0001  0.0021  0.0140 </r>
        <r>  0.0000  0.0001  0.0050 </r>
        <r>  0.0000  0.0132  0.0001 </r>
        <r>  0.0000  0.0012  0.0000 </r>
        <r>  0.0000  0.0022  0.0001 </r>
        <r>  0.0000  0.0034  0.0001 </r>
        <r>  0.0000  0.0022  0.0001 </r>
        <r>  0.0000  0.0034  0.0001 </r>
        <r>  0.0000  0.0132  0.0001 </r>
        <r>  0.0000  0.0011  0.0000 </r>
        <r>  0.0000  0.0003  0.0001 </r>
        <r>  0.0000  0.0023  0.0001 </r>
        <r>  0.0058  0.0036  0.0070 </r>
        <r>  0.0001  0.0033  0.0006 </r>
        <r>  0.0000  0.0090  0.0001 </r>
        <r>  0.0000  0.0000  0.0001 </r>
        <r>  0.0003  0.0030  0.0033 </r>
        <r>  0.0022  0.0038  0.0018 </r>
        <r>  0.0009  0.0041  0.0011 </r>
        <r>  0.0009  0.0006  0.0009 </r>
        <r>  0.0001  0.0008  0.0004 </r>
        <r>  0.0020  0.0006  0.0015 </r>
        <r>  0.0002  0.0023  0.0015 </r>
        <r>  0.0001  0.0032  0.0002 </r>
        <r>  0.0002  0.0028  0.0008 </r>
        <r>  0.0000  0.0014  0.0001 </r>
        <r>  0.0009  0.0041  0.0011 </r>
        <r>  0.0009  0.0006  0.0009 </r>
        <r>  0.0001  0.0007  0.0004 </r>
        <r>  0.0019  0.0007  0.0015 </r>
        <r>  0.0002  0.0028  0.0008 </r>
        <r>  0.0000  0.0014  0.0001 </r>
        <r>  0.0002  0.0023  0.0015 </r>
        <r>  0.0001  0.0031  0.0001 </r>
        <r>  0.0000  0.0000  0.0014 </r>
       </set>
       <set comment="band 205">
        <r>  0.0000  0.0000  0.0008 </r>
        <r>  0.0000  0.0007  0.0029 </r>
        <r>  0.0002  0.0013  0.0026 </r>
        <r>  0.0000  0.0000  0.0186 </r>
        <r>  0.0000  0.0002  0.0013 </r>
        <r>  0.0088  0.0012  0.0048 </r>
        <r>  0.0000  0.0052  0.0001 </r>
        <r>  0.0000  0.0093  0.0005 </r>
        <r>  0.0000  0.0018  0.0001 </r>
        <r>  0.0001  0.0077  0.0002 </r>
        <r>  0.0000  0.0018  0.0001 </r>
        <r>  0.0001  0.0077  0.0002 </r>
        <r>  0.0000  0.0051  0.0001 </r>
        <r>  0.0000  0.0092  0.0005 </r>
        <r>  0.0013  0.0014  0.0015 </r>
        <r>  0.0024  0.0028  0.0038 </r>
        <r>  0.0000  0.0011  0.0001 </r>
        <r>  0.0000  0.0031  0.0005 </r>
        <r>  0.0006  0.0015  0.0009 </r>
        <r>  0.0014  0.0060  0.0031 </r>
        <r>  0.0000  0.0011  0.0001 </r>
        <r>  0.0000  0.0114  0.0002 </r>
        <r>  0.0000  0.0006  0.0005 </r>
        <r>  0.0010  0.0020  0.0011 </r>
        <r>  0.0000  0.0011  0.0004 </r>
        <r>  0.0011  0.0027  0.0015 </r>
        <r>  0.0010  0.0005  0.0014 </r>
        <r>  0.0004  0.0014  0.0004 </r>
        <r>  0.0001  0.0016  0.0007 </r>
        <r>  0.0001  0.0050  0.0013 </r>
        <r>  0.0000  0.0006  0.0005 </r>
        <r>  0.0011  0.0019  0.0012 </r>
        <r>  0.0000  0.0012  0.0005 </r>
        <r>  0.0011  0.0027  0.0015 </r>
        <r>  0.0001  0.0016  0.0007 </r>
        <r>  0.0001  0.0049  0.0013 </r>
        <r>  0.0010  0.0005  0.0014 </r>
        <r>  0.0004  0.0014  0.0004 </r>
        <r>  0.0000  0.0086  0.0060 </r>
       </set>
       <set comment="band 206">
        <r>  0.0021  0.0005  0.0217 </r>
        <r>  0.0000  0.0001  0.0322 </r>
        <r>  0.0000  0.0003  0.0236 </r>
        <r>  0.0020  0.0002  0.0063 </r>
        <r>  0.0010  0.0002  0.0088 </r>
        <r>  0.0000  0.0002  0.0257 </r>
        <r>  0.0001  0.0058  0.0009 </r>
        <r>  0.0000  0.0031  0.0002 </r>
        <r>  0.0000  0.0084  0.0009 </r>
        <r>  0.0000  0.0028  0.0001 </r>
        <r>  0.0000  0.0085  0.0009 </r>
        <r>  0.0000  0.0028  0.0001 </r>
        <r>  0.0001  0.0058  0.0010 </r>
        <r>  0.0000  0.0030  0.0002 </r>
        <r>  0.0000  0.0002  0.0009 </r>
        <r>  0.0000  0.0002  0.0001 </r>
        <r>  0.0008  0.0002  0.0016 </r>
        <r>  0.0008  0.0011  0.0029 </r>
        <r>  0.0000  0.0009  0.0005 </r>
        <r>  0.0000  0.0001  0.0008 </r>
        <r>  0.0000  0.0001  0.0007 </r>
        <r>  0.0003  0.0001  0.0009 </r>
        <r>  0.0006  0.0010  0.0026 </r>
        <r>  0.0002  0.0004  0.0017 </r>
        <r>  0.0001  0.0011  0.0005 </r>
        <r>  0.0007  0.0026  0.0028 </r>
        <r>  0.0007  0.0012  0.0033 </r>
        <r>  0.0000  0.0001  0.0009 </r>
        <r>  0.0003  0.0022  0.0014 </r>
        <r>  0.0006  0.0035  0.0007 </r>
        <r>  0.0006  0.0010  0.0026 </r>
        <r>  0.0003  0.0004  0.0018 </r>
        <r>  0.0001  0.0011  0.0005 </r>
        <r>  0.0007  0.0026  0.0027 </r>
        <r>  0.0003  0.0022  0.0015 </r>
        <r>  0.0006  0.0034  0.0007 </r>
        <r>  0.0007  0.0012  0.0033 </r>
        <r>  0.0000  0.0001  0.0009 </r>
        <r>  0.0000  0.0003  0.0011 </r>
       </set>
       <set comment="band 207">
        <r>  0.0000  0.0009  0.0044 </r>
        <r>  0.0005  0.0002  0.0069 </r>
        <r>  0.0000  0.0000  0.0072 </r>
        <r>  0.0029  0.0004  0.0577 </r>
        <r>  0.0020  0.0002  0.0359 </r>
        <r>  0.0000  0.0000  0.0032 </r>
        <r>  0.0000  0.0021  0.0004 </r>
        <r>  0.0000  0.0013  0.0004 </r>
        <r>  0.0000  0.0013  0.0011 </r>
        <r>  0.0001  0.0031  0.0006 </r>
        <r>  0.0001  0.0014  0.0011 </r>
        <r>  0.0001  0.0029  0.0006 </r>
        <r>  0.0000  0.0023  0.0004 </r>
        <r>  0.0000  0.0014  0.0004 </r>
        <r>  0.0000  0.0000  0.0016 </r>
        <r>  0.0000  0.0021  0.0005 </r>
        <r>  0.0003  0.0008  0.0007 </r>
        <r>  0.0008  0.0003  0.0018 </r>
        <r>  0.0000  0.0001  0.0003 </r>
        <r>  0.0000  0.0000  0.0002 </r>
        <r>  0.0044  0.0017  0.0064 </r>
        <r>  0.0027  0.0016  0.0044 </r>
        <r>  0.0001  0.0042  0.0028 </r>
        <r>  0.0000  0.0024  0.0015 </r>
        <r>  0.0001  0.0008  0.0017 </r>
        <r>  0.0000  0.0004  0.0006 </r>
        <r>  0.0001  0.0007  0.0012 </r>
        <r>  0.0001  0.0011  0.0010 </r>
        <r>  0.0000  0.0007  0.0005 </r>
        <r>  0.0000  0.0021  0.0010 </r>
        <r>  0.0001  0.0042  0.0028 </r>
        <r>  0.0000  0.0023  0.0015 </r>
        <r>  0.0001  0.0008  0.0019 </r>
        <r>  0.0000  0.0004  0.0006 </r>
        <r>  0.0000  0.0008  0.0005 </r>
        <r>  0.0000  0.0022  0.0009 </r>
        <r>  0.0001  0.0006  0.0013 </r>
        <r>  0.0001  0.0012  0.0010 </r>
        <r>  0.0000  0.0000  0.0123 </r>
       </set>
       <set comment="band 208">
        <r>  0.0002  0.0004  0.0395 </r>
        <r>  0.0000  0.0002  0.0220 </r>
        <r>  0.0000  0.0001  0.0068 </r>
        <r>  0.0004  0.0005  0.0170 </r>
        <r>  0.0023  0.0002  0.0099 </r>
        <r>  0.0000  0.0001  0.0087 </r>
        <r>  0.0000  0.0020  0.0001 </r>
        <r>  0.0001  0.0060  0.0012 </r>
        <r>  0.0000  0.0019  0.0003 </r>
        <r>  0.0000  0.0009  0.0006 </r>
        <r>  0.0000  0.0019  0.0003 </r>
        <r>  0.0000  0.0004  0.0004 </r>
        <r>  0.0000  0.0027  0.0001 </r>
        <r>  0.0001  0.0057  0.0009 </r>
        <r>  0.0001  0.0002  0.0004 </r>
        <r>  0.0000  0.0007  0.0003 </r>
        <r>  0.0012  0.0024  0.0017 </r>
        <r>  0.0000  0.0008  0.0014 </r>
        <r>  0.0000  0.0010  0.0003 </r>
        <r>  0.0000  0.0005  0.0008 </r>
        <r>  0.0003  0.0007  0.0015 </r>
        <r>  0.0002  0.0004  0.0007 </r>
        <r>  0.0001  0.0015  0.0025 </r>
        <r>  0.0008  0.0009  0.0020 </r>
        <r>  0.0008  0.0032  0.0047 </r>
        <r>  0.0000  0.0006  0.0010 </r>
        <r>  0.0002  0.0011  0.0017 </r>
        <r>  0.0000  0.0018  0.0020 </r>
        <r>  0.0003  0.0013  0.0009 </r>
        <r>  0.0001  0.0012  0.0013 </r>
        <r>  0.0001  0.0014  0.0021 </r>
        <r>  0.0008  0.0007  0.0025 </r>
        <r>  0.0011  0.0033  0.0050 </r>
        <r>  0.0001  0.0008  0.0004 </r>
        <r>  0.0003  0.0024  0.0006 </r>
        <r>  0.0001  0.0019  0.0011 </r>
        <r>  0.0001  0.0009  0.0014 </r>
        <r>  0.0001  0.0018  0.0015 </r>
        <r>  0.0000  0.0006  0.0288 </r>
       </set>
      </set>
     </set>
    </set>
   </array>
  </projected>
 </calculation>
 <structure name="finalpos" >
  <crystal>
   <varray name="basis" >
    <v>       8.42001800       0.00000000       8.07798100 </v>
    <v>       0.00000000      11.76380800       0.00000000 </v>
    <v>      -8.42001800       0.00000000       8.07798100 </v>
   </varray>
   <i name="volume">   1600.27186790 </i>
   <varray name="rec_basis" >
    <v>       0.05938230      -0.00000000       0.06189665 </v>
    <v>       0.00000000       0.08500649      -0.00000000 </v>
    <v>      -0.05938230       0.00000000       0.06189665 </v>
   </varray>
  </crystal>
  <varray name="positions" >
   <v>       0.27040000       0.24999800       0.20782800 </v>
   <v>       0.77211100       0.25000100       0.71098000 </v>
   <v>       0.20209800       0.75000100       0.76264800 </v>
   <v>       0.29339500       0.25000100       0.73143600 </v>
   <v>       0.77987000       0.25000100       0.22505100 </v>
   <v>       0.73407700       0.75000100       0.79094300 </v>
   <v>       0.99817100       0.99848600       0.00187000 </v>
   <v>       0.50249100       0.99898200       0.49757400 </v>
   <v>       0.50033100       0.99824800       0.99781600 </v>
   <v>       0.00236600       0.00006100       0.49763500 </v>
   <v>       0.50033200       0.50174800       0.99782200 </v>
   <v>       0.00236600       0.49993700       0.49763600 </v>
   <v>       0.99816900       0.50150400       0.00187400 </v>
   <v>       0.50249500       0.50102400       0.49757200 </v>
   <v>       0.46497200       0.74999600       0.94671200 </v>
   <v>       0.97159200       0.75000000       0.48152900 </v>
   <v>       0.95865900       0.25000200       0.97002800 </v>
   <v>       0.46364400       0.25000400       0.47594200 </v>
   <v>       0.04049000       0.74999900       0.02370200 </v>
   <v>       0.53732500       0.75000700       0.53690900 </v>
   <v>       0.53243600       0.24999600       0.01941600 </v>
   <v>       0.03368500       0.25000000       0.54602800 </v>
   <v>       0.24744200       0.46306400       0.95073400 </v>
   <v>       0.75002700       0.45313100       0.45771600 </v>
   <v>       0.45070800       0.51384900       0.24516500 </v>
   <v>       0.94996400       0.53054800       0.74900600 </v>
   <v>       0.55396500       0.03236700       0.74974200 </v>
   <v>       0.04164800       0.04843000       0.25163300 </v>
   <v>       0.75045600       0.96162200       0.04969700 </v>
   <v>       0.25412800       0.97580400       0.55745200 </v>
   <v>       0.24744100       0.03693500       0.95073400 </v>
   <v>       0.75002900       0.04687100       0.45771900 </v>
   <v>       0.45070900       0.98614900       0.24516700 </v>
   <v>       0.94996600       0.96945500       0.74900700 </v>
   <v>       0.75045700       0.53837500       0.04969400 </v>
   <v>       0.25412900       0.52420000       0.55745200 </v>
   <v>       0.55396500       0.46763500       0.74974200 </v>
   <v>       0.04164700       0.45156700       0.25163400 </v>
   <v>       0.46968200       0.74999900       0.27697500 </v>
  </varray>
 </structure>
</modeling>
