  20  20   1   0
  0.4022524E+02  0.8334944E-09  0.1171448E-08  0.8239540E-09  0.5000000E-15
   1.0000000000000000E-004
  CAR 
 CsPbBr3 cubic bulk                      
      8.59412139    -22.19123625  301      0.51296501      1.00000000
    -22.191  0.0000E+00  0.0000E+00
    -22.089  0.0000E+00  0.0000E+00
    -21.986  0.0000E+00  0.0000E+00
    -21.883  0.0000E+00  0.0000E+00
    -21.781  0.0000E+00  0.0000E+00
    -21.678  0.0000E+00  0.0000E+00
    -21.576  0.0000E+00  0.0000E+00
    -21.473  0.0000E+00  0.0000E+00
    -21.370  0.0000E+00  0.0000E+00
    -21.268  0.0000E+00  0.0000E+00
    -21.165  0.0000E+00  0.0000E+00
    -21.062  0.0000E+00  0.0000E+00
    -20.960  0.0000E+00  0.0000E+00
    -20.857  0.0000E+00  0.0000E+00
    -20.755  0.7796E+02  0.8000E+01
    -20.652  0.0000E+00  0.8000E+01
    -20.549  0.0000E+00  0.8000E+01
    -20.447  0.0000E+00  0.8000E+01
    -20.344  0.0000E+00  0.8000E+01
    -20.241  0.0000E+00  0.8000E+01
    -20.139  0.0000E+00  0.8000E+01
    -20.036  0.0000E+00  0.8000E+01
    -19.934  0.0000E+00  0.8000E+01
    -19.831  0.0000E+00  0.8000E+01
    -19.728  0.0000E+00  0.8000E+01
    -19.626  0.0000E+00  0.8000E+01
    -19.523  0.0000E+00  0.8000E+01
    -19.421  0.0000E+00  0.8000E+01
    -19.318  0.0000E+00  0.8000E+01
    -19.215  0.0000E+00  0.8000E+01
    -19.113  0.0000E+00  0.8000E+01
    -19.010  0.0000E+00  0.8000E+01
    -18.907  0.0000E+00  0.8000E+01
    -18.805  0.0000E+00  0.8000E+01
    -18.702  0.0000E+00  0.8000E+01
    -18.600  0.0000E+00  0.8000E+01
    -18.497  0.0000E+00  0.8000E+01
    -18.394  0.0000E+00  0.8000E+01
    -18.292  0.0000E+00  0.8000E+01
    -18.189  0.0000E+00  0.8000E+01
    -18.087  0.0000E+00  0.8000E+01
    -17.984  0.0000E+00  0.8000E+01
    -17.881  0.0000E+00  0.8000E+01
    -17.779  0.0000E+00  0.8000E+01
    -17.676  0.0000E+00  0.8000E+01
    -17.573  0.0000E+00  0.8000E+01
    -17.471  0.0000E+00  0.8000E+01
    -17.368  0.0000E+00  0.8000E+01
    -17.266  0.0000E+00  0.8000E+01
    -17.163  0.0000E+00  0.8000E+01
    -17.060  0.0000E+00  0.8000E+01
    -16.958  0.0000E+00  0.8000E+01
    -16.855  0.0000E+00  0.8000E+01
    -16.752  0.0000E+00  0.8000E+01
    -16.650  0.0000E+00  0.8000E+01
    -16.547  0.0000E+00  0.8000E+01
    -16.445  0.3134E+02  0.1122E+02
    -16.342  0.8229E+02  0.2400E+02
    -16.239  0.2339E+03  0.4800E+02
    -16.137  0.0000E+00  0.4800E+02
    -16.034  0.0000E+00  0.4800E+02
    -15.932  0.0000E+00  0.4800E+02
    -15.829  0.0000E+00  0.4800E+02
    -15.726  0.0000E+00  0.4800E+02
    -15.624  0.0000E+00  0.4800E+02
    -15.521  0.0000E+00  0.4800E+02
    -15.418  0.0000E+00  0.4800E+02
    -15.316  0.0000E+00  0.4800E+02
    -15.213  0.0000E+00  0.4800E+02
    -15.111  0.0000E+00  0.4800E+02
    -15.008  0.0000E+00  0.4800E+02
    -14.905  0.0000E+00  0.4800E+02
    -14.803  0.0000E+00  0.4800E+02
    -14.700  0.0000E+00  0.4800E+02
    -14.598  0.0000E+00  0.4800E+02
    -14.495  0.0000E+00  0.4800E+02
    -14.392  0.1503E-13  0.4800E+02
    -14.290  0.3244E+01  0.4833E+02
    -14.187  0.1938E+02  0.5077E+02
    -14.084  0.3173E+02  0.5426E+02
    -13.982  0.5154E+02  0.5996E+02
    -13.879  0.4335E+02  0.6456E+02
    -13.777  0.4183E+02  0.7018E+02
    -13.674  0.9745E+01  0.7200E+02
    -13.571  0.0000E+00  0.7200E+02
    -13.469  0.0000E+00  0.7200E+02
    -13.366  0.0000E+00  0.7200E+02
    -13.263  0.0000E+00  0.7200E+02
    -13.161  0.0000E+00  0.7200E+02
    -13.058  0.0000E+00  0.7200E+02
    -12.956  0.0000E+00  0.7200E+02
    -12.853  0.0000E+00  0.7200E+02
    -12.750  0.0000E+00  0.7200E+02
    -12.648  0.0000E+00  0.7200E+02
    -12.545  0.0000E+00  0.7200E+02
    -12.443  0.0000E+00  0.7200E+02
    -12.340  0.0000E+00  0.7200E+02
    -12.237  0.0000E+00  0.7200E+02
    -12.135  0.0000E+00  0.7200E+02
    -12.032  0.0000E+00  0.7200E+02
    -11.929  0.0000E+00  0.7200E+02
    -11.827  0.0000E+00  0.7200E+02
    -11.724  0.0000E+00  0.7200E+02
    -11.622  0.0000E+00  0.7200E+02
    -11.519  0.0000E+00  0.7200E+02
    -11.416  0.0000E+00  0.7200E+02
    -11.314  0.0000E+00  0.7200E+02
    -11.211  0.0000E+00  0.7200E+02
    -11.109  0.0000E+00  0.7200E+02
    -11.006  0.0000E+00  0.7200E+02
    -10.903  0.0000E+00  0.7200E+02
    -10.801  0.0000E+00  0.7200E+02
    -10.698  0.0000E+00  0.7200E+02
    -10.595  0.0000E+00  0.7200E+02
    -10.493  0.0000E+00  0.7200E+02
    -10.390  0.0000E+00  0.7200E+02
    -10.288  0.0000E+00  0.7200E+02
    -10.185  0.0000E+00  0.7200E+02
    -10.082  0.0000E+00  0.7200E+02
     -9.980  0.0000E+00  0.7200E+02
     -9.877  0.0000E+00  0.7200E+02
     -9.774  0.0000E+00  0.7200E+02
     -9.672  0.0000E+00  0.7200E+02
     -9.569  0.0000E+00  0.7200E+02
     -9.467  0.0000E+00  0.7200E+02
     -9.364  0.0000E+00  0.7200E+02
     -9.261  0.0000E+00  0.7200E+02
     -9.159  0.0000E+00  0.7200E+02
     -9.056  0.0000E+00  0.7200E+02
     -8.954  0.0000E+00  0.7200E+02
     -8.851  0.0000E+00  0.7200E+02
     -8.748  0.0000E+00  0.7200E+02
     -8.646  0.0000E+00  0.7200E+02
     -8.543  0.0000E+00  0.7200E+02
     -8.440  0.0000E+00  0.7200E+02
     -8.338  0.0000E+00  0.7200E+02
     -8.235  0.0000E+00  0.7200E+02
     -8.133  0.1083E+01  0.7211E+02
     -8.030  0.0000E+00  0.7211E+02
     -7.927  0.6190E+01  0.7275E+02
     -7.825  0.3005E+01  0.7309E+02
     -7.722  0.4471E+01  0.7368E+02
     -7.620  0.1083E+01  0.7422E+02
     -7.517  0.1299E+02  0.7556E+02
     -7.414  0.8662E+01  0.7644E+02
     -7.312  0.1193E+02  0.7767E+02
     -7.209  0.3690E+02  0.8156E+02
     -7.106  0.1385E+03  0.1028E+03
     -7.004  0.1515E+00  0.1028E+03
     -6.901  0.2668E+00  0.1032E+03
     -6.799  0.4330E+01  0.1039E+03
     -6.696  0.0000E+00  0.1039E+03
     -6.593  0.0000E+00  0.1039E+03
     -6.491  0.1083E+01  0.1040E+03
     -6.388  0.0000E+00  0.1040E+03
     -6.285  0.0000E+00  0.1040E+03
     -6.183  0.0000E+00  0.1040E+03
     -6.080  0.0000E+00  0.1040E+03
     -5.978  0.0000E+00  0.1040E+03
     -5.875  0.0000E+00  0.1040E+03
     -5.772  0.0000E+00  0.1040E+03
     -5.670  0.0000E+00  0.1040E+03
     -5.567  0.0000E+00  0.1040E+03
     -5.465  0.0000E+00  0.1040E+03
     -5.362  0.0000E+00  0.1040E+03
     -5.259  0.0000E+00  0.1040E+03
     -5.157  0.0000E+00  0.1040E+03
     -5.054  0.0000E+00  0.1040E+03
     -4.951  0.0000E+00  0.1040E+03
     -4.849  0.0000E+00  0.1040E+03
     -4.746  0.0000E+00  0.1040E+03
     -4.644  0.0000E+00  0.1040E+03
     -4.541  0.0000E+00  0.1040E+03
     -4.438  0.0000E+00  0.1040E+03
     -4.336  0.0000E+00  0.1040E+03
     -4.233  0.0000E+00  0.1040E+03
     -4.130  0.0000E+00  0.1040E+03
     -4.028  0.0000E+00  0.1040E+03
     -3.925  0.0000E+00  0.1040E+03
     -3.823  0.0000E+00  0.1040E+03
     -3.720  0.0000E+00  0.1040E+03
     -3.617  0.0000E+00  0.1040E+03
     -3.515  0.0000E+00  0.1040E+03
     -3.412  0.0000E+00  0.1040E+03
     -3.310  0.9264E-01  0.1040E+03
     -3.207  0.1233E+02  0.1055E+03
     -3.104  0.1624E+02  0.1081E+03
     -3.002  0.5422E+01  0.1087E+03
     -2.899  0.6669E+01  0.1096E+03
     -2.796  0.1342E+02  0.1114E+03
     -2.694  0.1341E+02  0.1132E+03
     -2.591  0.4331E+01  0.1140E+03
     -2.489  0.8694E+01  0.1149E+03
     -2.386  0.1243E+02  0.1164E+03
     -2.283  0.7420E+01  0.1181E+03
     -2.181  0.8688E+01  0.1191E+03
     -2.078  0.1899E+02  0.1213E+03
     -1.976  0.2471E+02  0.1253E+03
     -1.873  0.6405E+01  0.1270E+03
     -1.770  0.9114E+01  0.1282E+03
     -1.668  0.3043E+02  0.1313E+03
     -1.565  0.2057E+02  0.1346E+03
     -1.462  0.3826E+02  0.1385E+03
     -1.360  0.4849E+02  0.1445E+03
     -1.257  0.4656E+02  0.1529E+03
     -1.155  0.4596E+02  0.1594E+03
     -1.052  0.6644E+02  0.1665E+03
     -0.949  0.7579E+01  0.1680E+03
     -0.847  0.6637E+01  0.1687E+03
     -0.744  0.1624E+02  0.1710E+03
     -0.641  0.7527E+01  0.1718E+03
     -0.539  0.1138E+02  0.1732E+03
     -0.436  0.7280E-12  0.1742E+03
     -0.334  0.4331E+01  0.1747E+03
     -0.231  0.0000E+00  0.1747E+03
     -0.128  0.2104E+01  0.1749E+03
     -0.026  0.6549E+01  0.1757E+03
      0.077  0.0000E+00  0.1759E+03
      0.179  0.0000E+00  0.1759E+03
      0.282  0.0000E+00  0.1759E+03
      0.385  0.0000E+00  0.1759E+03
      0.487  0.1083E+01  0.1760E+03
      0.590  0.0000E+00  0.1760E+03
      0.693  0.0000E+00  0.1760E+03
      0.795  0.0000E+00  0.1760E+03
      0.898  0.0000E+00  0.1760E+03
      1.000  0.0000E+00  0.1760E+03
      1.103  0.0000E+00  0.1760E+03
      1.206  0.0000E+00  0.1760E+03
      1.308  0.0000E+00  0.1760E+03
      1.411  0.0000E+00  0.1760E+03
      1.513  0.0000E+00  0.1760E+03
      1.616  0.0000E+00  0.1760E+03
      1.719  0.0000E+00  0.1760E+03
      1.821  0.0000E+00  0.1760E+03
      1.924  0.0000E+00  0.1760E+03
      2.027  0.0000E+00  0.1760E+03
      2.129  0.0000E+00  0.1760E+03
      2.232  0.0000E+00  0.1760E+03
      2.334  0.0000E+00  0.1760E+03
      2.437  0.0000E+00  0.1760E+03
      2.540  0.0000E+00  0.1760E+03
      2.642  0.0000E+00  0.1760E+03
      2.745  0.1646E+00  0.1760E+03
      2.848  0.2165E+01  0.1763E+03
      2.950  0.1049E+01  0.1764E+03
      3.053  0.7617E+01  0.1773E+03
      3.155  0.5413E+01  0.1782E+03
      3.258  0.1317E+02  0.1796E+03
      3.361  0.4325E+01  0.1801E+03
      3.463  0.4091E+01  0.1805E+03
      3.566  0.1685E+01  0.1807E+03
      3.668  0.2169E+01  0.1811E+03
      3.771  0.1082E+02  0.1824E+03
      3.874  0.8833E+01  0.1834E+03
      3.976  0.4331E+01  0.1842E+03
      4.079  0.1292E+02  0.1855E+03
      4.182  0.1676E-12  0.1856E+03
      4.284  0.4331E+01  0.1860E+03
      4.387  0.2166E+01  0.1862E+03
      4.489  0.8293E+01  0.1871E+03
      4.592  0.8662E+01  0.1880E+03
      4.695  0.3524E+01  0.1884E+03
      4.797  0.8662E+01  0.1898E+03
      4.900  0.5770E+01  0.1904E+03
      5.002  0.1596E+01  0.1907E+03
      5.105  0.1083E+02  0.1919E+03
      5.208  0.1472E+02  0.1934E+03
      5.310  0.1514E+02  0.1950E+03
      5.413  0.2166E+01  0.1952E+03
      5.516  0.2166E+01  0.1954E+03
      5.618  0.6496E+01  0.1961E+03
      5.721  0.1083E+01  0.1962E+03
      5.823  0.1406E+02  0.1977E+03
      5.926  0.8659E+01  0.1986E+03
      6.029  0.1171E+02  0.1998E+03
      6.131  0.1158E+02  0.2012E+03
      6.234  0.1202E+02  0.2026E+03
      6.337  0.1889E+02  0.2047E+03
      6.439  0.1680E+02  0.2067E+03
      6.542  0.9515E+01  0.2092E+03
      6.644  0.2407E+02  0.2122E+03
      6.747  0.2149E+02  0.2145E+03
      6.850  0.1740E+02  0.2171E+03
      6.952  0.2965E+02  0.2216E+03
      7.055  0.9728E+01  0.2236E+03
      7.157  0.2840E-06  0.2236E+03
      7.260  0.4331E+01  0.2240E+03
      7.363  0.0000E+00  0.2240E+03
      7.465  0.0000E+00  0.2240E+03
      7.568  0.0000E+00  0.2240E+03
      7.671  0.0000E+00  0.2240E+03
      7.773  0.0000E+00  0.2240E+03
      7.876  0.0000E+00  0.2240E+03
      7.978  0.0000E+00  0.2240E+03
      8.081  0.0000E+00  0.2240E+03
      8.184  0.0000E+00  0.2240E+03
      8.286  0.0000E+00  0.2240E+03
      8.389  0.0000E+00  0.2240E+03
      8.492  0.0000E+00  0.2240E+03
      8.594  0.0000E+00  0.2240E+03
      8.59412139    -22.19123625  301      0.51296501      1.00000000
    -22.191  0.0000E+00  0.0000E+00  0.0000E+00
    -22.089  0.0000E+00  0.0000E+00  0.0000E+00
    -21.986  0.0000E+00  0.0000E+00  0.0000E+00
    -21.883  0.0000E+00  0.0000E+00  0.0000E+00
    -21.781  0.0000E+00  0.0000E+00  0.0000E+00
    -21.678  0.0000E+00  0.0000E+00  0.0000E+00
    -21.576  0.0000E+00  0.0000E+00  0.0000E+00
    -21.473  0.0000E+00  0.0000E+00  0.0000E+00
    -21.370  0.0000E+00  0.0000E+00  0.0000E+00
    -21.268  0.0000E+00  0.0000E+00  0.0000E+00
    -21.165  0.0000E+00  0.0000E+00  0.0000E+00
    -21.062  0.0000E+00  0.0000E+00  0.0000E+00
    -20.960  0.0000E+00  0.0000E+00  0.0000E+00
    -20.857  0.0000E+00  0.0000E+00  0.0000E+00
    -20.755  0.1730E+02  0.4204E-05  0.2544E-05
    -20.652  0.0000E+00  0.0000E+00  0.0000E+00
    -20.549  0.0000E+00  0.0000E+00  0.0000E+00
    -20.447  0.0000E+00  0.0000E+00  0.0000E+00
    -20.344  0.0000E+00  0.0000E+00  0.0000E+00
    -20.241  0.0000E+00  0.0000E+00  0.0000E+00
    -20.139  0.0000E+00  0.0000E+00  0.0000E+00
    -20.036  0.0000E+00  0.0000E+00  0.0000E+00
    -19.934  0.0000E+00  0.0000E+00  0.0000E+00
    -19.831  0.0000E+00  0.0000E+00  0.0000E+00
    -19.728  0.0000E+00  0.0000E+00  0.0000E+00
    -19.626  0.0000E+00  0.0000E+00  0.0000E+00
    -19.523  0.0000E+00  0.0000E+00  0.0000E+00
    -19.421  0.0000E+00  0.0000E+00  0.0000E+00
    -19.318  0.0000E+00  0.0000E+00  0.0000E+00
    -19.215  0.0000E+00  0.0000E+00  0.0000E+00
    -19.113  0.0000E+00  0.0000E+00  0.0000E+00
    -19.010  0.0000E+00  0.0000E+00  0.0000E+00
    -18.907  0.0000E+00  0.0000E+00  0.0000E+00
    -18.805  0.0000E+00  0.0000E+00  0.0000E+00
    -18.702  0.0000E+00  0.0000E+00  0.0000E+00
    -18.600  0.0000E+00  0.0000E+00  0.0000E+00
    -18.497  0.0000E+00  0.0000E+00  0.0000E+00
    -18.394  0.0000E+00  0.0000E+00  0.0000E+00
    -18.292  0.0000E+00  0.0000E+00  0.0000E+00
    -18.189  0.0000E+00  0.0000E+00  0.0000E+00
    -18.087  0.0000E+00  0.0000E+00  0.0000E+00
    -17.984  0.0000E+00  0.0000E+00  0.0000E+00
    -17.881  0.0000E+00  0.0000E+00  0.0000E+00
    -17.779  0.0000E+00  0.0000E+00  0.0000E+00
    -17.676  0.0000E+00  0.0000E+00  0.0000E+00
    -17.573  0.0000E+00  0.0000E+00  0.0000E+00
    -17.471  0.0000E+00  0.0000E+00  0.0000E+00
    -17.368  0.0000E+00  0.0000E+00  0.0000E+00
    -17.266  0.0000E+00  0.0000E+00  0.0000E+00
    -17.163  0.0000E+00  0.0000E+00  0.0000E+00
    -17.060  0.0000E+00  0.0000E+00  0.0000E+00
    -16.958  0.0000E+00  0.0000E+00  0.0000E+00
    -16.855  0.0000E+00  0.0000E+00  0.0000E+00
    -16.752  0.0000E+00  0.0000E+00  0.0000E+00
    -16.650  0.0000E+00  0.0000E+00  0.0000E+00
    -16.547  0.0000E+00  0.0000E+00  0.0000E+00
    -16.445  0.6495E-04  0.3280E-04  0.7714E-05
    -16.342  0.2807E-04  0.4982E-04  0.5473E-05
    -16.239  0.6776E-04  0.3802E-04  0.4543E-05
    -16.137  0.0000E+00  0.0000E+00  0.0000E+00
    -16.034  0.0000E+00  0.0000E+00  0.0000E+00
    -15.932  0.0000E+00  0.0000E+00  0.0000E+00
    -15.829  0.0000E+00  0.0000E+00  0.0000E+00
    -15.726  0.0000E+00  0.0000E+00  0.0000E+00
    -15.624  0.0000E+00  0.0000E+00  0.0000E+00
    -15.521  0.0000E+00  0.0000E+00  0.0000E+00
    -15.418  0.0000E+00  0.0000E+00  0.0000E+00
    -15.316  0.0000E+00  0.0000E+00  0.0000E+00
    -15.213  0.0000E+00  0.0000E+00  0.0000E+00
    -15.111  0.0000E+00  0.0000E+00  0.0000E+00
    -15.008  0.0000E+00  0.0000E+00  0.0000E+00
    -14.905  0.0000E+00  0.0000E+00  0.0000E+00
    -14.803  0.0000E+00  0.0000E+00  0.0000E+00
    -14.700  0.0000E+00  0.0000E+00  0.0000E+00
    -14.598  0.0000E+00  0.0000E+00  0.0000E+00
    -14.495  0.0000E+00  0.0000E+00  0.0000E+00
    -14.392  0.6304E-17  0.4968E-19  0.7983E-20
    -14.290  0.1078E-02  0.1787E-03  0.4166E-05
    -14.187  0.2970E-02  0.3133E-02  0.7186E-04
    -14.084  0.9174E-03  0.5365E-02  0.2268E-03
    -13.982  0.3288E-02  0.7005E-02  0.5690E-03
    -13.879  0.7444E-03  0.3666E-02  0.3648E-03
    -13.777  0.1149E-02  0.2747E-02  0.4327E-03
    -13.674  0.4964E-03  0.7235E-03  0.7638E-04
    -13.571  0.0000E+00  0.0000E+00  0.0000E+00
    -13.469  0.0000E+00  0.0000E+00  0.0000E+00
    -13.366  0.0000E+00  0.0000E+00  0.0000E+00
    -13.263  0.0000E+00  0.0000E+00  0.0000E+00
    -13.161  0.0000E+00  0.0000E+00  0.0000E+00
    -13.058  0.0000E+00  0.0000E+00  0.0000E+00
    -12.956  0.0000E+00  0.0000E+00  0.0000E+00
    -12.853  0.0000E+00  0.0000E+00  0.0000E+00
    -12.750  0.0000E+00  0.0000E+00  0.0000E+00
    -12.648  0.0000E+00  0.0000E+00  0.0000E+00
    -12.545  0.0000E+00  0.0000E+00  0.0000E+00
    -12.443  0.0000E+00  0.0000E+00  0.0000E+00
    -12.340  0.0000E+00  0.0000E+00  0.0000E+00
    -12.237  0.0000E+00  0.0000E+00  0.0000E+00
    -12.135  0.0000E+00  0.0000E+00  0.0000E+00
    -12.032  0.0000E+00  0.0000E+00  0.0000E+00
    -11.929  0.0000E+00  0.0000E+00  0.0000E+00
    -11.827  0.0000E+00  0.0000E+00  0.0000E+00
    -11.724  0.0000E+00  0.0000E+00  0.0000E+00
    -11.622  0.0000E+00  0.0000E+00  0.0000E+00
    -11.519  0.0000E+00  0.0000E+00  0.0000E+00
    -11.416  0.0000E+00  0.0000E+00  0.0000E+00
    -11.314  0.0000E+00  0.0000E+00  0.0000E+00
    -11.211  0.0000E+00  0.0000E+00  0.0000E+00
    -11.109  0.0000E+00  0.0000E+00  0.0000E+00
    -11.006  0.0000E+00  0.0000E+00  0.0000E+00
    -10.903  0.0000E+00  0.0000E+00  0.0000E+00
    -10.801  0.0000E+00  0.0000E+00  0.0000E+00
    -10.698  0.0000E+00  0.0000E+00  0.0000E+00
    -10.595  0.0000E+00  0.0000E+00  0.0000E+00
    -10.493  0.0000E+00  0.0000E+00  0.0000E+00
    -10.390  0.0000E+00  0.0000E+00  0.0000E+00
    -10.288  0.0000E+00  0.0000E+00  0.0000E+00
    -10.185  0.0000E+00  0.0000E+00  0.0000E+00
    -10.082  0.0000E+00  0.0000E+00  0.0000E+00
     -9.980  0.0000E+00  0.0000E+00  0.0000E+00
     -9.877  0.0000E+00  0.0000E+00  0.0000E+00
     -9.774  0.0000E+00  0.0000E+00  0.0000E+00
     -9.672  0.0000E+00  0.0000E+00  0.0000E+00
     -9.569  0.0000E+00  0.0000E+00  0.0000E+00
     -9.467  0.0000E+00  0.0000E+00  0.0000E+00
     -9.364  0.0000E+00  0.0000E+00  0.0000E+00
     -9.261  0.0000E+00  0.0000E+00  0.0000E+00
     -9.159  0.0000E+00  0.0000E+00  0.0000E+00
     -9.056  0.0000E+00  0.0000E+00  0.0000E+00
     -8.954  0.0000E+00  0.0000E+00  0.0000E+00
     -8.851  0.0000E+00  0.0000E+00  0.0000E+00
     -8.748  0.0000E+00  0.0000E+00  0.0000E+00
     -8.646  0.0000E+00  0.0000E+00  0.0000E+00
     -8.543  0.0000E+00  0.0000E+00  0.0000E+00
     -8.440  0.0000E+00  0.0000E+00  0.0000E+00
     -8.338  0.0000E+00  0.0000E+00  0.0000E+00
     -8.235  0.0000E+00  0.0000E+00  0.0000E+00
     -8.133  0.8684E-18  0.2420E-04  0.5068E-05
     -8.030  0.0000E+00  0.0000E+00  0.0000E+00
     -7.927  0.4427E-06  0.4662E-02  0.2643E-04
     -7.825  0.1499E-16  0.1661E-02  0.1693E-04
     -7.722  0.5954E-05  0.1129E-01  0.1886E-04
     -7.620  0.6896E-06  0.6886E-02  0.2488E-05
     -7.517  0.1135E-04  0.5727E-01  0.5309E-04
     -7.414  0.1110E-04  0.9947E-01  0.4430E-04
     -7.312  0.4191E-04  0.4391E+00  0.3773E-04
     -7.209  0.4700E-04  0.6020E+01  0.4193E-04
     -7.106  0.3730E-04  0.2535E+02  0.7299E-04
     -7.004  0.8682E-06  0.4136E-02  0.9799E-06
     -6.901  0.2065E-05  0.1132E-02  0.1662E-05
     -6.799  0.4487E-04  0.3077E-01  0.1393E-04
     -6.696  0.0000E+00  0.0000E+00  0.0000E+00
     -6.593  0.0000E+00  0.0000E+00  0.0000E+00
     -6.491  0.1384E-04  0.2367E-02  0.9877E-06
     -6.388  0.0000E+00  0.0000E+00  0.0000E+00
     -6.285  0.0000E+00  0.0000E+00  0.0000E+00
     -6.183  0.0000E+00  0.0000E+00  0.0000E+00
     -6.080  0.0000E+00  0.0000E+00  0.0000E+00
     -5.978  0.0000E+00  0.0000E+00  0.0000E+00
     -5.875  0.0000E+00  0.0000E+00  0.0000E+00
     -5.772  0.0000E+00  0.0000E+00  0.0000E+00
     -5.670  0.0000E+00  0.0000E+00  0.0000E+00
     -5.567  0.0000E+00  0.0000E+00  0.0000E+00
     -5.465  0.0000E+00  0.0000E+00  0.0000E+00
     -5.362  0.0000E+00  0.0000E+00  0.0000E+00
     -5.259  0.0000E+00  0.0000E+00  0.0000E+00
     -5.157  0.0000E+00  0.0000E+00  0.0000E+00
     -5.054  0.0000E+00  0.0000E+00  0.0000E+00
     -4.951  0.0000E+00  0.0000E+00  0.0000E+00
     -4.849  0.0000E+00  0.0000E+00  0.0000E+00
     -4.746  0.0000E+00  0.0000E+00  0.0000E+00
     -4.644  0.0000E+00  0.0000E+00  0.0000E+00
     -4.541  0.0000E+00  0.0000E+00  0.0000E+00
     -4.438  0.0000E+00  0.0000E+00  0.0000E+00
     -4.336  0.0000E+00  0.0000E+00  0.0000E+00
     -4.233  0.0000E+00  0.0000E+00  0.0000E+00
     -4.130  0.0000E+00  0.0000E+00  0.0000E+00
     -4.028  0.0000E+00  0.0000E+00  0.0000E+00
     -3.925  0.0000E+00  0.0000E+00  0.0000E+00
     -3.823  0.0000E+00  0.0000E+00  0.0000E+00
     -3.720  0.0000E+00  0.0000E+00  0.0000E+00
     -3.617  0.0000E+00  0.0000E+00  0.0000E+00
     -3.515  0.0000E+00  0.0000E+00  0.0000E+00
     -3.412  0.0000E+00  0.0000E+00  0.0000E+00
     -3.310  0.1059E-06  0.1849E-03  0.1088E-05
     -3.207  0.5841E-04  0.1649E-01  0.1108E-02
     -3.104  0.1231E-03  0.1169E-01  0.1763E-02
     -3.002  0.2210E-06  0.1258E-02  0.4408E-03
     -2.899  0.2068E-03  0.1133E-01  0.4545E-03
     -2.796  0.2259E-03  0.1382E-01  0.1150E-02
     -2.694  0.4278E-03  0.1364E-01  0.1132E-02
     -2.591  0.3822E-16  0.1781E-03  0.1272E-03
     -2.489  0.2497E-03  0.1574E-01  0.1025E-02
     -2.386  0.9257E-03  0.9558E-02  0.1234E-02
     -2.283  0.1282E-02  0.6609E-02  0.1098E-02
     -2.181  0.3280E-02  0.8961E-02  0.7635E-03
     -2.078  0.1209E-01  0.1503E-01  0.2643E-02
     -1.976  0.1638E-01  0.3256E-01  0.5346E-02
     -1.873  0.9745E-03  0.2521E-01  0.9019E-03
     -1.770  0.1216E-02  0.5206E-01  0.2448E-02
     -1.668  0.2620E-02  0.1224E+00  0.1032E-01
     -1.565  0.9999E-03  0.5753E-01  0.7913E-02
     -1.462  0.3632E-02  0.9260E-01  0.1395E-01
     -1.360  0.3870E-02  0.6706E-01  0.2209E-01
     -1.257  0.4141E-02  0.6638E-01  0.1140E-01
     -1.155  0.2427E-02  0.8423E-01  0.1393E-01
     -1.052  0.2543E-02  0.9596E-01  0.1705E-01
     -0.949  0.2393E-03  0.9420E-02  0.2507E-02
     -0.847  0.8885E-04  0.8741E-02  0.2600E-02
     -0.744  0.1113E-02  0.2232E-01  0.4588E-02
     -0.641  0.5179E-03  0.4255E-02  0.7021E-03
     -0.539  0.3965E-03  0.4392E-02  0.1331E-02
     -0.436  0.1191E-27  0.5127E-15  0.3014E-17
     -0.334  0.7084E-15  0.3050E-02  0.1793E-04
     -0.231  0.0000E+00  0.0000E+00  0.0000E+00
     -0.128  0.1054E-06  0.3677E-03  0.2792E-03
     -0.026  0.6769E-07  0.5975E-03  0.9505E-03
      0.077  0.0000E+00  0.0000E+00  0.0000E+00
      0.179  0.0000E+00  0.0000E+00  0.0000E+00
      0.282  0.0000E+00  0.0000E+00  0.0000E+00
      0.385  0.0000E+00  0.0000E+00  0.0000E+00
      0.487  0.2368E-16  0.2179E-05  0.5563E-04
      0.590  0.0000E+00  0.0000E+00  0.0000E+00
      0.693  0.0000E+00  0.0000E+00  0.0000E+00
      0.795  0.0000E+00  0.0000E+00  0.0000E+00
      0.898  0.0000E+00  0.0000E+00  0.0000E+00
      1.000  0.0000E+00  0.0000E+00  0.0000E+00
      1.103  0.0000E+00  0.0000E+00  0.0000E+00
      1.206  0.0000E+00  0.0000E+00  0.0000E+00
      1.308  0.0000E+00  0.0000E+00  0.0000E+00
      1.411  0.0000E+00  0.0000E+00  0.0000E+00
      1.513  0.0000E+00  0.0000E+00  0.0000E+00
      1.616  0.0000E+00  0.0000E+00  0.0000E+00
      1.719  0.0000E+00  0.0000E+00  0.0000E+00
      1.821  0.0000E+00  0.0000E+00  0.0000E+00
      1.924  0.0000E+00  0.0000E+00  0.0000E+00
      2.027  0.0000E+00  0.0000E+00  0.0000E+00
      2.129  0.0000E+00  0.0000E+00  0.0000E+00
      2.232  0.0000E+00  0.0000E+00  0.0000E+00
      2.334  0.0000E+00  0.0000E+00  0.0000E+00
      2.437  0.0000E+00  0.0000E+00  0.0000E+00
      2.540  0.0000E+00  0.0000E+00  0.0000E+00
      2.642  0.0000E+00  0.0000E+00  0.0000E+00
      2.745  0.9438E-18  0.1720E-05  0.1101E-03
      2.848  0.2366E-04  0.1704E-03  0.1792E-02
      2.950  0.1557E-03  0.5330E-04  0.4924E-03
      3.053  0.3255E-03  0.1852E-02  0.3737E-02
      3.155  0.2526E-03  0.1052E-02  0.2638E-02
      3.258  0.9911E-03  0.5239E-02  0.3247E-02
      3.361  0.2594E-03  0.1677E-02  0.7999E-03
      3.463  0.5847E-03  0.1515E-02  0.1808E-02
      3.566  0.1070E-05  0.3439E-03  0.1186E-02
      3.668  0.2978E-14  0.3820E-03  0.1174E-02
      3.771  0.7664E-03  0.2155E-02  0.8852E-02
      3.874  0.7668E-03  0.2673E-02  0.6484E-02
      3.976  0.8346E-03  0.5931E-03  0.2685E-02
      4.079  0.5650E-03  0.3759E-02  0.4403E-02
      4.182  0.2502E-17  0.5235E-16  0.4317E-16
      4.284  0.6466E-04  0.1353E-02  0.1116E-02
      4.387  0.1094E-04  0.2375E-03  0.3350E-02
      4.489  0.7220E-03  0.2577E-02  0.1009E-01
      4.592  0.1933E-04  0.3292E-02  0.7322E-02
      4.695  0.5634E-03  0.8308E-03  0.1687E-02
      4.797  0.2438E-02  0.3765E-02  0.4609E-02
      4.900  0.1169E-01  0.5006E-03  0.7026E-02
      5.002  0.6310E-14  0.2785E-03  0.1724E-02
      5.105  0.1488E-02  0.3826E-02  0.1278E-01
      5.208  0.1686E-01  0.9655E-02  0.1294E-01
      5.310  0.1644E-01  0.1104E-01  0.1263E-01
      5.413  0.6330E-03  0.4292E-03  0.1511E-02
      5.516  0.1258E-02  0.1232E-03  0.5204E-02
      5.618  0.1860E-01  0.3936E-02  0.1609E-01
      5.721  0.2740E-06  0.1321E-03  0.1485E-02
      5.823  0.1916E-01  0.3686E-02  0.2890E-01
      5.926  0.3434E-01  0.1282E-01  0.2116E-01
      6.029  0.4449E-02  0.3716E-02  0.4814E-01
      6.131  0.7035E-01  0.1268E-01  0.1020E+00
      6.234  0.5266E-02  0.2759E-02  0.1015E+00
      6.337  0.7888E-01  0.3191E-01  0.3213E+00
      6.439  0.2266E-01  0.2429E-01  0.3975E+00
      6.542  0.1058E-01  0.7861E-02  0.2507E+00
      6.644  0.4034E-01  0.4000E-01  0.7192E+00
      6.747  0.2324E-01  0.4435E-01  0.5478E+00
      6.850  0.3467E-01  0.1543E-01  0.5275E+00
      6.952  0.3277E-01  0.5954E-01  0.9280E+00
      7.055  0.8401E-02  0.3394E-01  0.2670E+00
      7.157  0.2853E-10  0.2142E-09  0.3642E-08
      7.260  0.4350E-03  0.3267E-02  0.5553E-01
      7.363  0.0000E+00  0.0000E+00  0.0000E+00
      7.465  0.0000E+00  0.0000E+00  0.0000E+00
      7.568  0.0000E+00  0.0000E+00  0.0000E+00
      7.671  0.0000E+00  0.0000E+00  0.0000E+00
      7.773  0.0000E+00  0.0000E+00  0.0000E+00
      7.876  0.0000E+00  0.0000E+00  0.0000E+00
      7.978  0.0000E+00  0.0000E+00  0.0000E+00
      8.081  0.0000E+00  0.0000E+00  0.0000E+00
      8.184  0.0000E+00  0.0000E+00  0.0000E+00
      8.286  0.0000E+00  0.0000E+00  0.0000E+00
      8.389  0.0000E+00  0.0000E+00  0.0000E+00
      8.492  0.0000E+00  0.0000E+00  0.0000E+00
      8.594  0.0000E+00  0.0000E+00  0.0000E+00
      8.59412139    -22.19123625  301      0.51296501      1.00000000
    -22.191  0.0000E+00  0.0000E+00  0.0000E+00
    -22.089  0.0000E+00  0.0000E+00  0.0000E+00
    -21.986  0.0000E+00  0.0000E+00  0.0000E+00
    -21.883  0.0000E+00  0.0000E+00  0.0000E+00
    -21.781  0.0000E+00  0.0000E+00  0.0000E+00
    -21.678  0.0000E+00  0.0000E+00  0.0000E+00
    -21.576  0.0000E+00  0.0000E+00  0.0000E+00
    -21.473  0.0000E+00  0.0000E+00  0.0000E+00
    -21.370  0.0000E+00  0.0000E+00  0.0000E+00
    -21.268  0.0000E+00  0.0000E+00  0.0000E+00
    -21.165  0.0000E+00  0.0000E+00  0.0000E+00
    -21.062  0.0000E+00  0.0000E+00  0.0000E+00
    -20.960  0.0000E+00  0.0000E+00  0.0000E+00
    -20.857  0.0000E+00  0.0000E+00  0.0000E+00
    -20.755  0.1730E+02  0.4202E-05  0.2559E-05
    -20.652  0.0000E+00  0.0000E+00  0.0000E+00
    -20.549  0.0000E+00  0.0000E+00  0.0000E+00
    -20.447  0.0000E+00  0.0000E+00  0.0000E+00
    -20.344  0.0000E+00  0.0000E+00  0.0000E+00
    -20.241  0.0000E+00  0.0000E+00  0.0000E+00
    -20.139  0.0000E+00  0.0000E+00  0.0000E+00
    -20.036  0.0000E+00  0.0000E+00  0.0000E+00
    -19.934  0.0000E+00  0.0000E+00  0.0000E+00
    -19.831  0.0000E+00  0.0000E+00  0.0000E+00
    -19.728  0.0000E+00  0.0000E+00  0.0000E+00
    -19.626  0.0000E+00  0.0000E+00  0.0000E+00
    -19.523  0.0000E+00  0.0000E+00  0.0000E+00
    -19.421  0.0000E+00  0.0000E+00  0.0000E+00
    -19.318  0.0000E+00  0.0000E+00  0.0000E+00
    -19.215  0.0000E+00  0.0000E+00  0.0000E+00
    -19.113  0.0000E+00  0.0000E+00  0.0000E+00
    -19.010  0.0000E+00  0.0000E+00  0.0000E+00
    -18.907  0.0000E+00  0.0000E+00  0.0000E+00
    -18.805  0.0000E+00  0.0000E+00  0.0000E+00
    -18.702  0.0000E+00  0.0000E+00  0.0000E+00
    -18.600  0.0000E+00  0.0000E+00  0.0000E+00
    -18.497  0.0000E+00  0.0000E+00  0.0000E+00
    -18.394  0.0000E+00  0.0000E+00  0.0000E+00
    -18.292  0.0000E+00  0.0000E+00  0.0000E+00
    -18.189  0.0000E+00  0.0000E+00  0.0000E+00
    -18.087  0.0000E+00  0.0000E+00  0.0000E+00
    -17.984  0.0000E+00  0.0000E+00  0.0000E+00
    -17.881  0.0000E+00  0.0000E+00  0.0000E+00
    -17.779  0.0000E+00  0.0000E+00  0.0000E+00
    -17.676  0.0000E+00  0.0000E+00  0.0000E+00
    -17.573  0.0000E+00  0.0000E+00  0.0000E+00
    -17.471  0.0000E+00  0.0000E+00  0.0000E+00
    -17.368  0.0000E+00  0.0000E+00  0.0000E+00
    -17.266  0.0000E+00  0.0000E+00  0.0000E+00
    -17.163  0.0000E+00  0.0000E+00  0.0000E+00
    -17.060  0.0000E+00  0.0000E+00  0.0000E+00
    -16.958  0.0000E+00  0.0000E+00  0.0000E+00
    -16.855  0.0000E+00  0.0000E+00  0.0000E+00
    -16.752  0.0000E+00  0.0000E+00  0.0000E+00
    -16.650  0.0000E+00  0.0000E+00  0.0000E+00
    -16.547  0.0000E+00  0.0000E+00  0.0000E+00
    -16.445  0.5723E-04  0.2906E-04  0.6653E-05
    -16.342  0.1983E-04  0.5882E-04  0.7935E-05
    -16.239  0.6758E-04  0.3797E-04  0.4542E-05
    -16.137  0.0000E+00  0.0000E+00  0.0000E+00
    -16.034  0.0000E+00  0.0000E+00  0.0000E+00
    -15.932  0.0000E+00  0.0000E+00  0.0000E+00
    -15.829  0.0000E+00  0.0000E+00  0.0000E+00
    -15.726  0.0000E+00  0.0000E+00  0.0000E+00
    -15.624  0.0000E+00  0.0000E+00  0.0000E+00
    -15.521  0.0000E+00  0.0000E+00  0.0000E+00
    -15.418  0.0000E+00  0.0000E+00  0.0000E+00
    -15.316  0.0000E+00  0.0000E+00  0.0000E+00
    -15.213  0.0000E+00  0.0000E+00  0.0000E+00
    -15.111  0.0000E+00  0.0000E+00  0.0000E+00
    -15.008  0.0000E+00  0.0000E+00  0.0000E+00
    -14.905  0.0000E+00  0.0000E+00  0.0000E+00
    -14.803  0.0000E+00  0.0000E+00  0.0000E+00
    -14.700  0.0000E+00  0.0000E+00  0.0000E+00
    -14.598  0.0000E+00  0.0000E+00  0.0000E+00
    -14.495  0.0000E+00  0.0000E+00  0.0000E+00
    -14.392  0.6304E-17  0.4968E-19  0.7983E-20
    -14.290  0.1078E-02  0.1787E-03  0.4166E-05
    -14.187  0.3401E-02  0.2405E-02  0.7490E-04
    -14.084  0.8955E-03  0.7069E-02  0.2445E-03
    -13.982  0.1734E-02  0.4783E-02  0.4395E-03
    -13.879  0.1526E-02  0.4507E-02  0.5738E-03
    -13.777  0.1465E-02  0.2463E-02  0.4193E-03
    -13.674  0.1646E-03  0.6329E-03  0.8405E-04
    -13.571  0.0000E+00  0.0000E+00  0.0000E+00
    -13.469  0.0000E+00  0.0000E+00  0.0000E+00
    -13.366  0.0000E+00  0.0000E+00  0.0000E+00
    -13.263  0.0000E+00  0.0000E+00  0.0000E+00
    -13.161  0.0000E+00  0.0000E+00  0.0000E+00
    -13.058  0.0000E+00  0.0000E+00  0.0000E+00