 vasp.5.4.4.18Apr17-6-g9f103f2a35 (build Jun 29 2021 13:39:03) complex           
 executed on tx2_gcc-7.3_libsci-1 date 2021.09.21  08:28:56
 running on   64 total cores
 distrk:  each k-point on   64 cores,    1 groups
 distr:  one band on NCORES_PER_BAND=   8 cores,    8 groups


--------------------------------------------------------------------------------------------------------


 INCAR:
 POTCAR:    PAW_PBE Cs_sv 08Apr2002               
 POTCAR:    PAW_PBE Pb_d 06Sep2000                
 POTCAR:    PAW_PBE Br 06Sep2000                  
 POTCAR:    PAW_PBE Cs_sv 08Apr2002               
   SHA256 =  c1463496f0f6037ed62c6012a8013a89ee9ad6ffb38599dcd6c079e7ed31779b Cs
   COPYR  = (c) Copyright 08Apr2002 Georg Kresse                                
   COPYR  = This file is part of the software VASP. Any use, copying, and all ot
   COPYR  = If you do not have a valid VASP license, you may not use, copy or di
   VRHFIN =Cs: 5s5p6s                                                           
   LEXCH  = PE                                                                  
   EATOM  =   555.6835 eV,   40.8416 Ry                                         
                                                                                
   TITEL  = PAW_PBE Cs_sv 08Apr2002                                             
   LULTRA =        F    use ultrasoft PP ?                                      
   IUNSCR =        1    unscreen: 0-lin 1-nonlin 2-no                           
   RPACOR =    2.200    partial core radius                                     
   POMASS =  132.900; ZVAL   =    9.000    mass and valenz                      
   RCORE  =    2.500    outmost cutoff radius                                   
   RWIGS  =    2.500; RWIGS  =    1.323    wigner-seitz radius (au A)           
   ENMAX  =  220.318; ENMIN  =  165.238 eV                                      
   RCLOC  =    2.207    cutoff for local pot                                    
   LCOR   =        T    correct aug charges                                     
   LPAW   =        T    paw PP                                                  
   EAUG   =  407.933                                                            
   DEXC   =    0.000                                                            
   RMAX   =    2.554    core radius for proj-oper                               
   RAUG   =    1.300    factor for augmentation sphere                          
   RDEP   =    2.590    radius for radial grids                                 
   RDEPT  =    2.117    core radius for aug-charge                              
                                                                                
   Atomic configuration                                                         
   13 entries                                                                   
     n  l   j            E        occ.                                          
     1  0  0.50    -35790.1377   2.0000                                         
     2  0  0.50     -5613.6201   2.0000                                         
     2  1  1.50     -5035.0101   6.0000                                         
     3  0  0.50     -1167.0767   2.0000                                         
     3  1  1.50      -980.9754   6.0000                                         
     3  2  2.50      -708.0703  10.0000                                         
     4  0  0.50      -220.2386   2.0000                                         
     4  1  1.50      -160.7596   6.0000                                         
     4  2  2.50       -74.2354  10.0000                                         
     5  0  0.50       -26.7287   2.0000                                         
     6  0  0.50        -2.0862   1.0000                                         
     5  1  1.50       -13.5159   6.0000                                         
     5  2  2.50        -0.4136   0.0000                                         
   Description                                                                  
     l       E           TYP  RCUT    TYP  RCUT                                 
     0    -26.7287425     23  1.900                                             
     0     -2.0862306     23  1.900                                             
     1    -13.5158719     23  2.500                                             
     1     -2.7211652     23  2.500                                             
     2     -0.4136171     23  2.500                                             
  local pseudopotential read in
  partial core-charges read in
  partial kinetic energy density read in
  atomic valenz-charges read in
  non local Contribution for L=           0  read in
    real space projection operators read in
  non local Contribution for L=           0  read in
    real space projection operators read in
  non local Contribution for L=           1  read in
    real space projection operators read in
  non local Contribution for L=           1  read in
    real space projection operators read in
  non local Contribution for L=           2  read in
    real space projection operators read in
    PAW grid and wavefunctions read in

   number of l-projection  operators is LMAX  =           5
   number of lm-projection operators is LMMAX =          13

 POTCAR:    PAW_PBE Pb_d 06Sep2000                
   SHA256 =  fb885b08f0fba73a15f6a6b0e39bd200c13ec96ef97cf3ecd8e63bade5137abd Pb
   COPYR  = (c) Copyright 06Sep2000 Georg Kresse                                
   COPYR  = This file is part of the software VASP. Any use, copying, and all ot
   COPYR  = If you do not have a valid VASP license, you may not use, copy or di
   VRHFIN =Pb:                                                                  
   LEXCH  = PE                                                                  
   EATOM  =  1661.6185 eV,  122.1255 Ry                                         
                                                                                
   TITEL  = PAW_PBE Pb_d 06Sep2000                                              
   LULTRA =        F    use ultrasoft PP ?                                      
   IUNSCR =        1    unscreen: 0-lin 1-nonlin 2-no                           
   RPACOR =    2.200    partial core radius                                     
   POMASS =  207.200; ZVAL   =   14.000    mass and valenz                      
   RCORE  =    2.500    outmost cutoff radius                                   
   RWIGS  =    3.260; RWIGS  =    1.725    wigner-seitz radius (au A)           
   ENMAX  =  237.835; ENMIN  =  178.376 eV                                      
   ICORE  =        3    local potential                                         
   LCOR   =        T    correct aug charges                                     
   LPAW   =        T    paw PP                                                  
   EAUG   =  391.914                                                            
   DEXC   =    0.000                                                            
   RMAX   =    2.565    core radius for proj-oper                               
   RAUG   =    1.300    factor for augmentation sphere                          
   RDEP   =    2.643    radius for radial grids                                 
   RDEPT  =    2.092    core radius for aug-charge                              
                                                                                
   Atomic configuration                                                         
   16 entries                                                                   
     n  l   j            E        occ.                                          
     1  0  0.50    -88091.8466   2.0000                                         
     2  0  0.50    -15753.4197   2.0000                                         
     2  1  1.50    -13508.1797   6.0000                                         
     3  0  0.50     -3781.7194   2.0000                                         
     3  1  1.50     -3138.2529   6.0000                                         
     3  2  2.50     -2483.2977  10.0000                                         
     4  0  0.50      -856.2895   2.0000                                         
     4  1  1.50      -645.4942   6.0000                                         
     4  2  2.50      -401.8768  10.0000                                         
     4  3  3.50      -132.9059  14.0000                                         
     5  0  0.50      -144.0950   2.0000                                         
     5  1  1.50       -85.7879   6.0000                                         
     5  2  2.50       -21.1769  10.0000                                         
     6  0  0.50       -12.0372   2.0000                                         
     6  1  1.50        -3.4971   2.0000                                         
     5  3  2.50        -2.7212   0.0000                                         
   Description                                                                  
     l       E           TYP  RCUT    TYP  RCUT                                 
     2    -21.1768523     23  2.500                                             
     2      1.3605826     23  2.500                                             
     0    -12.0371562     23  2.500                                             
     0     13.6058260     23  2.500                                             
     1     -3.4971339     23  2.500                                             
     1     13.6058260     23  2.500                                             
     3     -1.3605826      7  2.500                                             
  local pseudopotential read in
  partial core-charges read in
  partial kinetic energy density read in
  atomic valenz-charges read in
  non local Contribution for L=           2  read in
    real space projection operators read in
  non local Contribution for L=           2  read in
    real space projection operators read in
  non local Contribution for L=           0  read in
    real space projection operators read in
  non local Contribution for L=           0  read in
    real space projection operators read in
  non local Contribution for L=           1  read in
    real space projection operators read in
  non local Contribution for L=           1  read in
    real space projection operators read in
    PAW grid and wavefunctions read in

   number of l-projection  operators is LMAX  =           6
   number of lm-projection operators is LMMAX =          18

 POTCAR:    PAW_PBE Br 06Sep2000                  
   SHA256 =  96a73d2954943bbee26f4990d676cc6c3bf44b8dd2c75cd4b3b825d8403f0103 Br
   COPYR  = (c) Copyright 06Sep2000 Georg Kresse                                
   COPYR  = This file is part of the software VASP. Any use, copying, and all ot
   COPYR  = If you do not have a valid VASP license, you may not use, copy or di
   VRHFIN =Br: s2p5                                                             
   LEXCH  = PE                                                                  
   EATOM  =   368.4488 eV,   27.0802 Ry                                         
                                                                                
   TITEL  = PAW_PBE Br 06Sep2000                                                
   LULTRA =        F    use ultrasoft PP ?                                      
   IUNSCR =        1    unscreen: 0-lin 1-nonlin 2-no                           
   RPACOR =    1.900    partial core radius                                     
   POMASS =   79.904; ZVAL   =    7.000    mass and valenz                      
   RCORE  =    2.100    outmost cutoff radius                                   
   RWIGS  =    2.200; RWIGS  =    1.164    wigner-seitz radius (au A)           
   ENMAX  =  216.285; ENMIN  =  162.214 eV                                      
   ICORE  =        3    local potential                                         
   LCOR   =        T    correct aug charges                                     
   LPAW   =        T    paw PP                                                  
   EAUG   =  503.852                                                            
   DEXC   =    0.000                                                            
   RMAX   =    2.139    core radius for proj-oper                               
   RAUG   =    1.300    factor for augmentation sphere                          
   RDEP   =    2.186    radius for radial grids                                 
   RDEPT  =    1.890    core radius for aug-charge                              
                                                                                
   Atomic configuration                                                         
   10 entries                                                                   
     n  l   j            E        occ.                                          
     1  0  0.50    -13316.2796   2.0000                                         
     2  0  0.50     -1732.8239   2.0000                                         
     2  1  1.50     -1528.2193   6.0000                                         
     3  0  0.50      -238.0460   2.0000                                         
     3  1  1.50      -173.4609   6.0000                                         
     3  2  2.50       -66.7132  10.0000                                         
     4  0  0.50       -20.1334   2.0000                                         
     4  1  0.50        -7.8591   5.0000                                         
     4  2  2.50        -8.1635   0.0000                                         
     4  3  2.50        -8.1635   0.0000                                         
   Description                                                                  
     l       E           TYP  RCUT    TYP  RCUT                                 
     0    -20.1333652     23  2.100                                             
     0    -21.4939478     23  2.100                                             
     1     -7.8591052     23  2.100                                             
     1     -3.1608434     23  2.100                                             
     2     -8.1634956     23  2.100                                             
     3     -1.3605826      7  2.100                                             
  local pseudopotential read in
  partial core-charges read in
  partial kinetic energy density read in
  atomic valenz-charges read in
  non local Contribution for L=           0  read in
    real space projection operators read in
  non local Contribution for L=           0  read in
    real space projection operators read in
  non local Contribution for L=           1  read in
    real space projection operators read in
  non local Contribution for L=           1  read in
    real space projection operators read in
  non local Contribution for L=           2  read in
    real space projection operators read in
    PAW grid and wavefunctions read in

   number of l-projection  operators is LMAX  =           5
   number of lm-projection operators is LMMAX =          13

 Optimization of the real space projectors (new method)

 maximal supplied QI-value         = 15.12
 optimisation between [QCUT,QGAM] = [  8.77, 17.69] = [ 21.53, 87.61] Ry 
 Optimized for a Real-space Cutoff    1.85 Angstroem

   l    n(q)    QCUT    max X(q) W(low)/X(q) W(high)/X(q)  e(spline) 
   0     10     8.768    25.322    0.81E-04    0.51E-04    0.48E-06
   0     10     8.768    99.187    0.78E-04    0.50E-04    0.47E-06
   1      9     8.768    11.761    0.21E-03    0.20E-03    0.37E-06
   1      9     8.768     8.275    0.24E-03    0.22E-03    0.41E-06
   2      9     8.768     3.829    0.23E-04    0.15E-03    0.18E-06
 Optimization of the real space projectors (new method)

 maximal supplied QI-value         = 15.12
 optimisation between [QCUT,QGAM] = [  8.77, 17.69] = [ 21.53, 87.61] Ry 
 Optimized for a Real-space Cutoff    1.59 Angstroem

   l    n(q)    QCUT    max X(q) W(low)/X(q) W(high)/X(q)  e(spline) 
   2      7     8.768     3.846    0.48E-04    0.11E-03    0.11E-06
   2      7     8.768     8.593    0.20E-03    0.22E-04    0.24E-06
   0      8     8.768    20.082    0.68E-04    0.88E-04    0.41E-07
   0      8     8.768     8.597    0.89E-04    0.13E-03    0.59E-07
   1      8     8.768    33.223    0.15E-03    0.53E-04    0.87E-07
   1      8     8.768    15.899    0.14E-03    0.44E-04    0.78E-07
 Optimization of the real space projectors (new method)

 maximal supplied QI-value         = 17.95
 optimisation between [QCUT,QGAM] = [  8.80, 17.59] = [ 21.67, 86.68] Ry 
 Optimized for a Real-space Cutoff    1.59 Angstroem

   l    n(q)    QCUT    max X(q) W(low)/X(q) W(high)/X(q)  e(spline) 
   0      8     8.797   175.082    0.82E-04    0.14E-03    0.89E-07
   0      8     8.797   174.004    0.79E-04    0.14E-03    0.86E-07
   1      8     8.797    54.315    0.16E-03    0.14E-04    0.30E-06
   1      8     8.797    42.441    0.16E-03    0.14E-04    0.30E-06
   2      7     8.797     3.596    0.92E-04    0.15E-03    0.85E-07
  PAW_PBE Cs_sv 08Apr2002               :
 energy of atom  1       EATOM= -555.6835
 kinetic energy error for atom=    0.0069 (will be added to EATOM!!)
  PAW_PBE Pb_d 06Sep2000                :
 energy of atom  2       EATOM=-1661.6185
 kinetic energy error for atom=    0.0498 (will be added to EATOM!!)
  PAW_PBE Br 06Sep2000                  :
 energy of atom  3       EATOM= -368.4488
 kinetic energy error for atom=    0.0072 (will be added to EATOM!!)


 POSCAR: Cs4 Pb4 Br12                            
  positions in direct lattice
  velocities in cartesian coordinates

 METAGGA = SCAN     LMAXTAU =  6    LMIXTAU =  F

 exchange correlation table for  LEXCH =        8
   RHO(1)=    0.500       N(1)  =     2000
   RHO(2)=  100.500       N(2)  =     4000

 VTST: version 3.2, (02/03/18)

 CHAIN: initializing optimizer
 
 OPT: Using VASP Conjugate-Gradient optimizer
 CHAIN: Read ICHAIN            0

 POSCAR: Cs4 Pb4 Br12                            
  positions in direct lattice
  velocities in cartesian coordinates



--------------------------------------------------------------------------------------------------------


 ion  position               nearest neighbor table
   1  0.057  0.250  0.486-
   2  0.443  0.750  0.986-
   3  0.557  0.250  0.014-
   4  0.943  0.750  0.514-
   5  0.000  0.000  0.000-  10 2.99  11 2.99  18 3.01  15 3.01  17 3.01  16 3.01
   6  0.500  0.000  0.500-   9 2.99  12 2.99  16 3.01  17 3.01  15 3.01  18 3.01
   7  0.500  0.500  0.500-   9 2.99  12 2.99  19 3.01  13 3.01  20 3.01  14 3.01
   8  0.000  0.500  0.000-  10 2.99  11 2.99  14 3.01  20 3.01  13 3.01  19 3.01
   9  0.507  0.750  0.429-   6 2.99   7 2.99
  10  0.993  0.250  0.929-   5 2.99   8 2.99
  11  0.007  0.750  0.071-   5 2.99   8 2.99
  12  0.493  0.250  0.571-   6 2.99   7 2.99
  13  0.294  0.464  0.205-   7 3.01   8 3.01
  14  0.206  0.536  0.705-   8 3.01   7 3.01
  15  0.794  0.036  0.295-   5 3.01   6 3.01
  16  0.706  0.964  0.795-   6 3.01   5 3.01
  17  0.294  0.036  0.205-   6 3.01   5 3.01
  18  0.206  0.964  0.705-   5 3.01   6 3.01
  19  0.706  0.536  0.795-   7 3.01   8 3.01
  20  0.794  0.464  0.295-   8 3.01   7 3.01

  LATTYP: Found a simple orthorhombic cell.
 ALAT       =     8.2395401648
 B/A-ratio  =     1.0115787643
 C/A-ratio  =     1.4217394424
  
  Lattice vectors:
  
 A1 = (   0.0000000000,   0.0000000000,   8.2395401648)
 A2 = (  -8.3349438582,   0.0000000000,   0.0000000000)
 A3 = (   0.0000000000, -11.7144792392,   0.0000000000)


Analysis of symmetry for initial positions (statically):
=====================================================================
 Subroutine PRICEL returns:
 Original cell was already a primitive cell.
 

 Routine SETGRP: Setting up the symmetry group for a 
 simple orthorhombic supercell.


 Subroutine GETGRP returns: Found  8 space group operations
 (whereof  2 operations were pure point group operations)
 out of a pool of  8 trial point group operations.


The static configuration has the point symmetry S_2 .
 The point group associated with its full space group is D_2h.


Analysis of symmetry for dynamics (positions and initial velocities):
=====================================================================
 Subroutine PRICEL returns:
 Original cell was already a primitive cell.
 

 Routine SETGRP: Setting up the symmetry group for a 
 simple orthorhombic supercell.


 Subroutine GETGRP returns: Found  8 space group operations
 (whereof  2 operations were pure point group operations)
 out of a pool of  8 trial point group operations.


The dynamic configuration has the point symmetry S_2 .
 The point group associated with its full space group is D_2h.


 Subroutine INISYM returns: Found  8 space group operations
 (whereof  2 operations are pure point group operations),
 and found     1 'primitive' translations



 KPOINTS: 1x1x1                                   

Automatic generation of k-mesh.
Space group operators:
 irot       det(A)        alpha          n_x          n_y          n_z        tau_x        tau_y        tau_z
    1     1.000000     0.000000     1.000000     0.000000     0.000000     0.000000     0.000000     0.000000
    2    -1.000000     0.000000     1.000000     0.000000     0.000000     0.000000     0.000000     0.000000
    3     1.000000   180.000000     0.000000     1.000000     0.000000     0.000000    -0.500000     0.000000
    4    -1.000000   180.000000     0.000000     1.000000     0.000000     0.000000    -0.500000     0.000000
    5     1.000000   180.000000     1.000000     0.000000     0.000000    -0.500000    -0.500000     0.500000
    6    -1.000000   180.000000     1.000000     0.000000     0.000000    -0.500000    -0.500000     0.500000
    7     1.000000   180.000000     0.000000     0.000000     1.000000    -0.500000     0.000000     0.500000
    8    -1.000000   180.000000     0.000000     0.000000     1.000000    -0.500000     0.000000     0.500000
 
 Subroutine IBZKPT returns following result:
 ===========================================
 
 Found      8 irreducible k-points:
 
 Following reciprocal coordinates:
            Coordinates               Weight
  0.000000  0.000000  0.000000      1.000000
  0.333333  0.000000  0.000000      2.000000
  0.000000  0.500000  0.000000      1.000000
  0.333333  0.500000  0.000000      2.000000
  0.000000  0.000000  0.333333      2.000000
  0.333333  0.000000  0.333333      4.000000
  0.000000  0.500000  0.333333      2.000000
  0.333333  0.500000  0.333333      4.000000
 
 Following cartesian coordinates:
            Coordinates               Weight
  0.000000  0.000000  0.000000      1.000000
  0.039992  0.000000  0.000000      2.000000
  0.000000  0.042682  0.000000      1.000000
  0.039992  0.042682  0.000000      2.000000
  0.000000  0.000000  0.040455      2.000000
  0.039992  0.000000  0.040455      4.000000
  0.000000  0.042682  0.040455      2.000000
  0.039992  0.042682  0.040455      4.000000
 


--------------------------------------------------------------------------------------------------------




 Dimension of arrays:
   k-points           NKPTS =      8   k-points in BZ     NKDIM =      8   number of bands    NBANDS=    112
   number of dos      NEDOS =    301   number of ions     NIONS =     20
   non local maximal  LDIM  =      6   non local SUM 2l+1 LMDIM =     18
   total plane-waves  NPLWV = 161280
   max r-space proj   IRMAX =   5349   max aug-charges    IRDMAX=  85337
   dimension x,y,z NGX =    48 NGY =   70 NGZ =   48
   dimension x,y,z NGXF=    96 NGYF=  140 NGZF=   96
   support grid    NGXF=   192 NGYF=  280 NGZF=  192
   ions per type =               4   4  12
   NGX,Y,Z   is equivalent  to a cutoff of   9.57,  9.93,  9.68 a.u.
   NGXF,Y,Z  is equivalent  to a cutoff of  19.15, 19.87, 19.37 a.u.

 SYSTEM =  CsPbBr3 cubic bulk                      
 POSCAR =  Cs4 Pb4 Br12                            

 Startparameter for this run:
   NWRITE =      2    write-flag & timer
   PREC   = accura    normal or accurate (medium, high low for compatibility)
   ISTART =      0    job   : 0-new  1-cont  2-samecut
   ICHARG =      2    charge: 1-file 2-atom 10-const
   ISPIN  =      1    spin polarized calculation?
   LNONCOLLINEAR =      F non collinear calculations
   LSORBIT =      F    spin-orbit coupling
   INIWAV =      1    electr: 0-lowe 1-rand  2-diag
   LASPH  =      T    aspherical Exc in radial PAW
   METAGGA=      F    non-selfconsistent MetaGGA calc.

 Electronic Relaxation 1
   ENCUT  =  300.0 eV  22.05 Ry    4.70 a.u.  11.77 16.54 11.64*2*pi/ulx,y,z
   ENINI  =  300.0     initial cutoff
   ENAUG  =  503.9 eV  augmentation charge cutoff
   NELM   =    200;   NELMIN=  2; NELMDL= -5     # of ELM steps 
   EDIFF  = 0.1E-05   stopping-criterion for ELM
   LREAL  =      T    real-space projection
   NLSPLINE    = F    spline interpolate recip. space projectors
   LCOMPAT=      F    compatible to vasp.4.4
   GGA_COMPAT  = T    GGA compatible to vasp.4.4-vasp.4.6
   LMAXPAW     = -100 max onsite density
   LMAXMIX     =    2 max onsite mixed and CHGCAR
   VOSKOWN=      0    Vosko Wilk Nusair interpolation
   ROPT   =   -0.00025  -0.00025  -0.00025
 Ionic relaxation
   EDIFFG = -.1E-01   stopping-criterion for IOM
   NSW    =      0    number of steps for IOM
   NBLOCK =      1;   KBLOCK =      1    inner block; outer block 
   IBRION =     -1    ionic relax: 0-MD 1-quasi-New 2-CG
   NFREE  =      1    steps in history (QN), initial steepest desc. (CG)
   ISIF   =      3    stress and relaxation
   IWAVPR =     10    prediction:  0-non 1-charg 2-wave 3-comb
   ISYM   =      2    0-nonsym 1-usesym 2-fastsym
   LCORR  =      T    Harris-Foulkes like correction to forces

   POTIM  = 0.5000    time-step for ionic-motion
   TEIN   =    0.0    initial temperature
   TEBEG  =    0.0;   TEEND  =   0.0 temperature during run
   SMASS  =  -3.00    Nose mass-parameter (am)
   estimated Nose-frequenzy (Omega)   =  0.10E-29 period in steps =****** mass=  -0.159E-26a.u.
   SCALEE = 1.0000    scale energy and forces
   NPACO  =    256;   APACO  = 16.0  distance and # of slots for P.C.
   PSTRESS=    0.0 pullay stress

  Mass of Ions in am
   POMASS = 132.90207.20 79.90
  Ionic Valenz
   ZVAL   =   9.00 14.00  7.00
  Atomic Wigner-Seitz radii
   RWIGS  =  -1.00 -1.00 -1.00
  virtual crystal weights 
   VCA    =   1.00  1.00  1.00
   NELECT =     176.0000    total number of electrons
   NUPDOWN=      -1.0000    fix difference up-down

 DOS related values:
   EMIN   =  10.00;   EMAX   =-10.00  energy-range for DOS
   EFERMI =   0.00
   ISMEAR =     0;   SIGMA  =   0.01  broadening in eV -4-tet -1-fermi 0-gaus

 Electronic relaxation 2 (details)
   IALGO  =     38    algorithm
   LDIAG  =      T    sub-space diagonalisation (order eigenvalues)
   LSUBROT=      F    optimize rotation matrix (better conditioning)
   TURBO    =      0    0=normal 1=particle mesh
   IRESTART =      0    0=no restart 2=restart with 2 vectors
   NREBOOT  =      0    no. of reboots
   NMIN     =      0    reboot dimension
   EREF     =   0.00    reference energy to select bands
   IMIX   =      4    mixing-type and parameters
     AMIX     =   0.40;   BMIX     =  1.00
     AMIX_MAG =   1.60;   BMIX_MAG =  1.00
     AMIN     =   0.10
     WC   =   100.;   INIMIX=   1;  MIXPRE=   1;  MAXMIX= -45

 Intra band minimization:
   WEIMIN = 0.0000     energy-eigenvalue tresh-hold
   EBREAK =  0.22E-08  absolut break condition
   DEPER  =   0.30     relativ break condition  

   TIME   =   0.40     timestep for ELM

  volume/ion in A,a.u.               =      40.23       271.45
  Fermi-wavevector in a.u.,A,eV,Ry     =   0.986437  1.864096 13.239267  0.973059
  Thomas-Fermi vector in A             =   2.117818

 Write flags
   LWAVE        =      F    write WAVECAR
   LDOWNSAMPLE  =      F    k-point downsampling of WAVECAR
   LCHARG       =      F    write CHGCAR
   LVTOT        =      F    write LOCPOT, total local potential
   LVHAR        =      T    write LOCPOT, Hartree potential only
   LELF         =      F    write electronic localiz. function (ELF)
   LORBIT       =     10    0 simple, 1 ext, 2 COOP (PROOUT), +10 PAW based schemes


 Dipole corrections
   LMONO  =      F    monopole corrections only (constant potential shift)
   LDIPOL =      F    correct potential (dipole corrections)
   IDIPOL =      0    1-x, 2-y, 3-z, 4-all directions 
   EPSILON=  1.0000000 bulk dielectric constant

 Exchange correlation treatment:
   GGA     =    --    GGA type
   LEXCH   =     8    internal setting for exchange type
   VOSKOWN=      0    Vosko Wilk Nusair interpolation
   LHFCALC =     F    Hartree Fock is set to
   LHFONE  =     F    Hartree Fock one center treatment
   AEXX    =    0.0000 exact exchange contribution

 Linear response parameters
   LEPSILON=     F    determine dielectric tensor
   LRPA    =     F    only Hartree local field effects (RPA)
   LNABLA  =     F    use nabla operator in PAW spheres
   LVEL    =     F    velocity operator in full k-point grid
   LINTERFAST=   F  fast interpolation
   KINTER  =     0    interpolate to denser k-point grid
   CSHIFT  =0.1000    complex shift for real part using Kramers Kronig
   OMEGAMAX=  -1.0    maximum frequency
   DEG_THRESHOLD= 0.2000000E-02 threshold for treating states as degnerate
   RTIME   =   -0.100 relaxation time in fs
  (WPLASMAI=    0.000 imaginary part of plasma frequency in eV, 0.658/RTIME)
   DFIELD  = 0.0000000 0.0000000 0.0000000 field for delta impulse in time

 Orbital magnetization related:
   ORBITALMAG=     F  switch on orbital magnetization
   LCHIMAG   =     F  perturbation theory with respect to B field
   DQ        =  0.001000  dq finite difference perturbation B field
   LLRAUG    =     F  two centre corrections for induced B field



--------------------------------------------------------------------------------------------------------


 Static calculation
 charge density and potential will be updated during run
 non-spin polarized calculation
 Variant of blocked Davidson
 Davidson routine will perform the subspace rotation
 perform sub-space diagonalisation
    after iterative eigenvector-optimisation
 modified Broyden-mixing scheme, WC =      100.0
 initial mixing is a Kerker type mixing with AMIX =  0.4000 and BMIX =      1.0000
 Hartree-type preconditioning will be used
 using additional bands           24
 real space projection scheme for non local part
 use partial core corrections
 calculate Harris-corrections to forces   (improved forces if not selfconsistent)
 use gradient corrections 
 use of overlap-Matrix (Vanderbilt PP)
 Gauss-broadening in eV      SIGMA  =   0.01


--------------------------------------------------------------------------------------------------------


  energy-cutoff  :      300.00
  volume of cell :      804.50
      direct lattice vectors                 reciprocal lattice vectors
     8.334943858  0.000000000  0.000000000     0.119976813  0.000000000  0.000000000
     0.000000000 11.714479239  0.000000000     0.000000000  0.085364443  0.000000000
     0.000000000  0.000000000  8.239540165     0.000000000  0.000000000  0.121365996

  length of vectors
     8.334943858 11.714479239  8.239540165     0.119976813  0.085364443  0.121365996



 k-points in units of 2pi/SCALE and weight: 1x1x1                                   
   0.00000000  0.00000000  0.00000000       0.056
   0.03999227  0.00000000  0.00000000       0.111
   0.00000000  0.04268222  0.00000000       0.056
   0.03999227  0.04268222  0.00000000       0.111
   0.00000000  0.00000000  0.04045533       0.111
   0.03999227  0.00000000  0.04045533       0.222
   0.00000000  0.04268222  0.04045533       0.111
   0.03999227  0.04268222  0.04045533       0.222

 k-points in reciprocal lattice and weights: 1x1x1                                   
   0.00000000  0.00000000  0.00000000       0.056
   0.33333333  0.00000000  0.00000000       0.111
   0.00000000  0.50000000  0.00000000       0.056
   0.33333333  0.50000000  0.00000000       0.111
   0.00000000  0.00000000  0.33333333       0.111
   0.33333333  0.00000000  0.33333333       0.222
   0.00000000  0.50000000  0.33333333       0.111
   0.33333333  0.50000000  0.33333333       0.222

 position of ions in fractional coordinates (direct lattice) 
   0.05664216  0.25000000  0.48555759
   0.44335784  0.75000000  0.98555759
   0.55664216  0.25000000  0.01444241
   0.94335784  0.75000000  0.51444241
   0.00000000  0.00000000  0.00000000
   0.50000000  0.00000000  0.50000000
   0.50000000  0.50000000  0.50000000
   0.00000000  0.50000000  0.00000000
   0.50707456  0.75000000  0.42857424
   0.99292544  0.25000000  0.92857424
   0.00707456  0.75000000  0.07142576
   0.49292544  0.25000000  0.57142576
   0.29396437  0.46377303  0.20501514
   0.20603563  0.53622697  0.70501514
   0.79396437  0.03622697  0.29498486
   0.70603563  0.96377303  0.79498486
   0.29396437  0.03622697  0.20501514
   0.20603563  0.96377303  0.70501514
   0.70603563  0.53622697  0.79498486
   0.79396437  0.46377303  0.29498486

 position of ions in cartesian coordinates  (Angst):
   0.47210924  2.92861981  4.00077130
   3.69536268  8.78585943  8.12054138
   4.63958117  2.92861981  0.11899879
   7.86283461  8.78585943  4.23876887
   0.00000000  0.00000000  0.00000000
   4.16747193  0.00000000  4.11977008
   4.16747193  5.85723962  4.11977008
   0.00000000  5.85723962  0.00000000
   4.22643797  8.78585943  3.53125466
   8.27597781  2.92861981  7.65102475
   0.05896604  8.78585943  0.58851542
   4.10850589  2.92861981  4.70828550
   2.45017653  5.43285957  1.68923051
   1.71729540  6.28161966  5.80900059
   6.61764845  0.42438005  2.43053958
   5.88476733 11.29009919  6.55030966
   2.45017653  0.42438005  1.68923051
   1.71729540 11.29009919  5.80900059
   5.88476733  6.28161966  6.55030966
   6.61764845  5.43285957  2.43053958



--------------------------------------------------------------------------------------------------------


 k-point  1 :   0.0000 0.0000 0.0000  plane waves:    9489
 k-point  2 :   0.3333 0.0000 0.0000  plane waves:    9508
 k-point  3 :   0.0000 0.5000 0.0000  plane waves:    9502
 k-point  4 :   0.3333 0.5000 0.0000  plane waves:    9490
 k-point  5 :   0.0000 0.0000 0.3333  plane waves:    9491
 k-point  6 :   0.3333 0.0000 0.3333  plane waves:    9481
 k-point  7 :   0.0000 0.5000 0.3333  plane waves:    9478
 k-point  8 :   0.3333 0.5000 0.3333  plane waves:    9492

 maximum and minimum number of plane-waves per node :      1213     1163

 maximum number of plane-waves:      9508
 maximum index in each direction: 
   IXMAX=   11   IYMAX=   16   IZMAX=   11
   IXMIN=  -12   IYMIN=  -17   IZMIN=  -11


 real space projection operators:
  total allocation   :       7950.38 KBytes
  max/ min on nodes  :       1029.44        966.44


 parallel 3D FFT for wavefunctions:
    minimum data exchange during FFTs selected (reduces bandwidth)
 parallel 3D FFT for charge:
    minimum data exchange during FFTs selected (reduces bandwidth)


 total amount of memory used by VASP MPI-rank0    42358. kBytes
=======================================================================

   base      :      30000. kBytes
   nonlr-proj:       2998. kBytes
   fftplans  :       3668. kBytes
   grid      :       3424. kBytes
   one-center:         46. kBytes
   wavefun   :       2222. kBytes

     INWAV:  cpu time    0.0002: real time    0.0004
 Broyden mixing: mesh for mixing (old mesh)
   NGX = 23   NGY = 33   NGZ = 23
  (NGX  = 96   NGY  =140   NGZ  = 96)
  gives a total of  17457 points

 initial charge density was supplied:
 charge density of overlapping atoms calculated
 number of electron     176.0000000 magnetization 
 keeping initial charge density in first step


--------------------------------------------------------------------------------------------------------


 Maximum index for non-local projection operator          610
 Maximum index for augmentation-charges         2331 (set IRDMAX)


--------------------------------------------------------------------------------------------------------


 First call to EWALD:  gamma=   0.191
 Maximum number of real-space cells 3x 2x 3
 Maximum number of reciprocal cells 3x 3x 2

    FEWALD:  cpu time    0.0022: real time    0.0022


--------------------------------------- Iteration      1(   1)  ---------------------------------------


    POTLOK:  cpu time    0.1282: real time    0.1286
    SETDIJ:  cpu time    1.1056: real time    1.1056
     EDDAV:  cpu time    3.9720: real time    3.9763
       DOS:  cpu time    0.0010: real time    0.0010
    --------------------------------------------
      LOOP:  cpu time    5.2068: real time    5.2114

 eigenvalue-minimisations  :  1832
 total energy-change (2. order) : 0.6570599E+03  (-0.5623493E+04)
 number of electron     176.0000000 magnetization 
 augmentation part      176.0000000 magnetization 

 Free energy of the ion-electron system (eV)
  ---------------------------------------------------
  alpha Z        PSCENC =       448.48574251
  Ewald energy   TEWEN  =     -9218.80967095
  -Hartree energ DENC   =     -3661.44625453
  -exchange      EXHF   =         0.00000000
  -V(xc)+E(xc)   XCENC  =       461.94686834
  PAW double counting   =     10816.98087266   -11353.96092700
  entropy T*S    EENTRO =        -0.00127824
  eigenvalues    EBANDS =      -126.41550927
  atomic energy  EATOM  =     13290.28009929
  Solvation  Ediel_sol  =         0.00000000
  ---------------------------------------------------
  free energy    TOTEN  =       657.05994280 eV

  energy without entropy =      657.06122104  energy(sigma->0) =      657.06058192


--------------------------------------------------------------------------------------------------------




--------------------------------------- Iteration      1(   2)  ---------------------------------------


     EDDAV:  cpu time    4.4710: real time    4.5081
       DOS:  cpu time    0.0003: real time    0.0003
    --------------------------------------------
      LOOP:  cpu time    4.4713: real time    4.5084

 eigenvalue-minimisations  :  2192
 total energy-change (2. order) :-0.1233494E+04  (-0.1181349E+04)
 number of electron     176.0000000 magnetization 
 augmentation part      176.0000000 magnetization 

 Free energy of the ion-electron system (eV)
  ---------------------------------------------------
  alpha Z        PSCENC =       448.48574251
  Ewald energy   TEWEN  =     -9218.80967095
  -Hartree energ DENC   =     -3661.44625453
  -exchange      EXHF   =         0.00000000
  -V(xc)+E(xc)   XCENC  =       461.94686834
  PAW double counting   =     10816.98087266   -11353.96092700
  entropy T*S    EENTRO =        -0.00000000
  eigenvalues    EBANDS =     -1359.91093870
  atomic energy  EATOM  =     13290.28009929
  Solvation  Ediel_sol  =         0.00000000
  ---------------------------------------------------
  free energy    TOTEN  =      -576.43420839 eV

  energy without entropy =     -576.43420839  energy(sigma->0) =     -576.43420839


--------------------------------------------------------------------------------------------------------




--------------------------------------- Iteration      1(   3)  ---------------------------------------


     EDDAV:  cpu time    4.7924: real time    4.8425
       DOS:  cpu time    0.0007: real time    0.0007
    --------------------------------------------
      LOOP:  cpu time    4.7931: real time    4.8432

 eigenvalue-minimisations  :  2440
 total energy-change (2. order) :-0.1726649E+03  (-0.1716220E+03)
 number of electron     176.0000000 magnetization 
 augmentation part      176.0000000 magnetization 

 Free energy of the ion-electron system (eV)
  ---------------------------------------------------
  alpha Z        PSCENC =       448.48574251
  Ewald energy   TEWEN  =     -9218.80967095
  -Hartree energ DENC   =     -3661.44625453
  -exchange      EXHF   =         0.00000000
  -V(xc)+E(xc)   XCENC  =       461.94686834
  PAW double counting   =     10816.98087266   -11353.96092700
  entropy T*S    EENTRO =        -0.00000000
  eigenvalues    EBANDS =     -1532.57588110
  atomic energy  EATOM  =     13290.28009929
  Solvation  Ediel_sol  =         0.00000000
  ---------------------------------------------------
  free energy    TOTEN  =      -749.09915079 eV

  energy without entropy =     -749.09915079  energy(sigma->0) =     -749.09915079


--------------------------------------------------------------------------------------------------------




--------------------------------------- Iteration      1(   4)  ---------------------------------------


     EDDAV:  cpu time    4.4195: real time    4.4391
       DOS:  cpu time    0.0005: real time    0.0005
    --------------------------------------------
      LOOP:  cpu time    4.4200: real time    4.4397

 eigenvalue-minimisations  :  2152
 total energy-change (2. order) :-0.5426404E+01  (-0.5407023E+01)
 number of electron     176.0000000 magnetization 
 augmentation part      176.0000000 magnetization 

 Free energy of the ion-electron system (eV)
  ---------------------------------------------------
  alpha Z        PSCENC =       448.48574251
  Ewald energy   TEWEN  =     -9218.80967095
  -Hartree energ DENC   =     -3661.44625453
  -exchange      EXHF   =         0.00000000
  -V(xc)+E(xc)   XCENC  =       461.94686834
  PAW double counting   =     10816.98087266   -11353.96092700
  entropy T*S    EENTRO =        -0.00000000
  eigenvalues    EBANDS =     -1538.00228522
  atomic energy  EATOM  =     13290.28009929
  Solvation  Ediel_sol  =         0.00000000
  ---------------------------------------------------
  free energy    TOTEN  =      -754.52555491 eV

  energy without entropy =     -754.52555491  energy(sigma->0) =     -754.52555491


--------------------------------------------------------------------------------------------------------




--------------------------------------- Iteration      1(   5)  ---------------------------------------


     EDDAV:  cpu time    4.6913: real time    4.7001
       DOS:  cpu time    0.0004: real time    0.0004
    CHARGE:  cpu time    0.8720: real time    0.8720
    MIXING:  cpu time    0.0008: real time    0.0008
    --------------------------------------------
      LOOP:  cpu time    5.5644: real time    5.5733

 eigenvalue-minimisations  :  2352
 total energy-change (2. order) :-0.2525307E+00  (-0.2523510E+00)
 number of electron     175.9999995 magnetization 
 augmentation part       -3.2489747 magnetization 

 Broyden mixing:
  rms(total) = 0.70486E+00    rms(broyden)= 0.70460E+00
  rms(prec ) = 0.97683E+00
  weight for this iteration     100.00

 Free energy of the ion-electron system (eV)
  ---------------------------------------------------
  alpha Z        PSCENC =       448.48574251
  Ewald energy   TEWEN  =     -9218.80967095
  -Hartree energ DENC   =     -3661.44625453
  -exchange      EXHF   =         0.00000000
  -V(xc)+E(xc)   XCENC  =       461.94686834
  PAW double counting   =     10816.98087266   -11353.96092700
  entropy T*S    EENTRO =        -0.00000000
  eigenvalues    EBANDS =     -1538.25481596
  atomic energy  EATOM  =     13290.28009929
  Solvation  Ediel_sol  =         0.00000000
  ---------------------------------------------------
  free energy    TOTEN  =      -754.77808566 eV

  energy without entropy =     -754.77808566  energy(sigma->0) =     -754.77808566


--------------------------------------------------------------------------------------------------------




--------------------------------------- Iteration      1(   6)  ---------------------------------------


    POTLOK:  cpu time    0.1359: real time    0.1570
    SETDIJ:  cpu time    1.1045: real time    1.1045
     EDDAV:  cpu time    4.6949: real time    4.6952
       DOS:  cpu time    0.0004: real time    0.0004
    CHARGE:  cpu time    0.8435: real time    0.8435
    MIXING:  cpu time    0.0010: real time    0.0010
    --------------------------------------------
      LOOP:  cpu time    6.7801: real time    6.8015

 eigenvalue-minimisations  :  2384
 total energy-change (2. order) : 0.3977249E+02  (-0.1177144E+01)
 number of electron     175.9999995 magnetization 
 augmentation part       -2.5264775 magnetization 

 Broyden mixing:
  rms(total) = 0.50207E+00    rms(broyden)= 0.50199E+00
  rms(prec ) = 0.62354E+00
  weight for this iteration     100.00

 eigenvalues of (default mixing * dielectric matrix)
  average eigenvalue GAMMA=   1.1680
  1.1680

 Free energy of the ion-electron system (eV)
  ---------------------------------------------------
  alpha Z        PSCENC =       448.48574251
  Ewald energy   TEWEN  =     -9218.80967095
  -Hartree energ DENC   =     -3651.78618413
  -exchange      EXHF   =         0.00000000
  -V(xc)+E(xc)   XCENC  =       477.52077516
  PAW double counting   =     10966.91300753   -11503.05809667
  entropy T*S    EENTRO =        -0.00000000
  eigenvalues    EBANDS =     -1524.55126804
  atomic energy  EATOM  =     13290.28009929
  Solvation  Ediel_sol  =         0.00000000
  ---------------------------------------------------
  free energy    TOTEN  =      -715.00559529 eV

  energy without entropy =     -715.00559529  energy(sigma->0) =     -715.00559529


--------------------------------------------------------------------------------------------------------




--------------------------------------- Iteration      1(   7)  ---------------------------------------


    POTLOK:  cpu time    0.1415: real time    0.1671
    SETDIJ:  cpu time    1.1033: real time    1.1033
     EDDAV:  cpu time    4.5059: real time    4.5061
       DOS:  cpu time    0.0004: real time    0.0004
    CHARGE:  cpu time    0.8437: real time    0.8437
    MIXING:  cpu time    0.0008: real time    0.0008
    --------------------------------------------
      LOOP:  cpu time    6.5957: real time    6.6214

 eigenvalue-minimisations  :  2240
 total energy-change (2. order) : 0.2283791E+00  (-0.3807444E+00)
 number of electron     175.9999995 magnetization 
 augmentation part       -2.2650352 magnetization 

 Broyden mixing:
  rms(total) = 0.25786E+00    rms(broyden)= 0.25785E+00
  rms(prec ) = 0.28275E+00
  weight for this iteration     100.00

 eigenvalues of (default mixing * dielectric matrix)
  average eigenvalue GAMMA=   1.3168
  1.3168  1.3168

 Free energy of the ion-electron system (eV)
  ---------------------------------------------------
  alpha Z        PSCENC =       448.48574251
  Ewald energy   TEWEN  =     -9218.80967095
  -Hartree energ DENC   =     -3671.68779311
  -exchange      EXHF   =         0.00000000
  -V(xc)+E(xc)   XCENC  =       480.16287712
  PAW double counting   =     11275.64310707   -11810.92972138
  entropy T*S    EENTRO =        -0.00000000
  eigenvalues    EBANDS =     -1507.92185674
  atomic energy  EATOM  =     13290.28009929
  Solvation  Ediel_sol  =         0.00000000
  ---------------------------------------------------
  free energy    TOTEN  =      -714.77721619 eV

  energy without entropy =     -714.77721619  energy(sigma->0) =     -714.77721619


--------------------------------------------------------------------------------------------------------




--------------------------------------- Iteration      1(   8)  ---------------------------------------


    POTLOK:  cpu time    0.1444: real time    0.1679
    SETDIJ:  cpu time    1.1028: real time    1.1029
     EDDAV:  cpu time    4.4074: real time    4.4076
       DOS:  cpu time    0.0004: real time    0.0004
    CHARGE:  cpu time    0.8331: real time    0.8331
    MIXING:  cpu time    0.0009: real time    0.0009
    --------------------------------------------
      LOOP:  cpu time    6.4891: real time    6.5128

 eigenvalue-minimisations  :  2168
 total energy-change (2. order) :-0.9426135E-01  (-0.1800687E-01)
 number of electron     175.9999995 magnetization 
 augmentation part       -2.3056375 magnetization 

 Broyden mixing:
  rms(total) = 0.14804E+00    rms(broyden)= 0.14804E+00
  rms(prec ) = 0.16369E+00
  weight for this iteration     100.00

 eigenvalues of (default mixing * dielectric matrix)
  average eigenvalue GAMMA=   1.7209
  1.1088  1.3028  2.7512

 Free energy of the ion-electron system (eV)
  ---------------------------------------------------
  alpha Z        PSCENC =       448.48574251
  Ewald energy   TEWEN  =     -9218.80967095
  -Hartree energ DENC   =     -3673.97863427
  -exchange      EXHF   =         0.00000000
  -V(xc)+E(xc)   XCENC  =       480.54395332
  PAW double counting   =     11398.56683366   -11934.01419390
  entropy T*S    EENTRO =        -0.00000000
  eigenvalues    EBANDS =     -1505.94560718
  atomic energy  EATOM  =     13290.28009929
  Solvation  Ediel_sol  =         0.00000000
  ---------------------------------------------------
  free energy    TOTEN  =      -714.87147754 eV

  energy without entropy =     -714.87147754  energy(sigma->0) =     -714.87147754


--------------------------------------------------------------------------------------------------------




--------------------------------------- Iteration      1(   9)  ---------------------------------------


    POTLOK:  cpu time    0.1604: real time    0.1696
    SETDIJ:  cpu time    1.1034: real time    1.1034
     EDDAV:  cpu time    4.1468: real time    4.1469
       DOS:  cpu time    0.0005: real time    0.0005
    CHARGE:  cpu time    0.8346: real time    0.8347
    MIXING:  cpu time    0.0009: real time    0.0009
    --------------------------------------------
      LOOP:  cpu time    6.2467: real time    6.2560

 eigenvalue-minimisations  :  1976
 total energy-change (2. order) :-0.4107209E-01  (-0.8118786E-02)
 number of electron     175.9999995 magnetization 
 augmentation part       -2.3274664 magnetization 

 Broyden mixing:
  rms(total) = 0.32423E-01    rms(broyden)= 0.32420E-01
  rms(prec ) = 0.34760E-01
  weight for this iteration     100.00

 eigenvalues of (default mixing * dielectric matrix)
  average eigenvalue GAMMA=   1.4670
  2.5573  1.2423  1.2423  0.8262

 Free energy of the ion-electron system (eV)
  ---------------------------------------------------
  alpha Z        PSCENC =       448.48574251
  Ewald energy   TEWEN  =     -9218.80967095
  -Hartree energ DENC   =     -3676.51978674
  -exchange      EXHF   =         0.00000000
  -V(xc)+E(xc)   XCENC  =       481.55416316
  PAW double counting   =     11572.97192344   -12108.79835280
  entropy T*S    EENTRO =        -0.00000000
  eigenvalues    EBANDS =     -1504.07666753
  atomic energy  EATOM  =     13290.28009929
  Solvation  Ediel_sol  =         0.00000000
  ---------------------------------------------------
  free energy    TOTEN  =      -714.91254962 eV

  energy without entropy =     -714.91254962  energy(sigma->0) =     -714.91254962


--------------------------------------------------------------------------------------------------------




--------------------------------------- Iteration      1(  10)  ---------------------------------------


    POTLOK:  cpu time    0.1399: real time    0.1462
    SETDIJ:  cpu time    1.1051: real time    1.1051
     EDDAV:  cpu time    4.9440: real time    4.9442
       DOS:  cpu time    0.0003: real time    0.0003
    CHARGE:  cpu time    0.8443: real time    0.8443
    MIXING:  cpu time    0.0010: real time    0.0010
    --------------------------------------------
      LOOP:  cpu time    7.0345: real time    7.0412

 eigenvalue-minimisations  :  2568
 total energy-change (2. order) :-0.7418875E-03  (-0.4475645E-03)
 number of electron     175.9999995 magnetization 
 augmentation part       -2.3208092 magnetization 

 Broyden mixing:
  rms(total) = 0.18279E-01    rms(broyden)= 0.18279E-01
  rms(prec ) = 0.20328E-01
  weight for this iteration     100.00

 eigenvalues of (default mixing * dielectric matrix)
  average eigenvalue GAMMA=   1.5946
  2.4315  2.4315  1.1316  1.1316  0.8466

 Free energy of the ion-electron system (eV)
  ---------------------------------------------------
  alpha Z        PSCENC =       448.48574251
  Ewald energy   TEWEN  =     -9218.80967095
  -Hartree energ DENC   =     -3675.59982641
  -exchange      EXHF   =         0.00000000
  -V(xc)+E(xc)   XCENC  =       481.44389491
  PAW double counting   =     11554.50362608   -12090.36577695
  entropy T*S    EENTRO =        -0.00000000
  eigenvalues    EBANDS =     -1504.85137998
  atomic energy  EATOM  =     13290.28009929
  Solvation  Ediel_sol  =         0.00000000
  ---------------------------------------------------
  free energy    TOTEN  =      -714.91329151 eV

  energy without entropy =     -714.91329151  energy(sigma->0) =     -714.91329151


--------------------------------------------------------------------------------------------------------




--------------------------------------- Iteration      1(  11)  ---------------------------------------


    POTLOK:  cpu time    0.1515: real time    0.1698
    SETDIJ:  cpu time    1.1046: real time    1.1046
     EDDAV:  cpu time    4.1901: real time    4.1904
       DOS:  cpu time    0.0004: real time    0.0004
    CHARGE:  cpu time    0.8348: real time    0.8349
    MIXING:  cpu time    0.0010: real time    0.0010
    --------------------------------------------
      LOOP:  cpu time    6.2824: real time    6.3010

 eigenvalue-minimisations  :  2008
 total energy-change (2. order) :-0.1452260E-02  (-0.1606970E-03)
 number of electron     175.9999995 magnetization 
 augmentation part       -2.3201113 magnetization 

 Broyden mixing:
  rms(total) = 0.66986E-02    rms(broyden)= 0.66982E-02
  rms(prec ) = 0.81836E-02
  weight for this iteration     100.00

 eigenvalues of (default mixing * dielectric matrix)
  average eigenvalue GAMMA=   1.5772
  2.5737  2.5737  1.2355  1.2355  0.9225  0.9225

 Free energy of the ion-electron system (eV)
  ---------------------------------------------------
  alpha Z        PSCENC =       448.48574251
  Ewald energy   TEWEN  =     -9218.80967095
  -Hartree energ DENC   =     -3674.27977665
  -exchange      EXHF   =         0.00000000
  -V(xc)+E(xc)   XCENC  =       481.39561288
  PAW double counting   =     11539.81393709   -12075.82434971
  entropy T*S    EENTRO =        -0.00000000
  eigenvalues    EBANDS =     -1505.97633822
  atomic energy  EATOM  =     13290.28009929
  Solvation  Ediel_sol  =         0.00000000
  ---------------------------------------------------
  free energy    TOTEN  =      -714.91474377 eV

  energy without entropy =     -714.91474377  energy(sigma->0) =     -714.91474377


--------------------------------------------------------------------------------------------------------




--------------------------------------- Iteration      1(  12)  ---------------------------------------


    POTLOK:  cpu time    0.1455: real time    0.1538
    SETDIJ:  cpu time    1.0984: real time    1.0984
     EDDAV:  cpu time    4.3760: real time    4.3764
       DOS:  cpu time    0.0007: real time    0.0007
    CHARGE:  cpu time    0.8428: real time    0.8428
    MIXING:  cpu time    0.0011: real time    0.0011
    --------------------------------------------
      LOOP:  cpu time    6.4645: real time    6.4732

 eigenvalue-minimisations  :  2144
 total energy-change (2. order) :-0.7231593E-04  (-0.4568639E-04)
 number of electron     175.9999995 magnetization 
 augmentation part       -2.3219353 magnetization 

 Broyden mixing:
  rms(total) = 0.23626E-02    rms(broyden)= 0.23619E-02
  rms(prec ) = 0.26109E-02
  weight for this iteration     100.00

 eigenvalues of (default mixing * dielectric matrix)
  average eigenvalue GAMMA=   1.6329
  3.0499  2.3311  1.8891  1.1915  1.0488  0.9598  0.9598

 Free energy of the ion-electron system (eV)
  ---------------------------------------------------
  alpha Z        PSCENC =       448.48574251
  Ewald energy   TEWEN  =     -9218.80967095
  -Hartree energ DENC   =     -3674.42199050
  -exchange      EXHF   =         0.00000000
  -V(xc)+E(xc)   XCENC  =       481.45881987
  PAW double counting   =     11545.28218970   -12081.34077530
  entropy T*S    EENTRO =        -0.00000000
  eigenvalues    EBANDS =     -1505.84923069
  atomic energy  EATOM  =     13290.28009929
  Solvation  Ediel_sol  =         0.00000000
  ---------------------------------------------------
  free energy    TOTEN  =      -714.91481609 eV

  energy without entropy =     -714.91481609  energy(sigma->0) =     -714.91481609


--------------------------------------------------------------------------------------------------------




--------------------------------------- Iteration      1(  13)  ---------------------------------------


    POTLOK:  cpu time    0.1398: real time    0.1643
    SETDIJ:  cpu time    1.1026: real time    1.1027
     EDDAV:  cpu time    4.4620: real time    4.4622
       DOS:  cpu time    0.0004: real time    0.0004
    CHARGE:  cpu time    0.8444: real time    0.8445
    MIXING:  cpu time    0.0012: real time    0.0013
    --------------------------------------------
      LOOP:  cpu time    6.5505: real time    6.5752

 eigenvalue-minimisations  :  2208
 total energy-change (2. order) :-0.1704896E-04  (-0.3654523E-05)
 number of electron     175.9999995 magnetization 
 augmentation part       -2.3218750 magnetization 

 Broyden mixing:
  rms(total) = 0.68501E-03    rms(broyden)= 0.68379E-03
  rms(prec ) = 0.73799E-03
  weight for this iteration     100.00

 eigenvalues of (default mixing * dielectric matrix)
  average eigenvalue GAMMA=   1.6359
  2.9788  2.3141  2.2811  1.2894  1.2894  0.9401  0.9970  0.9970

 Free energy of the ion-electron system (eV)
  ---------------------------------------------------
  alpha Z        PSCENC =       448.48574251
  Ewald energy   TEWEN  =     -9218.80967095
  -Hartree energ DENC   =     -3674.54983907
  -exchange      EXHF   =         0.00000000
  -V(xc)+E(xc)   XCENC  =       481.47032414
  PAW double counting   =     11543.77932163   -12079.84386035
  entropy T*S    EENTRO =        -0.00000000
  eigenvalues    EBANDS =     -1505.72695034
  atomic energy  EATOM  =     13290.28009929
  Solvation  Ediel_sol  =         0.00000000
  ---------------------------------------------------
  free energy    TOTEN  =      -714.91483314 eV

  energy without entropy =     -714.91483314  energy(sigma->0) =     -714.91483314


--------------------------------------------------------------------------------------------------------




--------------------------------------- Iteration      1(  14)  ---------------------------------------


    POTLOK:  cpu time    0.1436: real time    0.1594
    SETDIJ:  cpu time    1.1037: real time    1.1037
     EDDAV:  cpu time    3.8684: real time    3.8685
       DOS:  cpu time    0.0004: real time    0.0004
    CHARGE:  cpu time    0.8442: real time    0.8443
    MIXING:  cpu time    0.0011: real time    0.0011
    --------------------------------------------
      LOOP:  cpu time    5.9614: real time    5.9774

 eigenvalue-minimisations  :  1728
 total energy-change (2. order) :-0.9642540E-05  (-0.2642035E-06)
 number of electron     175.9999995 magnetization 
 augmentation part       -2.3216998 magnetization 

 Broyden mixing:
  rms(total) = 0.20109E-03    rms(broyden)= 0.19711E-03
  rms(prec ) = 0.23718E-03
  weight for this iteration     100.00

 eigenvalues of (default mixing * dielectric matrix)
  average eigenvalue GAMMA=   1.6904
  2.8517  2.8517  2.1406  2.1406  1.1687  1.1687  0.9281  0.9817  0.9817

 Free energy of the ion-electron system (eV)
  ---------------------------------------------------
  alpha Z        PSCENC =       448.48574251
  Ewald energy   TEWEN  =     -9218.80967095
  -Hartree energ DENC   =     -3674.56459758
  -exchange      EXHF   =         0.00000000
  -V(xc)+E(xc)   XCENC  =       481.47059761
  PAW double counting   =     11543.44062612   -12079.50321146
  entropy T*S    EENTRO =        -0.00000000
  eigenvalues    EBANDS =     -1505.71442832
  atomic energy  EATOM  =     13290.28009929
  Solvation  Ediel_sol  =         0.00000000
  ---------------------------------------------------
  free energy    TOTEN  =      -714.91484278 eV

  energy without entropy =     -714.91484278  energy(sigma->0) =     -714.91484278


--------------------------------------------------------------------------------------------------------




--------------------------------------- Iteration      1(  15)  ---------------------------------------


    POTLOK:  cpu time    0.1266: real time    0.1586
    SETDIJ:  cpu time    1.0994: real time    1.0994
     EDDAV:  cpu time    3.2644: real time    3.2645
       DOS:  cpu time    0.0008: real time    0.0009
    CHARGE:  cpu time    0.8403: real time    0.8403
    MIXING:  cpu time    0.0012: real time    0.0012
    --------------------------------------------
      LOOP:  cpu time    5.3326: real time    5.3648

 eigenvalue-minimisations  :  1256
 total energy-change (2. order) :-0.5633482E-05  (-0.6139628E-07)
 number of electron     175.9999995 magnetization 
 augmentation part       -2.3217163 magnetization 

 Broyden mixing:
  rms(total) = 0.95248E-04    rms(broyden)= 0.86616E-04
  rms(prec ) = 0.10273E-03
  weight for this iteration     100.00

 eigenvalues of (default mixing * dielectric matrix)
  average eigenvalue GAMMA=   1.6361
  3.0406  2.6427  2.4297  1.9929  1.1905  1.1905  1.0321  1.0321  0.9052  0.9052

 Free energy of the ion-electron system (eV)
  ---------------------------------------------------
  alpha Z        PSCENC =       448.48574251
  Ewald energy   TEWEN  =     -9218.80967095
  -Hartree energ DENC   =     -3674.54497681
  -exchange      EXHF   =         0.00000000
  -V(xc)+E(xc)   XCENC  =       481.46936819
  PAW double counting   =     11543.44177093   -12079.50460681
  entropy T*S    EENTRO =        -0.00000000
  eigenvalues    EBANDS =     -1505.73257475
  atomic energy  EATOM  =     13290.28009929
  Solvation  Ediel_sol  =         0.00000000
  ---------------------------------------------------
  free energy    TOTEN  =      -714.91484841 eV

  energy without entropy =     -714.91484841  energy(sigma->0) =     -714.91484841


--------------------------------------------------------------------------------------------------------




--------------------------------------- Iteration      1(  16)  ---------------------------------------


    POTLOK:  cpu time    0.1335: real time    0.1727
    SETDIJ:  cpu time    1.0981: real time    1.0981
     EDDAV:  cpu time    3.1701: real time    3.1703
       DOS:  cpu time    0.0004: real time    0.0004
    CHARGE:  cpu time    0.8408: real time    0.8409
    MIXING:  cpu time    0.0012: real time    0.0012
    --------------------------------------------
      LOOP:  cpu time    5.2442: real time    5.2836

 eigenvalue-minimisations  :  1184
 total energy-change (2. order) : 0.3799780E-05  (-0.1324929E-07)
 number of electron     175.9999995 magnetization 
 augmentation part       -2.3217510 magnetization 

 Broyden mixing:
  rms(total) = 0.52076E-04    rms(broyden)= 0.33800E-04
  rms(prec ) = 0.38543E-04
  weight for this iteration     100.00
  WARNING: grid for Broyden might be to small

 eigenvalues of (default mixing * dielectric matrix)
  average eigenvalue GAMMA=   1.6354
  2.8370  2.8370  2.5480  1.6948  1.6948  1.2143  1.2143  0.9906  0.9906  0.9838
  0.9838

 Free energy of the ion-electron system (eV)
  ---------------------------------------------------
  alpha Z        PSCENC =       448.48574251
  Ewald energy   TEWEN  =     -9218.80967095
  -Hartree energ DENC   =     -3674.55279810
  -exchange      EXHF   =         0.00000000
  -V(xc)+E(xc)   XCENC  =       481.47007874
  PAW double counting   =     11543.46265989   -12079.52520381
  entropy T*S    EENTRO =        -0.00000000
  eigenvalues    EBANDS =     -1505.72575217
  atomic energy  EATOM  =     13290.28009929
  Solvation  Ediel_sol  =         0.00000000
  ---------------------------------------------------
  free energy    TOTEN  =      -714.91484461 eV

  energy without entropy =     -714.91484461  energy(sigma->0) =     -714.91484461


--------------------------------------------------------------------------------------------------------




--------------------------------------- Iteration      1(  17)  ---------------------------------------


    POTLOK:  cpu time    0.1368: real time    0.1683
    SETDIJ:  cpu time    1.1020: real time    1.1020
     EDDAV:  cpu time    3.1066: real time    3.1067
       DOS:  cpu time    0.0003: real time    0.0003
    --------------------------------------------
      LOOP:  cpu time    4.3457: real time    4.3773

 eigenvalue-minimisations  :  1136
 total energy-change (2. order) : 0.9158694E-06  (-0.3515408E-08)
 number of electron     175.9999995 magnetization 
 augmentation part       -2.3217510 magnetization 

 Free energy of the ion-electron system (eV)
  ---------------------------------------------------
  alpha Z        PSCENC =       448.48574251
  Ewald energy   TEWEN  =     -9218.80967095
  -Hartree energ DENC   =     -3674.55577510
  -exchange      EXHF   =         0.00000000
  -V(xc)+E(xc)   XCENC  =       481.47029024
  PAW double counting   =     11543.44642352   -12079.50892847
  entropy T*S    EENTRO =        -0.00000000
  eigenvalues    EBANDS =     -1505.72302472
  atomic energy  EATOM  =     13290.28009929
  Solvation  Ediel_sol  =         0.00000000
  ---------------------------------------------------
  free energy    TOTEN  =      -714.91484370 eV

  energy without entropy =     -714.91484370  energy(sigma->0) =     -714.91484370


--------------------------------------------------------------------------------------------------------




 average (electrostatic) potential at core
  the test charge radii are     1.1312  1.1541  1.0178
  (the norm of the test charge is              1.0000)
       1 -55.2629       2 -55.2630       3 -55.2629       4 -55.2630       5-101.6468
       6-101.6468       7-101.6468       8-101.6468       9 -68.9876      10 -68.9876
      11 -68.9876      12 -68.9876      13 -68.9832      14 -68.9832      15 -68.9832
      16 -68.9832      17 -68.9832      18 -68.9832      19 -68.9832      20 -68.9832



 E-fermi :   0.5130     XC(G=0):  -8.0680     alpha+bet : -7.0360


 k-point     1 :       0.0000    0.0000    0.0000
  band No.  band energies     occupation 
      1     -20.7919      2.00000
      2     -20.7902      2.00000
      3     -20.7882      2.00000
      4     -20.7871      2.00000
      5     -16.4689      2.00000
      6     -16.4578      2.00000
      7     -16.4576      2.00000
      8     -16.4433      2.00000
      9     -16.4093      2.00000
     10     -16.3775      2.00000
     11     -16.3717      2.00000
     12     -16.3716      2.00000
     13     -16.3107      2.00000
     14     -16.3104      2.00000
     15     -16.3096      2.00000
     16     -16.3091      2.00000
     17     -16.3049      2.00000
     18     -16.3045      2.00000
     19     -16.3042      2.00000
     20     -16.3034      2.00000
     21     -16.3028      2.00000
     22     -16.3024      2.00000
     23     -16.3015      2.00000
     24     -16.3010      2.00000
     25     -14.3385      2.00000
     26     -14.1519      2.00000
     27     -14.0301      2.00000
     28     -14.0221      2.00000
     29     -14.0062      2.00000
     30     -14.0017      2.00000
     31     -13.9994      2.00000
     32     -13.9906      2.00000
     33     -13.9600      2.00000
     34     -13.7429      2.00000
     35     -13.7397      2.00000
     36     -13.7346      2.00000
     37      -8.1683      2.00000
     38      -7.6618      2.00000
     39      -7.2278      2.00000
     40      -7.2196      2.00000
     41      -7.2189      2.00000
     42      -7.2183      2.00000
     43      -7.1910      2.00000
     44      -7.1880      2.00000
     45      -7.1866      2.00000
     46      -7.1790      2.00000
     47      -7.1789      2.00000
     48      -7.1736      2.00000
     49      -7.1599      2.00000
     50      -7.1538      2.00000
     51      -7.1351      2.00000
     52      -6.5305      2.00000
     53      -3.2996      2.00000
     54      -3.2917      2.00000
     55      -3.2195      2.00000
     56      -3.1914      2.00000
     57      -3.1245      2.00000
     58      -3.0817      2.00000
     59      -2.1223      2.00000
     60      -1.9088      2.00000
     61      -1.8798      2.00000
     62      -1.8635      2.00000
     63      -1.8519      2.00000
     64      -1.7911      2.00000
     65      -1.6254      2.00000
     66      -1.5027      2.00000
     67      -1.4925      2.00000
     68      -1.4658      2.00000
     69      -1.4267      2.00000
     70      -1.4184      2.00000
     71      -1.4034      2.00000
     72      -1.3875      2.00000
     73      -1.3508      2.00000
     74      -1.3332      2.00000
     75      -1.3289      2.00000
     76      -1.3020      2.00000
     77      -1.3004      2.00000
     78      -1.2676      2.00000
     79      -1.1442      2.00000
     80      -1.1278      2.00000
     81      -1.0996      2.00000
     82      -1.0292      2.00000
     83      -1.0023      2.00000
     84      -0.9830      2.00000
     85      -0.8133      2.00000
     86      -0.6381      2.00000
     87      -0.1636      2.00000
     88       0.4593      2.00000
     89       2.7522      0.00000
     90       2.8167      0.00000
     91       2.8232      0.00000
     92       3.1160      0.00000
     93       3.2544      0.00000
     94       3.5660      0.00000
     95       4.8876      0.00000
     96       5.6911      0.00000
     97       5.7936      0.00000
     98       6.0191      0.00000
     99       6.0213      0.00000
    100       6.0505      0.00000
    101       6.1597      0.00000
    102       6.2651      0.00000
    103       6.3011      0.00000
    104       6.4252      0.00000
    105       6.5374      0.00000
    106       6.5496      0.00000
    107       6.5698      0.00000
    108       6.7476      0.00000
    109       6.7886      0.00000
    110       6.7922      0.00000
    111       6.8651      0.00000
    112       6.9912      0.00000

 k-point     2 :       0.3333    0.0000    0.0000
  band No.  band energies     occupation 
      1     -20.7909      2.00000
      2     -20.7895      2.00000
      3     -20.7891      2.00000
      4     -20.7879      2.00000
      5     -16.4623      2.00000
      6     -16.4495      2.00000
      7     -16.4375      2.00000
      8     -16.4373      2.00000
      9     -16.4012      2.00000
     10     -16.3944      2.00000
     11     -16.3944      2.00000
     12     -16.3854      2.00000
     13     -16.3104      2.00000
     14     -16.3100      2.00000
     15     -16.3099      2.00000
     16     -16.3094      2.00000
     17     -16.3050      2.00000
     18     -16.3045      2.00000
     19     -16.3040      2.00000
     20     -16.3036      2.00000
     21     -16.3025      2.00000
     22     -16.3020      2.00000
     23     -16.3019      2.00000
     24     -16.3014      2.00000
     25     -14.2882      2.00000
     26     -14.1530      2.00000
     27     -14.1142      2.00000
     28     -14.0336      2.00000
     29     -14.0280      2.00000
     30     -14.0245      2.00000
     31     -13.9406      2.00000
     32     -13.9332      2.00000
     33     -13.8403      2.00000
     34     -13.8070      2.00000
     35     -13.8009      2.00000
     36     -13.7648      2.00000
     37      -7.9580      2.00000
     38      -7.4807      2.00000
     39      -7.4481      2.00000
     40      -7.2313      2.00000
     41      -7.2062      2.00000
     42      -7.2052      2.00000
     43      -7.2042      2.00000
     44      -7.1879      2.00000
     45      -7.1807      2.00000
     46      -7.1730      2.00000
     47      -7.1724      2.00000
     48      -7.1655      2.00000
     49      -7.1571      2.00000
     50      -7.1543      2.00000
     51      -7.1542      2.00000
     52      -6.8742      2.00000
     53      -3.2561      2.00000
     54      -3.1615      2.00000
     55      -2.9831      2.00000
     56      -2.8506      2.00000
     57      -2.7070      2.00000
     58      -2.6805      2.00000
     59      -2.2232      2.00000
     60      -2.1106      2.00000
     61      -2.0458      2.00000
     62      -1.9616      2.00000
     63      -1.9615      2.00000
     64      -1.9153      2.00000
     65      -1.8181      2.00000
     66      -1.6990      2.00000
     67      -1.6546      2.00000
     68      -1.6024      2.00000
     69      -1.4342      2.00000
     70      -1.4118      2.00000
     71      -1.4028      2.00000
     72      -1.3729      2.00000
     73      -1.3728      2.00000
     74      -1.3546      2.00000
     75      -1.2943      2.00000
     76      -1.2791      2.00000
     77      -1.2359      2.00000
     78      -1.2256      2.00000
     79      -1.1984      2.00000
     80      -1.1870      2.00000
     81      -1.1487      2.00000
     82      -1.1135      2.00000
     83      -1.0597      2.00000
     84      -1.0135      2.00000
     85      -0.8155      2.00000
     86      -0.6747      2.00000
     87      -0.5350      2.00000
     88      -0.0936      2.00000
     89       2.9970      0.00000
     90       3.3409      0.00000
     91       3.5919      0.00000
     92       3.6941      0.00000
     93       3.9307      0.00000
     94       4.0651      0.00000
     95       5.0821      0.00000
     96       5.1431      0.00000
     97       5.1633      0.00000
     98       5.4503      0.00000
     99       5.8051      0.00000
    100       5.8641      0.00000
    101       6.1752      0.00000
    102       6.2454      0.00000
    103       6.3297      0.00000
    104       6.4413      0.00000
    105       6.5295      0.00000
    106       6.5657      0.00000
    107       6.5776      0.00000
    108       6.7102      0.00000
    109       6.8076      0.00000
    110       6.9962      0.00000
    111       7.0324      0.00000
    112       7.0374      0.00000

 k-point     3 :       0.0000    0.5000    0.0000
  band No.  band energies     occupation 
      1     -20.7911      2.00000
      2     -20.7911      2.00000
      3     -20.7877      2.00000
      4     -20.7877      2.00000
      5     -16.4578      2.00000
      6     -16.4578      2.00000
      7     -16.4394      2.00000
      8     -16.4394      2.00000
      9     -16.4110      2.00000
     10     -16.4110      2.00000
     11     -16.3716      2.00000
     12     -16.3716      2.00000
     13     -16.3105      2.00000
     14     -16.3105      2.00000
     15     -16.3094      2.00000
     16     -16.3094      2.00000
     17     -16.3045      2.00000
     18     -16.3045      2.00000
     19     -16.3039      2.00000
     20     -16.3039      2.00000
     21     -16.3026      2.00000
     22     -16.3026      2.00000
     23     -16.3013      2.00000
     24     -16.3013      2.00000
     25     -14.2807      2.00000
     26     -14.2807      2.00000
     27     -14.0034      2.00000
     28     -14.0034      2.00000
     29     -13.9964      2.00000
     30     -13.9964      2.00000
     31     -13.9901      2.00000
     32     -13.9901      2.00000
     33     -13.8499      2.00000
     34     -13.8499      2.00000
     35     -13.7371      2.00000
     36     -13.7371      2.00000
     37      -7.9349      2.00000
     38      -7.9349      2.00000
     39      -7.2235      2.00000
     40      -7.2235      2.00000
     41      -7.2100      2.00000
     42      -7.2100      2.00000
     43      -7.1920      2.00000
     44      -7.1920      2.00000
     45      -7.1774      2.00000
     46      -7.1774      2.00000
     47      -7.1710      2.00000
     48      -7.1710      2.00000
     49      -7.1639      2.00000
     50      -7.1639      2.00000
     51      -6.8930      2.00000
     52      -6.8930      2.00000
     53      -3.2390      2.00000
     54      -3.2390      2.00000
     55      -3.1792      2.00000
     56      -3.1792      2.00000
     57      -2.4731      2.00000
     58      -2.4731      2.00000
     59      -2.3311      2.00000
     60      -2.3311      2.00000
     61      -1.9987      2.00000
     62      -1.9987      2.00000
     63      -1.8032      2.00000
     64      -1.8032      2.00000
     65      -1.7742      2.00000
     66      -1.7742      2.00000
     67      -1.4735      2.00000
     68      -1.4735      2.00000
     69      -1.4730      2.00000
     70      -1.4730      2.00000
     71      -1.3431      2.00000
     72      -1.3431      2.00000
     73      -1.3383      2.00000
     74      -1.3383      2.00000
     75      -1.3025      2.00000
     76      -1.3025      2.00000
     77      -1.2121      2.00000
     78      -1.2121      2.00000
     79      -1.1782      2.00000
     80      -1.1782      2.00000
     81      -1.0900      2.00000
     82      -1.0900      2.00000
     83      -1.0820      2.00000
     84      -1.0820      2.00000
     85      -0.8358      2.00000
     86      -0.8358      2.00000
     87      -0.0118      2.00000
     88      -0.0118      2.00000
     89       2.9504      0.00000
     90       2.9504      0.00000
     91       3.0303      0.00000
     92       3.0303      0.00000
     93       4.3331      0.00000
     94       4.3331      0.00000
     95       4.9062      0.00000
     96       4.9062      0.00000
     97       5.5819      0.00000
     98       5.5819      0.00000
     99       6.0037      0.00000
    100       6.0037      0.00000
    101       6.1340      0.00000
    102       6.1340      0.00000
    103       6.2971      0.00000
    104       6.2971      0.00000
    105       6.3408      0.00000
    106       6.3408      0.00000
    107       6.6689      0.00000
    108       6.6689      0.00000
    109       6.8705      0.00000
    110       6.8707      0.00000
    111       6.9790      0.00000
    112       7.0063      0.00000

 k-point     4 :       0.3333    0.5000    0.0000
  band No.  band energies     occupation 
      1     -20.7902      2.00000
      2     -20.7902      2.00000
      3     -20.7885      2.00000
      4     -20.7885      2.00000
      5     -16.4374      2.00000
      6     -16.4374      2.00000
      7     -16.4322      2.00000
      8     -16.4322      2.00000
      9     -16.4180      2.00000
     10     -16.4180      2.00000
     11     -16.3944      2.00000
     12     -16.3944      2.00000
     13     -16.3102      2.00000
     14     -16.3102      2.00000
     15     -16.3096      2.00000
     16     -16.3096      2.00000
     17     -16.3044      2.00000
     18     -16.3044      2.00000
     19     -16.3040      2.00000
     20     -16.3040      2.00000
     21     -16.3023      2.00000
     22     -16.3023      2.00000
     23     -16.3016      2.00000
     24     -16.3016      2.00000
     25     -14.2363      2.00000
     26     -14.2363      2.00000
     27     -14.1226      2.00000
     28     -14.1226      2.00000
     29     -13.9372      2.00000
     30     -13.9372      2.00000
     31     -13.9023      2.00000
     32     -13.9023      2.00000
     33     -13.8604      2.00000
     34     -13.8604      2.00000
     35     -13.8039      2.00000
     36     -13.8039      2.00000
     37      -7.7227      2.00000
     38      -7.7227      2.00000
     39      -7.2630      2.00000
     40      -7.2630      2.00000
     41      -7.2058      2.00000
     42      -7.2058      2.00000
     43      -7.2055      2.00000
     44      -7.2055      2.00000
     45      -7.1828      2.00000
     46      -7.1828      2.00000
     47      -7.1699      2.00000
     48      -7.1699      2.00000
     49      -7.1677      2.00000
[...]
     60      -2.3748      2.00000
     61      -2.1837      2.00000
     62      -2.1837      2.00000
     63      -2.0311      2.00000
     64      -2.0311      2.00000
     65      -1.6922      2.00000
     66      -1.6922      2.00000
     67      -1.6431      2.00000
     68      -1.6431      2.00000
     69      -1.5248      2.00000
     70      -1.5248      2.00000
     71      -1.4450      2.00000
     72      -1.4450      2.00000
     73      -1.3459      2.00000
     74      -1.3459      2.00000
     75      -1.2893      2.00000
     76      -1.2893      2.00000
     77      -1.1824      2.00000
     78      -1.1824      2.00000
     79      -1.1297      2.00000
     80      -1.1297      2.00000
     81      -1.0953      2.00000
     82      -1.0953      2.00000
     83      -1.0634      2.00000
     84      -1.0634      2.00000
     85      -0.8785      2.00000
     86      -0.8785      2.00000
     87      -0.6161      2.00000
     88      -0.6161      2.00000
     89       3.7393      0.00000
     90       3.7393      0.00000
     91       3.8404      0.00000
     92       3.8404      0.00000
     93       4.4695      0.00000
     94       4.4695      0.00000
     95       4.7424      0.00000
     96       4.7424      0.00000
     97       5.1792      0.00000
     98       5.1792      0.00000
     99       5.2730      0.00000
    100       5.2730      0.00000
    101       6.0521      0.00000
    102       6.0521      0.00000
    103       6.3304      0.00000
    104       6.3304      0.00000
    105       6.4562      0.00000
    106       6.4562      0.00000
    107       6.6931      0.00000
    108       6.6931      0.00000
    109       6.8249      0.00000
    110       6.8249      0.00000
    111       6.9558      0.00000
    112       6.9559      0.00000

 k-point     8 :       0.3333    0.5000    0.3333
  band No.  band energies     occupation 
      1     -20.7897      2.00000
      2     -20.7897      2.00000
      3     -20.7889      2.00000
      4     -20.7889      2.00000
      5     -16.4460      2.00000
      6     -16.4460      2.00000
      7     -16.4335      2.00000
      8     -16.4335      2.00000
      9     -16.4094      2.00000
     10     -16.4094      2.00000
     11     -16.3935      2.00000
     12     -16.3935      2.00000
     13     -16.3101      2.00000
     14     -16.3101      2.00000
     15     -16.3097      2.00000
     16     -16.3097      2.00000
     17     -16.3044      2.00000
     18     -16.3044      2.00000
     19     -16.3042      2.00000
     20     -16.3042      2.00000
     21     -16.3021      2.00000
     22     -16.3021      2.00000
     23     -16.3017      2.00000
     24     -16.3017      2.00000
     25     -14.1915      2.00000
     26     -14.1915      2.00000
     27     -14.1080      2.00000
     28     -14.1080      2.00000
     29     -14.0055      2.00000
     30     -14.0055      2.00000
     31     -13.9239      2.00000
     32     -13.9239      2.00000
     33     -13.8371      2.00000
     34     -13.8371      2.00000
     35     -13.8043      2.00000
     36     -13.8043      2.00000
     37      -7.5908      2.00000
     38      -7.5908      2.00000
     39      -7.3491      2.00000
     40      -7.3491      2.00000
     41      -7.2056      2.00000
     42      -7.2056      2.00000
     43      -7.1916      2.00000
     44      -7.1916      2.00000
     45      -7.1748      2.00000
     46      -7.1748      2.00000
     47      -7.1688      2.00000
     48      -7.1688      2.00000
     49      -7.1656      2.00000
     50      -7.1656      2.00000
     51      -7.1439      2.00000
     52      -7.1439      2.00000
     53      -3.1298      2.00000
     54      -3.1298      2.00000
     55      -2.7715      2.00000
     56      -2.7715      2.00000
     57      -2.5205      2.00000
     58      -2.5205      2.00000
     59      -2.3843      2.00000
     60      -2.3843      2.00000
     61      -2.1227      2.00000
     62      -2.1227      2.00000
     63      -1.9902      2.00000
     64      -1.9902      2.00000
     65      -1.7064      2.00000
     66      -1.7064      2.00000
     67      -1.6289      2.00000
     68      -1.6289      2.00000
     69      -1.4880      2.00000
     70      -1.4880      2.00000
     71      -1.4062      2.00000
     72      -1.4062      2.00000
     73      -1.3436      2.00000
     74      -1.3436      2.00000
     75      -1.2784      2.00000
     76      -1.2784      2.00000
     77      -1.2410      2.00000
     78      -1.2410      2.00000
     79      -1.1738      2.00000
     80      -1.1738      2.00000
     81      -1.1146      2.00000
     82      -1.1146      2.00000
     83      -1.0683      2.00000
     84      -1.0683      2.00000
     85      -0.7925      2.00000
     86      -0.7925      2.00000
     87      -0.5225      2.00000
     88      -0.5225      2.00000
     89       3.2449      0.00000
     90       3.2449      0.00000
     91       4.0341      0.00000
     92       4.0341      0.00000
     93       4.5585      0.00000
     94       4.5585      0.00000
     95       4.6963      0.00000
     96       4.6963      0.00000
     97       5.0575      0.00000
     98       5.0575      0.00000
     99       5.7965      0.00000
    100       5.7965      0.00000
    101       6.2917      0.00000
    102       6.2917      0.00000
    103       6.4566      0.00000
    104       6.4566      0.00000
    105       6.6217      0.00000
    106       6.6217      0.00000
    107       6.7536      0.00000
    108       6.7536      0.00000
    109       6.8720      0.00000
    110       6.8720      0.00000
    111       6.9439      0.00000
    112       6.9440      0.00000


--------------------------------------------------------------------------------------------------------


 soft charge-density along one line, spin component           1
         0         1         2         3         4         5         6         7         8         9
 total charge-density along one line

 pseudopotential strength for first ion, spin component:           1
 17.965  -4.703   0.000  -0.000  -0.001  -0.000   0.001   0.001
 -4.703   1.240  -0.000   0.000   0.000   0.000  -0.000  -0.000
  0.000  -0.000   2.262  -0.000  -0.000  -2.705   0.000   0.000
 -0.000   0.000  -0.000   2.263  -0.001   0.000  -2.706   0.001
 -0.001   0.000  -0.000  -0.001   2.263   0.000   0.001  -2.706
 -0.000   0.000  -2.705   0.000   0.000   3.203  -0.000  -0.000
  0.001  -0.000   0.000  -2.706   0.001  -0.000   3.204  -0.002
  0.001  -0.000   0.000   0.001  -2.706  -0.000  -0.002   3.203
 -0.000   0.000   0.000   0.000   0.000  -0.000  -0.000  -0.000
 -0.000   0.000   0.001   0.000   0.000  -0.001  -0.000  -0.000
  0.000  -0.000  -0.000  -0.002   0.001   0.000   0.002  -0.001
 -0.001   0.000   0.000  -0.000   0.001  -0.000   0.000  -0.001
  0.000  -0.000  -0.000  -0.000  -0.002   0.000   0.000   0.002
 total augmentation occupancy for first ion, spin component:           1
  1.911  -0.141   0.000  -0.000  -0.000   0.000  -0.000  -0.000   0.000   0.000   0.000  -0.001   0.000
 -0.141   0.117   0.000  -0.001  -0.002   0.000   0.000   0.002   0.000   0.000  -0.000   0.005   0.001
  0.000   0.000   2.016  -0.000  -0.000   0.003   0.000  -0.000   0.001   0.002   0.000   0.000   0.000
 -0.000  -0.001  -0.000   2.016  -0.003   0.000   0.003  -0.002   0.000   0.000  -0.005  -0.000  -0.000
 -0.000  -0.002  -0.000  -0.003   2.017  -0.000  -0.002   0.003   0.000   0.000   0.001   0.002  -0.003
  0.000   0.000   0.003   0.000  -0.000   0.008   0.000   0.000  -0.001  -0.002   0.000   0.000   0.000
 -0.000   0.000   0.000   0.003  -0.002   0.000   0.008   0.001  -0.000  -0.000   0.003  -0.001   0.000
 -0.000   0.002  -0.000  -0.002   0.003   0.000   0.001   0.008   0.000   0.000  -0.001  -0.001   0.002
  0.000   0.000   0.001   0.000   0.000  -0.001  -0.000   0.000   0.006   0.002   0.000   0.000  -0.000
  0.000   0.000   0.002   0.000   0.000  -0.002  -0.000   0.000   0.002   0.005  -0.000   0.000   0.000
  0.000  -0.000   0.000  -0.005   0.001   0.000   0.003  -0.001   0.000  -0.000   0.005  -0.002  -0.001
 -0.001   0.005   0.000  -0.000   0.002   0.000  -0.001  -0.001   0.000   0.000  -0.002   0.004   0.001
  0.000   0.001   0.000  -0.000  -0.003   0.000   0.000   0.002  -0.000   0.000  -0.001   0.001   0.004


------------------------ aborting loop because EDIFF is reached ----------------------------------------





 total charge     

# of ion       s       p       d       tot
------------------------------------------
    1        1.785   4.719   0.018   6.522
    2        1.785   4.719   0.018   6.522
    3        1.785   4.719   0.018   6.522
    4        1.785   4.719   0.018   6.522
    5        1.553   0.420   9.833  11.807
    6        1.553   0.420   9.833  11.807
    7        1.553   0.420   9.833  11.807
    8        1.553   0.420   9.833  11.807
    9        1.614   3.286   0.006   4.907
   10        1.614   3.287   0.006   4.907
   11        1.614   3.287   0.006   4.907
   12        1.614   3.286   0.006   4.907
   13        1.615   3.271   0.006   4.892
   14        1.613   3.294   0.006   4.913
   15        1.613   3.294   0.006   4.913
   16        1.615   3.271   0.006   4.892
   17        1.615   3.271   0.006   4.892
   18        1.613   3.294   0.006   4.913
   19        1.615   3.271   0.006   4.892
   20        1.613   3.294   0.006   4.913
--------------------------------------------------
tot         32.725  59.961  39.478 132.164

    CHARGE:  cpu time    0.1286: real time    0.1285
    FORLOC:  cpu time    0.0037: real time    0.0037
    FORNL :  cpu time    0.5607: real time    0.5608
    STRESS:  cpu time   12.3854: real time   12.3858
    FORCOR:  cpu time    0.1023: real time    0.1023
    FORHAR:  cpu time    0.0111: real time    0.0111
    MIXING:  cpu time    0.0011: real time    0.0011
    OFIELD:  cpu time    0.0000: real time    0.0000

  FORCE on cell =-STRESS in cart. coord.  units (eV):
  Direction    XX          YY          ZZ          XY          YZ          ZX
  --------------------------------------------------------------------------------------
  Alpha Z   448.48574   448.48574   448.48574
  Ewald   -3103.58704 -3010.63136 -3104.61842    -0.00000     0.00000     0.00000
  Hartree  1206.84667  1263.05874  1204.65135    -0.00000    -0.00000    -0.00000
  E(xc)    -738.86731  -738.84839  -738.92277    -0.00000    -0.00000    -0.03628
  Local   -1370.91280 -1519.24639 -1366.78243     0.00000     0.00000     0.00000
  n-local   899.45387   900.28456   899.56937     0.00000    -0.00000     0.12569
  augment   406.15643   406.28308   406.25811     0.00000    -0.00005     0.00000
  Kinetic  2251.64956  2250.16083  2249.63944    -0.00001    -0.00000    -1.67176
  Fock        0.00000     0.00000     0.00000     0.00000     0.00000     0.00000
  -------------------------------------------------------------------------------------
  Total      -0.77488    -0.45319    -1.71962     0.00000     0.00000     0.00000
  in kB      -1.54319    -0.90253    -3.42464     0.00000     0.00000     0.00000
  external pressure =       -1.96 kB  Pullay stress =        0.00 kB


 VOLUME and BASIS-vectors are now :
 -----------------------------------------------------------------------------
  energy-cutoff  :      300.00
  volume of cell :      804.50
      direct lattice vectors                 reciprocal lattice vectors
     8.334943858  0.000000000  0.000000000     0.119976813  0.000000000  0.000000000
     0.000000000 11.714479239  0.000000000     0.000000000  0.085364443  0.000000000
     0.000000000  0.000000000  8.239540165     0.000000000  0.000000000  0.121365996

  length of vectors
     8.334943858 11.714479239  8.239540165     0.119976813  0.085364443  0.121365996


 FORCES acting on ions
    electron-ion (+dipol)            ewald-force                    non-local-force                 convergence-correction
 -----------------------------------------------------------------------------------------------
   0.270E+02 0.400E-13 -.919E+01   -.270E+02 -.391E-13 0.922E+01   -.837E-01 0.265E-22 -.333E-01   -.122E-04 0.264E-12 0.516E-04
   -.270E+02 0.140E-12 -.919E+01   0.270E+02 0.533E-13 0.922E+01   0.837E-01 0.265E-22 -.333E-01   0.122E-04 -.197E-12 0.516E-04
   0.270E+02 0.101E-11 0.919E+01   -.270E+02 -.355E-13 -.922E+01   -.837E-01 -.265E-22 0.333E-01   -.122E-04 0.244E-12 -.516E-04
   -.270E+02 0.661E-13 0.919E+01   0.270E+02 0.213E-13 -.922E+01   0.837E-01 -.265E-22 0.333E-01   0.122E-04 -.224E-12 -.516E-04
   -.117E-11 -.100E-13 0.637E-12   -.568E-13 0.711E-14 0.114E-12   0.000E+00 0.000E+00 0.526E-23   -.669E-13 -.117E-13 -.581E-14
   0.130E-11 -.532E-12 -.896E-11   -.639E-13 0.391E-13 -.853E-13   0.000E+00 0.000E+00 0.384E-23   -.988E-13 -.165E-13 0.576E-13
   0.191E-11 -.196E-11 -.681E-11   -.426E-13 -.426E-13 -.995E-13   0.000E+00 0.000E+00 -.400E-23   -.421E-13 0.594E-14 0.504E-13
   -.988E-12 0.931E-12 0.605E-12   -.426E-13 -.497E-13 0.995E-13   0.000E+00 0.000E+00 -.509E-23   -.112E-12 -.432E-13 0.212E-13
   0.955E+01 0.357E-12 0.365E+02   -.964E+01 -.142E-13 -.368E+02   0.784E-01 0.000E+00 0.260E+00   -.142E-04 -.211E-12 -.457E-04
   -.955E+01 0.416E-11 0.365E+02   0.964E+01 0.000E+00 -.368E+02   -.784E-01 0.000E+00 0.260E+00   0.142E-04 0.186E-12 -.457E-04
   0.955E+01 0.297E-12 -.365E+02   -.964E+01 -.142E-13 0.368E+02   0.784E-01 0.000E+00 -.260E+00   -.142E-04 -.232E-12 0.457E-04
   -.955E+01 -.762E-12 -.365E+02   0.964E+01 0.142E-13 0.368E+02   -.784E-01 0.000E+00 -.260E+00   0.142E-04 0.161E-12 0.457E-04
   -.184E+02 0.184E+02 0.222E+02   0.185E+02 -.185E+02 -.224E+02   -.167E+00 0.160E+00 0.184E+00   0.315E-05 0.510E-05 -.118E-04
   0.184E+02 -.184E+02 0.222E+02   -.185E+02 0.185E+02 -.224E+02   0.167E+00 -.160E+00 0.184E+00   -.315E-05 -.510E-05 -.118E-04
   -.184E+02 -.184E+02 -.222E+02   0.185E+02 0.185E+02 0.224E+02   -.167E+00 -.160E+00 -.184E+00   0.315E-05 -.510E-05 0.118E-04
   0.184E+02 0.184E+02 -.222E+02   -.185E+02 -.185E+02 0.224E+02   0.167E+00 0.160E+00 -.184E+00   -.315E-05 0.510E-05 0.118E-04
   -.184E+02 -.184E+02 0.222E+02   0.185E+02 0.185E+02 -.224E+02   -.167E+00 -.160E+00 0.184E+00   0.315E-05 -.510E-05 -.118E-04
   0.184E+02 0.184E+02 0.222E+02   -.185E+02 -.185E+02 -.224E+02   0.167E+00 0.160E+00 0.184E+00   -.315E-05 0.510E-05 -.118E-04
   0.184E+02 -.184E+02 -.222E+02   -.185E+02 0.185E+02 0.224E+02   0.167E+00 -.160E+00 -.184E+00   -.315E-05 -.510E-05 0.118E-04
   -.184E+02 0.184E+02 -.222E+02   0.185E+02 -.185E+02 0.224E+02   -.167E+00 0.160E+00 -.184E+00   0.315E-05 0.510E-05 0.118E-04
 -----------------------------------------------------------------------------------------------
   -.851E-11 0.360E-11 -.244E-10   0.142E-13 0.000E+00 0.995E-13   0.000E+00 -.111E-15 0.278E-16   -.325E-12 -.871E-13 0.195E-12


 POSITION                                       TOTAL-FORCE (eV/Angst)
 -----------------------------------------------------------------------------------
      0.47211      2.92862      4.00077        -0.000269      0.000000      0.000495
      3.69536      8.78586      8.12054         0.000269     -0.000000      0.000495
      4.63958      2.92862      0.11900        -0.000269      0.000000     -0.000495
      7.86283      8.78586      4.23877         0.000269      0.000000     -0.000495
      0.00000      0.00000      0.00000        -0.000000      0.000000      0.000000
      4.16747      0.00000      4.11977        -0.000000      0.000000     -0.000000
      4.16747      5.85724      4.11977        -0.000000      0.000000     -0.000000
      0.00000      5.85724      0.00000        -0.000000      0.000000      0.000000
      4.22644      8.78586      3.53125         0.010566      0.000000     -0.029505
      8.27598      2.92862      7.65102        -0.010566      0.000000     -0.029505
      0.05897      8.78586      0.58852         0.010566     -0.000000      0.029505
      4.10851      2.92862      4.70829        -0.010566      0.000000      0.029505
      2.45018      5.43286      1.68923        -0.010340      0.001364      0.012589
      1.71730      6.28162      5.80900         0.010340     -0.001364      0.012589
      6.61765      0.42438      2.43054        -0.010340     -0.001364     -0.012589
      5.88477     11.29010      6.55031         0.010340      0.001364     -0.012589
      2.45018      0.42438      1.68923        -0.010340     -0.001364      0.012589
      1.71730     11.29010      5.80900         0.010340      0.001364      0.012589
      5.88477      6.28162      6.55031         0.010340     -0.001364     -0.012589
      6.61765      5.43286      2.43054        -0.010340      0.001364     -0.012589
 -----------------------------------------------------------------------------------
    total drift:                               -0.000000      0.000000     -0.000000


--------------------------------------------------------------------------------------------------------



  FREE ENERGIE OF THE ION-ELECTRON SYSTEM (eV)
  ---------------------------------------------------
  free  energy   TOTEN  =      -714.91484370 eV

  energy  without entropy=     -714.91484370  energy(sigma->0) =     -714.91484370



--------------------------------------------------------------------------------------------------------


    POTLOK:  cpu time    1.2052: real time    1.2052


--------------------------------------------------------------------------------------------------------


 stress matrix after NEB project (eV)
     -0.77488      0.00000      0.00000
      0.00000     -0.45319      0.00000
      0.00000      0.00000     -1.71962
  FORCES: max atom, RMS     0.031340    0.017419
  FORCE total and by dimension    0.077898    0.029505
  Stress total and by dimension    1.939826    1.719621
     LOOP+:  cpu time  113.3615: real time  113.7618
    4ORBIT:  cpu time    0.0000: real time    0.0000



 total charge     

# of ion       s       p       d       tot
------------------------------------------
    1        1.785   4.719   0.018   6.522
    2        1.785   4.719   0.018   6.522
    3        1.785   4.719   0.018   6.522
    4        1.785   4.719   0.018   6.522
    5        1.553   0.420   9.833  11.807
    6        1.553   0.420   9.833  11.807
    7        1.553   0.420   9.833  11.807
    8        1.553   0.420   9.833  11.807
    9        1.614   3.286   0.006   4.907
   10        1.614   3.287   0.006   4.907
   11        1.614   3.287   0.006   4.907
   12        1.614   3.286   0.006   4.907
   13        1.615   3.271   0.006   4.892
   14        1.613   3.294   0.006   4.913
   15        1.613   3.294   0.006   4.913
   16        1.615   3.271   0.006   4.892
   17        1.615   3.271   0.006   4.892
   18        1.613   3.294   0.006   4.913
   19        1.615   3.271   0.006   4.892
   20        1.613   3.294   0.006   4.913
--------------------------------------------------
tot         32.725  59.961  39.478 132.164


 total amount of memory used by VASP MPI-rank0    42358. kBytes
=======================================================================

   base      :      30000. kBytes
   nonlr-proj:       2998. kBytes
   fftplans  :       3668. kBytes
   grid      :       3424. kBytes
   one-center:         46. kBytes
   wavefun   :       2222. kBytes

  
  
 General timing and accounting informations for this job:
 ========================================================
  
                  Total CPU time used (sec):      119.747
                            User time (sec):      118.951
                          System time (sec):        0.796
                         Elapsed time (sec):      120.223
  
                   Maximum memory used (kb):       78284.
                   Average memory used (kb):           0.
  
                          Minor page faults:        19073
                          Major page faults:            0
                 Voluntary context switches:         1419
