<?xml version="1.0" encoding="ISO-8859-1"?>
<modeling>
 <generator>
  <i name="program" type="string">vasp </i>
  <i name="version" type="string">5.4.4.18Apr17-6-g9f103f2a35  </i>
  <i name="subversion" type="string">(build Jun 29 2021 13:39:03) complex            parallel </i>
  <i name="platform" type="string">tx2_gcc-7.3_libsci-18.07_cray-fftw-3.3.8 </i>
  <i name="date" type="string">2021 09 21 </i>
  <i name="time" type="string">08:28:56 </i>
 </generator>
 <incar>
  <i type="string" name="SYSTEM"> CsPbBr3 cubic bulk</i>
  <i type="string" name="PREC">accurate</i>
  <i type="string" name="ALGO"> Normal   ! Electronic minimisation algo</i>
  <i type="logical" name="ADDGRID"> T  </i>
  <i type="int" name="NELM">   200</i>
  <i type="int" name="IBRION">     2</i>
  <i name="EDIFF">      0.00000100</i>
  <i name="EDIFFG">     -0.01000000</i>
  <i type="int" name="NSW">     0</i>
  <i type="int" name="ISIF">     3</i>
  <i type="int" name="ISYM">     2</i>
  <i name="ENCUT">    300.00000000</i>
  <i name="POTIM">      0.50000000</i>
  <i type="string" name="LREAL"> AUTO</i>
  <i type="int" name="ISMEAR">     0</i>
  <i name="SIGMA">      0.01000000</i>
  <i name="PSTRESS">      0.00000000</i>
  <i type="logical" name="LWAVE"> F  </i>
  <i type="logical" name="LCHARG"> F  </i>
  <i type="logical" name="LVHAR"> T  </i>
  <i type="int" name="LORBIT">    10</i>
  <i type="logical" name="LASPH"> T  </i>
  <v type="int" name="KPOINT_BSE">    -1     0     0     0</v>
  <i type="int" name="NELM">   200</i>
  <i type="string" name="METAGGA"> SCAN       ! PBE exchange-correlation</i>
  <i type="logical" name="LASPH"> T  </i>
 </incar>
 <structure name="primitive_cell" >
  <crystal>
   <varray name="basis" >
    <v>       8.33494386       0.00000000       0.00000000 </v>
    <v>       0.00000000      11.71447924       0.00000000 </v>
    <v>       0.00000000       0.00000000       8.23954016 </v>
   </varray>
   <i name="volume">    804.50480263 </i>
   <varray name="rec_basis" >
    <v>       0.11997681       0.00000000       0.00000000 </v>
    <v>       0.00000000       0.08536444       0.00000000 </v>
    <v>       0.00000000       0.00000000       0.12136600 </v>
   </varray>
  </crystal>
  <varray name="positions" >
   <v>       0.05664216       0.25000000       0.48555759 </v>
   <v>      -0.20603563       0.03622697       0.29498486 </v>
   <v>      -0.20603563       0.46377303       0.29498486 </v>
   <v>      -0.00707456       0.25000000      -0.07142576 </v>
   <v>       0.49292544       0.25000000      -0.42857424 </v>
   <v>       0.29396437       0.46377303       0.20501514 </v>
   <v>       0.29396437       0.03622697       0.20501514 </v>
   <v>       0.20603563      -0.46377303      -0.29498486 </v>
   <v>       0.20603563      -0.03622697      -0.29498486 </v>
   <v>      -0.50000000       0.00000000      -0.50000000 </v>
   <v>      -0.50000000      -0.50000000      -0.50000000 </v>
   <v>       0.00000000       0.00000000       0.00000000 </v>
   <v>       0.00000000      -0.50000000       0.00000000 </v>
   <v>      -0.29396437      -0.03622697      -0.20501514 </v>
   <v>      -0.29396437      -0.46377303      -0.20501514 </v>
   <v>      -0.44335784       0.25000000       0.01444241 </v>
   <v>      -0.05664216      -0.25000000      -0.48555759 </v>
   <v>       0.00707456      -0.25000000       0.07142576 </v>
   <v>      -0.49292544      -0.25000000       0.42857424 </v>
   <v>       0.44335784      -0.25000000      -0.01444241 </v>
  </varray>
 </structure>
 <varray name="primitive_index" >
  <v type="int" >        1 </v>
  <v type="int" >       15 </v>
  <v type="int" >       20 </v>
  <v type="int" >       10 </v>
  <v type="int" >       12 </v>
  <v type="int" >       13 </v>
  <v type="int" >       17 </v>
  <v type="int" >       14 </v>
  <v type="int" >       18 </v>
  <v type="int" >        6 </v>
  <v type="int" >        7 </v>
  <v type="int" >        5 </v>
  <v type="int" >        8 </v>
  <v type="int" >       16 </v>
  <v type="int" >       19 </v>
  <v type="int" >        3 </v>
  <v type="int" >        4 </v>
  <v type="int" >       11 </v>
  <v type="int" >        9 </v>
  <v type="int" >        2 </v>
 </varray>
 <kpoints>
  <generation param="Gamma">
   <v type="int" name="divisions">       3        2        3 </v>
   <v name="usershift">      0.00000000       0.00000000       0.00000000 </v>
   <v name="genvec1">      0.33333333       0.00000000       0.00000000 </v>
   <v name="genvec2">      0.00000000       0.50000000       0.00000000 </v>
   <v name="genvec3">      0.00000000       0.00000000       0.33333333 </v>
   <v name="shift">      0.00000000       0.00000000       0.00000000 </v>
  </generation>
  <varray name="kpointlist" >
   <v>       0.00000000       0.00000000       0.00000000 </v>
   <v>       0.33333333       0.00000000       0.00000000 </v>
   <v>       0.00000000       0.50000000       0.00000000 </v>
   <v>       0.33333333       0.50000000       0.00000000 </v>
   <v>       0.00000000       0.00000000       0.33333333 </v>
   <v>       0.33333333       0.00000000       0.33333333 </v>
   <v>       0.00000000       0.50000000       0.33333333 </v>
   <v>       0.33333333       0.50000000       0.33333333 </v>
  </varray>
  <varray name="weights" >
   <v>       0.05555556 </v>
   <v>       0.11111111 </v>
   <v>       0.05555556 </v>
   <v>       0.11111111 </v>
   <v>       0.11111111 </v>
   <v>       0.22222222 </v>
   <v>       0.11111111 </v>
   <v>       0.22222222 </v>
  </varray>
 </kpoints>
 <parameters>
  <separator name="general" >
   <i type="string" name="SYSTEM">CsPbBr3 cubic bulk</i>
   <i type="logical" name="LCOMPAT"> F  </i>
  </separator>
  <separator name="electronic" >
   <i type="string" name="PREC">accura</i>
   <i name="ENMAX">    300.00000000</i>
   <i name="ENAUG">    503.85200000</i>
   <i name="EDIFF">      0.00000100</i>
   <i type="int" name="IALGO">    38</i>
   <i type="int" name="IWAVPR">    10</i>
   <i type="int" name="NBANDS">   112</i>
   <i name="NELECT">    176.00000000</i>
   <i type="int" name="TURBO">     0</i>
   <i type="int" name="IRESTART">     0</i>
   <i type="int" name="NREBOOT">     0</i>
   <i type="int" name="NMIN">     0</i>
   <i name="EREF">      0.00000000</i>
   <separator name="electronic smearing" >
    <i type="int" name="ISMEAR">     0</i>
    <i name="SIGMA">      0.01000000</i>
    <i name="KSPACING">      0.50000000</i>
    <i type="logical" name="KGAMMA"> T  </i>
   </separator>
   <separator name="electronic projectors" >
    <i type="logical" name="LREAL"> T  </i>
    <v name="ROPT">     -0.00025000     -0.00025000     -0.00025000</v>
    <i type="int" name="LMAXPAW">  -100</i>
    <i type="int" name="LMAXMIX">     2</i>
    <i type="logical" name="NLSPLINE"> F  </i>
   </separator>
   <separator name="electronic startup" >
    <i type="int" name="ISTART">     0</i>
    <i type="int" name="ICHARG">     2</i>
    <i type="int" name="INIWAV">     1</i>
   </separator>
   <separator name="electronic spin" >
    <i type="int" name="ISPIN">     1</i>
    <i type="logical" name="LNONCOLLINEAR"> F  </i>
    <v name="MAGMOM">      1.00000000      1.00000000      1.00000000      1.00000000      1.00000000      1.00000000      1.00000000      1.00000000      1.00000000      1.00000000      1.00000000      1.00000000      1.00000000      1.00000000      1.00000000      1.00000000      1.00000000      1.00000000      1.00000000      1.00000000
</v>
    <i name="NUPDOWN">     -1.00000000</i>
    <i type="logical" name="LSORBIT"> F  </i>
    <v name="SAXIS">      0.00000000      0.00000000      1.00000000</v>
    <i type="logical" name="LSPIRAL"> F  </i>
    <v name="QSPIRAL">      0.00000000      0.00000000      0.00000000</v>
    <i type="logical" name="LZEROZ"> F  </i>
   </separator>
   <separator name="electronic exchange-correlation" >
    <i type="logical" name="LASPH"> T  </i>
    <i type="logical" name="LMETAGGA"> F  </i>
   </separator>
   <separator name="electronic convergence" >
    <i type="int" name="NELM">   200</i>
    <i type="int" name="NELMDL">    -5</i>
    <i type="int" name="NELMIN">     2</i>
    <i name="ENINI">    300.00000000</i>
    <separator name="electronic convergence detail" >
     <i type="logical" name="LDIAG"> T  </i>
     <i type="logical" name="LSUBROT"> F  </i>
     <i name="WEIMIN">      0.00000000</i>
     <i name="EBREAK">      0.00000000</i>
     <i name="DEPER">      0.30000000</i>
     <i type="int" name="NRMM">     4</i>
     <i name="TIME">      0.40000000</i>
    </separator>
   </separator>
   <separator name="electronic mixer" >
    <i name="AMIX">      0.40000000</i>
    <i name="BMIX">      1.00000000</i>
    <i name="AMIN">      0.10000000</i>
    <i name="AMIX_MAG">      1.60000000</i>
    <i name="BMIX_MAG">      1.00000000</i>
    <separator name="electronic mixer details" >
     <i type="int" name="IMIX">     4</i>
     <i type="logical" name="MIXFIRST"> F  </i>
     <i type="int" name="MAXMIX">   -45</i>
     <i name="WC">    100.00000000</i>
     <i type="int" name="INIMIX">     1</i>
     <i type="int" name="MIXPRE">     1</i>
     <i type="int" name="MREMOVE">     5</i>
    </separator>
   </separator>
   <separator name="electronic dipolcorrection" >
    <i type="logical" name="LDIPOL"> F  </i>
    <i type="logical" name="LMONO"> F  </i>
    <i type="int" name="IDIPOL">     0</i>
    <i name="EPSILON">      1.00000000</i>
    <v name="DIPOL">   -100.00000000   -100.00000000   -100.00000000</v>
    <i name="EFIELD">      0.00000000</i>
   </separator>
  </separator>
  <separator name="grids" >
   <i type="int" name="NGX">    48</i>
   <i type="int" name="NGY">    70</i>
   <i type="int" name="NGZ">    48</i>
   <i type="int" name="NGXF">    96</i>
   <i type="int" name="NGYF">   140</i>
   <i type="int" name="NGZF">    96</i>
   <i type="logical" name="ADDGRID"> T  </i>
  </separator>
  <separator name="ionic" >
   <i type="int" name="NSW">     0</i>
   <i type="int" name="IBRION">    -1</i>
   <i type="int" name="MDALGO">     0</i>
   <i type="int" name="ISIF">     3</i>
   <i name="PSTRESS">      0.00000000</i>
   <i name="EDIFFG">     -0.01000000</i>
   <i type="int" name="NFREE">     1</i>
   <i name="POTIM">      0.50000000</i>
   <i name="SMASS">     -3.00000000</i>
   <i name="SCALEE">      1.00000000</i>
  </separator>
  <separator name="ionic md" >
   <i name="TEBEG">      0.00010000</i>
   <i name="TEEND">      0.00010000</i>
   <i type="int" name="NBLOCK">     1</i>
   <i type="int" name="KBLOCK">     1</i>
   <i type="int" name="NPACO">   256</i>
   <i name="APACO">     16.00000000</i>
  </separator>
  <separator name="symmetry" >
   <i type="int" name="ISYM">     2</i>
   <i name="SYMPREC">      0.00001000</i>
  </separator>
  <separator name="dos" >
   <i type="int" name="LORBIT">    10</i>
   <v name="RWIGS">     -1.00000000     -1.00000000     -1.00000000</v>
   <i type="int" name="NEDOS">   301</i>
   <i name="EMIN">     10.00000000</i>
   <i name="EMAX">    -10.00000000</i>
   <i name="EFERMI">      0.00000000</i>
  </separator>
  <separator name="writing" >
   <i type="int" name="NWRITE">     2</i>
   <i type="logical" name="LWAVE"> F  </i>
   <i type="logical" name="LDOWNSAMPLE"> F  </i>
   <i type="logical" name="LCHARG"> F  </i>
   <i type="logical" name="LPARD"> F  </i>
   <i type="logical" name="LVTOT"> F  </i>
   <i type="logical" name="LVHAR"> T  </i>
   <i type="logical" name="LELF"> F  </i>
   <i type="logical" name="LOPTICS"> F  </i>
   <v name="STM">      0.00000000      0.00000000      0.00000000      0.00000000      0.00000000      0.00000000      0.00000000</v>
  </separator>
  <separator name="performance" >
   <i type="int" name="NPAR">     8</i>
   <i type="int" name="NSIM">     4</i>
   <i type="int" name="NBLK">    -1</i>
   <i type="logical" name="LPLANE"> T  </i>
   <i type="logical" name="LSCALAPACK"> T  </i>
   <i type="logical" name="LSCAAWARE"> F  </i>
   <i type="logical" name="LSCALU"> F  </i>
   <i type="logical" name="LASYNC"> F  </i>
   <i type="logical" name="LORBITALREAL"> F  </i>
  </separator>
  <separator name="miscellaneous" >
   <i type="int" name="IDIOT">     3</i>
   <i type="int" name="ISPECIAL">     0</i>
   <i type="logical" name="LMUSIC"> F  </i>
   <v name="POMASS">    132.90000000    207.20000000     79.90400000</v>
   <v name="DARWINR">      0.00000000      0.00000000      0.00000000</v>
   <v name="DARWINV">      1.00000000      1.00000000      1.00000000</v>
   <i type="logical" name="LCORR"> T  </i>
  </separator>
  <i type="logical" name="GGA_COMPAT"> T  </i>
  <i type="logical" name="LBERRY"> F  </i>
  <i type="int" name="ICORELEVEL">     0</i>
  <i type="logical" name="LDAU"> F  </i>
  <i type="int" name="I_CONSTRAINED_M">     0</i>
  <separator name="electronic exchange-correlation" >
   <i type="string" name="GGA">--</i>
   <i type="int" name="VOSKOWN">     0</i>
   <i type="logical" name="LHFCALC"> F  </i>
   <i type="string" name="PRECFOCK"></i>
   <i type="logical" name="LSYMGRAD"> F  </i>
   <i type="logical" name="LHFONE"> F  </i>
   <i type="logical" name="LRHFCALC"> F  </i>
   <i type="logical" name="LTHOMAS"> F  </i>
   <i type="logical" name="LMODELHF"> F  </i>
   <i name="ENCUT4O">     -1.00000000</i>
   <i type="int" name="EXXOEP">     0</i>
   <i type="int" name="FOURORBIT">     0</i>
   <i name="AEXX">      0.00000000</i>
   <i name="HFALPHA">      0.00000000</i>
   <i name="MCALPHA">      0.00000000</i>
   <i name="ALDAX">      1.00000000</i>
   <i name="AGGAX">      1.00000000</i>
   <i name="ALDAC">      1.00000000</i>
   <i name="AGGAC">      1.00000000</i>
   <i type="int" name="NKREDX">     1</i>
   <i type="int" name="NKREDY">     1</i>
   <i type="int" name="NKREDZ">     1</i>
   <i type="logical" name="SHIFTRED"> F  </i>
   <i type="logical" name="ODDONLY"> F  </i>
   <i type="logical" name="EVENONLY"> F  </i>
   <i type="int" name="LMAXFOCK">     0</i>
   <i type="int" name="NMAXFOCKAE">     0</i>
   <i type="logical" name="LFOCKAEDFT"> F  </i>
   <i name="HFSCREEN">      0.00000000</i>
   <i name="HFSCREENC">      0.00000000</i>
   <i type="int" name="NBANDSGWLOW">     0</i>
  </separator>
  <separator name="vdW DFT" >
   <i type="logical" name="LUSE_VDW"> F  </i>
   <i name="Zab_VDW">     -0.84910000</i>
   <i name="PARAM1">      0.12340000</i>
   <i name="PARAM2">      1.00000000</i>
   <i name="PARAM3">      0.00000000</i>
  </separator>
  <separator name="model GW" >
   <i type="int" name="MODEL_GW">     0</i>
   <i name="MODEL_EPS0">     24.13514408</i>
   <i name="MODEL_ALPHA">      1.00000000</i>
  </separator>
  <separator name="linear response parameters" >
   <i type="logical" name="LEPSILON"> F  </i>
   <i type="logical" name="LRPA"> F  </i>
   <i type="logical" name="LNABLA"> F  </i>
   <i type="logical" name="LVEL"> F  </i>
   <i type="int" name="KINTER">     0</i>
   <i name="CSHIFT">      0.10000000</i>
   <i name="OMEGAMAX">     -1.00000000</i>
   <i name="DEG_THRESHOLD">      0.00200000</i>
   <i name="RTIME">     -0.10000000</i>
   <i name="WPLASMAI">      0.00000000</i>
   <v name="DFIELD">      0.00000000      0.00000000      0.00000000</v>
   <v name="WPLASMA">      0.00000000      0.00000000      0.00000000      0.00000000      0.00000000      0.00000000      0.00000000      0.00000000      0.00000000</v>
  </separator>
  <separator name="orbital magnetization" >
   <i type="logical" name="NUCIND"> F  </i>
   <v name="MAGPOS">      0.00000000      0.00000000      0.00000000</v>
   <i type="logical" name="LNICSALL"> T  </i>
   <i type="logical" name="ORBITALMAG"> F  </i>
   <i type="logical" name="LMAGBLOCH"> F  </i>
   <i type="logical" name="LCHIMAG"> F  </i>
   <i type="logical" name="LGAUGE"> T  </i>
   <i type="int" name="MAGATOM">     0</i>
   <v name="MAGDIPOL">      0.00000000      0.00000000      0.00000000</v>
   <v name="AVECCONST">      0.00000000      0.00000000      0.00000000</v>
  </separator>
  <separator name="response functions" >
   <i type="logical" name="LADDER"> F  </i>
   <i type="logical" name="LRPAFORCE"> F  </i>
   <i type="logical" name="LFXC"> F  </i>
   <i type="logical" name="LHARTREE"> T  </i>
   <i type="int" name="IBSE">     0</i>
   <v type="int" name="KPOINT">    -1     0     0     0</v>
   <i type="logical" name="LTCTE"> F  </i>
   <i type="logical" name="LTETE"> F  </i>
   <i type="logical" name="LTRIPLET"> F  </i>
   <i type="logical" name="LFXCEPS"> F  </i>
   <i type="logical" name="LFXHEG"> F  </i>
   <i type="int" name="NATURALO">     2</i>
   <i type="logical" name="L2ORDER"> F  </i>
   <i type="logical" name="LMP2LT"> F  </i>
   <i type="logical" name="LUSEW"> F  </i>
   <i name="ENCUTGW">     -2.00000000</i>
   <i name="ENCUTGWSOFT">     -2.00000000</i>
   <i name="ENCUTLF">     -1.00000000</i>
   <i type="int" name="LMAXMP2">    -1</i>
   <i name="SCISSOR">      0.00000000</i>
   <i type="int" name="NOMEGA">     0</i>
   <i type="int" name="NOMEGAR">     0</i>
   <i type="int" name="NBANDSGW">    -1</i>
   <i type="int" name="NBANDSO">    -1</i>
   <i type="int" name="NBANDSV">    -1</i>
   <i type="int" name="NELM">   200</i>
   <i type="int" name="NELMHF">     1</i>
   <i type="int" name="DIM">     3</i>
   <i type="int" name="ANTIRES">     0</i>
   <i name="OMEGAMAX">    -30.00000000</i>
   <i name="OMEGAMIN">    -30.00000000</i>
   <i name="OMEGATL">   -200.00000000</i>
   <i type="int" name="OMEGAGRID">   140</i>
   <i name="CSHIFT">     -0.10000000</i>
   <i type="logical" name="SELFENERGY"> F  </i>
   <i type="logical" name="LSPECTRAL"> F  </i>
   <i type="logical" name="LSPECTRALGW"> F  </i>
   <i type="logical" name="LSINGLES"> F  </i>
   <i type="logical" name="LFERMIGW"> F  </i>
   <i type="logical" name="ODDONLYGW"> F  </i>
   <i type="logical" name="EVENONLYGW"> F  </i>
   <i type="int" name="NKREDLFX">     1</i>
   <i type="int" name="NKREDLFY">     1</i>
   <i type="int" name="NKREDLFZ">     1</i>
   <i type="int" name="MAXMEM">  2800</i>
   <i type="int" name="TELESCOPE">     0</i>
   <i type="int" name="TAUPAR">     1</i>
   <i type="int" name="OMEGAPAR">    -1</i>
   <i name="LAMBDA">      1.00000000</i>
  </separator>
  <separator name="External order field" >
   <i name="OFIELD_KAPPA">      0.00000000</i>
   <v name="OFIELD_K">      0.00000000      0.00000000      0.00000000</v>
   <i name="OFIELD_Q6_NEAR">      0.00000000</i>
   <i name="OFIELD_Q6_FAR">      0.00000000</i>
   <i name="OFIELD_A">      0.00000000</i>
  </separator>
 </parameters>
 <atominfo>
  <atoms>      20 </atoms>
  <types>       3 </types>
  <array name="atoms" >
   <dimension dim="1">ion</dimension>
   <field type="string">element</field>
   <field type="int">atomtype</field>
   <set>
    <rc><c>Cs</c><c>   1</c></rc>
    <rc><c>Cs</c><c>   1</c></rc>
    <rc><c>Cs</c><c>   1</c></rc>
    <rc><c>Cs</c><c>   1</c></rc>
    <rc><c>Pb</c><c>   2</c></rc>
    <rc><c>Pb</c><c>   2</c></rc>
    <rc><c>Pb</c><c>   2</c></rc>
    <rc><c>Pb</c><c>   2</c></rc>
    <rc><c>Br</c><c>   3</c></rc>
    <rc><c>Br</c><c>   3</c></rc>
    <rc><c>Br</c><c>   3</c></rc>
    <rc><c>Br</c><c>   3</c></rc>
    <rc><c>Br</c><c>   3</c></rc>
    <rc><c>Br</c><c>   3</c></rc>
    <rc><c>Br</c><c>   3</c></rc>
    <rc><c>Br</c><c>   3</c></rc>
    <rc><c>Br</c><c>   3</c></rc>
    <rc><c>Br</c><c>   3</c></rc>
    <rc><c>Br</c><c>   3</c></rc>
    <rc><c>Br</c><c>   3</c></rc>
   </set>
  </array>
  <array name="atomtypes" >
   <dimension dim="1">type</dimension>
   <field type="int">atomspertype</field>
   <field type="string">element</field>
   <field>mass</field>
   <field>valence</field>
   <field type="string">pseudopotential</field>
   <set>
    <rc><c>   4</c><c>Cs</c><c>    132.90000000</c><c>      9.00000000</c><c>  PAW_PBE Cs_sv 08Apr2002               </c></rc>
    <rc><c>   4</c><c>Pb</c><c>    207.20000000</c><c>     14.00000000</c><c>  PAW_PBE Pb_d 06Sep2000                </c></rc>
    <rc><c>  12</c><c>Br</c><c>     79.90400000</c><c>      7.00000000</c><c>  PAW_PBE Br 06Sep2000                  </c></rc>
   </set>
  </array>
 </atominfo>
 <structure name="initialpos" >
  <crystal>
   <varray name="basis" >
    <v>       8.33494386       0.00000000       0.00000000 </v>
    <v>       0.00000000      11.71447924       0.00000000 </v>
    <v>       0.00000000       0.00000000       8.23954016 </v>
   </varray>
   <i name="volume">    804.50480263 </i>
   <varray name="rec_basis" >
    <v>       0.11997681       0.00000000       0.00000000 </v>
    <v>       0.00000000       0.08536444       0.00000000 </v>
    <v>       0.00000000       0.00000000       0.12136600 </v>
   </varray>
  </crystal>
  <varray name="positions" >
   <v>       0.05664216       0.25000000       0.48555759 </v>
   <v>       0.44335784       0.75000000       0.98555759 </v>
   <v>       0.55664216       0.25000000       0.01444241 </v>
   <v>       0.94335784       0.75000000       0.51444241 </v>
   <v>       0.00000000       0.00000000       0.00000000 </v>
   <v>       0.50000000       0.00000000       0.50000000 </v>
   <v>       0.50000000       0.50000000       0.50000000 </v>
   <v>       0.00000000       0.50000000       0.00000000 </v>
   <v>       0.50707456       0.75000000       0.42857424 </v>
   <v>       0.99292544       0.25000000       0.92857424 </v>
   <v>       0.00707456       0.75000000       0.07142576 </v>
   <v>       0.49292544       0.25000000       0.57142576 </v>
   <v>       0.29396437       0.46377303       0.20501514 </v>
   <v>       0.20603563       0.53622697       0.70501514 </v>
   <v>       0.79396437       0.03622697       0.29498486 </v>
   <v>       0.70603563       0.96377303       0.79498486 </v>
   <v>       0.29396437       0.03622697       0.20501514 </v>
   <v>       0.20603563       0.96377303       0.70501514 </v>
   <v>       0.70603563       0.53622697       0.79498486 </v>
   <v>       0.79396437       0.46377303       0.29498486 </v>
  </varray>
 </structure>
 <calculation>
  <scstep>
   <time name="dav">    3.97    3.98</time>
   <time name="total">    5.21    5.21</time>
   <energy>
    <i name="alphaZ">    448.48574251 </i>
    <i name="ewald">  -9218.80967095 </i>
    <i name="hartreedc">  -3661.44625453 </i>
    <i name="XCdc">    461.94686834 </i>
    <i name="pawpsdc">  10816.98087266 </i>
    <i name="pawaedc"> -11353.96092700 </i>
    <i name="eentropy">     -0.00127824 </i>
    <i name="bandstr">   -126.41550927 </i>
    <i name="atom">  13290.28009929 </i>
    <i name="e_fr_energy">    657.05994280 </i>
    <i name="e_wo_entrp">    657.06122104 </i>
    <i name="e_0_energy">    657.06058192 </i>
   </energy>
  </scstep>
  <scstep>
   <time name="dav">    4.47    4.51</time>
   <time name="total">    4.47    4.51</time>
   <energy>
    <i name="e_fr_energy">   -576.43420839 </i>
    <i name="e_wo_entrp">   -576.43420839 </i>
    <i name="e_0_energy">   -576.43420839 </i>
   </energy>
  </scstep>
  <scstep>
   <time name="dav">    4.79    4.84</time>
   <time name="total">    4.79    4.84</time>
   <energy>
    <i name="e_fr_energy">   -749.09915079 </i>
    <i name="e_wo_entrp">   -749.09915079 </i>
    <i name="e_0_energy">   -749.09915079 </i>
   </energy>
  </scstep>
  <scstep>
   <time name="dav">    4.42    4.44</time>
   <time name="total">    4.42    4.44</time>
   <energy>
    <i name="e_fr_energy">   -754.52555491 </i>
    <i name="e_wo_entrp">   -754.52555491 </i>
    <i name="e_0_energy">   -754.52555491 </i>
   </energy>
  </scstep>
  <scstep>
   <time name="dav">    4.69    4.70</time>
   <time name="total">    5.56    5.57</time>
   <energy>
    <i name="e_fr_energy">   -754.77808566 </i>
    <i name="e_wo_entrp">   -754.77808566 </i>
    <i name="e_0_energy">   -754.77808566 </i>
   </energy>
  </scstep>
  <scstep>
   <time name="dav">    4.69    4.70</time>
   <time name="total">    6.78    6.80</time>
   <energy>
    <i name="e_fr_energy">   -715.00559529 </i>
    <i name="e_wo_entrp">   -715.00559529 </i>
    <i name="e_0_energy">   -715.00559529 </i>
   </energy>
  </scstep>
  <scstep>
   <time name="dav">    4.51    4.51</time>
   <time name="total">    6.60    6.62</time>
   <energy>
    <i name="e_fr_energy">   -714.77721619 </i>
    <i name="e_wo_entrp">   -714.77721619 </i>
    <i name="e_0_energy">   -714.77721619 </i>
   </energy>
  </scstep>
  <scstep>
   <time name="dav">    4.41    4.41</time>
   <time name="total">    6.49    6.51</time>
   <energy>
    <i name="e_fr_energy">   -714.87147754 </i>
    <i name="e_wo_entrp">   -714.87147754 </i>
    <i name="e_0_energy">   -714.87147754 </i>
   </energy>
  </scstep>
  <scstep>
   <time name="dav">    4.15    4.15</time>
   <time name="total">    6.25    6.26</time>
   <energy>
    <i name="e_fr_energy">   -714.91254962 </i>
    <i name="e_wo_entrp">   -714.91254962 </i>
    <i name="e_0_energy">   -714.91254962 </i>
   </energy>
  </scstep>
  <scstep>
   <time name="dav">    4.94    4.94</time>
   <time name="total">    7.03    7.04</time>
   <energy>
    <i name="e_fr_energy">   -714.91329151 </i>
    <i name="e_wo_entrp">   -714.91329151 </i>
    <i name="e_0_energy">   -714.91329151 </i>
   </energy>
  </scstep>
  <scstep>
   <time name="dav">    4.19    4.19</time>
   <time name="total">    6.28    6.30</time>
   <energy>
    <i name="e_fr_energy">   -714.91474377 </i>
    <i name="e_wo_entrp">   -714.91474377 </i>
    <i name="e_0_energy">   -714.91474377 </i>
   </energy>
  </scstep>
  <scstep>
   <time name="dav">    4.38    4.38</time>
   <time name="total">    6.46    6.47</time>
   <energy>
    <i name="e_fr_energy">   -714.91481609 </i>
    <i name="e_wo_entrp">   -714.91481609 </i>
    <i name="e_0_energy">   -714.91481609 </i>
   </energy>
  </scstep>
  <scstep>
   <time name="dav">    4.46    4.46</time>
   <time name="total">    6.55    6.58</time>
   <energy>
    <i name="e_fr_energy">   -714.91483314 </i>
    <i name="e_wo_entrp">   -714.91483314 </i>
    <i name="e_0_energy">   -714.91483314 </i>
   </energy>
  </scstep>
  <scstep>
   <time name="dav">    3.87    3.87</time>
   <time name="total">    5.96    5.98</time>
   <energy>
    <i name="e_fr_energy">   -714.91484278 </i>
    <i name="e_wo_entrp">   -714.91484278 </i>
    <i name="e_0_energy">   -714.91484278 </i>
   </energy>
  </scstep>
  <scstep>
   <time name="dav">    3.26    3.26</time>
   <time name="total">    5.33    5.36</time>
   <energy>
    <i name="e_fr_energy">   -714.91484841 </i>
    <i name="e_wo_entrp">   -714.91484841 </i>
    <i name="e_0_energy">   -714.91484841 </i>
   </energy>
  </scstep>
  <scstep>
   <time name="dav">    3.17    3.17</time>
   <time name="total">    5.24    5.28</time>
   <energy>
    <i name="e_fr_energy">   -714.91484461 </i>
    <i name="e_wo_entrp">   -714.91484461 </i>
    <i name="e_0_energy">   -714.91484461 </i>
   </energy>
  </scstep>
  <scstep>
   <time name="dav">    3.11    3.11</time>
   <time name="total">    4.35    4.38</time>
   <energy>
    <i name="alphaZ">    448.48574251 </i>
    <i name="ewald">  -9218.80967095 </i>
    <i name="hartreedc">  -3674.55577510 </i>
    <i name="XCdc">    481.47029024 </i>
    <i name="pawpsdc">  11543.44642352 </i>
    <i name="pawaedc"> -12079.50892847 </i>
    <i name="eentropy">     -0.00000000 </i>
    <i name="bandstr">  -1505.72302472 </i>
    <i name="atom">  13290.28009929 </i>
    <i name="e_fr_energy">   -714.91484370 </i>
    <i name="e_wo_entrp">   -714.91484370 </i>
    <i name="e_0_energy">   -714.91484370 </i>
   </energy>
  </scstep>
  <structure>
   <crystal>
    <varray name="basis" >
     <v>       8.33494386       0.00000000       0.00000000 </v>
     <v>       0.00000000      11.71447924       0.00000000 </v>
     <v>       0.00000000       0.00000000       8.23954016 </v>
    </varray>
    <i name="volume">    804.50480263 </i>
    <varray name="rec_basis" >
     <v>       0.11997681       0.00000000       0.00000000 </v>
     <v>       0.00000000       0.08536444       0.00000000 </v>
     <v>       0.00000000       0.00000000       0.12136600 </v>
    </varray>
   </crystal>
   <varray name="positions" >
    <v>       0.05664216       0.25000000       0.48555759 </v>
    <v>       0.44335784       0.75000000       0.98555759 </v>
    <v>       0.55664216       0.25000000       0.01444241 </v>
    <v>       0.94335784       0.75000000       0.51444241 </v>
    <v>       0.00000000       0.00000000       0.00000000 </v>
    <v>       0.50000000       0.00000000       0.50000000 </v>
    <v>       0.50000000       0.50000000       0.50000000 </v>
    <v>       0.00000000       0.50000000       0.00000000 </v>
    <v>       0.50707456       0.75000000       0.42857424 </v>
    <v>       0.99292544       0.25000000       0.92857424 </v>
    <v>       0.00707456       0.75000000       0.07142576 </v>
    <v>       0.49292544       0.25000000       0.57142576 </v>
    <v>       0.29396437       0.46377303       0.20501514 </v>
    <v>       0.20603563       0.53622697       0.70501514 </v>
    <v>       0.79396437       0.03622697       0.29498486 </v>
    <v>       0.70603563       0.96377303       0.79498486 </v>
    <v>       0.29396437       0.03622697       0.20501514 </v>
    <v>       0.20603563       0.96377303       0.70501514 </v>
    <v>       0.70603563       0.53622697       0.79498486 </v>
    <v>       0.79396437       0.46377303       0.29498486 </v>
   </varray>
  </structure>
  <varray name="forces" >
   <v>      -0.00026875       0.00000000       0.00049465 </v>
   <v>       0.00026875      -0.00000000       0.00049465 </v>
   <v>      -0.00026875       0.00000000      -0.00049465 </v>
   <v>       0.00026875       0.00000000      -0.00049465 </v>
   <v>      -0.00000000       0.00000000       0.00000000 </v>
   <v>      -0.00000000       0.00000000      -0.00000000 </v>
   <v>      -0.00000000       0.00000000      -0.00000000 </v>
   <v>      -0.00000000       0.00000000       0.00000000 </v>
   <v>       0.01056568       0.00000000      -0.02950494 </v>
   <v>      -0.01056568       0.00000000      -0.02950494 </v>
   <v>       0.01056568      -0.00000000       0.02950494 </v>
   <v>      -0.01056568       0.00000000       0.02950494 </v>
   <v>      -0.01034017       0.00136404       0.01258942 </v>
   <v>       0.01034017      -0.00136404       0.01258942 </v>
   <v>      -0.01034017      -0.00136404      -0.01258942 </v>
   <v>       0.01034017       0.00136404      -0.01258942 </v>
   <v>      -0.01034017      -0.00136404       0.01258942 </v>
   <v>       0.01034017       0.00136404       0.01258942 </v>
   <v>       0.01034017      -0.00136404      -0.01258942 </v>
   <v>      -0.01034017       0.00136404      -0.01258942 </v>
  </varray>
  <varray name="stress" >
   <v>      -1.54318733       0.00000000       0.00000000 </v>
   <v>       0.00000000      -0.90252846       0.00000000 </v>
   <v>       0.00000000       0.00000000      -3.42463899 </v>
  </varray>
  <energy>
   <i name="e_fr_energy">   -714.91484370 </i>
   <i name="e_wo_entrp">   -714.91484370 </i>
   <i name="e_0_energy">     -0.00000000 </i>
  </energy>
  <time name="totalsc">  113.36  113.76</time>
  <eigenvalues>
   <array>
    <dimension dim="1">band</dimension>
    <dimension dim="2">kpoint</dimension>
    <dimension dim="3">spin</dimension>
    <field>eigene</field>
    <field>occ</field>
    <set>
     <set comment="spin 1">
      <set comment="kpoint 1">
       <r>  -20.7919    1.0000 </r>
       <r>  -20.7902    1.0000 </r>
       <r>  -20.7882    1.0000 </r>
       <r>  -20.7871    1.0000 </r>
       <r>  -16.4689    1.0000 </r>
       <r>  -16.4578    1.0000 </r>
       <r>  -16.4576    1.0000 </r>
       <r>  -16.4433    1.0000 </r>
       <r>  -16.4093    1.0000 </r>
       <r>  -16.3775    1.0000 </r>
       <r>  -16.3717    1.0000 </r>
       <r>  -16.3716    1.0000 </r>
       <r>  -16.3107    1.0000 </r>
       <r>  -16.3104    1.0000 </r>
       <r>  -16.3096    1.0000 </r>
       <r>  -16.3091    1.0000 </r>
       <r>  -16.3049    1.0000 </r>
       <r>  -16.3045    1.0000 </r>
       <r>  -16.3042    1.0000 </r>
       <r>  -16.3034    1.0000 </r>
       <r>  -16.3028    1.0000 </r>
       <r>  -16.3024    1.0000 </r>
       <r>  -16.3015    1.0000 </r>
       <r>  -16.3010    1.0000 </r>
       <r>  -14.3385    1.0000 </r>
       <r>  -14.1519    1.0000 </r>
       <r>  -14.0301    1.0000 </r>
       <r>  -14.0221    1.0000 </r>
       <r>  -14.0062    1.0000 </r>
       <r>  -14.0017    1.0000 </r>
       <r>  -13.9994    1.0000 </r>
       <r>  -13.9906    1.0000 </r>
       <r>  -13.9600    1.0000 </r>
       <r>  -13.7429    1.0000 </r>
       <r>  -13.7397    1.0000 </r>
       <r>  -13.7346    1.0000 </r>
       <r>   -8.1683    1.0000 </r>
       <r>   -7.6618    1.0000 </r>
       <r>   -7.2278    1.0000 </r>
       <r>   -7.2196    1.0000 </r>
       <r>   -7.2189    1.0000 </r>
       <r>   -7.2183    1.0000 </r>
       <r>   -7.1910    1.0000 </r>
       <r>   -7.1880    1.0000 </r>
       <r>   -7.1866    1.0000 </r>
       <r>   -7.1790    1.0000 </r>
       <r>   -7.1789    1.0000 </r>
       <r>   -7.1736    1.0000 </r>
       <r>   -7.1599    1.0000 </r>
       <r>   -7.1538    1.0000 </r>
       <r>   -7.1351    1.0000 </r>
       <r>   -6.5305    1.0000 </r>
       <r>   -3.2996    1.0000 </r>
       <r>   -3.2917    1.0000 </r>
       <r>   -3.2195    1.0000 </r>
       <r>   -3.1914    1.0000 </r>
       <r>   -3.1245    1.0000 </r>
       <r>   -3.0817    1.0000 </r>
       <r>   -2.1223    1.0000 </r>
       <r>   -1.9088    1.0000 </r>
       <r>   -1.8798    1.0000 </r>
       <r>   -1.8635    1.0000 </r>
       <r>   -1.8519    1.0000 </r>
       <r>   -1.7911    1.0000 </r>
       <r>   -1.6254    1.0000 </r>
       <r>   -1.5027    1.0000 </r>
       <r>   -1.4925    1.0000 </r>
       <r>   -1.4658    1.0000 </r>
       <r>   -1.4267    1.0000 </r>
       <r>   -1.4184    1.0000 </r>
       <r>   -1.4034    1.0000 </r>
       <r>   -1.3875    1.0000 </r>
       <r>   -1.3508    1.0000 </r>
       <r>   -1.3332    1.0000 </r>
       <r>   -1.3289    1.0000 </r>
       <r>   -1.3020    1.0000 </r>
       <r>   -1.3004    1.0000 </r>
       <r>   -1.2676    1.0000 </r>
       <r>   -1.1442    1.0000 </r>
       <r>   -1.1278    1.0000 </r>
       <r>   -1.0996    1.0000 </r>
       <r>   -1.0292    1.0000 </r>
       <r>   -1.0023    1.0000 </r>
       <r>   -0.9830    1.0000 </r>
       <r>   -0.8133    1.0000 </r>
       <r>   -0.6381    1.0000 </r>
       <r>   -0.1636    1.0000 </r>
       <r>    0.4593    1.0000 </r>
       <r>    2.7522    0.0000 </r>
       <r>    2.8167    0.0000 </r>
       <r>    2.8232    0.0000 </r>
       <r>    3.1160    0.0000 </r>
       <r>    3.2544    0.0000 </r>
       <r>    3.5660    0.0000 </r>
       <r>    4.8876    0.0000 </r>
       <r>    5.6911    0.0000 </r>
       <r>    5.7936    0.0000 </r>
       <r>    6.0191    0.0000 </r>
       <r>    6.0213    0.0000 </r>
       <r>    6.0505    0.0000 </r>
       <r>    6.1597    0.0000 </r>
       <r>    6.2651    0.0000 </r>
       <r>    6.3011    0.0000 </r>
       <r>    6.4252    0.0000 </r>
       <r>    6.5374    0.0000 </r>
       <r>    6.5496    0.0000 </r>
       <r>    6.5698    0.0000 </r>
       <r>    6.7476    0.0000 </r>
       <r>    6.7886    0.0000 </r>
       <r>    6.7922    0.0000 </r>
       <r>    6.8651    0.0000 </r>
       <r>    6.9912    0.0000 </r>
      </set>
      <set comment="kpoint 2">
       <r>  -20.7909    1.0000 </r>
       <r>  -20.7895    1.0000 </r>
       <r>  -20.7891    1.0000 </r>
       <r>  -20.7879    1.0000 </r>
       <r>  -16.4623    1.0000 </r>
       <r>  -16.4495    1.0000 </r>
       <r>  -16.4375    1.0000 </r>
       <r>  -16.4373    1.0000 </r>
       <r>  -16.4012    1.0000 </r>
       <r>  -16.3944    1.0000 </r>
       <r>  -16.3944    1.0000 </r>
       <r>  -16.3854    1.0000 </r>
       <r>  -16.3104    1.0000 </r>
       <r>  -16.3100    1.0000 </r>
       <r>  -16.3099    1.0000 </r>
       <r>  -16.3094    1.0000 </r>
       <r>  -16.3050    1.0000 </r>
       <r>  -16.3045    1.0000 </r>
       <r>  -16.3040    1.0000 </r>
       <r>  -16.3036    1.0000 </r>
       <r>  -16.3025    1.0000 </r>
       <r>  -16.3020    1.0000 </r>
       <r>  -16.3019    1.0000 </r>
       <r>  -16.3014    1.0000 </r>
       <r>  -14.2882    1.0000 </r>
       <r>  -14.1530    1.0000 </r>
       <r>  -14.1142    1.0000 </r>
       <r>  -14.0336    1.0000 </r>
       <r>  -14.0280    1.0000 </r>
       <r>  -14.0245    1.0000 </r>
       <r>  -13.9406    1.0000 </r>
       <r>  -13.9332    1.0000 </r>
       <r>  -13.8403    1.0000 </r>
       <r>  -13.8070    1.0000 </r>
       <r>  -13.8009    1.0000 </r>
       <r>  -13.7648    1.0000 </r>
       <r>   -7.9580    1.0000 </r>
       <r>   -7.4807    1.0000 </r>
       <r>   -7.4481    1.0000 </r>
       <r>   -7.2313    1.0000 </r>
       <r>   -7.2062    1.0000 </r>
       <r>   -7.2052    1.0000 </r>
       <r>   -7.2042    1.0000 </r>
       <r>   -7.1879    1.0000 </r>
       <r>   -7.1807    1.0000 </r>
       <r>   -7.1730    1.0000 </r>
       <r>   -7.1724    1.0000 </r>
       <r>   -7.1655    1.0000 </r>
       <r>   -7.1571    1.0000 </r>
       <r>   -7.1543    1.0000 </r>
       <r>   -7.1542    1.0000 </r>
       <r>   -6.8742    1.0000 </r>
       <r>   -3.2561    1.0000 </r>
       <r>   -3.1615    1.0000 </r>
       <r>   -2.9831    1.0000 </r>
       <r>   -2.8506    1.0000 </r>
       <r>   -2.7070    1.0000 </r>
       <r>   -2.6805    1.0000 </r>
       <r>   -2.2232    1.0000 </r>
       <r>   -2.1106    1.0000 </r>
       <r>   -2.0458    1.0000 </r>
       <r>   -1.9616    1.0000 </r>
       <r>   -1.9615    1.0000 </r>
       <r>   -1.9153    1.0000 </r>
       <r>   -1.8181    1.0000 </r>
       <r>   -1.6990    1.0000 </r>
       <r>   -1.6546    1.0000 </r>
       <r>   -1.6024    1.0000 </r>
       <r>   -1.4342    1.0000 </r>
       <r>   -1.4118    1.0000 </r>
       <r>   -1.4028    1.0000 </r>
       <r>   -1.3729    1.0000 </r>
       <r>   -1.3728    1.0000 </r>
       <r>   -1.3546    1.0000 </r>
       <r>   -1.2943    1.0000 </r>
       <r>   -1.2791    1.0000 </r>
       <r>   -1.2359    1.0000 </r>
       <r>   -1.2256    1.0000 </r>
       <r>   -1.1984    1.0000 </r>
       <r>   -1.1870    1.0000 </r>
       <r>   -1.1487    1.0000 </r>
       <r>   -1.1135    1.0000 </r>
       <r>   -1.0597    1.0000 </r>
       <r>   -1.0135    1.0000 </r>
       <r>   -0.8155    1.0000 </r>
       <r>   -0.6747    1.0000 </r>
       <r>   -0.5350    1.0000 </r>
       <r>   -0.0936    1.0000 </r>
       <r>    2.9970    0.0000 </r>
       <r>    3.3409    0.0000 </r>
       <r>    3.5919    0.0000 </r>
       <r>    3.6941    0.0000 </r>
       <r>    3.9307    0.0000 </r>
       <r>    4.0651    0.0000 </r>
       <r>    5.0821    0.0000 </r>
       <r>    5.1431    0.0000 </r>
       <r>    5.1633    0.0000 </r>
       <r>    5.4503    0.0000 </r>
       <r>    5.8051    0.0000 </r>
       <r>    5.8641    0.0000 </r>
       <r>    6.1752    0.0000 </r>
       <r>    6.2454    0.0000 </r>
       <r>    6.3297    0.0000 </r>
       <r>    6.4413    0.0000 </r>
       <r>    6.5295    0.0000 </r>
       <r>    6.5657    0.0000 </r>
       <r>    6.5776    0.0000 </r>
       <r>    6.7102    0.0000 </r>
       <r>    6.8076    0.0000 </r>
       <r>    6.9962    0.0000 </r>
       <r>    7.0324    0.0000 </r>
       <r>    7.0374    0.0000 </r>
      </set>
      <set comment="kpoint 3">
       <r>  -20.7911    1.0000 </r>
       <r>  -20.7911    1.0000 </r>
       <r>  -20.7877    1.0000 </r>
       <r>  -20.7877    1.0000 </r>
       <r>  -16.4578    1.0000 </r>
       <r>  -16.4578    1.0000 </r>
       <r>  -16.4394    1.0000 </r>
       <r>  -16.4394    1.0000 </r>
       <r>  -16.4110    1.0000 </r>
       <r>  -16.4110    1.0000 </r>
       <r>  -16.3716    1.0000 </r>
       <r>  -16.3716    1.0000 </r>
       <r>  -16.3105    1.0000 </r>
       <r>  -16.3105    1.0000 </r>
       <r>  -16.3094    1.0000 </r>
       <r>  -16.3094    1.0000 </r>
       <r>  -16.3045    1.0000 </r>
       <r>  -16.3045    1.0000 </r>
       <r>  -16.3039    1.0000 </r>
       <r>  -16.3039    1.0000 </r>
       <r>  -16.3026    1.0000 </r>
       <r>  -16.3026    1.0000 </r>
       <r>  -16.3013    1.0000 </r>
       <r>  -16.3013    1.0000 </r>
       <r>  -14.2807    1.0000 </r>
       <r>  -14.2807    1.0000 </r>
       <r>  -14.0034    1.0000 </r>
       <r>  -14.0034    1.0000 </r>
       <r>  -13.9964    1.0000 </r>
       <r>  -13.9964    1.0000 </r>
       <r>  -13.9901    1.0000 </r>
       <r>  -13.9901    1.0000 </r>
       <r>  -13.8499    1.0000 </r>
       <r>  -13.8499    1.0000 </r>
       <r>  -13.7371    1.0000 </r>
       <r>  -13.7371    1.0000 </r>
       <r>   -7.9349    1.0000 </r>
       <r>   -7.9349    1.0000 </r>
       <r>   -7.2235    1.0000 </r>
       <r>   -7.2235    1.0000 </r>
       <r>   -7.2100    1.0000 </r>
       <r>   -7.2100    1.0000 </r>
       <r>   -7.1920    1.0000 </r>
       <r>   -7.1920    1.0000 </r>
       <r>   -7.1774    1.0000 </r>
       <r>   -7.1774    1.0000 </r>
       <r>   -7.1710    1.0000 </r>
       <r>   -7.1710    1.0000 </r>
       <r>   -7.1639    1.0000 </r>
       <r>   -7.1639    1.0000 </r>
       <r>   -6.8930    1.0000 </r>
       <r>   -6.8930    1.0000 </r>
       <r>   -3.2390    1.0000 </r>
       <r>   -3.2390    1.0000 </r>
       <r>   -3.1792    1.0000 </r>
       <r>   -3.1792    1.0000 </r>
       <r>   -2.4731    1.0000 </r>
       <r>   -2.4731    1.0000 </r>
       <r>   -2.3311    1.0000 </r>
       <r>   -2.3311    1.0000 </r>
       <r>   -1.9987    1.0000 </r>
       <r>   -1.9987    1.0000 </r>
       <r>   -1.8032    1.0000 </r>
       <r>   -1.8032    1.0000 </r>
       <r>   -1.7742    1.0000 </r>
       <r>   -1.7742    1.0000 </r>
       <r>   -1.4735    1.0000 </r>
       <r>   -1.4735    1.0000 </r>
       <r>   -1.4730    1.0000 </r>
       <r>   -1.4730    1.0000 </r>
       <r>   -1.3431    1.0000 </r>
       <r>   -1.3431    1.0000 </r>
       <r>   -1.3383    1.0000 </r>
       <r>   -1.3383    1.0000 </r>
       <r>   -1.3025    1.0000 </r>
       <r>   -1.3025    1.0000 </r>
       <r>   -1.2121    1.0000 </r>
       <r>   -1.2121    1.0000 </r>
       <r>   -1.1782    1.0000 </r>
       <r>   -1.1782    1.0000 </r>
       <r>   -1.0900    1.0000 </r>
       <r>   -1.0900    1.0000 </r>
       <r>   -1.0820    1.0000 </r>
       <r>   -1.0820    1.0000 </r>
       <r>   -0.8358    1.0000 </r>
       <r>   -0.8358    1.0000 </r>
       <r>   -0.0118    1.0000 </r>
       <r>   -0.0118    1.0000 </r>
       <r>    2.9504    0.0000 </r>
       <r>    2.9504    0.0000 </r>
       <r>    3.0303    0.0000 </r>
       <r>    3.0303    0.0000 </r>
       <r>    4.3331    0.0000 </r>
       <r>    4.3331    0.0000 </r>
       <r>    4.9062    0.0000 </r>
       <r>    4.9062    0.0000 </r>
       <r>    5.5819    0.0000 </r>
       <r>    5.5819    0.0000 </r>
       <r>    6.0037    0.0000 </r>
       <r>    6.0037    0.0000 </r>
       <r>    6.1340    0.0000 </r>
       <r>    6.1340    0.0000 </r>
       <r>    6.2971    0.0000 </r>
       <r>    6.2971    0.0000 </r>
       <r>    6.3408    0.0000 </r>
       <r>    6.3408    0.0000 </r>
       <r>    6.6689    0.0000 </r>
       <r>    6.6689    0.0000 </r>
       <r>    6.8705    0.0000 </r>
       <r>    6.8707    0.0000 </r>
       <r>    6.9790    0.0000 </r>
       <r>    7.0063    0.0000 </r>
      </set>
      <set comment="kpoint 4">
       <r>  -20.7902    1.0000 </r>
       <r>  -20.7902    1.0000 </r>
       <r>  -20.7885    1.0000 </r>
       <r>  -20.7885    1.0000 </r>
       <r>  -16.4374    1.0000 </r>
       <r>  -16.4374    1.0000 </r>
       <r>  -16.4322    1.0000 </r>
       <r>  -16.4322    1.0000 </r>
       <r>  -16.4180    1.0000 </r>
       <r>  -16.4180    1.0000 </r>
       <r>  -16.3944    1.0000 </r>
       <r>  -16.3944    1.0000 </r>
       <r>  -16.3102    1.0000 </r>
       <r>  -16.3102    1.0000 </r>
       <r>  -16.3096    1.0000 </r>
       <r>  -16.3096    1.0000 </r>
       <r>  -16.3044    1.0000 </r>
       <r>  -16.3044    1.0000 </r>
       <r>  -16.3040    1.0000 </r>
       <r>  -16.3040    1.0000 </r>
       <r>  -16.3023    1.0000 </r>
       <r>  -16.3023    1.0000 </r>
       <r>  -16.3016    1.0000 </r>
       <r>  -16.3016    1.0000 </r>
       <r>  -14.2363    1.0000 </r>
       <r>  -14.2363    1.0000 </r>
       <r>  -14.1226    1.0000 </r>
       <r>  -14.1226    1.0000 </r>
       <r>  -13.9372    1.0000 </r>
       <r>  -13.9372    1.0000 </r>
       <r>  -13.9023    1.0000 </r>
       <r>  -13.9023    1.0000 </r>
       <r>  -13.8604    1.0000 </r>
       <r>  -13.8604    1.0000 </r>
       <r>  -13.8039    1.0000 </r>
       <r>  -13.8039    1.0000 </r>
       <r>   -7.7227    1.0000 </r>
       <r>   -7.7227    1.0000 </r>
       <r>   -7.2630    1.0000 </r>
       <r>   -7.2630    1.0000 </r>
       <r>   -7.2058    1.0000 </r>
       <r>   -7.2058    1.0000 </r>
       <r>   -7.2055    1.0000 </r>
       <r>   -7.2055    1.0000 </r>
       <r>   -7.1828    1.0000 </r>
       <r>   -7.1828    1.0000 </r>
       <r>   -7.1699    1.0000 </r>
       <r>   -7.1699    1.0000 </r>
       <r>   -7.1677    1.0000 </r>
       <r>   -7.1677    1.0000 </r>
       <r>   -7.1212    1.0000 </r>
       <r>   -7.1212    1.0000 </r>
       <r>   -2.9219    1.0000 </r>
       <r>   -2.9219    1.0000 </r>
       <r>   -2.7883    1.0000 </r>
       <r>   -2.7883    1.0000 </r>
       <r>   -2.4416    1.0000 </r>
       <r>   -2.4416    1.0000 </r>
       <r>   -2.3621    1.0000 </r>
       <r>   -2.3621    1.0000 </r>
       <r>   -2.1424    1.0000 </r>
       <r>   -2.1424    1.0000 </r>
       <r>   -2.0298    1.0000 </r>
       <r>   -2.0298    1.0000 </r>
       <r>   -1.7168    1.0000 </r>
       <r>   -1.7168    1.0000 </r>
       <r>   -1.6451    1.0000 </r>
       <r>   -1.6451    1.0000 </r>
       <r>   -1.5244    1.0000 </r>
       <r>   -1.5244    1.0000 </r>
       <r>   -1.4897    1.0000 </r>
       <r>   -1.4897    1.0000 </r>
       <r>   -1.3638    1.0000 </r>
       <r>   -1.3638    1.0000 </r>
       <r>   -1.3601    1.0000 </r>
       <r>   -1.3601    1.0000 </r>
       <r>   -1.1805    1.0000 </r>
       <r>   -1.1805    1.0000 </r>
       <r>   -1.1219    1.0000 </r>
       <r>   -1.1219    1.0000 </r>
       <r>   -1.1066    1.0000 </r>
       <r>   -1.1066    1.0000 </r>
       <r>   -1.0791    1.0000 </r>
       <r>   -1.0791    1.0000 </r>
       <r>   -0.8256    1.0000 </r>
       <r>   -0.8256    1.0000 </r>
       <r>   -0.5571    1.0000 </r>
       <r>   -0.5571    1.0000 </r>
       <r>    3.7508    0.0000 </r>
       <r>    3.7508    0.0000 </r>
       <r>    3.8524    0.0000 </r>
       <r>    3.8524    0.0000 </r>
       <r>    4.4796    0.0000 </r>
       <r>    4.4796    0.0000 </r>
       <r>    4.7563    0.0000 </r>
       <r>    4.7563    0.0000 </r>
       <r>    5.1987    0.0000 </r>
       <r>    5.1987    0.0000 </r>
       <r>    5.2910    0.0000 </r>
       <r>    5.2910    0.0000 </r>
       <r>    6.0903    0.0000 </r>
       <r>    6.0903    0.0000 </r>
       <r>    6.3940    0.0000 </r>
       <r>    6.3940    0.0000 </r>
       <r>    6.4668    0.0000 </r>
       <r>    6.4668    0.0000 </r>
       <r>    6.6138    0.0000 </r>
       <r>    6.6138    0.0000 </r>
       <r>    6.7288    0.0000 </r>
       <r>    6.7288    0.0000 </r>
       <r>    6.9018    0.0000 </r>
       <r>    6.9019    0.0000 </r>
      </set>
      <set comment="kpoint 5">
       <r>  -20.7910    1.0000 </r>
       <r>  -20.7896    1.0000 </r>
       <r>  -20.7889    1.0000 </r>
       <r>  -20.7878    1.0000 </r>
       <r>  -16.4623    1.0000 </r>
       <r>  -16.4495    1.0000 </r>
       <r>  -16.4375    1.0000 </r>
       <r>  -16.4373    1.0000 </r>
       <r>  -16.4012    1.0000 </r>
       <r>  -16.3944    1.0000 </r>
       <r>  -16.3943    1.0000 </r>
       <r>  -16.3853    1.0000 </r>
       <r>  -16.3104    1.0000 </r>
       <r>  -16.3100    1.0000 </r>
       <r>  -16.3098    1.0000 </r>
       <r>  -16.3094    1.0000 </r>
       <r>  -16.3049    1.0000 </r>
       <r>  -16.3046    1.0000 </r>
       <r>  -16.3039    1.0000 </r>
       <r>  -16.3036    1.0000 </r>
       <r>  -16.3025    1.0000 </r>
       <r>  -16.3021    1.0000 </r>
       <r>  -16.3018    1.0000 </r>
       <r>  -16.3014    1.0000 </r>
       <r>  -14.2893    1.0000 </r>
       <r>  -14.1560    1.0000 </r>
       <r>  -14.1161    1.0000 </r>
       <r>  -14.0400    1.0000 </r>
       <r>  -14.0282    1.0000 </r>
       <r>  -14.0248    1.0000 </r>
       <r>  -13.9364    1.0000 </r>
       <r>  -13.9264    1.0000 </r>
       <r>  -13.8418    1.0000 </r>
       <r>  -13.8052    1.0000 </r>
       <r>  -13.7986    1.0000 </r>
       <r>  -13.7652    1.0000 </r>
       <r>   -7.9566    1.0000 </r>
       <r>   -7.4695    1.0000 </r>
       <r>   -7.4479    1.0000 </r>
       <r>   -7.2137    1.0000 </r>
       <r>   -7.2114    1.0000 </r>
       <r>   -7.2102    1.0000 </r>
       <r>   -7.2004    1.0000 </r>
       <r>   -7.1972    1.0000 </r>
       <r>   -7.1868    1.0000 </r>
       <r>   -7.1865    1.0000 </r>
       <r>   -7.1730    1.0000 </r>
       <r>   -7.1620    1.0000 </r>
       <r>   -7.1600    1.0000 </r>
       <r>   -7.1505    1.0000 </r>
       <r>   -7.1492    1.0000 </r>
       <r>   -6.8784    1.0000 </r>
       <r>   -3.2553    1.0000 </r>
       <r>   -3.1586    1.0000 </r>
       <r>   -2.9421    1.0000 </r>
       <r>   -2.8243    1.0000 </r>
       <r>   -2.7652    1.0000 </r>
       <r>   -2.6877    1.0000 </r>
       <r>   -2.2821    1.0000 </r>
       <r>   -2.0917    1.0000 </r>
       <r>   -2.0602    1.0000 </r>
       <r>   -2.0034    1.0000 </r>
       <r>   -1.9706    1.0000 </r>
       <r>   -1.8904    1.0000 </r>
       <r>   -1.8043    1.0000 </r>
       <r>   -1.6956    1.0000 </r>
       <r>   -1.6247    1.0000 </r>
       <r>   -1.6185    1.0000 </r>
       <r>   -1.4596    1.0000 </r>
       <r>   -1.4083    1.0000 </r>
       <r>   -1.4025    1.0000 </r>
       <r>   -1.3682    1.0000 </r>
       <r>   -1.3489    1.0000 </r>
       <r>   -1.3324    1.0000 </r>
       <r>   -1.2989    1.0000 </r>
       <r>   -1.2840    1.0000 </r>
       <r>   -1.2316    1.0000 </r>
       <r>   -1.2134    1.0000 </r>
       <r>   -1.1835    1.0000 </r>
       <r>   -1.1790    1.0000 </r>
       <r>   -1.0878    1.0000 </r>
       <r>   -1.0873    1.0000 </r>
       <r>   -1.0321    1.0000 </r>
       <r>   -1.0033    1.0000 </r>
       <r>   -0.8852    1.0000 </r>
       <r>   -0.6992    1.0000 </r>
       <r>   -0.5494    1.0000 </r>
       <r>   -0.1279    1.0000 </r>
       <r>    2.9894    0.0000 </r>
       <r>    3.3232    0.0000 </r>
       <r>    3.5653    0.0000 </r>
       <r>    3.6892    0.0000 </r>
       <r>    3.9431    0.0000 </r>
       <r>    4.0625    0.0000 </r>
       <r>    4.9980    0.0000 </r>
       <r>    5.1615    0.0000 </r>
       <r>    5.2865    0.0000 </r>
       <r>    5.3686    0.0000 </r>
       <r>    5.7492    0.0000 </r>
       <r>    5.8574    0.0000 </r>
       <r>    6.0941    0.0000 </r>
       <r>    6.2023    0.0000 </r>
       <r>    6.2096    0.0000 </r>
       <r>    6.4319    0.0000 </r>
       <r>    6.4995    0.0000 </r>
       <r>    6.6422    0.0000 </r>
       <r>    6.7063    0.0000 </r>
       <r>    6.8637    0.0000 </r>
       <r>    6.8877    0.0000 </r>
       <r>    6.9415    0.0000 </r>
       <r>    6.9527    0.0000 </r>
       <r>    6.9723    0.0000 </r>
      </set>
      <set comment="kpoint 6">
       <r>  -20.7904    1.0000 </r>
       <r>  -20.7896    1.0000 </r>
       <r>  -20.7890    1.0000 </r>
       <r>  -20.7882    1.0000 </r>
       <r>  -16.4664    1.0000 </r>
       <r>  -16.4582    1.0000 </r>
       <r>  -16.4365    1.0000 </r>
       <r>  -16.4197    1.0000 </r>
       <r>  -16.4185    1.0000 </r>
       <r>  -16.4001    1.0000 </r>
       <r>  -16.3874    1.0000 </r>
       <r>  -16.3760    1.0000 </r>
       <r>  -16.3102    1.0000 </r>
       <r>  -16.3100    1.0000 </r>
       <r>  -16.3098    1.0000 </r>
       <r>  -16.3095    1.0000 </r>
       <r>  -16.3048    1.0000 </r>
       <r>  -16.3047    1.0000 </r>
       <r>  -16.3038    1.0000 </r>
       <r>  -16.3036    1.0000 </r>
       <r>  -16.3023    1.0000 </r>
       <r>  -16.3020    1.0000 </r>
       <r>  -16.3018    1.0000 </r>
       <r>  -16.3015    1.0000 </r>
       <r>  -14.2387    1.0000 </r>
       <r>  -14.1443    1.0000 </r>
       <r>  -14.0744    1.0000 </r>
       <r>  -14.0286    1.0000 </r>
       <r>  -14.0271    1.0000 </r>
       <r>  -14.0051    1.0000 </r>
       <r>  -14.0047    1.0000 </r>
       <r>  -13.9528    1.0000 </r>
       <r>  -13.9090    1.0000 </r>
       <r>  -13.8573    1.0000 </r>
       <r>  -13.7678    1.0000 </r>
       <r>  -13.7335    1.0000 </r>
       <r>   -7.8283    1.0000 </r>
       <r>   -7.5868    1.0000 </r>
       <r>   -7.3165    1.0000 </r>
       <r>   -7.2079    1.0000 </r>
       <r>   -7.1993    1.0000 </r>
       <r>   -7.1947    1.0000 </r>
       <r>   -7.1940    1.0000 </r>
       <r>   -7.1879    1.0000 </r>
       <r>   -7.1822    1.0000 </r>
       <r>   -7.1779    1.0000 </r>
       <r>   -7.1717    1.0000 </r>
       <r>   -7.1656    1.0000 </r>
       <r>   -7.1589    1.0000 </r>
       <r>   -7.1588    1.0000 </r>
       <r>   -7.1349    1.0000 </r>
       <r>   -6.9910    1.0000 </r>
       <r>   -3.2430    1.0000 </r>
       <r>   -3.1972    1.0000 </r>
       <r>   -3.1923    1.0000 </r>
       <r>   -3.0558    1.0000 </r>
       <r>   -2.8112    1.0000 </r>
       <r>   -2.6623    1.0000 </r>
       <r>   -2.1879    1.0000 </r>
       <r>   -2.0692    1.0000 </r>
       <r>   -2.0651    1.0000 </r>
       <r>   -2.0619    1.0000 </r>
       <r>   -1.9664    1.0000 </r>
       <r>   -1.7345    1.0000 </r>
       <r>   -1.7013    1.0000 </r>
       <r>   -1.6508    1.0000 </r>
       <r>   -1.5338    1.0000 </r>
       <r>   -1.5032    1.0000 </r>
       <r>   -1.4507    1.0000 </r>
       <r>   -1.4064    1.0000 </r>
       <r>   -1.4044    1.0000 </r>
       <r>   -1.3651    1.0000 </r>
       <r>   -1.3488    1.0000 </r>
       <r>   -1.3420    1.0000 </r>
       <r>   -1.3102    1.0000 </r>
       <r>   -1.2960    1.0000 </r>
       <r>   -1.2841    1.0000 </r>
       <r>   -1.2569    1.0000 </r>
       <r>   -1.2414    1.0000 </r>
       <r>   -1.2141    1.0000 </r>
       <r>   -1.1976    1.0000 </r>
       <r>   -1.1298    1.0000 </r>
       <r>   -1.0657    1.0000 </r>
       <r>   -1.0346    1.0000 </r>
       <r>   -0.8168    1.0000 </r>
       <r>   -0.6444    1.0000 </r>
       <r>   -0.3848    1.0000 </r>
       <r>   -0.0716    1.0000 </r>
       <r>    3.0573    0.0000 </r>
       <r>    3.0771    0.0000 </r>
       <r>    3.2475    0.0000 </r>
       <r>    3.4520    0.0000 </r>
       <r>    3.8860    0.0000 </r>
       <r>    4.2344    0.0000 </r>
       <r>    4.8528    0.0000 </r>
       <r>    5.2494    0.0000 </r>
       <r>    5.5909    0.0000 </r>
       <r>    5.9032    0.0000 </r>
       <r>    5.9894    0.0000 </r>
       <r>    6.0236    0.0000 </r>
       <r>    6.1758    0.0000 </r>
       <r>    6.3688    0.0000 </r>
       <r>    6.3766    0.0000 </r>
       <r>    6.5629    0.0000 </r>
       <r>    6.6031    0.0000 </r>
       <r>    6.7134    0.0000 </r>
       <r>    6.7745    0.0000 </r>
       <r>    6.7782    0.0000 </r>
       <r>    6.9167    0.0000 </r>
       <r>    6.9349    0.0000 </r>
       <r>    6.9507    0.0000 </r>
       <r>    7.1948    0.0000 </r>
      </set>
      <set comment="kpoint 7">
       <r>  -20.7902    1.0000 </r>
       <r>  -20.7902    1.0000 </r>
       <r>  -20.7884    1.0000 </r>
       <r>  -20.7884    1.0000 </r>
       <r>  -16.4374    1.0000 </r>
       <r>  -16.4374    1.0000 </r>
       <r>  -16.4321    1.0000 </r>
       <r>  -16.4321    1.0000 </r>
       <r>  -16.4179    1.0000 </r>
       <r>  -16.4179    1.0000 </r>
       <r>  -16.3944    1.0000 </r>
       <r>  -16.3944    1.0000 </r>
       <r>  -16.3102    1.0000 </r>
       <r>  -16.3102    1.0000 </r>
       <r>  -16.3096    1.0000 </r>
       <r>  -16.3096    1.0000 </r>
       <r>  -16.3044    1.0000 </r>
       <r>  -16.3044    1.0000 </r>
       <r>  -16.3041    1.0000 </r>
       <r>  -16.3041    1.0000 </r>
       <r>  -16.3023    1.0000 </r>
       <r>  -16.3023    1.0000 </r>
       <r>  -16.3016    1.0000 </r>
       <r>  -16.3016    1.0000 </r>
       <r>  -14.2376    1.0000 </r>
       <r>  -14.2376    1.0000 </r>
       <r>  -14.1261    1.0000 </r>
       <r>  -14.1261    1.0000 </r>
       <r>  -13.9317    1.0000 </r>
       <r>  -13.9317    1.0000 </r>
       <r>  -13.9045    1.0000 </r>
       <r>  -13.9045    1.0000 </r>
       <r>  -13.8609    1.0000 </r>
       <r>  -13.8609    1.0000 </r>
       <r>  -13.8018    1.0000 </r>
       <r>  -13.8018    1.0000 </r>
       <r>   -7.7221    1.0000 </r>
       <r>   -7.7221    1.0000 </r>
       <r>   -7.2477    1.0000 </r>
       <r>   -7.2477    1.0000 </r>
       <r>   -7.2179    1.0000 </r>
       <r>   -7.2179    1.0000 </r>
       <r>   -7.1994    1.0000 </r>
       <r>   -7.1994    1.0000 </r>
       <r>   -7.1750    1.0000 </r>
       <r>   -7.1750    1.0000 </r>
       <r>   -7.1722    1.0000 </r>
       <r>   -7.1722    1.0000 </r>
       <r>   -7.1543    1.0000 </r>
       <r>   -7.1543    1.0000 </r>
       <r>   -7.1496    1.0000 </r>
       <r>   -7.1496    1.0000 </r>
       <r>   -2.8867    1.0000 </r>
       <r>   -2.8867    1.0000 </r>
       <r>   -2.8141    1.0000 </r>
       <r>   -2.8141    1.0000 </r>
       <r>   -2.4650    1.0000 </r>
       <r>   -2.4650    1.0000 </r>
       <r>   -2.3748    1.0000 </r>
       <r>   -2.3748    1.0000 </r>
       <r>   -2.1837    1.0000 </r>
       <r>   -2.1837    1.0000 </r>
       <r>   -2.0311    1.0000 </r>
       <r>   -2.0311    1.0000 </r>
       <r>   -1.6922    1.0000 </r>
       <r>   -1.6922    1.0000 </r>
       <r>   -1.6431    1.0000 </r>
       <r>   -1.6431    1.0000 </r>
       <r>   -1.5248    1.0000 </r>
       <r>   -1.5248    1.0000 </r>
       <r>   -1.4450    1.0000 </r>
       <r>   -1.4450    1.0000 </r>
       <r>   -1.3459    1.0000 </r>
       <r>   -1.3459    1.0000 </r>
       <r>   -1.2893    1.0000 </r>
       <r>   -1.2893    1.0000 </r>
       <r>   -1.1824    1.0000 </r>
       <r>   -1.1824    1.0000 </r>
       <r>   -1.1297    1.0000 </r>
       <r>   -1.1297    1.0000 </r>
       <r>   -1.0953    1.0000 </r>
       <r>   -1.0953    1.0000 </r>
       <r>   -1.0634    1.0000 </r>
       <r>   -1.0634    1.0000 </r>
       <r>   -0.8785    1.0000 </r>
       <r>   -0.8785    1.0000 </r>
       <r>   -0.6161    1.0000 </r>
       <r>   -0.6161    1.0000 </r>
       <r>    3.7393    0.0000 </r>
       <r>    3.7393    0.0000 </r>
       <r>    3.8404    0.0000 </r>
       <r>    3.8404    0.0000 </r>
       <r>    4.4695    0.0000 </r>
       <r>    4.4695    0.0000 </r>
       <r>    4.7424    0.0000 </r>
       <r>    4.7424    0.0000 </r>
       <r>    5.1792    0.0000 </r>
       <r>    5.1792    0.0000 </r>
       <r>    5.2730    0.0000 </r>
       <r>    5.2730    0.0000 </r>
       <r>    6.0521    0.0000 </r>
       <r>    6.0521    0.0000 </r>
       <r>    6.3304    0.0000 </r>
       <r>    6.3304    0.0000 </r>
       <r>    6.4562    0.0000 </r>
       <r>    6.4562    0.0000 </r>
       <r>    6.6931    0.0000 </r>
       <r>    6.6931    0.0000 </r>
       <r>    6.8249    0.0000 </r>
       <r>    6.8249    0.0000 </r>
       <r>    6.9558    0.0000 </r>
       <r>    6.9559    0.0000 </r>
      </set>
      <set comment="kpoint 8">
       <r>  -20.7897    1.0000 </r>
       <r>  -20.7897    1.0000 </r>
       <r>  -20.7889    1.0000 </r>
       <r>  -20.7889    1.0000 </r>
       <r>  -16.4460    1.0000 </r>
       <r>  -16.4460    1.0000 </r>
       <r>  -16.4335    1.0000 </r>
       <r>  -16.4335    1.0000 </r>
       <r>  -16.4094    1.0000 </r>
       <r>  -16.4094    1.0000 </r>
       <r>  -16.3935    1.0000 </r>
       <r>  -16.3935    1.0000 </r>
       <r>  -16.3101    1.0000 </r>
       <r>  -16.3101    1.0000 </r>
       <r>  -16.3097    1.0000 </r>
       <r>  -16.3097    1.0000 </r>
       <r>  -16.3044    1.0000 </r>
       <r>  -16.3044    1.0000 </r>
       <r>  -16.3042    1.0000 </r>
       <r>  -16.3042    1.0000 </r>
       <r>  -16.3021    1.0000 </r>
       <r>  -16.3021    1.0000 </r>
       <r>  -16.3017    1.0000 </r>
       <r>  -16.3017    1.0000 </r>
       <r>  -14.1915    1.0000 </r>
       <r>  -14.1915    1.0000 </r>
       <r>  -14.1080    1.0000 </r>
       <r>  -14.1080    1.0000 </r>
       <r>  -14.0055    1.0000 </r>
       <r>  -14.0055    1.0000 </r>
       <r>  -13.9239    1.0000 </r>
       <r>  -13.9239    1.0000 </r>
       <r>  -13.8371    1.0000 </r>
       <r>  -13.8371    1.0000 </r>
       <r>  -13.8043    1.0000 </r>
       <r>  -13.8043    1.0000 </r>
       <r>   -7.5908    1.0000 </r>
       <r>   -7.5908    1.0000 </r>
       <r>   -7.3491    1.0000 </r>
       <r>   -7.3491    1.0000 </r>
       <r>   -7.2056    1.0000 </r>
       <r>   -7.2056    1.0000 </r>
       <r>   -7.1916    1.0000 </r>
       <r>   -7.1916    1.0000 </r>
       <r>   -7.1748    1.0000 </r>
       <r>   -7.1748    1.0000 </r>
       <r>   -7.1688    1.0000 </r>
       <r>   -7.1688    1.0000 </r>
       <r>   -7.1656    1.0000 </r>
       <r>   -7.1656    1.0000 </r>
       <r>   -7.1439    1.0000 </r>
       <r>   -7.1439    1.0000 </r>
       <r>   -3.1298    1.0000 </r>
       <r>   -3.1298    1.0000 </r>
       <r>   -2.7715    1.0000 </r>
       <r>   -2.7715    1.0000 </r>
       <r>   -2.5205    1.0000 </r>
       <r>   -2.5205    1.0000 </r>
       <r>   -2.3843    1.0000 </r>
       <r>   -2.3843    1.0000 </r>
       <r>   -2.1227    1.0000 </r>
       <r>   -2.1227    1.0000 </r>
       <r>   -1.9902    1.0000 </r>
       <r>   -1.9902    1.0000 </r>
       <r>   -1.7064    1.0000 </r>
       <r>   -1.7064    1.0000 </r>
       <r>   -1.6289    1.0000 </r>
       <r>   -1.6289    1.0000 </r>
       <r>   -1.4880    1.0000 </r>
       <r>   -1.4880    1.0000 </r>
       <r>   -1.4062    1.0000 </r>
       <r>   -1.4062    1.0000 </r>
       <r>   -1.3436    1.0000 </r>
       <r>   -1.3436    1.0000 </r>
       <r>   -1.2784    1.0000 </r>
       <r>   -1.2784    1.0000 </r>
       <r>   -1.2410    1.0000 </r>
       <r>   -1.2410    1.0000 </r>
       <r>   -1.1738    1.0000 </r>
       <r>   -1.1738    1.0000 </r>
       <r>   -1.1146    1.0000 </r>
       <r>   -1.1146    1.0000 </r>
       <r>   -1.0683    1.0000 </r>
       <r>   -1.0683    1.0000 </r>
       <r>   -0.7925    1.0000 </r>
       <r>   -0.7925    1.0000 </r>
       <r>   -0.5225    1.0000 </r>
       <r>   -0.5225    1.0000 </r>
       <r>    3.2449    0.0000 </r>
       <r>    3.2449    0.0000 </r>
       <r>    4.0341    0.0000 </r>
       <r>    4.0341    0.0000 </r>
       <r>    4.5585    0.0000 </r>
       <r>    4.5585    0.0000 </r>
       <r>    4.6963    0.0000 </r>
       <r>    4.6963    0.0000 </r>
       <r>    5.0575    0.0000 </r>
       <r>    5.0575    0.0000 </r>
       <r>    5.7965    0.0000 </r>
       <r>    5.7965    0.0000 </r>
       <r>    6.2917    0.0000 </r>
       <r>    6.2917    0.0000 </r>
       <r>    6.4566    0.0000 </r>
       <r>    6.4566    0.0000 </r>
       <r>    6.6217    0.0000 </r>
       <r>    6.6217    0.0000 </r>
       <r>    6.7536    0.0000 </r>
       <r>    6.7536    0.0000 </r>
       <r>    6.8720    0.0000 </r>
       <r>    6.8720    0.0000 </r>
       <r>    6.9439    0.0000 </r>
       <r>    6.9440    0.0000 </r>
      </set>
     </set>
    </set>
   </array>
  </eigenvalues>
  <separator name="orbital magnetization" >
   <v name="MAGDIPOLOUT">      0.00000000      0.00000000      0.00000000</v>
  </separator>
  <dos>
   <i name="efermi">      0.51296501 </i>
   <total>
    <array>
     <dimension dim="1">gridpoints</dimension>
     <dimension dim="2">spin</dimension>
     <field>energy</field>
     <field>total</field>
     <field>integrated</field>
     <set>
      <set comment="spin 1">
       <r>   -22.1912     0.0000     0.0000 </r>
       <r>   -22.0886     0.0000     0.0000 </r>
       <r>   -21.9860     0.0000     0.0000 </r>
       <r>   -21.8834     0.0000     0.0000 </r>
       <r>   -21.7808     0.0000     0.0000 </r>
       <r>   -21.6781     0.0000     0.0000 </r>
       <r>   -21.5755     0.0000     0.0000 </r>
       <r>   -21.4729     0.0000     0.0000 </r>
       <r>   -21.3703     0.0000     0.0000 </r>
       <r>   -21.2677     0.0000     0.0000 </r>
       <r>   -21.1651     0.0000     0.0000 </r>
       <r>   -21.0624     0.0000     0.0000 </r>
       <r>   -20.9598     0.0000     0.0000 </r>
       <r>   -20.8572     0.0000     0.0000 </r>
       <r>   -20.7546    77.9591     8.0000 </r>
       <r>   -20.6520     0.0000     8.0000 </r>
       <r>   -20.5494     0.0000     8.0000 </r>
       <r>   -20.4467     0.0000     8.0000 </r>
       <r>   -20.3441     0.0000     8.0000 </r>
       <r>   -20.2415     0.0000     8.0000 </r>
       <r>   -20.1389     0.0000     8.0000 </r>
       <r>   -20.0363     0.0000     8.0000 </r>
       <r>   -19.9336     0.0000     8.0000 </r>
       <r>   -19.8310     0.0000     8.0000 </r>
       <r>   -19.7284     0.0000     8.0000 </r>
       <r>   -19.6258     0.0000     8.0000 </r>
       <r>   -19.5232     0.0000     8.0000 </r>
       <r>   -19.4206     0.0000     8.0000 </r>
       <r>   -19.3179     0.0000     8.0000 </r>
       <r>   -19.2153     0.0000     8.0000 </r>
       <r>   -19.1127     0.0000     8.0000 </r>
       <r>   -19.0101     0.0000     8.0000 </r>
       <r>   -18.9075     0.0000     8.0000 </r>
       <r>   -18.8048     0.0000     8.0000 </r>
       <r>   -18.7022     0.0000     8.0000 </r>
       <r>   -18.5996     0.0000     8.0000 </r>
       <r>   -18.4970     0.0000     8.0000 </r>
       <r>   -18.3944     0.0000     8.0000 </r>
       <r>   -18.2918     0.0000     8.0000 </r>
       <r>   -18.1891     0.0000     8.0000 </r>
       <r>   -18.0865     0.0000     8.0000 </r>
       <r>   -17.9839     0.0000     8.0000 </r>
       <r>   -17.8813     0.0000     8.0000 </r>
       <r>   -17.7787     0.0000     8.0000 </r>
       <r>   -17.6761     0.0000     8.0000 </r>
       <r>   -17.5734     0.0000     8.0000 </r>
       <r>   -17.4708     0.0000     8.0000 </r>
       <r>   -17.3682     0.0000     8.0000 </r>
       <r>   -17.2656     0.0000     8.0000 </r>
       <r>   -17.1630     0.0000     8.0000 </r>
       <r>   -17.0603     0.0000     8.0000 </r>
       <r>   -16.9577     0.0000     8.0000 </r>
       <r>   -16.8551     0.0000     8.0000 </r>
       <r>   -16.7525     0.0000     8.0000 </r>
       <r>   -16.6499     0.0000     8.0000 </r>
       <r>   -16.5473     0.0000     8.0000 </r>
       <r>   -16.4446    31.3365    11.2157 </r>
       <r>   -16.3420    82.2883    24.0000 </r>
       <r>   -16.2394   233.8772    48.0000 </r>
       <r>   -16.1368     0.0000    48.0000 </r>
       <r>   -16.0342     0.0000    48.0000 </r>
       <r>   -15.9315     0.0000    48.0000 </r>
       <r>   -15.8289     0.0000    48.0000 </r>
       <r>   -15.7263     0.0000    48.0000 </r>
       <r>   -15.6237     0.0000    48.0000 </r>
       <r>   -15.5211     0.0000    48.0000 </r>
       <r>   -15.4185     0.0000    48.0000 </r>
       <r>   -15.3158     0.0000    48.0000 </r>
       <r>   -15.2132     0.0000    48.0000 </r>
       <r>   -15.1106     0.0000    48.0000 </r>
       <r>   -15.0080     0.0000    48.0000 </r>
       <r>   -14.9054     0.0000    48.0000 </r>
       <r>   -14.8028     0.0000    48.0000 </r>
       <r>   -14.7001     0.0000    48.0000 </r>
       <r>   -14.5975     0.0000    48.0000 </r>
       <r>   -14.4949     0.0000    48.0000 </r>
       <r>   -14.3923     0.0000    48.0000 </r>
       <r>   -14.2897     3.2439    48.3329 </r>
       <r>   -14.1870    19.3847    50.7670 </r>
       <r>   -14.0844    31.7327    54.2563 </r>
       <r>   -13.9818    51.5372    59.9553 </r>
       <r>   -13.8792    43.3500    64.5596 </r>
       <r>   -13.7766    41.8303    70.1814 </r>
       <r>   -13.6740     9.7449    72.0000 </r>
       <r>   -13.5713     0.0000    72.0000 </r>
       <r>   -13.4687     0.0000    72.0000 </r>
       <r>   -13.3661     0.0000    72.0000 </r>
       <r>   -13.2635     0.0000    72.0000 </r>
       <r>   -13.1609     0.0000    72.0000 </r>
       <r>   -13.0582     0.0000    72.0000 </r>
       <r>   -12.9556     0.0000    72.0000 </r>
       <r>   -12.8530     0.0000    72.0000 </r>
       <r>   -12.7504     0.0000    72.0000 </r>
       <r>   -12.6478     0.0000    72.0000 </r>
       <r>   -12.5452     0.0000    72.0000 </r>
       <r>   -12.4425     0.0000    72.0000 </r>
       <r>   -12.3399     0.0000    72.0000 </r>
       <r>   -12.2373     0.0000    72.0000 </r>
       <r>   -12.1347     0.0000    72.0000 </r>
       <r>   -12.0321     0.0000    72.0000 </r>
       <r>   -11.9295     0.0000    72.0000 </r>
       <r>   -11.8268     0.0000    72.0000 </r>
       <r>   -11.7242     0.0000    72.0000 </r>
       <r>   -11.6216     0.0000    72.0000 </r>
       <r>   -11.5190     0.0000    72.0000 </r>
       <r>   -11.4164     0.0000    72.0000 </r>
       <r>   -11.3137     0.0000    72.0000 </r>
       <r>   -11.2111     0.0000    72.0000 </r>
       <r>   -11.1085     0.0000    72.0000 </r>
       <r>   -11.0059     0.0000    72.0000 </r>
       <r>   -10.9033     0.0000    72.0000 </r>
       <r>   -10.8007     0.0000    72.0000 </r>
       <r>   -10.6980     0.0000    72.0000 </r>
       <r>   -10.5954     0.0000    72.0000 </r>
       <r>   -10.4928     0.0000    72.0000 </r>
       <r>   -10.3902     0.0000    72.0000 </r>
       <r>   -10.2876     0.0000    72.0000 </r>
       <r>   -10.1849     0.0000    72.0000 </r>
       <r>   -10.0823     0.0000    72.0000 </r>
       <r>    -9.9797     0.0000    72.0000 </r>
       <r>    -9.8771     0.0000    72.0000 </r>
       <r>    -9.7745     0.0000    72.0000 </r>
       <r>    -9.6719     0.0000    72.0000 </r>
       <r>    -9.5692     0.0000    72.0000 </r>
       <r>    -9.4666     0.0000    72.0000 </r>
       <r>    -9.3640     0.0000    72.0000 </r>
       <r>    -9.2614     0.0000    72.0000 </r>
       <r>    -9.1588     0.0000    72.0000 </r>
       <r>    -9.0562     0.0000    72.0000 </r>
       <r>    -8.9535     0.0000    72.0000 </r>
       <r>    -8.8509     0.0000    72.0000 </r>
       <r>    -8.7483     0.0000    72.0000 </r>
       <r>    -8.6457     0.0000    72.0000 </r>
       <r>    -8.5431     0.0000    72.0000 </r>
       <r>    -8.4404     0.0000    72.0000 </r>
       <r>    -8.3378     0.0000    72.0000 </r>
       <r>    -8.2352     0.0000    72.0000 </r>
       <r>    -8.1326     1.0828    72.1111 </r>
       <r>    -8.0300     0.0000    72.1111 </r>
       <r>    -7.9274     6.1897    72.7463 </r>
       <r>    -7.8247     3.0046    73.0861 </r>
       <r>    -7.7221     4.4712    73.6810 </r>
       <r>    -7.6195     1.0830    74.2222 </r>
       <r>    -7.5169    12.9930    75.5556 </r>
       <r>    -7.4143     8.6621    76.4444 </r>
       <r>    -7.3116    11.9324    77.6689 </r>
       <r>    -7.2090    36.9044    81.5648 </r>
       <r>    -7.1064   138.5146   102.7697 </r>
       <r>    -7.0038     0.1515   102.7933 </r>
       <r>    -6.9012     0.2668   103.2496 </r>
       <r>    -6.7986     4.3296   103.8889 </r>
       <r>    -6.6959     0.0000   103.8889 </r>
       <r>    -6.5933     0.0000   103.8889 </r>
       <r>    -6.4907     1.0828   104.0000 </r>
       <r>    -6.3881     0.0000   104.0000 </r>
       <r>    -6.2855     0.0000   104.0000 </r>
       <r>    -6.1829     0.0000   104.0000 </r>
       <r>    -6.0802     0.0000   104.0000 </r>
       <r>    -5.9776     0.0000   104.0000 </r>
       <r>    -5.8750     0.0000   104.0000 </r>
       <r>    -5.7724     0.0000   104.0000 </r>
       <r>    -5.6698     0.0000   104.0000 </r>
       <r>    -5.5671     0.0000   104.0000 </r>
       <r>    -5.4645     0.0000   104.0000 </r>
       <r>    -5.3619     0.0000   104.0000 </r>
       <r>    -5.2593     0.0000   104.0000 </r>
       <r>    -5.1567     0.0000   104.0000 </r>
       <r>    -5.0541     0.0000   104.0000 </r>
       <r>    -4.9514     0.0000   104.0000 </r>
       <r>    -4.8488     0.0000   104.0000 </r>
       <r>    -4.7462     0.0000   104.0000 </r>
       <r>    -4.6436     0.0000   104.0000 </r>
       <r>    -4.5410     0.0000   104.0000 </r>
       <r>    -4.4383     0.0000   104.0000 </r>
       <r>    -4.3357     0.0000   104.0000 </r>
       <r>    -4.2331     0.0000   104.0000 </r>
       <r>    -4.1305     0.0000   104.0000 </r>
       <r>    -4.0279     0.0000   104.0000 </r>
       <r>    -3.9253     0.0000   104.0000 </r>
       <r>    -3.8226     0.0000   104.0000 </r>
       <r>    -3.7200     0.0000   104.0000 </r>
       <r>    -3.6174     0.0000   104.0000 </r>
       <r>    -3.5148     0.0000   104.0000 </r>
       <r>    -3.4122     0.0000   104.0000 </r>
       <r>    -3.3096     0.0926   104.0095 </r>
       <r>    -3.2069    12.3293   105.4874 </r>
       <r>    -3.1043    16.2384   108.1108 </r>
       <r>    -3.0017     5.4225   108.6676 </r>
       <r>    -2.8991     6.6686   109.5732 </r>
       <r>    -2.7965    13.4211   111.3772 </r>
       <r>    -2.6938    13.4062   113.1537 </r>
       <r>    -2.5912     4.3310   114.0000 </r>
       <r>    -2.4886     8.6945   114.8922 </r>
       <r>    -2.3860    12.4260   116.3864 </r>
       <r>    -2.2834     7.4199   118.0949 </r>
       <r>    -2.1808     8.6878   119.1137 </r>
       <r>    -2.0781    18.9950   121.2826 </r>
       <r>    -1.9755    24.7137   125.3138 </r>
       <r>    -1.8729     6.4051   126.9906 </r>
       <r>    -1.7703     9.1142   128.1575 </r>
       <r>    -1.6677    30.4275   131.3446 </r>
       <r>    -1.5650    20.5714   134.5556 </r>
       <r>    -1.4624    38.2643   138.4822 </r>
       <r>    -1.3598    48.4912   144.5316 </r>
       <r>    -1.2572    46.5586   152.8889 </r>
       <r>    -1.1546    45.9641   159.3834 </r>
       <r>    -1.0520    66.4420   166.4850 </r>
       <r>    -0.9493     7.5786   168.0000 </r>
       <r>    -0.8467     6.6368   168.6811 </r>
       <r>    -0.7441    16.2414   171.0000 </r>
       <r>    -0.6415     7.5272   171.7724 </r>
       <r>    -0.5389    11.3836   173.1682 </r>
       <r>    -0.4363     0.0000   174.2222 </r>
       <r>    -0.3336     4.3311   174.6667 </r>
       <r>    -0.2310     0.0000   174.6667 </r>
       <r>    -0.1284     2.1039   174.8826 </r>
       <r>    -0.0258     6.5487   175.6720 </r>
       <r>     0.0768     0.0000   175.8889 </r>
       <r>     0.1795     0.0000   175.8889 </r>
       <r>     0.2821     0.0000   175.8889 </r>
       <r>     0.3847     0.0000   175.8889 </r>
       <r>     0.4873     1.0827   176.0000 </r>
       <r>     0.5899     0.0000   176.0000 </r>
       <r>     0.6925     0.0000   176.0000 </r>
       <r>     0.7952     0.0000   176.0000 </r>
       <r>     0.8978     0.0000   176.0000 </r>
       <r>     1.0004     0.0000   176.0000 </r>
       <r>     1.1030     0.0000   176.0000 </r>
       <r>     1.2056     0.0000   176.0000 </r>
       <r>     1.3083     0.0000   176.0000 </r>
       <r>     1.4109     0.0000   176.0000 </r>
       <r>     1.5135     0.0000   176.0000 </r>
       <r>     1.6161     0.0000   176.0000 </r>
       <r>     1.7187     0.0000   176.0000 </r>
       <r>     1.8213     0.0000   176.0000 </r>
       <r>     1.9240     0.0000   176.0000 </r>
       <r>     2.0266     0.0000   176.0000 </r>
       <r>     2.1292     0.0000   176.0000 </r>
       <r>     2.2318     0.0000   176.0000 </r>
       <r>     2.3344     0.0000   176.0000 </r>
       <r>     2.4370     0.0000   176.0000 </r>
       <r>     2.5397     0.0000   176.0000 </r>
       <r>     2.6423     0.0000   176.0000 </r>
       <r>     2.7449     0.1646   176.0169 </r>
       <r>     2.8475     2.1652   176.3333 </r>
       <r>     2.9501     1.0491   176.4410 </r>
       <r>     3.0528     7.6167   177.3372 </r>
       <r>     3.1554     5.4126   178.2222 </r>
       <r>     3.2580    13.1672   179.5734 </r>
       <r>     3.3606     4.3252   180.1105 </r>
       <r>     3.4632     4.0912   180.5309 </r>
       <r>     3.5658     1.6852   180.7285 </r>
       <r>     3.6685     2.1692   181.1115 </r>
       <r>     3.7711    10.8182   182.4435 </r>
       <r>     3.8737     8.8326   183.3508 </r>
       <r>     3.9763     4.3311   184.2222 </r>
       <r>     4.0789    12.9177   185.5478 </r>
       <r>     4.1816     0.0000   185.5556 </r>
       <r>     4.2842     4.3311   186.0000 </r>
       <r>     4.3868     2.1655   186.2222 </r>
       <r>     4.4894     8.2926   187.0732 </r>
       <r>     4.5920     8.6621   188.0000 </r>
       <r>     4.6946     3.5238   188.3616 </r>
       <r>     4.7973     8.6621   189.7778 </r>
       <r>     4.8999     5.7695   190.3698 </r>
       <r>     5.0025     1.5963   190.7194 </r>
       <r>     5.1051    10.8265   191.8888 </r>
       <r>     5.2077    14.7216   193.3996 </r>
       <r>     5.3103    15.1445   194.9985 </r>
       <r>     5.4130     2.1655   195.2222 </r>
       <r>     5.5156     2.1655   195.4444 </r>
       <r>     5.6182     6.4963   196.1111 </r>
       <r>     5.7208     1.0828   196.2222 </r>
       <r>     5.8234    14.0648   197.6655 </r>
       <r>     5.9261     8.6595   198.5553 </r>
       <r>     6.0287    11.7115   199.7574 </r>
       <r>     6.1313    11.5811   201.1886 </r>
       <r>     6.2339    12.0223   202.5670 </r>
       <r>     6.3365    18.8860   204.7158 </r>
       <r>     6.4391    16.8020   206.7242 </r>
       <r>     6.5418     9.5148   209.1986 </r>
       <r>     6.6444    24.0725   212.2481 </r>
       <r>     6.7470    21.4887   214.5385 </r>
       <r>     6.8496    17.3985   217.1188 </r>
       <r>     6.9522    29.6537   221.5986 </r>
       <r>     7.0549     9.7284   223.5539 </r>
       <r>     7.1575     0.0000   223.5556 </r>
       <r>     7.2601     4.3311   224.0000 </r>
       <r>     7.3627     0.0000   224.0000 </r>
       <r>     7.4653     0.0000   224.0000 </r>
       <r>     7.5679     0.0000   224.0000 </r>
       <r>     7.6706     0.0000   224.0000 </r>
       <r>     7.7732     0.0000   224.0000 </r>
       <r>     7.8758     0.0000   224.0000 </r>
       <r>     7.9784     0.0000   224.0000 </r>
       <r>     8.0810     0.0000   224.0000 </r>
       <r>     8.1836     0.0000   224.0000 </r>
       <r>     8.2863     0.0000   224.0000 </r>
       <r>     8.3889     0.0000   224.0000 </r>
       <r>     8.4915     0.0000   224.0000 </r>
       <r>     8.5941     0.0000   224.0000 </r>
      </set>
     </set>
    </array>
   </total>
   <partial>
    <array>
     <dimension dim="1">gridpoints</dimension>
     <dimension dim="2">spin</dimension>
     <dimension dim="3">ion</dimension>
     <field>energy</field>
     <field>  s  </field>
     <field>  p  </field>
     <field>  d  </field>
     <set>
      <set comment="ion 1">
       <set comment="spin 1">
        <r>   -22.1912     0.0000     0.0000     0.0000 </r>
        <r>   -22.0886     0.0000     0.0000     0.0000 </r>
        <r>   -21.9860     0.0000     0.0000     0.0000 </r>
        <r>   -21.8834     0.0000     0.0000     0.0000 </r>
        <r>   -21.7808     0.0000     0.0000     0.0000 </r>
[...]
        <r>  0.0000  0.0002  0.0004 </r>
        <r>  0.0005  0.0152  0.0002 </r>
        <r>  0.0001  0.0114  0.0005 </r>
        <r>  0.0031  0.1688  0.0016 </r>
        <r>  0.0028  0.1557  0.0018 </r>
        <r>  0.0004  0.0056  0.0017 </r>
        <r>  0.0004  0.0052  0.0009 </r>
        <r>  0.0002  0.0037  0.0015 </r>
        <r>  0.0008  0.0068  0.0011 </r>
        <r>  0.0129  0.0335  0.0071 </r>
        <r>  0.0006  0.0118  0.0008 </r>
        <r>  0.0000  0.0010  0.0001 </r>
        <r>  0.0010  0.0029  0.0007 </r>
        <r>  0.0011  0.0035  0.0005 </r>
        <r>  0.0000  0.0007  0.0001 </r>
        <r>  0.0128  0.0329  0.0074 </r>
        <r>  0.0006  0.0121  0.0008 </r>
       </set>
       <set comment="band 93">
        <r>  0.0000  0.0001  0.0002 </r>
        <r>  0.0005  0.0002  0.0007 </r>
        <r>  0.0000  0.0000  0.0007 </r>
        <r>  0.0000  0.0007  0.0014 </r>
        <r>  0.0021  0.1131  0.0012 </r>
        <r>  0.0016  0.0750  0.0012 </r>
        <r>  0.0026  0.0575  0.0013 </r>
        <r>  0.0031  0.0738  0.0017 </r>
        <r>  0.0095  0.0023  0.0040 </r>
        <r>  0.0003  0.0691  0.0006 </r>
        <r>  0.0117  0.0030  0.0053 </r>
        <r>  0.0002  0.0534  0.0007 </r>
        <r>  0.0004  0.0066  0.0009 </r>
        <r>  0.0000  0.0011  0.0015 </r>
        <r>  0.0000  0.0014  0.0023 </r>
        <r>  0.0010  0.0043  0.0013 </r>
        <r>  0.0006  0.0084  0.0013 </r>
        <r>  0.0000  0.0015  0.0021 </r>
        <r>  0.0008  0.0025  0.0009 </r>
        <r>  0.0000  0.0011  0.0016 </r>
       </set>
       <set comment="band 94">
        <r>  0.0000  0.0007  0.0014 </r>
        <r>  0.0000  0.0000  0.0007 </r>
        <r>  0.0005  0.0002  0.0007 </r>
        <r>  0.0000  0.0001  0.0002 </r>
        <r>  0.0031  0.0738  0.0017 </r>
        <r>  0.0026  0.0575  0.0013 </r>
        <r>  0.0016  0.0750  0.0012 </r>
        <r>  0.0021  0.1131  0.0012 </r>
        <r>  0.0002  0.0534  0.0007 </r>
        <r>  0.0117  0.0030  0.0053 </r>
        <r>  0.0003  0.0691  0.0006 </r>
        <r>  0.0095  0.0023  0.0040 </r>
        <r>  0.0010  0.0043  0.0013 </r>
        <r>  0.0000  0.0014  0.0023 </r>
        <r>  0.0000  0.0011  0.0015 </r>
        <r>  0.0004  0.0066  0.0009 </r>
        <r>  0.0008  0.0025  0.0009 </r>
        <r>  0.0000  0.0011  0.0016 </r>
        <r>  0.0006  0.0084  0.0013 </r>
        <r>  0.0000  0.0015  0.0021 </r>
       </set>
       <set comment="band 95">
        <r>  0.0000  0.0001  0.0006 </r>
        <r>  0.0002  0.0010  0.0009 </r>
        <r>  0.0000  0.0002  0.0002 </r>
        <r>  0.0003  0.0004  0.0004 </r>
        <r>  0.0028  0.0486  0.0013 </r>
        <r>  0.0039  0.0711  0.0017 </r>
        <r>  0.0023  0.1219  0.0011 </r>
        <r>  0.0019  0.0813  0.0009 </r>
        <r>  0.0125  0.0014  0.0056 </r>
        <r>  0.0002  0.0478  0.0007 </r>
        <r>  0.0092  0.0011  0.0039 </r>
        <r>  0.0002  0.0672  0.0004 </r>
        <r>  0.0006  0.0059  0.0022 </r>
        <r>  0.0003  0.0046  0.0008 </r>
        <r>  0.0003  0.0062  0.0006 </r>
        <r>  0.0000  0.0039  0.0017 </r>
        <r>  0.0005  0.0035  0.0012 </r>
        <r>  0.0001  0.0021  0.0005 </r>
        <r>  0.0002  0.0063  0.0027 </r>
        <r>  0.0005  0.0088  0.0009 </r>
       </set>
       <set comment="band 96">
        <r>  0.0003  0.0004  0.0004 </r>
        <r>  0.0000  0.0002  0.0002 </r>
        <r>  0.0002  0.0010  0.0009 </r>
        <r>  0.0000  0.0001  0.0006 </r>
        <r>  0.0019  0.0813  0.0009 </r>
        <r>  0.0023  0.1219  0.0011 </r>
        <r>  0.0039  0.0711  0.0017 </r>
        <r>  0.0028  0.0486  0.0013 </r>
        <r>  0.0002  0.0672  0.0004 </r>
        <r>  0.0092  0.0011  0.0039 </r>
        <r>  0.0002  0.0478  0.0007 </r>
        <r>  0.0125  0.0014  0.0056 </r>
        <r>  0.0000  0.0039  0.0017 </r>
        <r>  0.0003  0.0062  0.0006 </r>
        <r>  0.0003  0.0046  0.0008 </r>
        <r>  0.0006  0.0059  0.0022 </r>
        <r>  0.0002  0.0063  0.0027 </r>
        <r>  0.0005  0.0088  0.0009 </r>
        <r>  0.0005  0.0035  0.0012 </r>
        <r>  0.0001  0.0021  0.0005 </r>
       </set>
       <set comment="band 97">
        <r>  0.0000  0.0001  0.0018 </r>
        <r>  0.0001  0.0005  0.0011 </r>
        <r>  0.0000  0.0001  0.0027 </r>
        <r>  0.0003  0.0005  0.0007 </r>
        <r>  0.0037  0.1063  0.0009 </r>
        <r>  0.0027  0.0943  0.0010 </r>
        <r>  0.0016  0.0456  0.0007 </r>
        <r>  0.0009  0.0554  0.0011 </r>
        <r>  0.0005  0.0045  0.0006 </r>
        <r>  0.0003  0.0071  0.0033 </r>
        <r>  0.0024  0.0044  0.0012 </r>
        <r>  0.0001  0.0017  0.0029 </r>
        <r>  0.0018  0.0259  0.0013 </r>
        <r>  0.0000  0.0005  0.0014 </r>
        <r>  0.0000  0.0017  0.0026 </r>
        <r>  0.0051  0.0516  0.0017 </r>
        <r>  0.0043  0.0520  0.0019 </r>
        <r>  0.0000  0.0013  0.0027 </r>
        <r>  0.0026  0.0256  0.0011 </r>
        <r>  0.0000  0.0009  0.0013 </r>
       </set>
       <set comment="band 98">
        <r>  0.0003  0.0005  0.0007 </r>
        <r>  0.0000  0.0001  0.0027 </r>
        <r>  0.0001  0.0005  0.0011 </r>
        <r>  0.0000  0.0001  0.0018 </r>
        <r>  0.0009  0.0554  0.0011 </r>
        <r>  0.0016  0.0456  0.0007 </r>
        <r>  0.0027  0.0943  0.0010 </r>
        <r>  0.0037  0.1063  0.0009 </r>
        <r>  0.0001  0.0017  0.0029 </r>
        <r>  0.0024  0.0044  0.0012 </r>
        <r>  0.0003  0.0071  0.0033 </r>
        <r>  0.0005  0.0045  0.0006 </r>
        <r>  0.0051  0.0516  0.0017 </r>
        <r>  0.0000  0.0017  0.0026 </r>
        <r>  0.0000  0.0005  0.0014 </r>
        <r>  0.0018  0.0259  0.0013 </r>
        <r>  0.0026  0.0256  0.0011 </r>
        <r>  0.0000  0.0009  0.0013 </r>
        <r>  0.0043  0.0520  0.0019 </r>
        <r>  0.0000  0.0013  0.0027 </r>
       </set>
       <set comment="band 99">
        <r>  0.0000  0.0001  0.0030 </r>
        <r>  0.0001  0.0003  0.0018 </r>
        <r>  0.0000  0.0002  0.0015 </r>
        <r>  0.0001  0.0002  0.0014 </r>
        <r>  0.0000  0.0119  0.0005 </r>
        <r>  0.0001  0.0123  0.0006 </r>
        <r>  0.0000  0.1439  0.0004 </r>
        <r>  0.0000  0.1400  0.0004 </r>
        <r>  0.0004  0.0016  0.0015 </r>
        <r>  0.0000  0.0010  0.0031 </r>
        <r>  0.0000  0.0029  0.0012 </r>
        <r>  0.0001  0.0010  0.0034 </r>
        <r>  0.0000  0.0014  0.0046 </r>
        <r>  0.0000  0.0938  0.0023 </r>
        <r>  0.0001  0.0083  0.0003 </r>
        <r>  0.0000  0.0004  0.0005 </r>
        <r>  0.0000  0.0005  0.0003 </r>
        <r>  0.0000  0.0082  0.0007 </r>
        <r>  0.0000  0.0014  0.0048 </r>
        <r>  0.0000  0.0939  0.0019 </r>
       </set>
       <set comment="band 100">
        <r>  0.0001  0.0002  0.0014 </r>
        <r>  0.0000  0.0002  0.0015 </r>
        <r>  0.0001  0.0003  0.0018 </r>
        <r>  0.0000  0.0001  0.0030 </r>
        <r>  0.0000  0.1400  0.0004 </r>
        <r>  0.0000  0.1439  0.0004 </r>
        <r>  0.0001  0.0123  0.0006 </r>
        <r>  0.0000  0.0119  0.0005 </r>
        <r>  0.0001  0.0010  0.0034 </r>
        <r>  0.0000  0.0029  0.0012 </r>
        <r>  0.0000  0.0010  0.0031 </r>
        <r>  0.0004  0.0016  0.0015 </r>
        <r>  0.0000  0.0004  0.0005 </r>
        <r>  0.0001  0.0083  0.0003 </r>
        <r>  0.0000  0.0938  0.0023 </r>
        <r>  0.0000  0.0014  0.0046 </r>
        <r>  0.0000  0.0014  0.0048 </r>
        <r>  0.0000  0.0939  0.0019 </r>
        <r>  0.0000  0.0005  0.0003 </r>
        <r>  0.0000  0.0082  0.0007 </r>
       </set>
       <set comment="band 101">
        <r>  0.0000  0.0019  0.0109 </r>
        <r>  0.0126  0.0035  0.0049 </r>
        <r>  0.0000  0.0015  0.0164 </r>
        <r>  0.0133  0.0039  0.0072 </r>
        <r>  0.0002  0.0034  0.0003 </r>
        <r>  0.0003  0.0103  0.0003 </r>
        <r>  0.0003  0.0105  0.0003 </r>
        <r>  0.0002  0.0033  0.0003 </r>
        <r>  0.0019  0.0054  0.0025 </r>
        <r>  0.0000  0.0046  0.0002 </r>
        <r>  0.0021  0.0069  0.0024 </r>
        <r>  0.0000  0.0068  0.0005 </r>
        <r>  0.0011  0.0051  0.0011 </r>
        <r>  0.0058  0.0042  0.0023 </r>
        <r>  0.0031  0.0021  0.0020 </r>
        <r>  0.0024  0.0033  0.0022 </r>
        <r>  0.0011  0.0051  0.0011 </r>
        <r>  0.0057  0.0042  0.0023 </r>
        <r>  0.0024  0.0032  0.0022 </r>
        <r>  0.0032  0.0021  0.0020 </r>
       </set>
       <set comment="band 102">
        <r>  0.0133  0.0039  0.0072 </r>
        <r>  0.0000  0.0015  0.0164 </r>
        <r>  0.0126  0.0035  0.0049 </r>
        <r>  0.0000  0.0019  0.0109 </r>
        <r>  0.0002  0.0033  0.0003 </r>
        <r>  0.0003  0.0105  0.0003 </r>
        <r>  0.0003  0.0103  0.0003 </r>
        <r>  0.0002  0.0034  0.0003 </r>
        <r>  0.0000  0.0068  0.0005 </r>
        <r>  0.0021  0.0069  0.0024 </r>
        <r>  0.0000  0.0046  0.0002 </r>
        <r>  0.0019  0.0054  0.0025 </r>
        <r>  0.0024  0.0033  0.0022 </r>
        <r>  0.0031  0.0021  0.0020 </r>
        <r>  0.0058  0.0042  0.0023 </r>
        <r>  0.0011  0.0051  0.0011 </r>
        <r>  0.0024  0.0032  0.0022 </r>
        <r>  0.0032  0.0021  0.0020 </r>
        <r>  0.0011  0.0051  0.0011 </r>
        <r>  0.0057  0.0042  0.0023 </r>
       </set>
       <set comment="band 103">
        <r>  0.0055  0.0016  0.0327 </r>
        <r>  0.0000  0.0003  0.0020 </r>
        <r>  0.0021  0.0017  0.0612 </r>
        <r>  0.0000  0.0003  0.0060 </r>
        <r>  0.0000  0.0106  0.0004 </r>
        <r>  0.0000  0.0026  0.0003 </r>
        <r>  0.0000  0.0028  0.0004 </r>
        <r>  0.0000  0.0091  0.0005 </r>
        <r>  0.0000  0.0009  0.0001 </r>
        <r>  0.0024  0.0056  0.0069 </r>
        <r>  0.0000  0.0028  0.0008 </r>
        <r>  0.0001  0.0116  0.0063 </r>
        <r>  0.0002  0.0038  0.0021 </r>
        <r>  0.0007  0.0013  0.0014 </r>
        <r>  0.0005  0.0027  0.0020 </r>
        <r>  0.0005  0.0049  0.0013 </r>
        <r>  0.0003  0.0039  0.0021 </r>
        <r>  0.0008  0.0014  0.0014 </r>
        <r>  0.0005  0.0048  0.0013 </r>
        <r>  0.0004  0.0027  0.0020 </r>
       </set>
       <set comment="band 104">
        <r>  0.0000  0.0003  0.0060 </r>
        <r>  0.0021  0.0017  0.0612 </r>
        <r>  0.0000  0.0003  0.0020 </r>
        <r>  0.0055  0.0016  0.0327 </r>
        <r>  0.0000  0.0091  0.0005 </r>
        <r>  0.0000  0.0028  0.0004 </r>
        <r>  0.0000  0.0026  0.0003 </r>
        <r>  0.0000  0.0106  0.0004 </r>
        <r>  0.0001  0.0116  0.0063 </r>
        <r>  0.0000  0.0028  0.0008 </r>
        <r>  0.0024  0.0056  0.0069 </r>
        <r>  0.0000  0.0009  0.0001 </r>
        <r>  0.0005  0.0049  0.0013 </r>
        <r>  0.0005  0.0027  0.0020 </r>
        <r>  0.0007  0.0013  0.0014 </r>
        <r>  0.0002  0.0038  0.0021 </r>
        <r>  0.0005  0.0048  0.0013 </r>
        <r>  0.0004  0.0027  0.0020 </r>
        <r>  0.0003  0.0039  0.0021 </r>
        <r>  0.0008  0.0014  0.0014 </r>
       </set>
       <set comment="band 105">
        <r>  0.0012  0.0009  0.0501 </r>
        <r>  0.0003  0.0013  0.0244 </r>
        <r>  0.0033  0.0027  0.0187 </r>
        <r>  0.0001  0.0004  0.0223 </r>
        <r>  0.0002  0.0026  0.0007 </r>
        <r>  0.0000  0.0038  0.0009 </r>
        <r>  0.0000  0.0086  0.0007 </r>
        <r>  0.0001  0.0054  0.0005 </r>
        <r>  0.0003  0.0015  0.0016 </r>
        <r>  0.0003  0.0069  0.0027 </r>
        <r>  0.0000  0.0015  0.0009 </r>
        <r>  0.0025  0.0046  0.0049 </r>
        <r>  0.0007  0.0050  0.0028 </r>
        <r>  0.0021  0.0014  0.0022 </r>
        <r>  0.0004  0.0019  0.0025 </r>
        <r>  0.0008  0.0020  0.0021 </r>
        <r>  0.0000  0.0062  0.0023 </r>
        <r>  0.0006  0.0018  0.0021 </r>
        <r>  0.0015  0.0008  0.0026 </r>
        <r>  0.0019  0.0014  0.0027 </r>
       </set>
       <set comment="band 106">
        <r>  0.0001  0.0004  0.0223 </r>
        <r>  0.0033  0.0027  0.0187 </r>
        <r>  0.0003  0.0013  0.0244 </r>
        <r>  0.0012  0.0009  0.0501 </r>
        <r>  0.0001  0.0054  0.0005 </r>
        <r>  0.0000  0.0086  0.0007 </r>
        <r>  0.0000  0.0038  0.0009 </r>
        <r>  0.0002  0.0026  0.0007 </r>
        <r>  0.0025  0.0046  0.0049 </r>
        <r>  0.0000  0.0015  0.0009 </r>
        <r>  0.0003  0.0069  0.0027 </r>
        <r>  0.0003  0.0015  0.0016 </r>
        <r>  0.0008  0.0020  0.0021 </r>
        <r>  0.0004  0.0019  0.0025 </r>
        <r>  0.0021  0.0014  0.0022 </r>
        <r>  0.0007  0.0050  0.0028 </r>
        <r>  0.0015  0.0008  0.0026 </r>
        <r>  0.0019  0.0014  0.0027 </r>
        <r>  0.0000  0.0062  0.0023 </r>
        <r>  0.0006  0.0018  0.0021 </r>
       </set>
       <set comment="band 107">
        <r>  0.0004  0.0030  0.0383 </r>
        <r>  0.0010  0.0014  0.0215 </r>
        <r>  0.0011  0.0015  0.0216 </r>
        <r>  0.0003  0.0029  0.0379 </r>
        <r>  0.0001  0.0007  0.0005 </r>
        <r>  0.0000  0.0032  0.0003 </r>
        <r>  0.0002  0.0054  0.0014 </r>
        <r>  0.0001  0.0109  0.0013 </r>
        <r>  0.0002  0.0024  0.0010 </r>
        <r>  0.0008  0.0059  0.0015 </r>
        <r>  0.0008  0.0058  0.0014 </r>
        <r>  0.0002  0.0025  0.0010 </r>
        <r>  0.0015  0.0022  0.0034 </r>
        <r>  0.0014  0.0045  0.0057 </r>
        <r>  0.0004  0.0025  0.0024 </r>
        <r>  0.0000  0.0017  0.0024 </r>
        <r>  0.0000  0.0017  0.0025 </r>
        <r>  0.0004  0.0024  0.0024 </r>
        <r>  0.0015  0.0022  0.0033 </r>
        <r>  0.0014  0.0045  0.0058 </r>
       </set>
       <set comment="band 108">
        <r>  0.0003  0.0029  0.0379 </r>
        <r>  0.0011  0.0015  0.0216 </r>
        <r>  0.0010  0.0014  0.0215 </r>
        <r>  0.0004  0.0030  0.0383 </r>
        <r>  0.0001  0.0109  0.0013 </r>
        <r>  0.0002  0.0054  0.0014 </r>
        <r>  0.0000  0.0032  0.0003 </r>
        <r>  0.0001  0.0007  0.0005 </r>
        <r>  0.0002  0.0025  0.0010 </r>
        <r>  0.0008  0.0058  0.0014 </r>
        <r>  0.0008  0.0059  0.0015 </r>
        <r>  0.0002  0.0024  0.0010 </r>
        <r>  0.0000  0.0017  0.0024 </r>
        <r>  0.0004  0.0025  0.0024 </r>
        <r>  0.0014  0.0045  0.0057 </r>
        <r>  0.0015  0.0022  0.0034 </r>
        <r>  0.0015  0.0022  0.0033 </r>
        <r>  0.0014  0.0045  0.0058 </r>
        <r>  0.0000  0.0017  0.0025 </r>
        <r>  0.0004  0.0024  0.0024 </r>
       </set>
       <set comment="band 109">
        <r>  0.0003  0.0042  0.0240 </r>
        <r>  0.0001  0.0028  0.0309 </r>
        <r>  0.0002  0.0038  0.0320 </r>
        <r>  0.0002  0.0027  0.0219 </r>
        <r>  0.0000  0.0011  0.0006 </r>
        <r>  0.0001  0.0038  0.0005 </r>
        <r>  0.0000  0.0055  0.0018 </r>
        <r>  0.0000  0.0119  0.0008 </r>
        <r>  0.0016  0.0041  0.0026 </r>
        <r>  0.0001  0.0058  0.0029 </r>
        <r>  0.0001  0.0050  0.0023 </r>
        <r>  0.0026  0.0035  0.0032 </r>
        <r>  0.0025  0.0029  0.0045 </r>
        <r>  0.0000  0.0033  0.0016 </r>
        <r>  0.0005  0.0024  0.0026 </r>
        <r>  0.0012  0.0029  0.0020 </r>
        <r>  0.0016  0.0034  0.0030 </r>
        <r>  0.0004  0.0023  0.0019 </r>
        <r>  0.0021  0.0023  0.0036 </r>
        <r>  0.0001  0.0033  0.0023 </r>
       </set>
       <set comment="band 110">
        <r>  0.0002  0.0027  0.0219 </r>
        <r>  0.0002  0.0038  0.0320 </r>
        <r>  0.0001  0.0028  0.0310 </r>
        <r>  0.0003  0.0042  0.0240 </r>
        <r>  0.0000  0.0119  0.0008 </r>
        <r>  0.0000  0.0055  0.0018 </r>
        <r>  0.0001  0.0038  0.0005 </r>
        <r>  0.0000  0.0011  0.0006 </r>
        <r>  0.0026  0.0035  0.0032 </r>
        <r>  0.0001  0.0050  0.0023 </r>
        <r>  0.0001  0.0058  0.0029 </r>
        <r>  0.0016  0.0041  0.0026 </r>
        <r>  0.0012  0.0029  0.0020 </r>
        <r>  0.0005  0.0023  0.0026 </r>
        <r>  0.0000  0.0033  0.0016 </r>
        <r>  0.0025  0.0029  0.0045 </r>
        <r>  0.0021  0.0023  0.0035 </r>
        <r>  0.0001  0.0033  0.0023 </r>
        <r>  0.0016  0.0035  0.0030 </r>
        <r>  0.0004  0.0023  0.0019 </r>
       </set>
       <set comment="band 111">
        <r>  0.0033  0.0021  0.0325 </r>
        <r>  0.0008  0.0018  0.0180 </r>
        <r>  0.0019  0.0029  0.0323 </r>
        <r>  0.0014  0.0015  0.0336 </r>
        <r>  0.0000  0.0032  0.0009 </r>
        <r>  0.0003  0.0010  0.0011 </r>
        <r>  0.0000  0.0106  0.0005 </r>
        <r>  0.0001  0.0006  0.0013 </r>
        <r>  0.0000  0.0046  0.0008 </r>
        <r>  0.0008  0.0066  0.0024 </r>
        <r>  0.0003  0.0029  0.0025 </r>
        <r>  0.0001  0.0104  0.0013 </r>
        <r>  0.0015  0.0047  0.0036 </r>
        <r>  0.0000  0.0065  0.0019 </r>
        <r>  0.0014  0.0022  0.0046 </r>
        <r>  0.0002  0.0014  0.0017 </r>
        <r>  0.0000  0.0029  0.0015 </r>
        <r>  0.0011  0.0009  0.0030 </r>
        <r>  0.0017  0.0032  0.0038 </r>
        <r>  0.0004  0.0078  0.0035 </r>
       </set>
       <set comment="band 112">
        <r>  0.0014  0.0015  0.0336 </r>
        <r>  0.0019  0.0029  0.0325 </r>
        <r>  0.0009  0.0018  0.0180 </r>
        <r>  0.0033  0.0021  0.0324 </r>
        <r>  0.0001  0.0006  0.0013 </r>
        <r>  0.0000  0.0105  0.0005 </r>
        <r>  0.0003  0.0010  0.0011 </r>
        <r>  0.0000  0.0032  0.0009 </r>
        <r>  0.0001  0.0104  0.0013 </r>
        <r>  0.0003  0.0029  0.0024 </r>
        <r>  0.0008  0.0066  0.0024 </r>
        <r>  0.0000  0.0046  0.0008 </r>
        <r>  0.0002  0.0014  0.0017 </r>
        <r>  0.0014  0.0021  0.0046 </r>
        <r>  0.0000  0.0065  0.0019 </r>
        <r>  0.0015  0.0047  0.0036 </r>
        <r>  0.0017  0.0032  0.0038 </r>
        <r>  0.0003  0.0078  0.0035 </r>
        <r>  0.0000  0.0029  0.0015 </r>
        <r>  0.0011  0.0009  0.0030 </r>
       </set>
      </set>
     </set>
    </set>
   </array>
  </projected>
 </calculation>
 <structure name="finalpos" >
  <crystal>
   <varray name="basis" >
    <v>       8.33494386       0.00000000       0.00000000 </v>
    <v>       0.00000000      11.71447924       0.00000000 </v>
    <v>       0.00000000       0.00000000       8.23954016 </v>
   </varray>
   <i name="volume">    804.50480263 </i>
   <varray name="rec_basis" >
    <v>       0.11997681       0.00000000       0.00000000 </v>
    <v>       0.00000000       0.08536444       0.00000000 </v>
    <v>       0.00000000       0.00000000       0.12136600 </v>
   </varray>
  </crystal>
  <varray name="positions" >
   <v>       0.05664216       0.25000000       0.48555759 </v>
   <v>       0.44335784       0.75000000       0.98555759 </v>
   <v>       0.55664216       0.25000000       0.01444241 </v>
   <v>       0.94335784       0.75000000       0.51444241 </v>
   <v>       0.00000000       0.00000000       0.00000000 </v>
   <v>       0.50000000       0.00000000       0.50000000 </v>
   <v>       0.50000000       0.50000000       0.50000000 </v>
   <v>       0.00000000       0.50000000       0.00000000 </v>
   <v>       0.50707456       0.75000000       0.42857424 </v>
   <v>       0.99292544       0.25000000       0.92857424 </v>
   <v>       0.00707456       0.75000000       0.07142576 </v>
   <v>       0.49292544       0.25000000       0.57142576 </v>
   <v>       0.29396437       0.46377303       0.20501514 </v>
   <v>       0.20603563       0.53622697       0.70501514 </v>
   <v>       0.79396437       0.03622697       0.29498486 </v>
   <v>       0.70603563       0.96377303       0.79498486 </v>
   <v>       0.29396437       0.03622697       0.20501514 </v>
   <v>       0.20603563       0.96377303       0.70501514 </v>
   <v>       0.70603563       0.53622697       0.79498486 </v>
   <v>       0.79396437       0.46377303       0.29498486 </v>
  </varray>
 </structure>
</modeling>
