 running on   64 total cores
 distrk:  each k-point on   64 cores,    1 groups
 distr:  one band on    8 cores,    8 groups
 using from now: INCAR     
 vasp.5.4.4.18Apr17-6-g9f103f2a35 (build Jun 29 2021 13:39:03) complex           
 POSCAR found type information on POSCAR  Cs Pb Br
 POSCAR found :  3 types and      20 ions
 scaLAPACK will be used
 LDA part: xc-table for Pade appr. of Perdew
 POSCAR found type information on POSCAR  Cs Pb Br
 POSCAR found :  3 types and      20 ions
 POSCAR, INCAR and KPOINTS ok, starting setup
 FFT: planning ...
 WAVECAR not read
 entering main loop
       N       E                     dE             d eps       ncg     rms          rms(c)
DAV:   1     0.657059942797E+03    0.65706E+03   -0.56235E+04  1832   0.924E+02
DAV:   2    -0.576434208393E+03   -0.12335E+04   -0.11813E+04  2192   0.285E+02
DAV:   3    -0.749099150793E+03   -0.17266E+03   -0.17162E+03  2440   0.127E+02
DAV:   4    -0.754525554907E+03   -0.54264E+01   -0.54070E+01  2152   0.296E+01
DAV:   5    -0.754778085655E+03   -0.25253E+00   -0.25235E+00  2352   0.512E+00    0.705E+00
DAV:   6    -0.715005595294E+03    0.39772E+02   -0.11771E+01  2384   0.283E+01    0.502E+00
DAV:   7    -0.714777216191E+03    0.22838E+00   -0.38074E+00  2240   0.481E+00    0.258E+00
DAV:   8    -0.714871477536E+03   -0.94261E-01   -0.18007E-01  2168   0.169E+00    0.148E+00
DAV:   9    -0.714912549624E+03   -0.41072E-01   -0.81188E-02  1976   0.118E+00    0.324E-01
DAV:  10    -0.714913291512E+03   -0.74189E-03   -0.44756E-03  2568   0.316E-01    0.183E-01
DAV:  11    -0.714914743772E+03   -0.14523E-02   -0.16070E-03  2008   0.164E-01    0.670E-02
DAV:  12    -0.714914816088E+03   -0.72316E-04   -0.45686E-04  2144   0.932E-02    0.236E-02
DAV:  13    -0.714914833137E+03   -0.17049E-04   -0.36545E-05  2208   0.230E-02    0.685E-03
DAV:  14    -0.714914842779E+03   -0.96425E-05   -0.26420E-06  1728   0.511E-03    0.201E-03
DAV:  15    -0.714914848413E+03   -0.56335E-05   -0.61396E-07  1256   0.369E-03    0.952E-04
DAV:  16    -0.714914844613E+03    0.37998E-05   -0.13249E-07  1184   0.199E-03    0.521E-04
DAV:  17    -0.714914843697E+03    0.91587E-06   -0.35154E-08  1136   0.909E-04
   1 F= -.71491484E+03 E0= -.71491484E+03  d E =-.971858E-16
Application 1866169 resources: utime ~7615s, stime ~70s, Rss ~78284, inblocks ~1328, outblocks ~50744
