CsPbBr3 cubic bulk                      
           1
     8.334944    0.000000    0.000000
     0.000000   11.714479    0.000000
     0.000000    0.000000    8.239540
   Cs   Pb   Br
   4   4  12
Direct configuration=     1
   0.05664216  0.25000000  0.48555759
   0.44335784  0.75000000  0.98555759
   0.55664216  0.25000000  0.01444241
   0.94335784  0.75000000  0.51444241
   0.00000000  0.00000000  0.00000000
   0.50000000  0.00000000  0.50000000
   0.50000000  0.50000000  0.50000000
   0.00000000  0.50000000  0.00000000
   0.50707456  0.75000000  0.42857424
   0.99292544  0.25000000  0.92857424
   0.00707456  0.75000000  0.07142576
   0.49292544  0.25000000  0.57142576
   0.29396437  0.46377303  0.20501514
   0.20603563  0.53622697  0.70501514
   0.79396437  0.03622697  0.29498486
   0.70603563  0.96377303  0.79498486
   0.29396437  0.03622697  0.20501514
   0.20603563  0.96377303  0.70501514
   0.70603563  0.53622697  0.79498486
   0.79396437  0.46377303  0.29498486
