 vasp.5.4.4.18Apr17-6-g9f103f2a35 (build Jun 22 2020 09:27:21) complex           
 executed on tx2_gcc-7.3_libsci-1 date 2021.10.11  19:32:31
 running on   64 total cores
 distrk:  each k-point on   64 cores,    1 groups
 distr:  one band on NCORES_PER_BAND=   8 cores,    8 groups


--------------------------------------------------------------------------------------------------------


 INCAR:
 POTCAR:    PAW_PBE Cs_sv 08Apr2002               
 POTCAR:    PAW_PBE Pb_d 06Sep2000                
 POTCAR:    PAW_PBE Br 06Sep2000                  
 POTCAR:    PAW_PBE Cs_sv 08Apr2002               
   SHA256 =  c1463496f0f6037ed62c6012a8013a89ee9ad6ffb38599dcd6c079e7ed31779b Cs
   COPYR  = (c) Copyright 08Apr2002 Georg Kresse                                
   COPYR  = This file is part of the software VASP. Any use, copying, and all ot
   COPYR  = If you do not have a valid VASP license, you may not use, copy or di
   VRHFIN =Cs: 5s5p6s                                                           
   LEXCH  = PE                                                                  
   EATOM  =   555.6835 eV,   40.8416 Ry                                         
                                                                                
   TITEL  = PAW_PBE Cs_sv 08Apr2002                                             
   LULTRA =        F    use ultrasoft PP ?                                      
   IUNSCR =        1    unscreen: 0-lin 1-nonlin 2-no                           
   RPACOR =    2.200    partial core radius                                     
   POMASS =  132.900; ZVAL   =    9.000    mass and valenz                      
   RCORE  =    2.500    outmost cutoff radius                                   
   RWIGS  =    2.500; RWIGS  =    1.323    wigner-seitz radius (au A)           
   ENMAX  =  220.318; ENMIN  =  165.238 eV                                      
   RCLOC  =    2.207    cutoff for local pot                                    
   LCOR   =        T    correct aug charges                                     
   LPAW   =        T    paw PP                                                  
   EAUG   =  407.933                                                            
   DEXC   =    0.000                                                            
   RMAX   =    2.554    core radius for proj-oper                               
   RAUG   =    1.300    factor for augmentation sphere                          
   RDEP   =    2.590    radius for radial grids                                 
   RDEPT  =    2.117    core radius for aug-charge                              
                                                                                
   Atomic configuration                                                         
   13 entries                                                                   
     n  l   j            E        occ.                                          
     1  0  0.50    -35790.1377   2.0000                                         
     2  0  0.50     -5613.6201   2.0000                                         
     2  1  1.50     -5035.0101   6.0000                                         
     3  0  0.50     -1167.0767   2.0000                                         
     3  1  1.50      -980.9754   6.0000                                         
     3  2  2.50      -708.0703  10.0000                                         
     4  0  0.50      -220.2386   2.0000                                         
     4  1  1.50      -160.7596   6.0000                                         
     4  2  2.50       -74.2354  10.0000                                         
     5  0  0.50       -26.7287   2.0000                                         
     6  0  0.50        -2.0862   1.0000                                         
     5  1  1.50       -13.5159   6.0000                                         
     5  2  2.50        -0.4136   0.0000                                         
   Description                                                                  
     l       E           TYP  RCUT    TYP  RCUT                                 
     0    -26.7287425     23  1.900                                             
     0     -2.0862306     23  1.900                                             
     1    -13.5158719     23  2.500                                             
     1     -2.7211652     23  2.500                                             
     2     -0.4136171     23  2.500                                             
  local pseudopotential read in
  partial core-charges read in
  partial kinetic energy density read in
  atomic valenz-charges read in
  non local Contribution for L=           0  read in
    real space projection operators read in
  non local Contribution for L=           0  read in
    real space projection operators read in
  non local Contribution for L=           1  read in
    real space projection operators read in
  non local Contribution for L=           1  read in
    real space projection operators read in
  non local Contribution for L=           2  read in
    real space projection operators read in
    PAW grid and wavefunctions read in

   number of l-projection  operators is LMAX  =           5
   number of lm-projection operators is LMMAX =          13

 POTCAR:    PAW_PBE Pb_d 06Sep2000                
   SHA256 =  fb885b08f0fba73a15f6a6b0e39bd200c13ec96ef97cf3ecd8e63bade5137abd Pb
   COPYR  = (c) Copyright 06Sep2000 Georg Kresse                                
   COPYR  = This file is part of the software VASP. Any use, copying, and all ot
   COPYR  = If you do not have a valid VASP license, you may not use, copy or di
   VRHFIN =Pb:                                                                  
   LEXCH  = PE                                                                  
   EATOM  =  1661.6185 eV,  122.1255 Ry                                         
                                                                                
   TITEL  = PAW_PBE Pb_d 06Sep2000                                              
   LULTRA =        F    use ultrasoft PP ?                                      
   IUNSCR =        1    unscreen: 0-lin 1-nonlin 2-no                           
   RPACOR =    2.200    partial core radius                                     
   POMASS =  207.200; ZVAL   =   14.000    mass and valenz                      
   RCORE  =    2.500    outmost cutoff radius                                   
   RWIGS  =    3.260; RWIGS  =    1.725    wigner-seitz radius (au A)           
   ENMAX  =  237.835; ENMIN  =  178.376 eV                                      
   ICORE  =        3    local potential                                         
   LCOR   =        T    correct aug charges                                     
   LPAW   =        T    paw PP                                                  
   EAUG   =  391.914                                                            
   DEXC   =    0.000                                                            
   RMAX   =    2.565    core radius for proj-oper                               
   RAUG   =    1.300    factor for augmentation sphere                          
   RDEP   =    2.643    radius for radial grids                                 
   RDEPT  =    2.092    core radius for aug-charge                              
                                                                                
   Atomic configuration                                                         
   16 entries                                                                   
     n  l   j            E        occ.                                          
     1  0  0.50    -88091.8466   2.0000                                         
     2  0  0.50    -15753.4197   2.0000                                         
     2  1  1.50    -13508.1797   6.0000                                         
     3  0  0.50     -3781.7194   2.0000                                         
     3  1  1.50     -3138.2529   6.0000                                         
     3  2  2.50     -2483.2977  10.0000                                         
     4  0  0.50      -856.2895   2.0000                                         
     4  1  1.50      -645.4942   6.0000                                         
     4  2  2.50      -401.8768  10.0000                                         
     4  3  3.50      -132.9059  14.0000                                         
     5  0  0.50      -144.0950   2.0000                                         
     5  1  1.50       -85.7879   6.0000                                         
     5  2  2.50       -21.1769  10.0000                                         
     6  0  0.50       -12.0372   2.0000                                         
     6  1  1.50        -3.4971   2.0000                                         
     5  3  2.50        -2.7212   0.0000                                         
   Description                                                                  
     l       E           TYP  RCUT    TYP  RCUT                                 
     2    -21.1768523     23  2.500                                             
     2      1.3605826     23  2.500                                             
     0    -12.0371562     23  2.500                                             
     0     13.6058260     23  2.500                                             
     1     -3.4971339     23  2.500                                             
     1     13.6058260     23  2.500                                             
     3     -1.3605826      7  2.500                                             
  local pseudopotential read in
  partial core-charges read in
  partial kinetic energy density read in
  atomic valenz-charges read in
  non local Contribution for L=           2  read in
    real space projection operators read in
  non local Contribution for L=           2  read in
    real space projection operators read in
  non local Contribution for L=           0  read in
    real space projection operators read in
  non local Contribution for L=           0  read in
    real space projection operators read in
  non local Contribution for L=           1  read in
    real space projection operators read in
  non local Contribution for L=           1  read in
    real space projection operators read in
    PAW grid and wavefunctions read in

   number of l-projection  operators is LMAX  =           6
   number of lm-projection operators is LMMAX =          18

 POTCAR:    PAW_PBE Br 06Sep2000                  
   SHA256 =  96a73d2954943bbee26f4990d676cc6c3bf44b8dd2c75cd4b3b825d8403f0103 Br
   COPYR  = (c) Copyright 06Sep2000 Georg Kresse                                
   COPYR  = This file is part of the software VASP. Any use, copying, and all ot
   COPYR  = If you do not have a valid VASP license, you may not use, copy or di
   VRHFIN =Br: s2p5                                                             
   LEXCH  = PE                                                                  
   EATOM  =   368.4488 eV,   27.0802 Ry                                         
                                                                                
   TITEL  = PAW_PBE Br 06Sep2000                                                
   LULTRA =        F    use ultrasoft PP ?                                      
   IUNSCR =        1    unscreen: 0-lin 1-nonlin 2-no                           
   RPACOR =    1.900    partial core radius                                     
   POMASS =   79.904; ZVAL   =    7.000    mass and valenz                      
   RCORE  =    2.100    outmost cutoff radius                                   
   RWIGS  =    2.200; RWIGS  =    1.164    wigner-seitz radius (au A)           
   ENMAX  =  216.285; ENMIN  =  162.214 eV                                      
   ICORE  =        3    local potential                                         
   LCOR   =        T    correct aug charges                                     
   LPAW   =        T    paw PP                                                  
   EAUG   =  503.852                                                            
   DEXC   =    0.000                                                            
   RMAX   =    2.139    core radius for proj-oper                               
   RAUG   =    1.300    factor for augmentation sphere                          
   RDEP   =    2.186    radius for radial grids                                 
   RDEPT  =    1.890    core radius for aug-charge                              
                                                                                
   Atomic configuration                                                         
   10 entries                                                                   
     n  l   j            E        occ.                                          
     1  0  0.50    -13316.2796   2.0000                                         
     2  0  0.50     -1732.8239   2.0000                                         
     2  1  1.50     -1528.2193   6.0000                                         
     3  0  0.50      -238.0460   2.0000                                         
     3  1  1.50      -173.4609   6.0000                                         
     3  2  2.50       -66.7132  10.0000                                         
     4  0  0.50       -20.1334   2.0000                                         
     4  1  0.50        -7.8591   5.0000                                         
     4  2  2.50        -8.1635   0.0000                                         
     4  3  2.50        -8.1635   0.0000                                         
   Description                                                                  
     l       E           TYP  RCUT    TYP  RCUT                                 
     0    -20.1333652     23  2.100                                             
     0    -21.4939478     23  2.100                                             
     1     -7.8591052     23  2.100                                             
     1     -3.1608434     23  2.100                                             
     2     -8.1634956     23  2.100                                             
     3     -1.3605826      7  2.100                                             
  local pseudopotential read in
  partial core-charges read in
  partial kinetic energy density read in
  atomic valenz-charges read in
  non local Contribution for L=           0  read in
    real space projection operators read in
  non local Contribution for L=           0  read in
    real space projection operators read in
  non local Contribution for L=           1  read in
    real space projection operators read in
  non local Contribution for L=           1  read in
    real space projection operators read in
  non local Contribution for L=           2  read in
    real space projection operators read in
    PAW grid and wavefunctions read in

   number of l-projection  operators is LMAX  =           5
   number of lm-projection operators is LMMAX =          13

 Optimization of the real space projectors (new method)

 maximal supplied QI-value         = 15.12
 optimisation between [QCUT,QGAM] = [  8.77, 17.69] = [ 21.53, 87.61] Ry 
 Optimized for a Real-space Cutoff    1.85 Angstroem

   l    n(q)    QCUT    max X(q) W(low)/X(q) W(high)/X(q)  e(spline) 
   0     10     8.768    25.322    0.81E-04    0.51E-04    0.48E-06
   0     10     8.768    99.187    0.78E-04    0.50E-04    0.47E-06
   1      9     8.768    11.761    0.21E-03    0.20E-03    0.37E-06
   1      9     8.768     8.275    0.24E-03    0.22E-03    0.41E-06
   2      9     8.768     3.829    0.23E-04    0.15E-03    0.18E-06
 Optimization of the real space projectors (new method)

 maximal supplied QI-value         = 15.12
 optimisation between [QCUT,QGAM] = [  8.77, 17.69] = [ 21.53, 87.61] Ry 
 Optimized for a Real-space Cutoff    1.59 Angstroem

   l    n(q)    QCUT    max X(q) W(low)/X(q) W(high)/X(q)  e(spline) 
   2      7     8.768     3.846    0.48E-04    0.11E-03    0.11E-06
   2      7     8.768     8.593    0.20E-03    0.22E-04    0.24E-06
   0      8     8.768    20.082    0.68E-04    0.88E-04    0.41E-07
   0      8     8.768     8.597    0.89E-04    0.13E-03    0.59E-07
   1      8     8.768    33.223    0.15E-03    0.53E-04    0.87E-07
   1      8     8.768    15.899    0.14E-03    0.44E-04    0.78E-07
 Optimization of the real space projectors (new method)

 maximal supplied QI-value         = 17.95
 optimisation between [QCUT,QGAM] = [  8.80, 17.59] = [ 21.67, 86.68] Ry 
 Optimized for a Real-space Cutoff    1.59 Angstroem

   l    n(q)    QCUT    max X(q) W(low)/X(q) W(high)/X(q)  e(spline) 
   0      8     8.797   175.082    0.82E-04    0.14E-03    0.89E-07
   0      8     8.797   174.004    0.79E-04    0.14E-03    0.86E-07
   1      8     8.797    54.315    0.16E-03    0.14E-04    0.30E-06
   1      8     8.797    42.441    0.16E-03    0.14E-04    0.30E-06
   2      7     8.797     3.596    0.92E-04    0.15E-03    0.85E-07
  PAW_PBE Cs_sv 08Apr2002               :
 energy of atom  1       EATOM= -555.6835
 kinetic energy error for atom=    0.0069 (will be added to EATOM!!)
  PAW_PBE Pb_d 06Sep2000                :
 energy of atom  2       EATOM=-1661.6185
 kinetic energy error for atom=    0.0498 (will be added to EATOM!!)
  PAW_PBE Br 06Sep2000                  :
 energy of atom  3       EATOM= -368.4488
 kinetic energy error for atom=    0.0072 (will be added to EATOM!!)


 POSCAR: Cs8 Pb8 Br23                            
  positions in direct lattice
  No initial velocities read in

 METAGGA = SCAN     LMAXTAU =  6    LMIXTAU =  F

 exchange correlation table for  LEXCH =        8
   RHO(1)=    0.500       N(1)  =     2000
   RHO(2)=  100.500       N(2)  =     4000

 VTST: version 3.2, (02/03/18)

 CHAIN: initializing optimizer
 
 OPT: Using VASP Conjugate-Gradient optimizer
 CHAIN: Read ICHAIN            0

 POSCAR: Cs8 Pb8 Br23                            
  positions in direct lattice
  No initial velocities read in



--------------------------------------------------------------------------------------------------------


 ion  position               nearest neighbor table
   1  0.267  0.251  0.202-
   2  0.771  0.247  0.723-
   3  0.705  0.755  0.252-  39 2.91
   4  0.211  0.750  0.780-
   5  0.297  0.254  0.738-
   6  0.790  0.248  0.222-
   7  0.733  0.750  0.807-
   8  0.229  0.748  0.278-
   9  0.001  0.001  0.999-  18 2.96  20 2.97  29 2.99  31 2.99  28 3.01  34 3.03
  10  0.500  0.006  0.498-  19 2.90  33 2.97  27 2.99  32 3.00  30 3.04
  11  0.498  0.001  0.999-  21 2.97  17 2.97  31 2.98  29 3.00  27 3.01  33 3.03
  12  0.003  0.012  0.502-  22 2.92  34 2.98  28 2.98  30 2.99  32 3.01
  13  0.500  0.500  0.000-  21 2.97  17 2.98  23 2.99  35 2.99  37 3.01  25 3.02
  14  0.990  0.495  0.501-  24 2.90  22 2.91  26 2.95  38 3.01  36 3.19
  15  1.000  0.500  0.001-  18 2.96  20 2.97  35 2.99  23 2.99  38 3.00  26 3.04
  16  0.503  0.497  0.500-  25 2.98  24 2.98  37 2.99  19 2.99  36 3.01
  17  0.473  0.751  0.969-  11 2.97  13 2.98
  18  0.973  0.250  0.971-  15 2.96   9 2.96
  19  0.455  0.248  0.469-  10 2.90  16 2.99
  20  0.024  0.750  0.031-   9 2.97  15 2.97
  21  0.526  0.251  0.034-  11 2.97  13 2.97
  22  0.038  0.255  0.543-  14 2.91  12 2.92
  23  0.248  0.472  0.953-  13 2.99  15 2.99
  24  0.748  0.449  0.455-  14 2.90  16 2.98
  25  0.456  0.538  0.250-  16 2.98  13 3.02
  26  0.951  0.536  0.746-  14 2.95  15 3.04
  27  0.549  0.030  0.750-  10 2.99  11 3.01
  28  0.049  0.031  0.253-  12 2.98   9 3.01
  29  0.753  0.976  0.044-   9 2.99  11 3.00
  30  0.251  0.954  0.545-  12 2.99  10 3.04
  31  0.248  0.031  0.947-  11 2.98   9 2.99
  32  0.748  0.031  0.448-  10 3.00  12 3.01
  33  0.451  0.964  0.249-  10 2.97  11 3.03
  34  0.952  0.963  0.745-  12 2.98   9 3.03
  35  0.752  0.528  0.050-  13 2.99  15 2.99
  36  0.257  0.549  0.545-  16 3.01  14 3.19
  37  0.552  0.469  0.752-  16 2.99  13 3.01
  38  0.047  0.469  0.254-  15 3.00  14 3.01
  39  0.743  0.737  0.499-   3 2.91


IMPORTANT INFORMATION: All symmetrisations will be switched off!
NOSYMM: (Re-)initialisation of all symmetry stuff for point group C_1.



 KPOINTS: 1x1x1                                   

Automatic generation of k-mesh.
Space group operators:
 irot       det(A)        alpha          n_x          n_y          n_z        tau_x        tau_y        tau_z
    1     1.000000     0.000001     1.000000     0.000000     0.000000     0.000000     0.000000     0.000000
 
 Subroutine IBZKPT returns following result:
 ===========================================
 
 Found      8 irreducible k-points:
 
 Following reciprocal coordinates:
            Coordinates               Weight
  0.000000  0.000000  0.000000      1.000000
  0.500000  0.000000  0.000000      1.000000
  0.000000  0.500000  0.000000      1.000000
  0.500000  0.500000  0.000000      1.000000
  0.000000  0.000000  0.500000      1.000000
  0.500000  0.000000  0.500000      1.000000
  0.000000  0.500000  0.500000      1.000000
  0.500000  0.500000  0.500000      1.000000
 
 Following cartesian coordinates:
            Coordinates               Weight
 -0.000000  0.000000  0.000000      1.000000
  0.029563  0.000000  0.031093      1.000000
 -0.000000  0.042626  0.000000      1.000000
  0.029563  0.042626  0.031093      1.000000
 -0.029563  0.000000  0.031093      1.000000
  0.000000  0.000000  0.062187      1.000000
 -0.029563  0.042626  0.031093      1.000000
  0.000000  0.042626  0.062187      1.000000
 


--------------------------------------------------------------------------------------------------------




 Dimension of arrays:
   k-points           NKPTS =      8   k-points in BZ     NKDIM =      8   number of bands    NBANDS=    208
   number of dos      NEDOS =    301   number of ions     NIONS =     39
   non local maximal  LDIM  =      6   non local SUM 2l+1 LMDIM =     18
   total plane-waves  NPLWV = 343000
   max r-space proj   IRMAX =   5734   max aug-charges    IRDMAX=  91523
   dimension x,y,z NGX =    70 NGY =   70 NGZ =   70
   dimension x,y,z NGXF=   140 NGYF=  140 NGZF=  140
   support grid    NGXF=   280 NGYF=  280 NGZF=  280
   ions per type =               8   8  23
   NGX,Y,Z   is equivalent  to a cutoff of   9.97,  9.92,  9.97 a.u.
   NGXF,Y,Z  is equivalent  to a cutoff of  19.95, 19.84, 19.95 a.u.

 SYSTEM =  CsPbBr3 cubic bulk                      
 POSCAR =  Cs8 Pb8 Br23                            

 Startparameter for this run:
   NWRITE =      2    write-flag & timer
   PREC   = accura    normal or accurate (medium, high low for compatibility)
   ISTART =      0    job   : 0-new  1-cont  2-samecut
   ICHARG =      2    charge: 1-file 2-atom 10-const
   ISPIN  =      1    spin polarized calculation?
   LNONCOLLINEAR =      F non collinear calculations
   LSORBIT =      F    spin-orbit coupling
   INIWAV =      1    electr: 0-lowe 1-rand  2-diag
   LASPH  =      T    aspherical Exc in radial PAW
   METAGGA=      F    non-selfconsistent MetaGGA calc.

 Electronic Relaxation 1
   ENCUT  =  300.0 eV  22.05 Ry    4.70 a.u.  16.48 16.57 16.48*2*pi/ulx,y,z
   ENINI  =  300.0     initial cutoff
   ENAUG  =  503.9 eV  augmentation charge cutoff
   NELM   =    200;   NELMIN=  2; NELMDL= -5     # of ELM steps 
   EDIFF  = 0.1E-05   stopping-criterion for ELM
   LREAL  =      T    real-space projection
   NLSPLINE    = F    spline interpolate recip. space projectors
   LCOMPAT=      F    compatible to vasp.4.4
   GGA_COMPAT  = T    GGA compatible to vasp.4.4-vasp.4.6
   LMAXPAW     = -100 max onsite density
   LMAXMIX     =    2 max onsite mixed and CHGCAR
   VOSKOWN=      0    Vosko Wilk Nusair interpolation
   ROPT   =   -0.00025  -0.00025  -0.00025
 Ionic relaxation
   EDIFFG = -.1E-01   stopping-criterion for IOM
   NSW    =      0    number of steps for IOM
   NBLOCK =      1;   KBLOCK =      1    inner block; outer block 
   IBRION =     -1    ionic relax: 0-MD 1-quasi-New 2-CG
   NFREE  =      1    steps in history (QN), initial steepest desc. (CG)
   ISIF   =      2    stress and relaxation
   IWAVPR =     10    prediction:  0-non 1-charg 2-wave 3-comb
   ISYM   =      0    0-nonsym 1-usesym 2-fastsym
   LCORR  =      T    Harris-Foulkes like correction to forces

   POTIM  = 0.5000    time-step for ionic-motion
   TEIN   =    0.0    initial temperature
   TEBEG  =    0.0;   TEEND  =   0.0 temperature during run
   SMASS  =  -3.00    Nose mass-parameter (am)
   estimated Nose-frequenzy (Omega)   =  0.10E-29 period in steps =****** mass=  -0.311E-26a.u.
   SCALEE = 1.0000    scale energy and forces
   NPACO  =    256;   APACO  = 16.0  distance and # of slots for P.C.
   PSTRESS=    0.0 pullay stress

  Mass of Ions in am
   POMASS = 132.90207.20 79.90
  Ionic Valenz
   ZVAL   =   9.00 14.00  7.00
  Atomic Wigner-Seitz radii
   RWIGS  =  -1.00 -1.00 -1.00
  virtual crystal weights 
   VCA    =   1.00  1.00  1.00
   NELECT =     344.0000    total number of electrons
   NUPDOWN=       0.0000    fix difference up-down

 DOS related values:
   EMIN   =  10.00;   EMAX   =-10.00  energy-range for DOS
   EFERMI =   0.00
   ISMEAR =     0;   SIGMA  =   0.01  broadening in eV -4-tet -1-fermi 0-gaus

 Electronic relaxation 2 (details)
   IALGO  =     38    algorithm
   LDIAG  =      T    sub-space diagonalisation (order eigenvalues)
   LSUBROT=      F    optimize rotation matrix (better conditioning)
   TURBO    =      0    0=normal 1=particle mesh
   IRESTART =      0    0=no restart 2=restart with 2 vectors
   NREBOOT  =      0    no. of reboots
   NMIN     =      0    reboot dimension
   EREF     =   0.00    reference energy to select bands
   IMIX   =      4    mixing-type and parameters
     AMIX     =   0.40;   BMIX     =  1.00
     AMIX_MAG =   1.60;   BMIX_MAG =  1.00
     AMIN     =   0.10
     WC   =   100.;   INIMIX=   1;  MIXPRE=   1;  MAXMIX= -45

 Intra band minimization:
   WEIMIN = 0.0000     energy-eigenvalue tresh-hold
   EBREAK =  0.12E-08  absolut break condition
   DEPER  =   0.30     relativ break condition  

   TIME   =   0.40     timestep for ELM

  volume/ion in A,a.u.               =      40.90       276.00
  Fermi-wavevector in a.u.,A,eV,Ry     =   0.981747  1.855232 13.113654  0.963826
  Thomas-Fermi vector in A             =   2.112777

 Write flags
   LWAVE        =      F    write WAVECAR
   LDOWNSAMPLE  =      F    k-point downsampling of WAVECAR
   LCHARG       =      F    write CHGCAR
   LVTOT        =      F    write LOCPOT, total local potential
   LVHAR        =      T    write LOCPOT, Hartree potential only
   LELF         =      F    write electronic localiz. function (ELF)
   LORBIT       =     10    0 simple, 1 ext, 2 COOP (PROOUT), +10 PAW based schemes


 Dipole corrections
   LMONO  =      F    monopole corrections only (constant potential shift)
   LDIPOL =      F    correct potential (dipole corrections)
   IDIPOL =      0    1-x, 2-y, 3-z, 4-all directions 
   EPSILON=  1.0000000 bulk dielectric constant

 Exchange correlation treatment:
   GGA     =    --    GGA type
   LEXCH   =     8    internal setting for exchange type
   VOSKOWN=      0    Vosko Wilk Nusair interpolation
   LHFCALC =     F    Hartree Fock is set to
   LHFONE  =     F    Hartree Fock one center treatment
   AEXX    =    0.0000 exact exchange contribution

 Linear response parameters
   LEPSILON=     F    determine dielectric tensor
   LRPA    =     F    only Hartree local field effects (RPA)
   LNABLA  =     F    use nabla operator in PAW spheres
   LVEL    =     F    velocity operator in full k-point grid
   LINTERFAST=   F  fast interpolation
   KINTER  =     0    interpolate to denser k-point grid
   CSHIFT  =0.1000    complex shift for real part using Kramers Kronig
   OMEGAMAX=  -1.0    maximum frequency
   DEG_THRESHOLD= 0.2000000E-02 threshold for treating states as degnerate
   RTIME   =   -0.100 relaxation time in fs
  (WPLASMAI=    0.000 imaginary part of plasma frequency in eV, 0.658/RTIME)
   DFIELD  = 0.0000000 0.0000000 0.0000000 field for delta impulse in time

 Orbital magnetization related:
   ORBITALMAG=     F  switch on orbital magnetization
   LCHIMAG   =     F  perturbation theory with respect to B field
   DQ        =  0.001000  dq finite difference perturbation B field
   LLRAUG    =     F  two centre corrections for induced B field



--------------------------------------------------------------------------------------------------------


 Static calculation
 charge density and potential will be updated during run
 non-spin polarized calculation
 Variant of blocked Davidson
 Davidson routine will perform the subspace rotation
 perform sub-space diagonalisation
    after iterative eigenvector-optimisation
 modified Broyden-mixing scheme, WC =      100.0
 initial mixing is a Kerker type mixing with AMIX =  0.4000 and BMIX =      1.0000
 Hartree-type preconditioning will be used
 using additional bands           36
 real space projection scheme for non local part
 use partial core corrections
 calculate Harris-corrections to forces   (improved forces if not selfconsistent)
 use gradient corrections 
 use of overlap-Matrix (Vanderbilt PP)
 Gauss-broadening in eV      SIGMA  =   0.01


--------------------------------------------------------------------------------------------------------


  energy-cutoff  :      300.00
  volume of cell :     1595.09
      direct lattice vectors                 reciprocal lattice vectors
     8.456489000  0.000000000  8.040301000     0.059126193 -0.000000000  0.062186727
     0.000000000 11.729847000  0.000000000     0.000000000  0.085252604 -0.000000000
    -8.456489000  0.000000000  8.040301000    -0.059126193  0.000000000  0.062186727

  length of vectors
    11.668703715 11.729847000 11.668703715     0.085808482  0.085252604  0.085808482



 k-points in units of 2pi/SCALE and weight: 1x1x1                                   
  -0.00000000  0.00000000  0.00000000       0.125
   0.02956310  0.00000000  0.03109336       0.125
  -0.00000000  0.04262630  0.00000000       0.125
   0.02956310  0.04262630  0.03109336       0.125
  -0.02956310  0.00000000  0.03109336       0.125
   0.00000000  0.00000000  0.06218673       0.125
  -0.02956310  0.04262630  0.03109336       0.125
   0.00000000  0.04262630  0.06218673       0.125

 k-points in reciprocal lattice and weights: 1x1x1                                   
   0.00000000  0.00000000  0.00000000       0.125
   0.50000000  0.00000000  0.00000000       0.125
   0.00000000  0.50000000  0.00000000       0.125
   0.50000000  0.50000000  0.00000000       0.125
   0.00000000  0.00000000  0.50000000       0.125
   0.50000000  0.00000000  0.50000000       0.125
   0.00000000  0.50000000  0.50000000       0.125
   0.50000000  0.50000000  0.50000000       0.125

 position of ions in fractional coordinates (direct lattice) 
   0.26650300  0.25139500  0.20197500
   0.77070900  0.24703200  0.72348700
   0.70525100  0.75531100  0.25164400
   0.21091900  0.74969300  0.78022800
   0.29709700  0.25445100  0.73752700
   0.79014900  0.24840000  0.22191700
   0.73342200  0.75004200  0.80652500
   0.22898300  0.74840900  0.27832300
   0.00122700  0.00080200  0.99888800
   0.49978700  0.00625000  0.49768800
   0.49849500  0.00130900  0.99875100
   0.00286600  0.01222000  0.50170000
   0.50019400  0.50022800  0.00044700
   0.99033800  0.49543300  0.50113800
   0.99986500  0.49981200  0.00108700
   0.50344800  0.49655500  0.49977000
   0.47291700  0.75071500  0.96948400
   0.97310600  0.25036800  0.97105700
   0.45455700  0.24811500  0.46927400
   0.02407100  0.75047000  0.03145000
   0.52632200  0.25056100  0.03397900
   0.03805800  0.25530400  0.54262700
   0.24774700  0.47189900  0.95253100
   0.74792500  0.44884600  0.45483000
   0.45583800  0.53834900  0.25029800
   0.95111500  0.53605900  0.74569900
   0.54863800  0.02967700  0.75023000
   0.04887900  0.03135200  0.25332700
   0.75282800  0.97581500  0.04363200
   0.25097500  0.95427800  0.54466000
   0.24794200  0.03125700  0.94662400
   0.74842800  0.03115100  0.44822700
   0.45080500  0.96382600  0.24894500
   0.95238400  0.96256700  0.74468700
   0.75244500  0.52790800  0.05045700
   0.25692900  0.54886100  0.54487600
   0.55231500  0.46933800  0.75203100
   0.04726300  0.46870300  0.25420500
   0.74338700  0.73723900  0.49940900

 position of ions in cartesian coordinates  (Angst):
   0.54568032  2.94882489  3.76670413
   0.39933232  2.89764756 12.01378559
   3.83592261  8.85968247  7.69372383
  -4.81435530  8.79378419  7.96912022
  -3.72449145  2.98467130  8.31868838
   4.80524766  2.91369399  8.13731527
  -0.61819472  8.79787790 12.38163740
  -0.41724317  8.77872306  4.07889294
  -8.43670927  0.00940734  8.04122563
   0.01775017  0.07331154  8.01999924
  -4.23040936  0.01535437 12.03830851
  -4.21838423  0.14333873  4.05686251
   4.22610501  5.86759791  4.02530433
   4.13691442  5.81135329 11.99191597
   8.44615517  5.86271829  8.04795537
   0.03110297  5.82451418  8.06617469
  -4.19921337  8.80577209 11.59733820
   0.01732735  2.93677833 15.63165571
  -0.12445415  2.91035099  7.42787931
  -0.06240043  8.80289828  0.44640555
   4.16349316  2.93904219  4.50498869
  -4.26688220  2.99467686  4.66888219
  -5.95999814  5.53530307  9.65059640
   2.47855464  5.26489491  9.67051223
   1.73814675  6.31475140  5.67754599
   1.73709814  6.28789005 13.64289530
  -1.70476053  0.34810667 10.44328968
  -1.72891226  0.36775416  2.42982720
   5.99730817 11.44616065  6.40377813
  -2.48354397 11.19353494  6.39714489
  -5.90839665  0.36663983  9.60467020
   2.53864645  0.36539646  9.62146639
   1.70702687 11.30553151  5.62620062
   1.75638740 11.29076364 13.64496166
   5.93635380  6.19228007  6.45557375
  -2.43502064  6.43805555  6.44675354
  -1.68889616  5.50526293 10.48733445
  -1.75000275  5.49781448  2.42389346
   2.06319727  8.64770067  9.99245392



--------------------------------------------------------------------------------------------------------


 k-point  1 :   0.0000 0.0000 0.0000  plane waves:   18809
 k-point  2 :   0.5000 0.0000 0.0000  plane waves:   18808
 k-point  3 :   0.0000 0.5000 0.0000  plane waves:   18794
 k-point  4 :   0.5000 0.5000 0.0000  plane waves:   18804
 k-point  5 :   0.0000 0.0000 0.5000  plane waves:   18808
 k-point  6 :   0.5000 0.0000 0.5000  plane waves:   18790
 k-point  7 :   0.0000 0.5000 0.5000  plane waves:   18804
 k-point  8 :   0.5000 0.5000 0.5000  plane waves:   18800

 maximum and minimum number of plane-waves per node :      2389     2304

 maximum number of plane-waves:     18809
 maximum index in each direction: 
   IXMAX=   16   IYMAX=   16   IZMAX=   16
   IXMIN=  -16   IYMIN=  -17   IZMIN=  -16


 real space projection operators:
  total allocation   :      16739.74 KBytes
  max/ min on nodes  :       2183.98       1838.77


 parallel 3D FFT for wavefunctions:
    minimum data exchange during FFTs selected (reduces bandwidth)
 parallel 3D FFT for charge:
    minimum data exchange during FFTs selected (reduces bandwidth)


 total amount of memory used by VASP MPI-rank0    60649. kBytes
=======================================================================

   base      :      30000. kBytes
   nonlr-proj:       6484. kBytes
   fftplans  :       8423. kBytes
   grid      :       7465. kBytes
   one-center:         77. kBytes
   wavefun   :       8200. kBytes

     INWAV:  cpu time    0.0003: real time    0.0007
 Broyden mixing: mesh for mixing (old mesh)
   NGX = 33   NGY = 33   NGZ = 33
  (NGX  =140   NGY  =140   NGZ  =140)
  gives a total of  35937 points

 initial charge density was supplied:
 charge density of overlapping atoms calculated
 number of electron     345.0000000 magnetization 
 keeping initial charge density in first step


--------------------------------------------------------------------------------------------------------


 Maximum index for non-local projection operator          734
 Maximum index for augmentation-charges         3357 (set IRDMAX)


--------------------------------------------------------------------------------------------------------


 First call to EWALD:  gamma=   0.152
 Maximum number of real-space cells 3x 3x 3
 Maximum number of reciprocal cells 3x 3x 3

    FEWALD:  cpu time    0.0037: real time    0.0037


--------------------------------------- Iteration      1(   1)  ---------------------------------------


    POTLOK:  cpu time    0.2684: real time    0.2691
    SETDIJ:  cpu time    1.2033: real time    1.2034
     EDDAV:  cpu time   16.6449: real time   16.6507
       DOS:  cpu time    0.0008: real time    0.0008
    --------------------------------------------
      LOOP:  cpu time   18.1175: real time   18.1240

 eigenvalue-minimisations  :  3472
 total energy-change (2. order) : 0.1333394E+04  (-0.1105281E+05)
 number of electron     345.0000000 magnetization 
 augmentation part      345.0000000 magnetization 

 Free energy of the ion-electron system (eV)
  ---------------------------------------------------
  alpha Z        PSCENC =       872.70583573
  Ewald energy   TEWEN  =    -17975.57633731
  -Hartree energ DENC   =     -7381.92390169
  -exchange      EXHF   =         0.00000000
  -V(xc)+E(xc)   XCENC  =       907.87558372
  PAW double counting   =     21345.28103884   -22405.85761495
  entropy T*S    EENTRO =        -0.00291233
  eigenvalues    EBANDS =      -241.22590327
  atomic energy  EATOM  =     26212.11861568
  Solvation  Ediel_sol  =         0.00000000
  ---------------------------------------------------
  free energy    TOTEN  =      1333.39440441 eV

  energy without entropy =     1333.39731674  energy(sigma->0) =     1333.39586058


--------------------------------------------------------------------------------------------------------




--------------------------------------- Iteration      1(   2)  ---------------------------------------


     EDDAV:  cpu time   18.4704: real time   18.5273
       DOS:  cpu time    0.0004: real time    0.0004
    --------------------------------------------
      LOOP:  cpu time   18.4707: real time   18.5276

 eigenvalue-minimisations  :  4088
 total energy-change (2. order) :-0.2444515E+04  (-0.2356329E+04)
 number of electron     345.0000000 magnetization 
 augmentation part      345.0000000 magnetization 

 Free energy of the ion-electron system (eV)
  ---------------------------------------------------
  alpha Z        PSCENC =       872.70583573
  Ewald energy   TEWEN  =    -17975.57633731
  -Hartree energ DENC   =     -7381.92390169
  -exchange      EXHF   =         0.00000000
  -V(xc)+E(xc)   XCENC  =       907.87558372
  PAW double counting   =     21345.28103884   -22405.85761495
  entropy T*S    EENTRO =        -0.00000000
  eigenvalues    EBANDS =     -2685.74416234
  atomic energy  EATOM  =     26212.11861568
  Solvation  Ediel_sol  =         0.00000000
  ---------------------------------------------------
  free energy    TOTEN  =     -1111.12094233 eV

  energy without entropy =    -1111.12094233  energy(sigma->0) =    -1111.12094233


--------------------------------------------------------------------------------------------------------




--------------------------------------- Iteration      1(   3)  ---------------------------------------


     EDDAV:  cpu time   19.5215: real time   19.5393
       DOS:  cpu time    0.0004: real time    0.0004
    --------------------------------------------
      LOOP:  cpu time   19.5219: real time   19.5397

 eigenvalue-minimisations  :  4440
 total energy-change (2. order) :-0.3633001E+03  (-0.3612838E+03)
 number of electron     345.0000000 magnetization 
 augmentation part      345.0000000 magnetization 

 Free energy of the ion-electron system (eV)
  ---------------------------------------------------
  alpha Z        PSCENC =       872.70583573
  Ewald energy   TEWEN  =    -17975.57633731
  -Hartree energ DENC   =     -7381.92390169
  -exchange      EXHF   =         0.00000000
  -V(xc)+E(xc)   XCENC  =       907.87558372
  PAW double counting   =     21345.28103884   -22405.85761495
  entropy T*S    EENTRO =        -0.00000000
  eigenvalues    EBANDS =     -3049.04425755
  atomic energy  EATOM  =     26212.11861568
  Solvation  Ediel_sol  =         0.00000000
  ---------------------------------------------------
  free energy    TOTEN  =     -1474.42103754 eV

  energy without entropy =    -1474.42103754  energy(sigma->0) =    -1474.42103754


--------------------------------------------------------------------------------------------------------




--------------------------------------- Iteration      1(   4)  ---------------------------------------


     EDDAV:  cpu time   17.8870: real time   17.9076
       DOS:  cpu time    0.0004: real time    0.0004
    --------------------------------------------
      LOOP:  cpu time   17.8874: real time   17.9080

 eigenvalue-minimisations  :  3888
 total energy-change (2. order) :-0.1201901E+02  (-0.1198496E+02)
 number of electron     345.0000000 magnetization 
 augmentation part      345.0000000 magnetization 

 Free energy of the ion-electron system (eV)
  ---------------------------------------------------
  alpha Z        PSCENC =       872.70583573
  Ewald energy   TEWEN  =    -17975.57633731
  -Hartree energ DENC   =     -7381.92390169
  -exchange      EXHF   =         0.00000000
  -V(xc)+E(xc)   XCENC  =       907.87558372
  PAW double counting   =     21345.28103884   -22405.85761495
  entropy T*S    EENTRO =        -0.00000000
  eigenvalues    EBANDS =     -3061.06327180
  atomic energy  EATOM  =     26212.11861568
  Solvation  Ediel_sol  =         0.00000000
  ---------------------------------------------------
  free energy    TOTEN  =     -1486.44005178 eV

  energy without entropy =    -1486.44005178  energy(sigma->0) =    -1486.44005178


--------------------------------------------------------------------------------------------------------




--------------------------------------- Iteration      1(   5)  ---------------------------------------


     EDDAV:  cpu time   19.2460: real time   19.2923
       DOS:  cpu time    0.0004: real time    0.0004
    CHARGE:  cpu time    2.7129: real time    2.7130
    MIXING:  cpu time    0.0014: real time    0.0014
    --------------------------------------------
      LOOP:  cpu time   21.9608: real time   22.0071

 eigenvalue-minimisations  :  4368
 total energy-change (2. order) :-0.5710245E+00  (-0.5707799E+00)
 number of electron     344.0000000 magnetization 
 augmentation part       -5.0381745 magnetization 

 Broyden mixing:
  rms(total) = 0.10176E+01    rms(broyden)= 0.10170E+01
  rms(prec ) = 0.14389E+01
  weight for this iteration     100.00

 Free energy of the ion-electron system (eV)
  ---------------------------------------------------
  alpha Z        PSCENC =       872.70583573
  Ewald energy   TEWEN  =    -17975.57633731
  -Hartree energ DENC   =     -7381.92390169
  -exchange      EXHF   =         0.00000000
  -V(xc)+E(xc)   XCENC  =       907.87558372
  PAW double counting   =     21345.28103884   -22405.85761495
  entropy T*S    EENTRO =        -0.00000000
  eigenvalues    EBANDS =     -3061.63429631
  atomic energy  EATOM  =     26212.11861568
  Solvation  Ediel_sol  =         0.00000000
  ---------------------------------------------------
  free energy    TOTEN  =     -1487.01107629 eV

  energy without entropy =    -1487.01107629  energy(sigma->0) =    -1487.01107629


--------------------------------------------------------------------------------------------------------




--------------------------------------- Iteration      1(   6)  ---------------------------------------


    POTLOK:  cpu time    0.2951: real time    0.3145
    SETDIJ:  cpu time    1.2037: real time    1.2038
     EDDAV:  cpu time   19.0673: real time   19.0680
       DOS:  cpu time    0.0005: real time    0.0005
    CHARGE:  cpu time    2.6893: real time    2.6894
    MIXING:  cpu time    0.0016: real time    0.0016
    --------------------------------------------
      LOOP:  cpu time   23.2576: real time   23.2778

 eigenvalue-minimisations  :  4304
 total energy-change (2. order) : 0.7835743E+02  (-0.2399877E+01)
 number of electron     344.0000000 magnetization 
 augmentation part       -3.6195499 magnetization 

 Broyden mixing:
  rms(total) = 0.72542E+00    rms(broyden)= 0.72534E+00
  rms(prec ) = 0.92802E+00
  weight for this iteration     100.00

 eigenvalues of (default mixing * dielectric matrix)
  average eigenvalue GAMMA=   1.1812
  1.1812

 Free energy of the ion-electron system (eV)
  ---------------------------------------------------
  alpha Z        PSCENC =       872.70583573
  Ewald energy   TEWEN  =    -17975.57633731
  -Hartree energ DENC   =     -7361.56988772
  -exchange      EXHF   =         0.00000000
  -V(xc)+E(xc)   XCENC  =       935.86745974
  PAW double counting   =     21611.52795713   -22669.80958993
  entropy T*S    EENTRO =        -0.00000000
  eigenvalues    EBANDS =     -3033.91770063
  atomic energy  EATOM  =     26212.11861568
  Solvation  Ediel_sol  =         0.00000000
  ---------------------------------------------------
  free energy    TOTEN  =     -1408.65364731 eV

  energy without entropy =    -1408.65364731  energy(sigma->0) =    -1408.65364731


--------------------------------------------------------------------------------------------------------




--------------------------------------- Iteration      1(   7)  ---------------------------------------


    POTLOK:  cpu time    0.2981: real time    0.3128
    SETDIJ:  cpu time    1.2024: real time    1.2024
     EDDAV:  cpu time   18.2627: real time   18.2638
       DOS:  cpu time    0.0004: real time    0.0004
    CHARGE:  cpu time    2.6970: real time    2.6971
    MIXING:  cpu time    0.0018: real time    0.0018
    --------------------------------------------
      LOOP:  cpu time   22.4624: real time   22.4783

 eigenvalue-minimisations  :  4032
 total energy-change (2. order) : 0.6776375E+00  (-0.9491645E+00)
 number of electron     344.0000000 magnetization 
 augmentation part       -3.0488020 magnetization 

 Broyden mixing:
  rms(total) = 0.37339E+00    rms(broyden)= 0.37337E+00
  rms(prec ) = 0.42269E+00
  weight for this iteration     100.00

 eigenvalues of (default mixing * dielectric matrix)
  average eigenvalue GAMMA=   1.2937
  1.2937  1.2937

 Free energy of the ion-electron system (eV)
  ---------------------------------------------------
  alpha Z        PSCENC =       872.70583573
  Ewald energy   TEWEN  =    -17975.57633731
  -Hartree energ DENC   =     -7402.56336283
  -exchange      EXHF   =         0.00000000
  -V(xc)+E(xc)   XCENC  =       941.03600535
  PAW double counting   =     22217.26159396   -23273.08326401
  entropy T*S    EENTRO =        -0.00000000
  eigenvalues    EBANDS =     -2999.87509643
  atomic energy  EATOM  =     26212.11861568
  Solvation  Ediel_sol  =         0.00000000
  ---------------------------------------------------
  free energy    TOTEN  =     -1407.97600986 eV

  energy without entropy =    -1407.97600986  energy(sigma->0) =    -1407.97600986


--------------------------------------------------------------------------------------------------------




--------------------------------------- Iteration      1(   8)  ---------------------------------------


    POTLOK:  cpu time    0.2986: real time    0.3206
    SETDIJ:  cpu time    1.2056: real time    1.2057
     EDDAV:  cpu time   17.9910: real time   17.9920
       DOS:  cpu time    0.0010: real time    0.0010
    CHARGE:  cpu time    2.6948: real time    2.6948
    MIXING:  cpu time    0.0017: real time    0.0017
    --------------------------------------------
      LOOP:  cpu time   22.1928: real time   22.2158

 eigenvalue-minimisations  :  3936
 total energy-change (2. order) :-0.1800254E+00  (-0.5958087E-01)
 number of electron     344.0000000 magnetization 
 augmentation part       -3.1534595 magnetization 

 Broyden mixing:
  rms(total) = 0.22285E+00    rms(broyden)= 0.22284E+00
  rms(prec ) = 0.25813E+00
  weight for this iteration     100.00

 eigenvalues of (default mixing * dielectric matrix)
  average eigenvalue GAMMA=   1.6812
  1.1310  1.3264  2.5862

 Free energy of the ion-electron system (eV)
  ---------------------------------------------------
  alpha Z        PSCENC =       872.70583573
  Ewald energy   TEWEN  =    -17975.57633731
  -Hartree energ DENC   =     -7406.69069313
  -exchange      EXHF   =         0.00000000
  -V(xc)+E(xc)   XCENC  =       941.59762566
  PAW double counting   =     22439.00359130   -23495.05037238
  entropy T*S    EENTRO =        -0.00000000
  eigenvalues    EBANDS =     -2996.26430080
  atomic energy  EATOM  =     26212.11861568
  Solvation  Ediel_sol  =         0.00000000
  ---------------------------------------------------
  free energy    TOTEN  =     -1408.15603525 eV

  energy without entropy =    -1408.15603525  energy(sigma->0) =    -1408.15603525


--------------------------------------------------------------------------------------------------------




--------------------------------------- Iteration      1(   9)  ---------------------------------------


    POTLOK:  cpu time    0.3116: real time    0.3146
    SETDIJ:  cpu time    1.2008: real time    1.2008
     EDDAV:  cpu time   17.3742: real time   17.3748
       DOS:  cpu time    0.0004: real time    0.0004
    CHARGE:  cpu time    2.6996: real time    2.6997
    MIXING:  cpu time    0.0019: real time    0.0019
    --------------------------------------------
      LOOP:  cpu time   21.5885: real time   21.5921

 eigenvalue-minimisations  :  3720
 total energy-change (2. order) :-0.5115092E-01  (-0.2103920E-01)
 number of electron     344.0000000 magnetization 
 augmentation part       -3.1938626 magnetization 

 Broyden mixing:
  rms(total) = 0.49105E-01    rms(broyden)= 0.49101E-01
  rms(prec ) = 0.59952E-01
  weight for this iteration     100.00

 eigenvalues of (default mixing * dielectric matrix)
  average eigenvalue GAMMA=   1.4638
  2.5102  1.2503  1.2503  0.8444

 Free energy of the ion-electron system (eV)
  ---------------------------------------------------
  alpha Z        PSCENC =       872.70583573
  Ewald energy   TEWEN  =    -17975.57633731
  -Hartree energ DENC   =     -7412.48264320
  -exchange      EXHF   =         0.00000000
  -V(xc)+E(xc)   XCENC  =       943.45592015
  PAW double counting   =     22762.61602294   -23819.44179610
  entropy T*S    EENTRO =        -0.00000000
  eigenvalues    EBANDS =     -2991.60280407
  atomic energy  EATOM  =     26212.11861568
  Solvation  Ediel_sol  =         0.00000000
  ---------------------------------------------------
  free energy    TOTEN  =     -1408.20718617 eV

  energy without entropy =    -1408.20718617  energy(sigma->0) =    -1408.20718617


--------------------------------------------------------------------------------------------------------




--------------------------------------- Iteration      1(  10)  ---------------------------------------


    POTLOK:  cpu time    0.2815: real time    0.3070
    SETDIJ:  cpu time    1.2004: real time    1.2005
     EDDAV:  cpu time   18.8878: real time   18.8885
       DOS:  cpu time    0.0004: real time    0.0004
    CHARGE:  cpu time    2.6932: real time    2.6933
    MIXING:  cpu time    0.0016: real time    0.0016
    --------------------------------------------
      LOOP:  cpu time   23.0650: real time   23.0913

 eigenvalue-minimisations  :  4240
 total energy-change (2. order) :-0.4994804E-02  (-0.3363612E-02)
 number of electron     344.0000000 magnetization 
 augmentation part       -3.1822195 magnetization 

 Broyden mixing:
  rms(total) = 0.34953E-01    rms(broyden)= 0.34951E-01
  rms(prec ) = 0.44767E-01
  weight for this iteration     100.00

 eigenvalues of (default mixing * dielectric matrix)
  average eigenvalue GAMMA=   1.3237
  2.3863  1.3385  1.3385  0.7776  0.7776

 Free energy of the ion-electron system (eV)
  ---------------------------------------------------
  alpha Z        PSCENC =       872.70583573
  Ewald energy   TEWEN  =    -17975.57633731
  -Hartree energ DENC   =     -7410.91926312
  -exchange      EXHF   =         0.00000000
  -V(xc)+E(xc)   XCENC  =       943.33916258
  PAW double counting   =     22736.30157272   -23793.23541205
  entropy T*S    EENTRO =        -0.00000000
  eigenvalues    EBANDS =     -2992.94635521
  atomic energy  EATOM  =     26212.11861568
  Solvation  Ediel_sol  =         0.00000000
  ---------------------------------------------------
  free energy    TOTEN  =     -1408.21218098 eV

  energy without entropy =    -1408.21218098  energy(sigma->0) =    -1408.21218098


--------------------------------------------------------------------------------------------------------




--------------------------------------- Iteration      1(  11)  ---------------------------------------


    POTLOK:  cpu time    0.2635: real time    0.3120
    SETDIJ:  cpu time    1.2043: real time    1.2044
     EDDAV:  cpu time   17.0967: real time   17.0974
       DOS:  cpu time    0.0004: real time    0.0004
    CHARGE:  cpu time    2.6973: real time    2.6973
    MIXING:  cpu time    0.0016: real time    0.0016
    --------------------------------------------
      LOOP:  cpu time   21.2639: real time   21.3132

 eigenvalue-minimisations  :  3624
 total energy-change (2. order) :-0.1851832E-02  (-0.3830062E-03)
 number of electron     344.0000000 magnetization 
 augmentation part       -3.1812763 magnetization 

 Broyden mixing:
  rms(total) = 0.15909E-01    rms(broyden)= 0.15908E-01
  rms(prec ) = 0.24957E-01
  weight for this iteration     100.00

 eigenvalues of (default mixing * dielectric matrix)
  average eigenvalue GAMMA=   1.6157
  2.7967  2.7967  1.2064  1.2064  0.8439  0.8439

 Free energy of the ion-electron system (eV)
  ---------------------------------------------------
  alpha Z        PSCENC =       872.70583573
  Ewald energy   TEWEN  =    -17975.57633731
  -Hartree energ DENC   =     -7409.43644688
  -exchange      EXHF   =         0.00000000
  -V(xc)+E(xc)   XCENC  =       943.25485082
  PAW double counting   =     22718.11980253   -23775.29903076
  entropy T*S    EENTRO =        -0.00000000
  eigenvalues    EBANDS =     -2994.10132262
  atomic energy  EATOM  =     26212.11861568
  Solvation  Ediel_sol  =         0.00000000
  ---------------------------------------------------
  free energy    TOTEN  =     -1408.21403281 eV

  energy without entropy =    -1408.21403281  energy(sigma->0) =    -1408.21403281


--------------------------------------------------------------------------------------------------------




--------------------------------------- Iteration      1(  12)  ---------------------------------------


    POTLOK:  cpu time    0.3099: real time    0.3205
    SETDIJ:  cpu time    1.2030: real time    1.2030
     EDDAV:  cpu time   17.0220: real time   17.0229
       DOS:  cpu time    0.0009: real time    0.0009
    CHARGE:  cpu time    2.7051: real time    2.7052
    MIXING:  cpu time    0.0017: real time    0.0017
    --------------------------------------------
      LOOP:  cpu time   21.2425: real time   21.2540

 eigenvalue-minimisations  :  3600
 total energy-change (2. order) :-0.2651257E-02  (-0.7204644E-03)
 number of electron     344.0000000 magnetization 
 augmentation part       -3.1852090 magnetization 

 Broyden mixing:
  rms(total) = 0.11478E-01    rms(broyden)= 0.11477E-01
  rms(prec ) = 0.14358E-01
  weight for this iteration     100.00

 eigenvalues of (default mixing * dielectric matrix)
  average eigenvalue GAMMA=   1.5980
  2.8523  2.8523  1.3152  1.3152  0.9016  0.9746  0.9746

 Free energy of the ion-electron system (eV)
  ---------------------------------------------------
  alpha Z        PSCENC =       872.70583573
  Ewald energy   TEWEN  =    -17975.57633731
  -Hartree energ DENC   =     -7408.39904231
  -exchange      EXHF   =         0.00000000
  -V(xc)+E(xc)   XCENC  =       943.25583475
  PAW double counting   =     22709.77554804   -23767.30456758
  entropy T*S    EENTRO =        -0.00000000
  eigenvalues    EBANDS =     -2994.79257107
  atomic energy  EATOM  =     26212.11861568
  Solvation  Ediel_sol  =         0.00000000
  ---------------------------------------------------
  free energy    TOTEN  =     -1408.21668407 eV

  energy without entropy =    -1408.21668407  energy(sigma->0) =    -1408.21668407


--------------------------------------------------------------------------------------------------------




--------------------------------------- Iteration      1(  13)  ---------------------------------------


    POTLOK:  cpu time    0.2689: real time    0.3166
    SETDIJ:  cpu time    1.2025: real time    1.2025
     EDDAV:  cpu time   19.4543: real time   19.4557
       DOS:  cpu time    0.0004: real time    0.0004
    CHARGE:  cpu time    2.6903: real time    2.6904
    MIXING:  cpu time    0.0020: real time    0.0020
    --------------------------------------------
      LOOP:  cpu time   23.6184: real time   23.6676

 eigenvalue-minimisations  :  4432
 total energy-change (2. order) : 0.5064507E-03  (-0.1885180E-03)
 number of electron     344.0000000 magnetization 
 augmentation part       -3.1859721 magnetization 

 Broyden mixing:
  rms(total) = 0.46374E-02    rms(broyden)= 0.46367E-02
  rms(prec ) = 0.55469E-02
  weight for this iteration     100.00

 eigenvalues of (default mixing * dielectric matrix)
  average eigenvalue GAMMA=   1.5631
  3.2359  2.4786  1.2126  1.2126  1.2844  1.2844  0.8626  0.9342

 Free energy of the ion-electron system (eV)
  ---------------------------------------------------
  alpha Z        PSCENC =       872.70583573
  Ewald energy   TEWEN  =    -17975.57633731
  -Hartree energ DENC   =     -7409.43379223
  -exchange      EXHF   =         0.00000000
  -V(xc)+E(xc)   XCENC  =       943.32431017
  PAW double counting   =     22710.59443239   -23768.05516113
  entropy T*S    EENTRO =        -0.00000000
  eigenvalues    EBANDS =     -2993.89408092
  atomic energy  EATOM  =     26212.11861568
  Solvation  Ediel_sol  =         0.00000000
  ---------------------------------------------------
  free energy    TOTEN  =     -1408.21617762 eV

  energy without entropy =    -1408.21617762  energy(sigma->0) =    -1408.21617762


--------------------------------------------------------------------------------------------------------




--------------------------------------- Iteration      1(  14)  ---------------------------------------


    POTLOK:  cpu time    0.2703: real time    0.3243
    SETDIJ:  cpu time    1.2022: real time    1.2023
     EDDAV:  cpu time   17.8240: real time   17.8247
       DOS:  cpu time    0.0004: real time    0.0004
    CHARGE:  cpu time    2.7007: real time    2.7008
    MIXING:  cpu time    0.0018: real time    0.0018
    --------------------------------------------
      LOOP:  cpu time   21.9994: real time   22.0542

 eigenvalue-minimisations  :  3872
 total energy-change (2. order) : 0.6316206E-05  (-0.4043845E-04)
 number of electron     344.0000000 magnetization 
 augmentation part       -3.1851147 magnetization 

 Broyden mixing:
  rms(total) = 0.22384E-02    rms(broyden)= 0.22372E-02
  rms(prec ) = 0.31320E-02
  weight for this iteration     100.00

 eigenvalues of (default mixing * dielectric matrix)
  average eigenvalue GAMMA=   1.5713
  3.2992  2.2456  2.2456  1.1493  1.1493  1.1493  1.1493  0.8770  0.8770

 Free energy of the ion-electron system (eV)
  ---------------------------------------------------
  alpha Z        PSCENC =       872.70583573
  Ewald energy   TEWEN  =    -17975.57633731
  -Hartree energ DENC   =     -7409.62996540
  -exchange      EXHF   =         0.00000000
  -V(xc)+E(xc)   XCENC  =       943.33703600
  PAW double counting   =     22712.06098901   -23769.49958470
  entropy T*S    EENTRO =        -0.00000000
  eigenvalues    EBANDS =     -2993.73276031
  atomic energy  EATOM  =     26212.11861568
  Solvation  Ediel_sol  =         0.00000000
  ---------------------------------------------------
  free energy    TOTEN  =     -1408.21617130 eV

  energy without entropy =    -1408.21617130  energy(sigma->0) =    -1408.21617130


--------------------------------------------------------------------------------------------------------




--------------------------------------- Iteration      1(  15)  ---------------------------------------


    POTLOK:  cpu time    0.2580: real time    0.3106
    SETDIJ:  cpu time    1.2043: real time    1.2043
     EDDAV:  cpu time   17.7001: real time   17.7009
       DOS:  cpu time    0.0004: real time    0.0004
    CHARGE:  cpu time    2.7009: real time    2.7010
    MIXING:  cpu time    0.0018: real time    0.0018
    --------------------------------------------
      LOOP:  cpu time   21.8656: real time   21.9192

 eigenvalue-minimisations  :  3832
 total energy-change (2. order) : 0.4072854E-05  (-0.5022988E-05)
 number of electron     344.0000000 magnetization 
 augmentation part       -3.1850483 magnetization 

 Broyden mixing:
  rms(total) = 0.12783E-02    rms(broyden)= 0.12769E-02
  rms(prec ) = 0.18573E-02
  weight for this iteration     100.00

 eigenvalues of (default mixing * dielectric matrix)
  average eigenvalue GAMMA=   1.6367
  3.7635  2.4854  2.4854  1.3028  1.3028  1.1711  1.1711  0.8215  0.9320  0.9320

 Free energy of the ion-electron system (eV)
  ---------------------------------------------------
  alpha Z        PSCENC =       872.70583573
  Ewald energy   TEWEN  =    -17975.57633731
  -Hartree energ DENC   =     -7409.83439089
  -exchange      EXHF   =         0.00000000
  -V(xc)+E(xc)   XCENC  =       943.34450944
  PAW double counting   =     22712.42558126   -23769.85064843
  entropy T*S    EENTRO =        -0.00000000
  eigenvalues    EBANDS =     -2993.54933270
  atomic energy  EATOM  =     26212.11861568
  Solvation  Ediel_sol  =         0.00000000
  ---------------------------------------------------
  free energy    TOTEN  =     -1408.21616723 eV

  energy without entropy =    -1408.21616723  energy(sigma->0) =    -1408.21616723


--------------------------------------------------------------------------------------------------------




--------------------------------------- Iteration      1(  16)  ---------------------------------------


    POTLOK:  cpu time    0.2856: real time    0.3124
    SETDIJ:  cpu time    1.1962: real time    1.1962
     EDDAV:  cpu time   17.6960: real time   17.6969
       DOS:  cpu time    0.0004: real time    0.0004
    CHARGE:  cpu time    2.7025: real time    2.7025
    MIXING:  cpu time    0.0019: real time    0.0019
    --------------------------------------------
      LOOP:  cpu time   21.8825: real time   21.9104

 eigenvalue-minimisations  :  3824
 total energy-change (2. order) :-0.6037091E-04  (-0.3122241E-05)
 number of electron     344.0000000 magnetization 
 augmentation part       -3.1847175 magnetization 

 Broyden mixing:
  rms(total) = 0.56365E-03    rms(broyden)= 0.56047E-03
  rms(prec ) = 0.70703E-03
  weight for this iteration     100.00

 eigenvalues of (default mixing * dielectric matrix)
  average eigenvalue GAMMA=   1.6982
  4.0730  2.9484  2.1607  2.1607  1.1484  1.1484  1.1418  1.1418  0.8148  0.9708
  0.9708

 Free energy of the ion-electron system (eV)
  ---------------------------------------------------
  alpha Z        PSCENC =       872.70583573
  Ewald energy   TEWEN  =    -17975.57633731
  -Hartree energ DENC   =     -7409.83778774
  -exchange      EXHF   =         0.00000000
  -V(xc)+E(xc)   XCENC  =       943.33609600
  PAW double counting   =     22711.65232023   -23769.07627829
  entropy T*S    EENTRO =        -0.00000000
  eigenvalues    EBANDS =     -2993.53869190
  atomic energy  EATOM  =     26212.11861568
  Solvation  Ediel_sol  =         0.00000000
  ---------------------------------------------------
  free energy    TOTEN  =     -1408.21622760 eV

  energy without entropy =    -1408.21622760  energy(sigma->0) =    -1408.21622760


--------------------------------------------------------------------------------------------------------




--------------------------------------- Iteration      1(  17)  ---------------------------------------


    POTLOK:  cpu time    0.2508: real time    0.3212
    SETDIJ:  cpu time    1.1983: real time    1.1983
     EDDAV:  cpu time   17.3539: real time   17.3546
       DOS:  cpu time    0.0004: real time    0.0004
    --------------------------------------------
      LOOP:  cpu time   18.8033: real time   18.8744

 eigenvalue-minimisations  :  3696
 total energy-change (2. order) : 0.4157064E-06  (-0.8476349E-06)
 number of electron     344.0000000 magnetization 
 augmentation part       -3.1847175 magnetization 

 Free energy of the ion-electron system (eV)
  ---------------------------------------------------
  alpha Z        PSCENC =       872.70583573
  Ewald energy   TEWEN  =    -17975.57633731
  -Hartree energ DENC   =     -7409.81808334
  -exchange      EXHF   =         0.00000000
  -V(xc)+E(xc)   XCENC  =       943.33276112
  PAW double counting   =     22711.82792318   -23769.25027514
  entropy T*S    EENTRO =        -0.00000000
  eigenvalues    EBANDS =     -2993.55666710
  atomic energy  EATOM  =     26212.11861568
  Solvation  Ediel_sol  =         0.00000000
  ---------------------------------------------------
  free energy    TOTEN  =     -1408.21622718 eV

  energy without entropy =    -1408.21622718  energy(sigma->0) =    -1408.21622718


--------------------------------------------------------------------------------------------------------




 average (electrostatic) potential at core
  the test charge radii are     1.1312  1.1541  1.0178
  (the norm of the test charge is              1.0000)
       1 -55.3047       2 -55.2699       3 -54.5947       4 -55.2512       5 -55.3548
       6 -55.1159       7 -54.9020       8 -55.4708       9-101.6486      10-102.0610
      11-101.6414      12-102.1030      13-101.6331      14-102.0790      15-101.6394
      16-102.0587      17 -68.9979      18 -69.0461      19 -69.5934      20 -69.0433
      21 -69.0339      22 -69.6977      23 -69.0140      24 -68.9876      25 -69.0790
      26 -69.0187      27 -69.0731      28 -69.1198      29 -68.9178      30 -69.2179
      31 -69.0264      32 -68.8503      33 -69.0877      34 -69.0299      35 -68.9208
      36 -69.0078      37 -69.0569      38 -69.0858      39 -67.6211



 E-fermi :   0.4906     XC(G=0):  -7.9620     alpha+bet : -6.9586


 k-point     1 :       0.0000    0.0000    0.0000
  band No.  band energies     occupation 
      1     -20.9978      2.00000
      2     -20.8832      2.00000
      3     -20.8319      2.00000
      4     -20.7952      2.00000
      5     -20.7841      2.00000
      6     -20.6492      2.00000
      7     -20.4428      2.00000
      8     -20.2235      2.00000
      9     -16.8954      2.00000
     10     -16.8473      2.00000
     11     -16.8363      2.00000
     12     -16.8177      2.00000
     13     -16.8032      2.00000
     14     -16.7926      2.00000
     15     -16.7777      2.00000
     16     -16.7683      2.00000
     17     -16.7653      2.00000
     18     -16.7559      2.00000
     19     -16.7462      2.00000
     20     -16.7369      2.00000
     21     -16.7278      2.00000
     22     -16.7235      2.00000
     23     -16.7192      2.00000
     24     -16.7186      2.00000
     25     -16.7009      2.00000
     26     -16.6782      2.00000
     27     -16.6663      2.00000
     28     -16.6531      2.00000
     29     -16.4740      2.00000
     30     -16.4569      2.00000
     31     -16.4433      2.00000
     32     -16.4336      2.00000
     33     -16.4046      2.00000
     34     -16.3962      2.00000
     35     -16.3885      2.00000
     36     -16.3703      2.00000
     37     -16.3167      2.00000
     38     -16.3108      2.00000
     39     -16.3097      2.00000
     40     -16.3069      2.00000
     41     -16.3042      2.00000
     42     -16.3014      2.00000
     43     -16.3004      2.00000
     44     -16.2999      2.00000
     45     -16.2954      2.00000
     46     -16.2917      2.00000
     47     -16.2902      2.00000
     48     -16.2830      2.00000
     49     -14.6968      2.00000
     50     -14.5889      2.00000
     51     -14.3223      2.00000
     52     -14.2543      2.00000
     53     -14.1637      2.00000
     54     -14.1399      2.00000
     55     -14.1062      2.00000
     56     -14.1007      2.00000
     57     -14.0956      2.00000
     58     -14.0900      2.00000
     59     -14.0745      2.00000
     60     -14.0634      2.00000
     61     -14.0333      2.00000
     62     -14.0227      2.00000
     63     -14.0122      2.00000
     64     -13.9949      2.00000
     65     -13.9704      2.00000
     66     -13.8939      2.00000
     67     -13.8494      2.00000
     68     -13.7819      2.00000
     69     -13.7528      2.00000
     70     -13.7347      2.00000
     71     -12.7463      2.00000
     72      -8.2918      2.00000
     73      -7.8994      2.00000
     74      -7.8221      2.00000
     75      -7.7899      2.00000
     76      -7.4363      2.00000
     77      -7.4013      2.00000
     78      -7.3756      2.00000
     79      -7.3590      2.00000
     80      -7.3051      2.00000
     81      -7.2961      2.00000
     82      -7.2692      2.00000
     83      -7.2616      2.00000
     84      -7.2582      2.00000
     85      -7.2444      2.00000
     86      -7.2263      2.00000
     87      -7.2225      2.00000
     88      -7.2060      2.00000
     89      -7.1994      2.00000
     90      -7.1874      2.00000
     91      -7.1791      2.00000
     92      -7.1762      2.00000
     93      -7.1559      2.00000
     94      -7.0808      2.00000
     95      -7.0454      2.00000
     96      -7.0413      2.00000
     97      -6.8999      2.00000
     98      -6.8657      2.00000
     99      -6.8522      2.00000
    100      -6.7271      2.00000
    101      -6.6742      2.00000
    102      -6.6434      2.00000
    103      -6.6301      2.00000
    104      -3.3729      2.00000
    105      -3.3526      2.00000
    106      -3.3067      2.00000
    107      -3.2795      2.00000
    108      -3.2580      2.00000
    109      -3.2437      2.00000
    110      -3.2138      2.00000
    111      -3.2005      2.00000
    112      -3.1221      2.00000
    113      -3.0613      2.00000
    114      -2.9945      2.00000
    115      -2.9132      2.00000
    116      -2.3415      2.00000
    117      -2.2850      2.00000
    118      -2.1782      2.00000
    119      -2.0942      2.00000
    120      -2.0197      2.00000
    121      -1.9878      2.00000
    122      -1.9404      2.00000
    123      -1.9053      2.00000
    124      -1.8854      2.00000
    125      -1.8548      2.00000
    126      -1.8040      2.00000
    127      -1.7657      2.00000
    128      -1.7326      2.00000
    129      -1.7126      2.00000
    130      -1.6994      2.00000
    131      -1.6290      2.00000
    132      -1.6027      2.00000
    133      -1.5891      2.00000
    134      -1.5779      2.00000
    135      -1.5412      2.00000
    136      -1.5252      2.00000
    137      -1.5139      2.00000
    138      -1.4988      2.00000
    139      -1.4836      2.00000
    140      -1.4639      2.00000
    141      -1.4499      2.00000
    142      -1.4339      2.00000
    143      -1.4172      2.00000
    144      -1.4039      2.00000
    145      -1.3834      2.00000
    146      -1.3718      2.00000
    147      -1.3717      2.00000
    148      -1.3623      2.00000
    149      -1.3436      2.00000
    150      -1.3420      2.00000
    151      -1.3320      2.00000
    152      -1.3006      2.00000
    153      -1.2452      2.00000
    154      -1.2206      2.00000
    155      -1.2046      2.00000
    156      -1.1833      2.00000
    157      -1.1752      2.00000
    158      -1.1593      2.00000
    159      -1.1255      2.00000
    160      -1.0846      2.00000
    161      -0.9917      2.00000
    162      -0.9044      2.00000
    163      -0.8911      2.00000
    164      -0.8046      2.00000
    165      -0.7691      2.00000
    166      -0.5877      2.00000
    167      -0.4903      2.00000
    168      -0.2815      2.00000
    169      -0.2098      2.00000
    170      -0.0500      2.00000
    171       0.3227      2.00000
    172       0.4048      2.00000
    173       2.3777      0.00000
    174       2.4587      0.00000
    175       2.6223      0.00000
    176       2.8193      0.00000
    177       2.9374      0.00000
    178       2.9933      0.00000
    179       3.0672      0.00000
    180       3.0886      0.00000
    181       3.1319      0.00000
    182       3.3661      0.00000
    183       3.4215      0.00000
    184       3.5029      0.00000
    185       4.0147      0.00000
    186       4.4631      0.00000
    187       4.8333      0.00000
    188       5.3721      0.00000
    189       5.4550      0.00000
    190       5.6227      0.00000
    191       5.7678      0.00000
    192       5.7853      0.00000
    193       5.8262      0.00000
    194       5.8557      0.00000
    195       5.9876      0.00000
    196       6.0455      0.00000
    197       6.0524      0.00000
    198       6.0855      0.00000
    199       6.1719      0.00000
    200       6.2228      0.00000
    201       6.3231      0.00000
    202       6.3536      0.00000
    203       6.4125      0.00000
    204       6.4859      0.00000
    205       6.5165      0.00000
    206       6.5496      0.00000
    207       6.6541      0.00000
    208       6.6964      0.00000

 k-point     2 :       0.5000    0.0000    0.0000
  band No.  band energies     occupation 
      1     -20.9978      2.00000
      2     -20.8832      2.00000
      3     -20.8319      2.00000
      4     -20.7952      2.00000
      5     -20.7841      2.00000
      6     -20.6492      2.00000
      7     -20.4428      2.00000
      8     -20.2235      2.00000
      9     -16.8943      2.00000
     10     -16.8459      2.00000
     11     -16.8341      2.00000
     12     -16.8111      2.00000
     13     -16.7999      2.00000
     14     -16.7892      2.00000
     15     -16.7779      2.00000
     16     -16.7738      2.00000
     17     -16.7677      2.00000
     18     -16.7656      2.00000
     19     -16.7468      2.00000
     20     -16.7369      2.00000
     21     -16.7277      2.00000
     22     -16.7235      2.00000
     23     -16.7193      2.00000
     24     -16.7186      2.00000
     25     -16.7010      2.00000
     26     -16.6782      2.00000
     27     -16.6663      2.00000
     28     -16.6531      2.00000
     29     -16.4680      2.00000
     30     -16.4567      2.00000
     31     -16.4226      2.00000
     32     -16.4166      2.00000
     33     -16.4130      2.00000
     34     -16.4088      2.00000
     35     -16.3963      2.00000
     36     -16.3872      2.00000
     37     -16.3167      2.00000
     38     -16.3108      2.00000
     39     -16.3097      2.00000
     40     -16.3070      2.00000
     41     -16.3042      2.00000
     42     -16.3013      2.00000
     43     -16.3005      2.00000
     44     -16.2998      2.00000
     45     -16.2955      2.00000
     46     -16.2917      2.00000
     47     -16.2902      2.00000
     48     -16.2830      2.00000
     49     -14.6924      2.00000
     50     -14.5973      2.00000
     51     -14.2882      2.00000
     52     -14.2541      2.00000
     53     -14.2298      2.00000
     54     -14.1569      2.00000
     55     -14.1177      2.00000
     56     -14.1033      2.00000
     57     -14.0991      2.00000
     58     -14.0888      2.00000
     59     -14.0880      2.00000
     60     -14.0682      2.00000
     61     -14.0639      2.00000
     62     -13.9994      2.00000
     63     -13.9876      2.00000
     64     -13.9079      2.00000
     65     -13.9016      2.00000
     66     -13.8714      2.00000
     67     -13.8304      2.00000
     68     -13.8218      2.00000
     69     -13.7968      2.00000
     70     -13.7738      2.00000
     71     -12.7463      2.00000
     72      -8.1024      2.00000
     73      -8.0463      2.00000
     74      -7.6948      2.00000
     75      -7.6500      2.00000
     76      -7.5736      2.00000
     77      -7.5421      2.00000
     78      -7.4225      2.00000
     79      -7.3934      2.00000
     80      -7.3478      2.00000
     81      -7.3019      2.00000
     82      -7.2887      2.00000
     83      -7.2685      2.00000
     84      -7.2481      2.00000
     85      -7.2281      2.00000
     86      -7.2217      2.00000
     87      -7.2138      2.00000
     88      -7.2034      2.00000
     89      -7.1953      2.00000
     90      -7.1864      2.00000
     91      -7.1754      2.00000
     92      -7.1593      2.00000
     93      -7.0852      2.00000
     94      -7.0474      2.00000
     95      -7.0413      2.00000
     96      -6.9908      2.00000
     97      -6.9762      2.00000
     98      -6.8967      2.00000
     99      -6.8662      2.00000
    100      -6.8450      2.00000
    101      -6.7192      2.00000
    102      -6.6740      2.00000
    103      -6.6363      2.00000
    104      -3.3254      2.00000
    105      -3.3085      2.00000
    106      -3.3066      2.00000
    107      -3.3012      2.00000
    108      -3.1955      2.00000
    109      -3.1825      2.00000
    110      -3.0774      2.00000
    111      -2.9893      2.00000
    112      -2.6649      2.00000
    113      -2.5935      2.00000
    114      -2.5092      2.00000
    115      -2.4938      2.00000
    116      -2.4481      2.00000
    117      -2.3642      2.00000
    118      -2.3278      2.00000
    119      -2.2900      2.00000
    120      -2.2304      2.00000
    121      -2.1734      2.00000
    122      -2.0799      2.00000
    123      -2.0509      2.00000
    124      -1.9803      2.00000
    125      -1.9498      2.00000
    126      -1.8938      2.00000
    127      -1.8551      2.00000
    128      -1.8150      2.00000
    129      -1.7738      2.00000
    130      -1.7724      2.00000
    131      -1.7260      2.00000
    132      -1.6802      2.00000
    133      -1.6373      2.00000
    134      -1.6138      2.00000
    135      -1.5907      2.00000
    136      -1.5756      2.00000
    137      -1.5504      2.00000
    138      -1.5210      2.00000
    139      -1.5052      2.00000
    140      -1.4707      2.00000
    141      -1.4561      2.00000
    142      -1.4468      2.00000
    143      -1.4207      2.00000
    144      -1.3984      2.00000
    145      -1.3913      2.00000
    146      -1.3643      2.00000
    147      -1.3454      2.00000
    148      -1.3336      2.00000
    149      -1.3088      2.00000
    150      -1.3071      2.00000
    151      -1.2726      2.00000
    152      -1.2574      2.00000
    153      -1.2241      2.00000
    154      -1.2203      2.00000
    155      -1.2121      2.00000
    156      -1.1943      2.00000
    157      -1.1672      2.00000
    158      -1.1321      2.00000
    159      -1.1215      2.00000
    160      -1.0914      2.00000
    161      -1.0804      2.00000
    162      -0.9647      2.00000
    163      -0.9271      2.00000
    164      -0.9059      2.00000
    165      -0.8688      2.00000
    166      -0.6725      2.00000
    167      -0.6515      2.00000
    168      -0.5384      2.00000
    169      -0.1253      2.00000
    170      -0.1242      2.00000
    171      -0.0490      2.00000
    172       0.4029      2.00000
    173       2.2859      0.00000
[...]


--------------------------------------------------------------------------------------------------------


 soft charge-density along one line, spin component           1
         0         1         2         3         4         5         6         7         8         9
 total charge-density along one line

 pseudopotential strength for first ion, spin component:           1
 17.982  -4.707   0.000   0.001  -0.002  -0.000  -0.002   0.002
 -4.707   1.241  -0.000  -0.000   0.000   0.000   0.000  -0.000
  0.000  -0.000   2.268   0.000   0.000  -2.714  -0.000  -0.000
  0.001  -0.000   0.000   2.269  -0.001  -0.000  -2.715   0.001
 -0.002   0.000   0.000  -0.001   2.268  -0.000   0.001  -2.714
 -0.000   0.000  -2.714  -0.000  -0.000   3.215   0.000   0.000
 -0.002   0.000  -0.000  -2.715   0.001   0.000   3.217  -0.001
  0.002  -0.000  -0.000   0.001  -2.714   0.000  -0.001   3.215
  0.000  -0.000   0.000   0.000  -0.000  -0.000  -0.000   0.000
  0.000  -0.000   0.001  -0.000   0.000  -0.002   0.000  -0.000
  0.001  -0.000  -0.000  -0.001   0.001   0.000   0.001  -0.001
 -0.001   0.000   0.000  -0.001   0.002  -0.000   0.001  -0.002
  0.000   0.000  -0.000   0.000  -0.002   0.001  -0.000   0.002
 total augmentation occupancy for first ion, spin component:           1
  1.911  -0.139   0.000   0.000  -0.000  -0.000   0.000  -0.001   0.000   0.000   0.001  -0.001   0.000
 -0.139   0.113  -0.000   0.002  -0.004   0.000  -0.001   0.002   0.000  -0.001  -0.002   0.004   0.001
  0.000  -0.000   2.016   0.000   0.000   0.003   0.000   0.000   0.001   0.003   0.000   0.000  -0.000
  0.000   0.002   0.000   2.019  -0.003   0.000   0.005  -0.002   0.000  -0.000  -0.002  -0.001  -0.000
 -0.000  -0.004   0.000  -0.003   2.017   0.000  -0.002   0.004  -0.000   0.000   0.001   0.002  -0.004
 -0.000   0.000   0.003   0.000   0.000   0.008  -0.000   0.000  -0.001  -0.002  -0.000  -0.000   0.000
  0.000  -0.001   0.000   0.005  -0.002  -0.000   0.007   0.001  -0.000   0.000   0.002  -0.000   0.001
 -0.001   0.002   0.000  -0.002   0.004   0.000   0.001   0.009   0.000  -0.000  -0.001  -0.001   0.002
  0.000   0.000   0.001   0.000  -0.000  -0.001  -0.000   0.000   0.006   0.001   0.000  -0.000  -0.000
  0.000  -0.001   0.003  -0.000   0.000  -0.002   0.000  -0.000   0.001   0.004  -0.000   0.000   0.000
  0.001  -0.002   0.000  -0.002   0.001  -0.000   0.002  -0.001   0.000  -0.000   0.005  -0.002  -0.001
 -0.001   0.004   0.000  -0.001   0.002  -0.000  -0.000  -0.001  -0.000   0.000  -0.002   0.004   0.001
  0.000   0.001  -0.000  -0.000  -0.004   0.000   0.001   0.002  -0.000   0.000  -0.001   0.001   0.004


------------------------ aborting loop because EDIFF is reached ----------------------------------------





 total charge     

# of ion       s       p       d       tot
------------------------------------------
    1        1.785   4.716   0.017   6.519
    2        1.785   4.716   0.017   6.518
    3        1.799   4.715   0.050   6.564
    4        1.786   4.717   0.019   6.522
    5        1.785   4.717   0.018   6.520
    6        1.786   4.717   0.019   6.522
    7        1.787   4.716   0.021   6.525
    8        1.785   4.717   0.017   6.519
    9        1.554   0.418   9.834  11.806
   10        1.539   0.413   9.829  11.781
   11        1.554   0.418   9.834  11.806
   12        1.540   0.414   9.829  11.783
   13        1.554   0.418   9.834  11.806
   14        1.534   0.416   9.829  11.780
   15        1.554   0.418   9.834  11.806
   16        1.542   0.401   9.829  11.772
   17        1.614   3.286   0.007   4.907
   18        1.615   3.286   0.007   4.908
   19        1.614   3.269   0.006   4.890
   20        1.614   3.285   0.007   4.906
   21        1.614   3.284   0.007   4.906
   22        1.615   3.269   0.007   4.891
   23        1.614   3.284   0.006   4.904
   24        1.617   3.276   0.008   4.902
   25        1.614   3.278   0.006   4.899
   26        1.615   3.276   0.006   4.897
   27        1.614   3.279   0.006   4.899
   28        1.614   3.279   0.006   4.899
   29        1.614   3.284   0.006   4.905
   30        1.614   3.275   0.006   4.895
   31        1.614   3.283   0.006   4.904
   32        1.616   3.269   0.007   4.892
   33        1.614   3.279   0.006   4.899
   34        1.614   3.275   0.006   4.895
   35        1.614   3.283   0.006   4.904
   36        1.613   3.274   0.004   4.891
   37        1.614   3.278   0.006   4.898
   38        1.614   3.279   0.006   4.899
   39        1.615   3.314   0.006   4.934
--------------------------------------------------
tot         63.803 116.493  78.975 259.271

    CHARGE:  cpu time    0.3963: real time    0.3964
    FORLOC:  cpu time    0.0110: real time    0.0110
    FORNL :  cpu time    1.9157: real time    1.9158
    STRESS:  cpu time   49.8339: real time   49.8358
    FORCOR:  cpu time    0.2411: real time    0.2411
    FORHAR:  cpu time    0.0275: real time    0.0275
    MIXING:  cpu time    0.0019: real time    0.0019
    OFIELD:  cpu time    0.0000: real time    0.0000

  FORCE on cell =-STRESS in cart. coord.  units (eV):
  Direction    XX          YY          ZZ          XY          YZ          ZX
  --------------------------------------------------------------------------------------
  Alpha Z   872.70584   872.70584   872.70584
  Ewald   -5711.13197 -6433.28985 -5831.23371   -21.20699   -22.71188    33.18185
  Hartree  2671.18549  2139.57149  2599.08192   -13.35581   -13.53664    63.12867
  E(xc)   -1448.96931 -1449.45092 -1448.92306     0.00100    -0.02917    -0.29235
  Local   -3349.76759 -2092.75427 -3159.40664    34.20252    36.29680   -95.07212
  n-local  1748.38784  1741.89196  1746.89089    -0.13755    -0.20316    -0.38018
  augment   819.51255   816.06956   818.33943    -0.05050    -0.00508     0.40341
  Kinetic  4390.91692  4399.60232  4398.68782     0.70928    -0.23103    -5.08040
  Fock        0.00000     0.00000     0.00000     0.00000     0.00000     0.00000
  -------------------------------------------------------------------------------------
  Total      -7.16023    -5.65387    -3.85751     0.16195    -0.42016    -4.11112
  in kB      -7.19205    -5.67900    -3.87466     0.16267    -0.42203    -4.12939
  external pressure =       -5.58 kB  Pullay stress =        0.00 kB


 VOLUME and BASIS-vectors are now :
 -----------------------------------------------------------------------------
  energy-cutoff  :      300.00
  volume of cell :     1595.09
      direct lattice vectors                 reciprocal lattice vectors
     8.456489000  0.000000000  8.040301000     0.059126193 -0.000000000  0.062186727
     0.000000000 11.729847000  0.000000000     0.000000000  0.085252604 -0.000000000
    -8.456489000  0.000000000  8.040301000    -0.059126193  0.000000000  0.062186727

  length of vectors
    11.668703715 11.729847000 11.668703715     0.085808482  0.085252604  0.085808482


 FORCES acting on ions
    electron-ion (+dipol)            ewald-force                    non-local-force                 convergence-correction
 -----------------------------------------------------------------------------------------------
   0.388E+02 -.811E+00 -.282E+02   -.387E+02 0.830E+00 0.281E+02   -.138E+00 -.152E-01 0.524E-01   -.733E-03 0.143E-04 0.644E-03
   0.141E+02 0.386E+01 0.255E+01   -.141E+02 -.383E+01 -.249E+01   0.590E-01 -.292E-01 -.739E-01   0.855E-03 -.738E-04 -.725E-03
   -.226E+02 -.670E+00 -.276E+02   0.226E+02 0.701E+00 0.273E+02   0.115E+01 0.105E+00 -.125E+01   -.141E-03 0.126E-03 0.210E-03
   -.634E+02 0.160E+01 0.231E+02   0.632E+02 -.164E+01 -.228E+02   0.159E+00 0.271E-01 -.177E+00   0.756E-03 -.485E-04 -.962E-03
   0.117E+02 -.674E+00 0.316E+02   -.118E+02 0.714E+00 -.315E+02   0.790E-01 -.357E-01 -.130E+00   0.104E-02 0.123E-03 -.950E-03
   0.362E+02 0.220E+01 -.274E+01   -.362E+02 -.223E+01 0.259E+01   -.784E-02 0.167E-02 0.141E+00   -.624E-03 -.160E-03 0.934E-03
   -.297E+02 -.324E+01 0.490E+02   0.302E+02 0.321E+01 -.492E+02   -.430E+00 0.259E-01 0.164E+00   0.522E-03 0.385E-04 -.498E-03
   0.321E+02 -.515E+00 -.169E+02   -.317E+02 0.453E+00 0.168E+02   -.405E+00 0.464E-01 0.202E-01   -.104E-02 -.409E-04 0.813E-03
   -.506E+01 0.138E+02 -.128E+02   0.519E+01 -.138E+02 0.130E+02   -.173E+00 0.751E-01 -.284E+00   -.628E-03 -.126E-02 -.918E-03
   0.237E+02 0.109E+03 -.358E+01   -.239E+02 -.113E+03 0.443E+01   0.472E+00 0.461E+01 -.620E+00   0.240E-05 -.471E-02 0.540E-03
   0.477E+01 0.976E+01 0.915E+01   -.487E+01 -.985E+01 -.871E+01   0.141E+00 0.552E-01 -.337E+00   0.566E-03 -.147E-02 0.905E-03
   -.230E+02 0.107E+03 0.218E+01   0.230E+02 -.111E+03 -.320E+01   -.180E+00 0.400E+01 0.795E+00   -.225E-03 -.436E-02 -.726E-03
   0.411E+01 -.907E+01 0.126E+02   -.416E+01 0.909E+01 -.127E+02   0.105E+00 0.805E-02 0.105E+00   0.667E-03 0.147E-02 0.829E-03
   -.490E+02 -.123E+03 -.171E+02   0.509E+02 0.128E+03 0.176E+02   -.197E+01 -.506E+01 -.563E+00   0.135E-02 0.538E-02 0.565E-03
   -.603E+01 -.131E+02 -.921E+01   0.637E+01 0.132E+02 0.894E+01   -.320E+00 -.115E+00 0.177E+00   -.730E-03 0.126E-02 -.807E-03
   0.319E+02 -.103E+03 0.967E+01   -.317E+02 0.107E+03 -.884E+01   -.362E-01 -.371E+01 -.699E+00   -.482E-03 0.379E-02 0.110E-03
   0.491E+01 0.420E+00 0.474E+02   -.501E+01 -.436E+00 -.476E+02   0.626E-01 0.811E-02 0.168E+00   0.571E-03 0.334E-04 0.521E-03
   -.172E+02 -.507E+00 0.294E+02   0.173E+02 0.502E+00 -.296E+02   -.103E+00 0.130E-02 0.243E+00   -.303E-03 -.141E-04 -.290E-04
   0.298E+01 -.881E+01 0.449E+02   -.297E+01 0.899E+01 -.455E+02   -.478E-02 -.856E-01 0.603E+00   0.246E-04 0.834E-04 0.114E-04
   0.199E+02 -.340E+00 -.434E+02   -.201E+02 0.332E+00 0.435E+02   0.187E+00 0.425E-02 -.144E+00   -.436E-03 0.749E-05 -.573E-03
   -.283E+01 0.143E+00 -.348E+02   0.292E+01 -.153E+00 0.351E+02   -.906E-01 0.757E-02 -.306E+00   0.122E-03 -.475E-04 0.245E-03
   -.188E+02 0.232E+01 -.474E+02   0.189E+02 -.229E+01 0.480E+02   -.811E-01 -.766E-01 -.655E+00   0.196E-03 0.170E-03 -.158E-03
   -.234E+02 0.524E+01 0.283E+02   0.236E+02 -.538E+01 -.285E+02   -.180E+00 0.126E+00 0.226E+00   -.577E-05 0.721E-03 -.569E-04
   -.170E+02 0.254E+02 0.318E+02   0.172E+02 -.256E+02 -.323E+02   -.193E-01 -.543E+00 0.418E+00   0.777E-04 0.575E-03 0.954E-04
   0.408E+02 -.312E+02 0.124E+02   -.409E+02 0.315E+02 -.126E+02   0.742E-01 -.233E+00 0.224E+00   -.416E-04 0.638E-03 0.696E-03
   -.214E+01 -.345E+02 0.229E+02   0.183E+01 0.347E+02 -.231E+02   0.318E+00 -.308E+00 0.235E+00   0.135E-03 0.864E-03 -.563E-03
   -.299E+02 0.995E+01 -.239E+01   0.301E+02 -.987E+01 0.269E+01   -.221E+00 -.637E-01 -.342E+00   0.494E-03 -.103E-02 -.981E-04
   -.541E+01 0.104E+02 -.400E+02   0.562E+01 -.103E+02 0.402E+02   -.216E+00 -.104E+00 -.123E+00   -.667E-03 -.601E-03 -.511E-04
   0.216E+02 0.128E+02 -.257E+02   -.218E+02 -.129E+02 0.259E+02   0.233E+00 0.223E+00 -.206E+00   -.990E-04 -.893E-03 0.435E-04
   0.938E+01 0.631E+02 -.209E+02   -.953E+01 -.633E+02 0.211E+02   0.159E+00 0.185E+00 -.222E+00   0.793E-04 -.552E-03 0.270E-04
   -.237E+02 -.734E+01 0.307E+02   0.239E+02 0.750E+01 -.310E+02   -.193E+00 -.148E+00 0.282E+00   0.451E-05 -.712E-03 -.200E-04
   -.208E+02 -.605E+01 0.184E+02   0.211E+02 0.584E+01 -.186E+02   -.222E+00 0.714E+00 0.190E+00   0.218E-04 -.638E-03 0.482E-04
   0.395E+02 0.320E+02 0.140E+02   -.396E+02 -.322E+02 -.142E+02   0.687E-01 0.224E+00 0.228E+00   0.872E-04 -.626E-03 0.771E-03
   -.357E+01 0.374E+02 0.347E+02   0.330E+01 -.377E+02 -.350E+02   0.299E+00 0.330E+00 0.318E+00   0.605E-05 -.869E-03 -.622E-03
   0.226E+02 -.145E+02 -.301E+02   -.229E+02 0.147E+02 0.303E+02   0.256E+00 -.229E+00 -.270E+00   -.231E-04 0.850E-03 0.110E-04
   0.220E+02 -.571E+02 -.398E+01   -.223E+02 0.573E+02 0.402E+01   0.248E+00 -.134E+00 -.102E+00   -.618E-05 0.348E-03 -.125E-03
   -.257E+02 -.662E+01 -.408E+01   0.260E+02 0.651E+01 0.440E+01   -.227E+00 0.887E-01 -.366E+00   0.488E-03 0.102E-02 -.108E-03
   -.534E+01 -.790E+01 -.470E+02   0.552E+01 0.776E+01 0.473E+02   -.175E+00 0.135E+00 -.238E+00   -.691E-03 0.624E-03 0.147E-03
   0.162E+02 -.168E+02 -.357E+02   -.164E+02 0.168E+02 0.360E+02   -.119E+01 -.175E+00 0.120E+01   -.103E-03 0.194E-03 0.102E-03
 -----------------------------------------------------------------------------------------------
   0.251E+01 0.126E+00 0.133E+01   -.711E-13 -.213E-13 -.355E-13   -.250E+01 -.723E-01 -.132E+01   0.109E-02 0.229E-03 0.279E-03


 POSITION                                       TOTAL-FORCE (eV/Angst)
 -----------------------------------------------------------------------------------
      0.54568      2.94882      3.76670         0.022132     -0.007325     -0.038266
      0.39933      2.89765     12.01379         0.044684      0.003674     -0.024939
      3.83592      8.85968      7.69372         1.103454      0.136662     -1.421444
     -4.81436      8.79378      7.96912        -0.064054     -0.007366      0.033645
     -3.72449      2.98467      8.31869        -0.012147      0.012184      0.038358
      4.80525      2.91369      8.13732        -0.014731     -0.016209     -0.009937
     -0.61819      8.79788     12.38164         0.086356     -0.006483     -0.028707
     -0.41724      8.77872      4.07889         0.031670     -0.004196     -0.051646
     -8.43671      0.00941      8.04123        -0.030115     -0.015186     -0.097405
      0.01775      0.07331      8.02000         0.241680     -0.006713      0.221733
     -4.23041      0.01535     12.03831         0.035698     -0.034740      0.082139
     -4.21838      0.14334      4.05686        -0.241405      0.029627     -0.217102
      4.22611      5.86760      4.02530         0.045914      0.027046      0.046998
      4.13691      5.81135     11.99192        -0.147890      0.144064     -0.064321
      8.44616      5.86272      8.04796         0.004444      0.009637     -0.088142
      0.03110      5.82451      8.06617         0.124153      0.072463      0.140613
     -4.19921      8.80577     11.59734        -0.026569      0.000202     -0.049079
      0.01733      2.93678     15.63166         0.010135     -0.000438      0.014995
     -0.12445      2.91035      7.42788        -0.009465      0.070607      0.048158
     -0.06240      8.80290      0.44641         0.018094      0.000137      0.025044
      4.16349      2.93904      4.50499        -0.011674      0.002964     -0.013166
     -4.26688      2.99468      4.66888        -0.008306     -0.070852     -0.032650
     -5.96000      5.53530      9.65060         0.000915     -0.008966      0.001668
      2.47855      5.26489      9.67051         0.152445     -0.674064      0.015322
      1.73815      6.31475      5.67755        -0.075257     -0.026586      0.030711
      1.73710      6.28789     13.64290         0.032444     -0.041383      0.035581
     -1.70476      0.34811     10.44329         0.016631      0.008451     -0.067606
     -1.72891      0.36775      2.42983        -0.027804     -0.011039      0.058057
      5.99731     11.44616      6.40378         0.027685      0.073674     -0.010995
     -2.48354     11.19353      6.39714         0.022425     -0.037300      0.019270
     -5.90840      0.36664      9.60467         0.001973      0.009714      0.007716
      2.53865      0.36540      9.62147         0.048923      0.532599     -0.029253
      1.70703     11.30553      5.62620        -0.071914      0.017377      0.005239
      1.75639     11.29076     13.64496         0.045994      0.037634      0.027612
      5.93635      6.19228      6.45557         0.029427     -0.061130     -0.009217
     -2.43502      6.43806      6.44675        -0.011519     -0.005358     -0.068246
     -1.68890      5.50526     10.48733         0.014423     -0.011047     -0.071668
     -1.75000      5.49781      2.42389        -0.009977      0.002588      0.030457
      2.06320      8.64770      9.99245        -1.398872     -0.144922      1.510475
 -----------------------------------------------------------------------------------
    total drift:                                0.002985      0.053706      0.009730


--------------------------------------------------------------------------------------------------------



  FREE ENERGIE OF THE ION-ELECTRON SYSTEM (eV)
  ---------------------------------------------------
  free  energy   TOTEN  =     -1408.21622718 eV

  energy  without entropy=    -1408.21622718  energy(sigma->0) =    -1408.21622718



--------------------------------------------------------------------------------------------------------


    POTLOK:  cpu time    1.4321: real time    1.4322


--------------------------------------------------------------------------------------------------------


 stress matrix after NEB project (eV)
     -7.16023      0.16200     -4.11112
      0.16195     -5.65387     -0.42024
     -4.11111     -0.42016     -3.85751
  FORCES: max atom, RMS     2.063826    0.472650
  FORCE total and by dimension    2.951697    1.510475
  Stress total and by dimension   11.503202    7.160230
     LOOP+:  cpu time  414.3413: real time  414.9383
    4ORBIT:  cpu time    0.0000: real time    0.0000



 total charge     

# of ion       s       p       d       tot
------------------------------------------
    1        1.785   4.716   0.017   6.519
    2        1.785   4.716   0.017   6.518
    3        1.799   4.715   0.050   6.564
    4        1.786   4.717   0.019   6.522
    5        1.785   4.717   0.018   6.520
    6        1.786   4.717   0.019   6.522
    7        1.787   4.716   0.021   6.525
    8        1.785   4.717   0.017   6.519
    9        1.554   0.418   9.834  11.806
   10        1.539   0.413   9.829  11.781
   11        1.554   0.418   9.834  11.806
   12        1.540   0.414   9.829  11.783
   13        1.554   0.418   9.834  11.806
   14        1.534   0.416   9.829  11.780
   15        1.554   0.418   9.834  11.806
   16        1.542   0.401   9.829  11.772
   17        1.614   3.286   0.007   4.907
   18        1.615   3.286   0.007   4.908
   19        1.614   3.269   0.006   4.890
   20        1.614   3.285   0.007   4.906
   21        1.614   3.284   0.007   4.906
   22        1.615   3.269   0.007   4.891
   23        1.614   3.284   0.006   4.904
   24        1.617   3.276   0.008   4.902
   25        1.614   3.278   0.006   4.899
   26        1.615   3.276   0.006   4.897
   27        1.614   3.279   0.006   4.899
   28        1.614   3.279   0.006   4.899
   29        1.614   3.284   0.006   4.905
   30        1.614   3.275   0.006   4.895
   31        1.614   3.283   0.006   4.904
   32        1.616   3.269   0.007   4.892
   33        1.614   3.279   0.006   4.899
   34        1.614   3.275   0.006   4.895
   35        1.614   3.283   0.006   4.904
   36        1.613   3.274   0.004   4.891
   37        1.614   3.278   0.006   4.898
   38        1.614   3.279   0.006   4.899
   39        1.615   3.314   0.006   4.934
--------------------------------------------------
tot         63.803 116.493  78.975 259.271


 total amount of memory used by VASP MPI-rank0    60649. kBytes
=======================================================================

   base      :      30000. kBytes
   nonlr-proj:       6484. kBytes
   fftplans  :       8423. kBytes
   grid      :       7465. kBytes
   one-center:         77. kBytes
   wavefun   :       8200. kBytes

  
  
 General timing and accounting informations for this job:
 ========================================================
  
                  Total CPU time used (sec):      426.736
                            User time (sec):      425.280
                          System time (sec):        1.456
                         Elapsed time (sec):      427.603
  
                   Maximum memory used (kb):       77124.
                   Average memory used (kb):           0.
  
                          Minor page faults:        20555
                          Major page faults:            1
                 Voluntary context switches:         1581
