<?xml version="1.0" encoding="ISO-8859-1"?>
<modeling>
 <generator>
  <i name="program" type="string">vasp </i>
  <i name="version" type="string">5.4.4.18Apr17-6-g9f103f2a35  </i>
  <i name="subversion" type="string">(build Jun 22 2020 09:27:21) complex            parallel </i>
  <i name="platform" type="string">tx2_gcc-7.3_libsci-18.07_cray-fftw-3.3.8 </i>
  <i name="date" type="string">2021 10 11 </i>
  <i name="time" type="string">19:32:31 </i>
 </generator>
 <incar>
  <i type="string" name="SYSTEM"> CsPbBr3 cubic bulk</i>
  <i type="string" name="PREC">accurate</i>
  <i type="string" name="ALGO"> NORMAL   ! Electronic minimisation algo</i>
  <i type="logical" name="ADDGRID"> T  </i>
  <i type="int" name="ISPIN">     1</i>
  <i type="int" name="NELM">   200</i>
  <i type="int" name="IBRION">     2</i>
  <i name="EDIFF">      0.00000100</i>
  <i name="EDIFFG">     -0.01000000</i>
  <i type="int" name="NSW">     0</i>
  <i type="int" name="ISIF">     2</i>
  <i type="int" name="ISYM">     0</i>
  <i name="ENCUT">    300.00000000</i>
  <i name="POTIM">      0.50000000</i>
  <i name="NUPDOWN">      0.00000000</i>
  <i name="NELECT">    344.00000000</i>
  <i type="string" name="LREAL"> AUTO</i>
  <i type="int" name="ISMEAR">     0</i>
  <i name="SIGMA">      0.01000000</i>
  <i type="logical" name="LWAVE"> F  </i>
  <i type="logical" name="LCHARG"> F  </i>
  <i type="logical" name="LVHAR"> T  </i>
  <i type="int" name="LORBIT">    10</i>
  <i type="logical" name="LASPH"> T  </i>
  <v type="int" name="KPOINT_BSE">    -1     0     0     0</v>
  <i type="int" name="NELM">   200</i>
  <i type="string" name="METAGGA"> SCAN       ! PBE exchange-correlation</i>
  <i type="logical" name="LASPH"> T  </i>
 </incar>
 <structure name="primitive_cell" >
  <crystal>
   <varray name="basis" >
    <v>       8.45648900       0.00000000       8.04030100 </v>
    <v>       0.00000000      11.72984700       0.00000000 </v>
    <v>      -8.45648900       0.00000000       8.04030100 </v>
   </varray>
   <i name="volume">   1595.08833419 </i>
   <varray name="rec_basis" >
    <v>       0.05912619      -0.00000000       0.06218673 </v>
    <v>       0.00000000       0.08525260      -0.00000000 </v>
    <v>      -0.05912619       0.00000000       0.06218673 </v>
   </varray>
  </crystal>
  <varray name="positions" >
   <v>       0.26650300       0.25139500       0.20197500 </v>
   <v>       0.04726300       0.46870300       0.25420500 </v>
   <v>       0.04887900       0.03135200       0.25332700 </v>
   <v>      -0.47367800       0.25056100       0.03397900 </v>
   <v>       0.45455700       0.24811500       0.46927400 </v>
   <v>       0.24774700       0.47189900      -0.04746900 </v>
   <v>       0.24794200       0.03125700      -0.05337600 </v>
   <v>       0.45080500      -0.03617400       0.24894500 </v>
   <v>       0.45583800      -0.46165100       0.25029800 </v>
   <v>      -0.02689400       0.25036800      -0.02894300 </v>
   <v>      -0.49980600      -0.49977200       0.00044700 </v>
   <v>       0.49849500       0.00130900      -0.00124900 </v>
   <v>      -0.00013500       0.49981200       0.00108700 </v>
   <v>       0.00122700       0.00080200      -0.00111200 </v>
   <v>       0.03805800       0.25530400      -0.45737300 </v>
   <v>       0.49978700       0.00625000       0.49768800 </v>
   <v>      -0.49655200       0.49655500       0.49977000 </v>
   <v>       0.25097500      -0.04572200      -0.45534000 </v>
   <v>       0.25692900      -0.45113900      -0.45512400 </v>
   <v>       0.29709700       0.25445100      -0.26247300 </v>
   <v>       0.00286600       0.01222000      -0.49830000 </v>
   <v>      -0.20985100       0.24840000       0.22191700 </v>
   <v>      -0.00966200       0.49543300      -0.49886200 </v>
   <v>       0.22898300      -0.25159100       0.27832300 </v>
   <v>      -0.25207500       0.44884600       0.45483000 </v>
   <v>      -0.25157200       0.03115100       0.44822700 </v>
   <v>       0.02407100      -0.24953000       0.03145000 </v>
   <v>      -0.24755500      -0.47209200       0.05045700 </v>
   <v>      -0.44768500       0.46933800      -0.24796900 </v>
   <v>      -0.24717200      -0.02418500       0.04363200 </v>
   <v>      -0.45136200       0.02967700      -0.24977000 </v>
   <v>       0.47291700      -0.24928500      -0.03051600 </v>
   <v>      -0.04888500      -0.46394100      -0.25430100 </v>
   <v>      -0.04761600      -0.03743300      -0.25531300 </v>
   <v>       0.21091900      -0.25030700      -0.21977200 </v>
   <v>      -0.29474900      -0.24468900       0.25164400 </v>
   <v>      -0.22929100       0.24703200      -0.27651300 </v>
   <v>      -0.25661300      -0.26276100       0.49940900 </v>
   <v>      -0.26657800      -0.24995800      -0.19347500 </v>
  </varray>
 </structure>
 <varray name="primitive_index" >
  <v type="int" >        1 </v>
  <v type="int" >       38 </v>
  <v type="int" >       28 </v>
  <v type="int" >       21 </v>
  <v type="int" >       19 </v>
  <v type="int" >       23 </v>
  <v type="int" >       31 </v>
  <v type="int" >       33 </v>
  <v type="int" >       25 </v>
  <v type="int" >       18 </v>
  <v type="int" >       13 </v>
  <v type="int" >       11 </v>
  <v type="int" >       15 </v>
  <v type="int" >        9 </v>
  <v type="int" >       22 </v>
  <v type="int" >       10 </v>
  <v type="int" >       16 </v>
  <v type="int" >       30 </v>
  <v type="int" >       36 </v>
  <v type="int" >        5 </v>
  <v type="int" >       12 </v>
  <v type="int" >        6 </v>
  <v type="int" >       14 </v>
  <v type="int" >        8 </v>
  <v type="int" >       24 </v>
  <v type="int" >       32 </v>
  <v type="int" >       20 </v>
  <v type="int" >       35 </v>
  <v type="int" >       37 </v>
  <v type="int" >       29 </v>
  <v type="int" >       27 </v>
  <v type="int" >       17 </v>
  <v type="int" >       26 </v>
  <v type="int" >       34 </v>
  <v type="int" >        4 </v>
  <v type="int" >        3 </v>
  <v type="int" >        2 </v>
  <v type="int" >       39 </v>
  <v type="int" >        7 </v>
 </varray>
 <kpoints>
  <generation param="Gamma">
   <v type="int" name="divisions">       2        2        2 </v>
   <v name="usershift">      0.00000000       0.00000000       0.00000000 </v>
   <v name="genvec1">      0.50000000       0.00000000       0.00000000 </v>
   <v name="genvec2">      0.00000000       0.50000000       0.00000000 </v>
   <v name="genvec3">      0.00000000       0.00000000       0.50000000 </v>
   <v name="shift">      0.00000000       0.00000000       0.00000000 </v>
  </generation>
  <varray name="kpointlist" >
   <v>       0.00000000       0.00000000       0.00000000 </v>
   <v>       0.50000000       0.00000000       0.00000000 </v>
   <v>       0.00000000       0.50000000       0.00000000 </v>
   <v>       0.50000000       0.50000000       0.00000000 </v>
   <v>       0.00000000       0.00000000       0.50000000 </v>
   <v>       0.50000000       0.00000000       0.50000000 </v>
   <v>       0.00000000       0.50000000       0.50000000 </v>
   <v>       0.50000000       0.50000000       0.50000000 </v>
  </varray>
  <varray name="weights" >
   <v>       0.12500000 </v>
   <v>       0.12500000 </v>
   <v>       0.12500000 </v>
   <v>       0.12500000 </v>
   <v>       0.12500000 </v>
   <v>       0.12500000 </v>
   <v>       0.12500000 </v>
   <v>       0.12500000 </v>
  </varray>
 </kpoints>
 <parameters>
  <separator name="general" >
   <i type="string" name="SYSTEM">CsPbBr3 cubic bulk</i>
   <i type="logical" name="LCOMPAT"> F  </i>
  </separator>
  <separator name="electronic" >
   <i type="string" name="PREC">accura</i>
   <i name="ENMAX">    300.00000000</i>
   <i name="ENAUG">    503.85200000</i>
   <i name="EDIFF">      0.00000100</i>
   <i type="int" name="IALGO">    38</i>
   <i type="int" name="IWAVPR">    10</i>
   <i type="int" name="NBANDS">   208</i>
   <i name="NELECT">    344.00000000</i>
   <i type="int" name="TURBO">     0</i>
   <i type="int" name="IRESTART">     0</i>
   <i type="int" name="NREBOOT">     0</i>
   <i type="int" name="NMIN">     0</i>
   <i name="EREF">      0.00000000</i>
   <separator name="electronic smearing" >
    <i type="int" name="ISMEAR">     0</i>
    <i name="SIGMA">      0.01000000</i>
    <i name="KSPACING">      0.50000000</i>
    <i type="logical" name="KGAMMA"> T  </i>
   </separator>
   <separator name="electronic projectors" >
    <i type="logical" name="LREAL"> T  </i>
    <v name="ROPT">     -0.00025000     -0.00025000     -0.00025000</v>
    <i type="int" name="LMAXPAW">  -100</i>
    <i type="int" name="LMAXMIX">     2</i>
    <i type="logical" name="NLSPLINE"> F  </i>
   </separator>
   <separator name="electronic startup" >
    <i type="int" name="ISTART">     0</i>
    <i type="int" name="ICHARG">     2</i>
    <i type="int" name="INIWAV">     1</i>
   </separator>
   <separator name="electronic spin" >
    <i type="int" name="ISPIN">     1</i>
    <i type="logical" name="LNONCOLLINEAR"> F  </i>
    <v name="MAGMOM">      0.00000000      0.00000000      0.00000000      0.00000000      0.00000000      0.00000000      0.00000000      0.00000000      0.00000000      0.00000000      0.00000000      0.00000000      0.00000000      0.00000000      0.00000000      0.00000000      0.00000000      0.00000000      0.00000000      0.00000000
      0.00000000      0.00000000      0.00000000      0.00000000      0.00000000      0.00000000      0.00000000      0.00000000      0.00000000      0.00000000      0.00000000      0.00000000      0.00000000      0.00000000      0.00000000      0.00000000      0.00000000      0.00000000      0.00000000</v>
    <i name="NUPDOWN">      0.00000000</i>
    <i type="logical" name="LSORBIT"> F  </i>
    <v name="SAXIS">      0.00000000      0.00000000      1.00000000</v>
    <i type="logical" name="LSPIRAL"> F  </i>
    <v name="QSPIRAL">      0.00000000      0.00000000      0.00000000</v>
    <i type="logical" name="LZEROZ"> F  </i>
   </separator>
   <separator name="electronic exchange-correlation" >
    <i type="logical" name="LASPH"> T  </i>
    <i type="logical" name="LMETAGGA"> F  </i>
   </separator>
   <separator name="electronic convergence" >
    <i type="int" name="NELM">   200</i>
    <i type="int" name="NELMDL">    -5</i>
    <i type="int" name="NELMIN">     2</i>
    <i name="ENINI">    300.00000000</i>
    <separator name="electronic convergence detail" >
     <i type="logical" name="LDIAG"> T  </i>
     <i type="logical" name="LSUBROT"> F  </i>
     <i name="WEIMIN">      0.00000000</i>
     <i name="EBREAK">      0.00000000</i>
     <i name="DEPER">      0.30000000</i>
     <i type="int" name="NRMM">     4</i>
     <i name="TIME">      0.40000000</i>
    </separator>
   </separator>
   <separator name="electronic mixer" >
    <i name="AMIX">      0.40000000</i>
    <i name="BMIX">      1.00000000</i>
    <i name="AMIN">      0.10000000</i>
    <i name="AMIX_MAG">      1.60000000</i>
    <i name="BMIX_MAG">      1.00000000</i>
    <separator name="electronic mixer details" >
     <i type="int" name="IMIX">     4</i>
     <i type="logical" name="MIXFIRST"> F  </i>
     <i type="int" name="MAXMIX">   -45</i>
     <i name="WC">    100.00000000</i>
     <i type="int" name="INIMIX">     1</i>
     <i type="int" name="MIXPRE">     1</i>
     <i type="int" name="MREMOVE">     5</i>
    </separator>
   </separator>
   <separator name="electronic dipolcorrection" >
    <i type="logical" name="LDIPOL"> F  </i>
    <i type="logical" name="LMONO"> F  </i>
    <i type="int" name="IDIPOL">     0</i>
    <i name="EPSILON">      1.00000000</i>
    <v name="DIPOL">   -100.00000000   -100.00000000   -100.00000000</v>
    <i name="EFIELD">      0.00000000</i>
   </separator>
  </separator>
  <separator name="grids" >
   <i type="int" name="NGX">    70</i>
   <i type="int" name="NGY">    70</i>
   <i type="int" name="NGZ">    70</i>
   <i type="int" name="NGXF">   140</i>
   <i type="int" name="NGYF">   140</i>
   <i type="int" name="NGZF">   140</i>
   <i type="logical" name="ADDGRID"> T  </i>
  </separator>
  <separator name="ionic" >
   <i type="int" name="NSW">     0</i>
   <i type="int" name="IBRION">    -1</i>
   <i type="int" name="MDALGO">     0</i>
   <i type="int" name="ISIF">     2</i>
   <i name="PSTRESS">      0.00000000</i>
   <i name="EDIFFG">     -0.01000000</i>
   <i type="int" name="NFREE">     1</i>
   <i name="POTIM">      0.50000000</i>
   <i name="SMASS">     -3.00000000</i>
   <i name="SCALEE">      1.00000000</i>
  </separator>
  <separator name="ionic md" >
   <i name="TEBEG">      0.00010000</i>
   <i name="TEEND">      0.00010000</i>
   <i type="int" name="NBLOCK">     1</i>
   <i type="int" name="KBLOCK">     1</i>
   <i type="int" name="NPACO">   256</i>
   <i name="APACO">     16.00000000</i>
  </separator>
  <separator name="symmetry" >
   <i type="int" name="ISYM">     0</i>
   <i name="SYMPREC">      0.00001000</i>
  </separator>
  <separator name="dos" >
   <i type="int" name="LORBIT">    10</i>
   <v name="RWIGS">     -1.00000000     -1.00000000     -1.00000000</v>
   <i type="int" name="NEDOS">   301</i>
   <i name="EMIN">     10.00000000</i>
   <i name="EMAX">    -10.00000000</i>
   <i name="EFERMI">      0.00000000</i>
  </separator>
  <separator name="writing" >
   <i type="int" name="NWRITE">     2</i>
   <i type="logical" name="LWAVE"> F  </i>
   <i type="logical" name="LDOWNSAMPLE"> F  </i>
   <i type="logical" name="LCHARG"> F  </i>
   <i type="logical" name="LPARD"> F  </i>
   <i type="logical" name="LVTOT"> F  </i>
   <i type="logical" name="LVHAR"> T  </i>
   <i type="logical" name="LELF"> F  </i>
   <i type="logical" name="LOPTICS"> F  </i>
   <v name="STM">      0.00000000      0.00000000      0.00000000      0.00000000      0.00000000      0.00000000      0.00000000</v>
  </separator>
  <separator name="performance" >
   <i type="int" name="NPAR">     8</i>
   <i type="int" name="NSIM">     4</i>
   <i type="int" name="NBLK">    -1</i>
   <i type="logical" name="LPLANE"> T  </i>
   <i type="logical" name="LSCALAPACK"> T  </i>
   <i type="logical" name="LSCAAWARE"> F  </i>
   <i type="logical" name="LSCALU"> F  </i>
   <i type="logical" name="LASYNC"> F  </i>
   <i type="logical" name="LORBITALREAL"> F  </i>
  </separator>
  <separator name="miscellaneous" >
   <i type="int" name="IDIOT">     3</i>
   <i type="int" name="ISPECIAL">     0</i>
   <i type="logical" name="LMUSIC"> F  </i>
   <v name="POMASS">    132.90000000    207.20000000     79.90400000</v>
   <v name="DARWINR">      0.00000000      0.00000000      0.00000000</v>
   <v name="DARWINV">      1.00000000      1.00000000      1.00000000</v>
   <i type="logical" name="LCORR"> T  </i>
  </separator>
  <i type="logical" name="GGA_COMPAT"> T  </i>
  <i type="logical" name="LBERRY"> F  </i>
  <i type="int" name="ICORELEVEL">     0</i>
  <i type="logical" name="LDAU"> F  </i>
  <i type="int" name="I_CONSTRAINED_M">     0</i>
  <separator name="electronic exchange-correlation" >
   <i type="string" name="GGA">--</i>
   <i type="int" name="VOSKOWN">     0</i>
   <i type="logical" name="LHFCALC"> F  </i>
   <i type="string" name="PRECFOCK"></i>
   <i type="logical" name="LSYMGRAD"> F  </i>
   <i type="logical" name="LHFONE"> F  </i>
   <i type="logical" name="LRHFCALC"> F  </i>
   <i type="logical" name="LTHOMAS"> F  </i>
   <i type="logical" name="LMODELHF"> F  </i>
   <i name="ENCUT4O">     -1.00000000</i>
   <i type="int" name="EXXOEP">     0</i>
   <i type="int" name="FOURORBIT">     0</i>
   <i name="AEXX">      0.00000000</i>
   <i name="HFALPHA">      0.00000000</i>
   <i name="MCALPHA">      0.00000000</i>
   <i name="ALDAX">      1.00000000</i>
   <i name="AGGAX">      1.00000000</i>
   <i name="ALDAC">      1.00000000</i>
   <i name="AGGAC">      1.00000000</i>
   <i type="int" name="NKREDX">     1</i>
   <i type="int" name="NKREDY">     1</i>
   <i type="int" name="NKREDZ">     1</i>
   <i type="logical" name="SHIFTRED"> F  </i>
   <i type="logical" name="ODDONLY"> F  </i>
   <i type="logical" name="EVENONLY"> F  </i>
   <i type="int" name="LMAXFOCK">     0</i>
   <i type="int" name="NMAXFOCKAE">     0</i>
   <i type="logical" name="LFOCKAEDFT"> F  </i>
   <i name="HFSCREEN">      0.00000000</i>
   <i name="HFSCREENC">      0.00000000</i>
   <i type="int" name="NBANDSGWLOW">     0</i>
  </separator>
  <separator name="vdW DFT" >
   <i type="logical" name="LUSE_VDW"> F  </i>
   <i name="Zab_VDW">     -0.84910000</i>
   <i name="PARAM1">      0.12340000</i>
   <i name="PARAM2">      1.00000000</i>
   <i name="PARAM3">      0.00000000</i>
  </separator>
  <separator name="model GW" >
   <i type="int" name="MODEL_GW">     0</i>
   <i name="MODEL_EPS0">     24.53982053</i>
   <i name="MODEL_ALPHA">      1.00000000</i>
  </separator>
  <separator name="linear response parameters" >
   <i type="logical" name="LEPSILON"> F  </i>
   <i type="logical" name="LRPA"> F  </i>
   <i type="logical" name="LNABLA"> F  </i>
   <i type="logical" name="LVEL"> F  </i>
   <i type="int" name="KINTER">     0</i>
   <i name="CSHIFT">      0.10000000</i>
   <i name="OMEGAMAX">     -1.00000000</i>
   <i name="DEG_THRESHOLD">      0.00200000</i>
   <i name="RTIME">     -0.10000000</i>
   <i name="WPLASMAI">      0.00000000</i>
   <v name="DFIELD">      0.00000000      0.00000000      0.00000000</v>
   <v name="WPLASMA">      0.00000000      0.00000000      0.00000000      0.00000000      0.00000000      0.00000000      0.00000000      0.00000000      0.00000000</v>
  </separator>
  <separator name="orbital magnetization" >
   <i type="logical" name="NUCIND"> F  </i>
   <v name="MAGPOS">      0.00000000      0.00000000      0.00000000</v>
   <i type="logical" name="LNICSALL"> T  </i>
   <i type="logical" name="ORBITALMAG"> F  </i>
   <i type="logical" name="LMAGBLOCH"> F  </i>
   <i type="logical" name="LCHIMAG"> F  </i>
   <i type="logical" name="LGAUGE"> T  </i>
   <i type="int" name="MAGATOM">     0</i>
   <v name="MAGDIPOL">      0.00000000      0.00000000      0.00000000</v>
   <v name="AVECCONST">      0.00000000      0.00000000      0.00000000</v>
  </separator>
  <separator name="response functions" >
   <i type="logical" name="LADDER"> F  </i>
   <i type="logical" name="LRPAFORCE"> F  </i>
   <i type="logical" name="LFXC"> F  </i>
   <i type="logical" name="LHARTREE"> T  </i>
   <i type="int" name="IBSE">     0</i>
   <v type="int" name="KPOINT">    -1     0     0     0</v>
   <i type="logical" name="LTCTE"> F  </i>
   <i type="logical" name="LTETE"> F  </i>
   <i type="logical" name="LTRIPLET"> F  </i>
   <i type="logical" name="LFXCEPS"> F  </i>
   <i type="logical" name="LFXHEG"> F  </i>
   <i type="int" name="NATURALO">     2</i>
   <i type="logical" name="L2ORDER"> F  </i>
   <i type="logical" name="LMP2LT"> F  </i>
   <i type="logical" name="LUSEW"> F  </i>
   <i name="ENCUTGW">     -2.00000000</i>
   <i name="ENCUTGWSOFT">     -2.00000000</i>
   <i name="ENCUTLF">     -1.00000000</i>
   <i type="int" name="LMAXMP2">    -1</i>
   <i name="SCISSOR">      0.00000000</i>
   <i type="int" name="NOMEGA">     0</i>
   <i type="int" name="NOMEGAR">     0</i>
   <i type="int" name="NBANDSGW">    -1</i>
   <i type="int" name="NBANDSO">    -1</i>
   <i type="int" name="NBANDSV">    -1</i>
   <i type="int" name="NELM">   200</i>
   <i type="int" name="NELMHF">     1</i>
   <i type="int" name="DIM">     3</i>
   <i type="int" name="ANTIRES">     0</i>
   <i name="OMEGAMAX">    -30.00000000</i>
   <i name="OMEGAMIN">    -30.00000000</i>
   <i name="OMEGATL">   -200.00000000</i>
   <i type="int" name="OMEGAGRID">   140</i>
   <i name="CSHIFT">     -0.10000000</i>
   <i type="logical" name="SELFENERGY"> F  </i>
   <i type="logical" name="LSPECTRAL"> F  </i>
   <i type="logical" name="LSPECTRALGW"> F  </i>
   <i type="logical" name="LSINGLES"> F  </i>
   <i type="logical" name="LFERMIGW"> F  </i>
   <i type="logical" name="ODDONLYGW"> F  </i>
   <i type="logical" name="EVENONLYGW"> F  </i>
   <i type="int" name="NKREDLFX">     1</i>
   <i type="int" name="NKREDLFY">     1</i>
   <i type="int" name="NKREDLFZ">     1</i>
   <i type="int" name="MAXMEM">  2800</i>
   <i type="int" name="TELESCOPE">     0</i>
   <i type="int" name="TAUPAR">     1</i>
   <i type="int" name="OMEGAPAR">    -1</i>
   <i name="LAMBDA">      1.00000000</i>
  </separator>
  <separator name="External order field" >
   <i name="OFIELD_KAPPA">      0.00000000</i>
   <v name="OFIELD_K">      0.00000000      0.00000000      0.00000000</v>
   <i name="OFIELD_Q6_NEAR">      0.00000000</i>
   <i name="OFIELD_Q6_FAR">      0.00000000</i>
   <i name="OFIELD_A">      0.00000000</i>
  </separator>
 </parameters>
 <atominfo>
  <atoms>      39 </atoms>
  <types>       3 </types>
  <array name="atoms" >
   <dimension dim="1">ion</dimension>
   <field type="string">element</field>
   <field type="int">atomtype</field>
   <set>
    <rc><c>Cs</c><c>   1</c></rc>
    <rc><c>Cs</c><c>   1</c></rc>
    <rc><c>Cs</c><c>   1</c></rc>
    <rc><c>Cs</c><c>   1</c></rc>
    <rc><c>Cs</c><c>   1</c></rc>
    <rc><c>Cs</c><c>   1</c></rc>
    <rc><c>Cs</c><c>   1</c></rc>
    <rc><c>Cs</c><c>   1</c></rc>
    <rc><c>Pb</c><c>   2</c></rc>
    <rc><c>Pb</c><c>   2</c></rc>
    <rc><c>Pb</c><c>   2</c></rc>
    <rc><c>Pb</c><c>   2</c></rc>
    <rc><c>Pb</c><c>   2</c></rc>
    <rc><c>Pb</c><c>   2</c></rc>
    <rc><c>Pb</c><c>   2</c></rc>
    <rc><c>Pb</c><c>   2</c></rc>
    <rc><c>Br</c><c>   3</c></rc>
    <rc><c>Br</c><c>   3</c></rc>
    <rc><c>Br</c><c>   3</c></rc>
    <rc><c>Br</c><c>   3</c></rc>
    <rc><c>Br</c><c>   3</c></rc>
    <rc><c>Br</c><c>   3</c></rc>
    <rc><c>Br</c><c>   3</c></rc>
    <rc><c>Br</c><c>   3</c></rc>
    <rc><c>Br</c><c>   3</c></rc>
    <rc><c>Br</c><c>   3</c></rc>
    <rc><c>Br</c><c>   3</c></rc>
    <rc><c>Br</c><c>   3</c></rc>
    <rc><c>Br</c><c>   3</c></rc>
    <rc><c>Br</c><c>   3</c></rc>
    <rc><c>Br</c><c>   3</c></rc>
    <rc><c>Br</c><c>   3</c></rc>
    <rc><c>Br</c><c>   3</c></rc>
    <rc><c>Br</c><c>   3</c></rc>
    <rc><c>Br</c><c>   3</c></rc>
    <rc><c>Br</c><c>   3</c></rc>
    <rc><c>Br</c><c>   3</c></rc>
    <rc><c>Br</c><c>   3</c></rc>
    <rc><c>Br</c><c>   3</c></rc>
   </set>
  </array>
  <array name="atomtypes" >
   <dimension dim="1">type</dimension>
   <field type="int">atomspertype</field>
   <field type="string">element</field>
   <field>mass</field>
   <field>valence</field>
   <field type="string">pseudopotential</field>
   <set>
    <rc><c>   8</c><c>Cs</c><c>    132.90000000</c><c>      9.00000000</c><c>  PAW_PBE Cs_sv 08Apr2002               </c></rc>
    <rc><c>   8</c><c>Pb</c><c>    207.20000000</c><c>     14.00000000</c><c>  PAW_PBE Pb_d 06Sep2000                </c></rc>
    <rc><c>  23</c><c>Br</c><c>     79.90400000</c><c>      7.00000000</c><c>  PAW_PBE Br 06Sep2000                  </c></rc>
   </set>
  </array>
 </atominfo>
 <structure name="initialpos" >
  <crystal>
   <varray name="basis" >
    <v>       8.45648900       0.00000000       8.04030100 </v>
    <v>       0.00000000      11.72984700       0.00000000 </v>
    <v>      -8.45648900       0.00000000       8.04030100 </v>
   </varray>
   <i name="volume">   1595.08833419 </i>
   <varray name="rec_basis" >
    <v>       0.05912619      -0.00000000       0.06218673 </v>
    <v>       0.00000000       0.08525260      -0.00000000 </v>
    <v>      -0.05912619       0.00000000       0.06218673 </v>
   </varray>
  </crystal>
  <varray name="positions" >
   <v>       0.26650300       0.25139500       0.20197500 </v>
   <v>       0.77070900       0.24703200       0.72348700 </v>
   <v>       0.70525100       0.75531100       0.25164400 </v>
   <v>       0.21091900       0.74969300       0.78022800 </v>
   <v>       0.29709700       0.25445100       0.73752700 </v>
   <v>       0.79014900       0.24840000       0.22191700 </v>
   <v>       0.73342200       0.75004200       0.80652500 </v>
   <v>       0.22898300       0.74840900       0.27832300 </v>
   <v>       0.00122700       0.00080200       0.99888800 </v>
   <v>       0.49978700       0.00625000       0.49768800 </v>
   <v>       0.49849500       0.00130900       0.99875100 </v>
   <v>       0.00286600       0.01222000       0.50170000 </v>
   <v>       0.50019400       0.50022800       0.00044700 </v>
   <v>       0.99033800       0.49543300       0.50113800 </v>
   <v>       0.99986500       0.49981200       0.00108700 </v>
   <v>       0.50344800       0.49655500       0.49977000 </v>
   <v>       0.47291700       0.75071500       0.96948400 </v>
   <v>       0.97310600       0.25036800       0.97105700 </v>
   <v>       0.45455700       0.24811500       0.46927400 </v>
   <v>       0.02407100       0.75047000       0.03145000 </v>
   <v>       0.52632200       0.25056100       0.03397900 </v>
   <v>       0.03805800       0.25530400       0.54262700 </v>
   <v>       0.24774700       0.47189900       0.95253100 </v>
   <v>       0.74792500       0.44884600       0.45483000 </v>
   <v>       0.45583800       0.53834900       0.25029800 </v>
   <v>       0.95111500       0.53605900       0.74569900 </v>
   <v>       0.54863800       0.02967700       0.75023000 </v>
   <v>       0.04887900       0.03135200       0.25332700 </v>
   <v>       0.75282800       0.97581500       0.04363200 </v>
   <v>       0.25097500       0.95427800       0.54466000 </v>
   <v>       0.24794200       0.03125700       0.94662400 </v>
   <v>       0.74842800       0.03115100       0.44822700 </v>
   <v>       0.45080500       0.96382600       0.24894500 </v>
   <v>       0.95238400       0.96256700       0.74468700 </v>
   <v>       0.75244500       0.52790800       0.05045700 </v>
   <v>       0.25692900       0.54886100       0.54487600 </v>
   <v>       0.55231500       0.46933800       0.75203100 </v>
   <v>       0.04726300       0.46870300       0.25420500 </v>
   <v>       0.74338700       0.73723900       0.49940900 </v>
  </varray>
 </structure>
 <calculation>
  <scstep>
   <time name="dav">   16.64   16.65</time>
   <time name="total">   18.12   18.12</time>
   <energy>
    <i name="alphaZ">    872.70583573 </i>
    <i name="ewald"> -17975.57633731 </i>
    <i name="hartreedc">  -7381.92390169 </i>
    <i name="XCdc">    907.87558372 </i>
    <i name="pawpsdc">  21345.28103884 </i>
    <i name="pawaedc"> -22405.85761495 </i>
    <i name="eentropy">     -0.00291233 </i>
    <i name="bandstr">   -241.22590327 </i>
    <i name="atom">  26212.11861568 </i>
    <i name="e_fr_energy">   1333.39440441 </i>
    <i name="e_wo_entrp">   1333.39731674 </i>
    <i name="e_0_energy">   1333.39586058 </i>
   </energy>
  </scstep>
  <scstep>
   <time name="dav">   18.47   18.53</time>
   <time name="total">   18.47   18.53</time>
   <energy>
    <i name="e_fr_energy">  -1111.12094233 </i>
    <i name="e_wo_entrp">  -1111.12094233 </i>
    <i name="e_0_energy">  -1111.12094233 </i>
   </energy>
  </scstep>
  <scstep>
   <time name="dav">   19.52   19.54</time>
   <time name="total">   19.52   19.54</time>
   <energy>
    <i name="e_fr_energy">  -1474.42103754 </i>
    <i name="e_wo_entrp">  -1474.42103754 </i>
    <i name="e_0_energy">  -1474.42103754 </i>
   </energy>
  </scstep>
  <scstep>
   <time name="dav">   17.89   17.91</time>
   <time name="total">   17.89   17.91</time>
   <energy>
    <i name="e_fr_energy">  -1486.44005178 </i>
    <i name="e_wo_entrp">  -1486.44005178 </i>
    <i name="e_0_energy">  -1486.44005178 </i>
   </energy>
  </scstep>
  <scstep>
   <time name="dav">   19.25   19.29</time>
   <time name="total">   21.96   22.01</time>
   <energy>
    <i name="e_fr_energy">  -1487.01107629 </i>
    <i name="e_wo_entrp">  -1487.01107629 </i>
    <i name="e_0_energy">  -1487.01107629 </i>
   </energy>
  </scstep>
  <scstep>
   <time name="dav">   19.07   19.07</time>
   <time name="total">   23.26   23.28</time>
   <energy>
    <i name="e_fr_energy">  -1408.65364731 </i>
    <i name="e_wo_entrp">  -1408.65364731 </i>
    <i name="e_0_energy">  -1408.65364731 </i>
   </energy>
  </scstep>
  <scstep>
   <time name="dav">   18.26   18.26</time>
   <time name="total">   22.46   22.48</time>
   <energy>
    <i name="e_fr_energy">  -1407.97600986 </i>
    <i name="e_wo_entrp">  -1407.97600986 </i>
    <i name="e_0_energy">  -1407.97600986 </i>
   </energy>
  </scstep>
  <scstep>
   <time name="dav">   17.99   17.99</time>
   <time name="total">   22.19   22.22</time>
   <energy>
    <i name="e_fr_energy">  -1408.15603525 </i>
    <i name="e_wo_entrp">  -1408.15603525 </i>
    <i name="e_0_energy">  -1408.15603525 </i>
   </energy>
  </scstep>
  <scstep>
   <time name="dav">   17.37   17.37</time>
   <time name="total">   21.59   21.59</time>
   <energy>
    <i name="e_fr_energy">  -1408.20718617 </i>
    <i name="e_wo_entrp">  -1408.20718617 </i>
    <i name="e_0_energy">  -1408.20718617 </i>
   </energy>
  </scstep>
  <scstep>
   <time name="dav">   18.89   18.89</time>
   <time name="total">   23.06   23.09</time>
   <energy>
    <i name="e_fr_energy">  -1408.21218098 </i>
    <i name="e_wo_entrp">  -1408.21218098 </i>
    <i name="e_0_energy">  -1408.21218098 </i>
   </energy>
  </scstep>
  <scstep>
   <time name="dav">   17.10   17.10</time>
   <time name="total">   21.26   21.31</time>
   <energy>
    <i name="e_fr_energy">  -1408.21403281 </i>
    <i name="e_wo_entrp">  -1408.21403281 </i>
    <i name="e_0_energy">  -1408.21403281 </i>
   </energy>
  </scstep>
  <scstep>
   <time name="dav">   17.02   17.02</time>
   <time name="total">   21.24   21.25</time>
   <energy>
    <i name="e_fr_energy">  -1408.21668407 </i>
    <i name="e_wo_entrp">  -1408.21668407 </i>
    <i name="e_0_energy">  -1408.21668407 </i>
   </energy>
  </scstep>
  <scstep>
   <time name="dav">   19.45   19.46</time>
   <time name="total">   23.62   23.67</time>
   <energy>
    <i name="e_fr_energy">  -1408.21617762 </i>
    <i name="e_wo_entrp">  -1408.21617762 </i>
    <i name="e_0_energy">  -1408.21617762 </i>
   </energy>
  </scstep>
  <scstep>
   <time name="dav">   17.82   17.82</time>
   <time name="total">   22.00   22.05</time>
   <energy>
    <i name="e_fr_energy">  -1408.21617130 </i>
    <i name="e_wo_entrp">  -1408.21617130 </i>
    <i name="e_0_energy">  -1408.21617130 </i>
   </energy>
  </scstep>
  <scstep>
   <time name="dav">   17.70   17.70</time>
   <time name="total">   21.87   21.92</time>
   <energy>
    <i name="e_fr_energy">  -1408.21616723 </i>
    <i name="e_wo_entrp">  -1408.21616723 </i>
    <i name="e_0_energy">  -1408.21616723 </i>
   </energy>
  </scstep>
  <scstep>
   <time name="dav">   17.70   17.70</time>
   <time name="total">   21.88   21.91</time>
   <energy>
    <i name="e_fr_energy">  -1408.21622760 </i>
    <i name="e_wo_entrp">  -1408.21622760 </i>
    <i name="e_0_energy">  -1408.21622760 </i>
   </energy>
  </scstep>
  <scstep>
   <time name="dav">   17.35   17.35</time>
   <time name="total">   18.80   18.87</time>
   <energy>
    <i name="alphaZ">    872.70583573 </i>
    <i name="ewald"> -17975.57633731 </i>
    <i name="hartreedc">  -7409.81808334 </i>
    <i name="XCdc">    943.33276112 </i>
    <i name="pawpsdc">  22711.82792318 </i>
    <i name="pawaedc"> -23769.25027514 </i>
    <i name="eentropy">     -0.00000000 </i>
    <i name="bandstr">  -2993.55666710 </i>
    <i name="atom">  26212.11861568 </i>
    <i name="e_fr_energy">  -1408.21622718 </i>
    <i name="e_wo_entrp">  -1408.21622718 </i>
    <i name="e_0_energy">  -1408.21622718 </i>
   </energy>
  </scstep>
  <structure>
   <crystal>
    <varray name="basis" >
     <v>       8.45648900       0.00000000       8.04030100 </v>
     <v>       0.00000000      11.72984700       0.00000000 </v>
     <v>      -8.45648900       0.00000000       8.04030100 </v>
    </varray>
    <i name="volume">   1595.08833419 </i>
    <varray name="rec_basis" >
     <v>       0.05912619      -0.00000000       0.06218673 </v>
     <v>       0.00000000       0.08525260      -0.00000000 </v>
     <v>      -0.05912619       0.00000000       0.06218673 </v>
    </varray>
   </crystal>
   <varray name="positions" >
    <v>       0.26650300       0.25139500       0.20197500 </v>
    <v>       0.77070900       0.24703200       0.72348700 </v>
    <v>       0.70525100       0.75531100       0.25164400 </v>
    <v>       0.21091900       0.74969300       0.78022800 </v>
    <v>       0.29709700       0.25445100       0.73752700 </v>
    <v>       0.79014900       0.24840000       0.22191700 </v>
    <v>       0.73342200       0.75004200       0.80652500 </v>
    <v>       0.22898300       0.74840900       0.27832300 </v>
    <v>       0.00122700       0.00080200       0.99888800 </v>
    <v>       0.49978700       0.00625000       0.49768800 </v>
    <v>       0.49849500       0.00130900       0.99875100 </v>
    <v>       0.00286600       0.01222000       0.50170000 </v>
    <v>       0.50019400       0.50022800       0.00044700 </v>
    <v>       0.99033800       0.49543300       0.50113800 </v>
    <v>       0.99986500       0.49981200       0.00108700 </v>
    <v>       0.50344800       0.49655500       0.49977000 </v>
    <v>       0.47291700       0.75071500       0.96948400 </v>
    <v>       0.97310600       0.25036800       0.97105700 </v>
    <v>       0.45455700       0.24811500       0.46927400 </v>
    <v>       0.02407100       0.75047000       0.03145000 </v>
    <v>       0.52632200       0.25056100       0.03397900 </v>
    <v>       0.03805800       0.25530400       0.54262700 </v>
    <v>       0.24774700       0.47189900       0.95253100 </v>
    <v>       0.74792500       0.44884600       0.45483000 </v>
    <v>       0.45583800       0.53834900       0.25029800 </v>
    <v>       0.95111500       0.53605900       0.74569900 </v>
    <v>       0.54863800       0.02967700       0.75023000 </v>
    <v>       0.04887900       0.03135200       0.25332700 </v>
    <v>       0.75282800       0.97581500       0.04363200 </v>
    <v>       0.25097500       0.95427800       0.54466000 </v>
    <v>       0.24794200       0.03125700       0.94662400 </v>
    <v>       0.74842800       0.03115100       0.44822700 </v>
    <v>       0.45080500       0.96382600       0.24894500 </v>
    <v>       0.95238400       0.96256700       0.74468700 </v>
    <v>       0.75244500       0.52790800       0.05045700 </v>
    <v>       0.25692900       0.54886100       0.54487600 </v>
    <v>       0.55231500       0.46933800       0.75203100 </v>
    <v>       0.04726300       0.46870300       0.25420500 </v>
    <v>       0.74338700       0.73723900       0.49940900 </v>
   </varray>
  </structure>
  <varray name="forces" >
   <v>       0.02213241      -0.00732481      -0.03826617 </v>
   <v>       0.04468429       0.00367355      -0.02493918 </v>
   <v>       1.10345398       0.13666154      -1.42144442 </v>
   <v>      -0.06405448      -0.00736628       0.03364529 </v>
   <v>      -0.01214702       0.01218353       0.03835762 </v>
   <v>      -0.01473065      -0.01620933      -0.00993720 </v>
   <v>       0.08635628      -0.00648279      -0.02870662 </v>
   <v>       0.03166961      -0.00419569      -0.05164645 </v>
   <v>      -0.03011509      -0.01518640      -0.09740464 </v>
   <v>       0.24167992      -0.00671280       0.22173343 </v>
   <v>       0.03569817      -0.03473972       0.08213942 </v>
   <v>      -0.24140510       0.02962697      -0.21710181 </v>
   <v>       0.04591400       0.02704551       0.04699755 </v>
   <v>      -0.14788985       0.14406381      -0.06432066 </v>
   <v>       0.00444449       0.00963695      -0.08814244 </v>
   <v>       0.12415259       0.07246339       0.14061324 </v>
   <v>      -0.02656873       0.00020151      -0.04907947 </v>
   <v>       0.01013540      -0.00043795       0.01499456 </v>
   <v>      -0.00946524       0.07060662       0.04815768 </v>
   <v>       0.01809447       0.00013733       0.02504412 </v>
   <v>      -0.01167444       0.00296406      -0.01316580 </v>
   <v>      -0.00830626      -0.07085192      -0.03265032 </v>
   <v>       0.00091493      -0.00896552       0.00166832 </v>
   <v>       0.15244463      -0.67406427       0.01532206 </v>
   <v>      -0.07525665      -0.02658572       0.03071116 </v>
   <v>       0.03244414      -0.04138312       0.03558103 </v>
   <v>       0.01663086       0.00845125      -0.06760594 </v>
   <v>      -0.02780423      -0.01103917       0.05805749 </v>
   <v>       0.02768451       0.07367423      -0.01099504 </v>
   <v>       0.02242489      -0.03730047       0.01926957 </v>
   <v>       0.00197259       0.00971438       0.00771584 </v>
   <v>       0.04892322       0.53259860      -0.02925300 </v>
   <v>      -0.07191383       0.01737726       0.00523897 </v>
   <v>       0.04599415       0.03763400       0.02761228 </v>
   <v>       0.02942659      -0.06113040      -0.00921689 </v>
   <v>      -0.01151877      -0.00535764      -0.06824649 </v>
   <v>       0.01442337      -0.01104661      -0.07166832 </v>
   <v>      -0.00997712       0.00258834       0.03045655 </v>
   <v>      -1.39887204      -0.14492223       1.51047467 </v>
  </varray>
  <varray name="stress" >
   <v>      -7.19205155       0.16272003      -4.12938606 </v>
   <v>       0.16266958      -5.67900080      -0.42210664 </v>
   <v>      -4.12937605      -0.42202714      -3.87465819 </v>
  </varray>
  <energy>
   <i name="e_fr_energy">  -1408.21622718 </i>
   <i name="e_wo_entrp">  -1408.21622718 </i>
   <i name="e_0_energy">     -0.00000000 </i>
  </energy>
  <time name="totalsc">  414.34  414.94</time>
  <eigenvalues>
   <array>
    <dimension dim="1">band</dimension>
    <dimension dim="2">kpoint</dimension>
    <dimension dim="3">spin</dimension>
    <field>eigene</field>
    <field>occ</field>
    <set>
     <set comment="spin 1">
      <set comment="kpoint 1">
       <r>  -20.9978    1.0000 </r>
       <r>  -20.8832    1.0000 </r>
       <r>  -20.8319    1.0000 </r>
       <r>  -20.7952    1.0000 </r>
       <r>  -20.7841    1.0000 </r>
       <r>  -20.6492    1.0000 </r>
       <r>  -20.4428    1.0000 </r>
       <r>  -20.2235    1.0000 </r>
       <r>  -16.8954    1.0000 </r>
       <r>  -16.8473    1.0000 </r>
       <r>  -16.8363    1.0000 </r>
       <r>  -16.8177    1.0000 </r>
       <r>  -16.8032    1.0000 </r>
       <r>  -16.7926    1.0000 </r>
       <r>  -16.7777    1.0000 </r>
       <r>  -16.7683    1.0000 </r>
       <r>  -16.7653    1.0000 </r>
       <r>  -16.7559    1.0000 </r>
       <r>  -16.7462    1.0000 </r>
       <r>  -16.7369    1.0000 </r>
       <r>  -16.7278    1.0000 </r>
       <r>  -16.7235    1.0000 </r>
       <r>  -16.7192    1.0000 </r>
       <r>  -16.7186    1.0000 </r>
       <r>  -16.7009    1.0000 </r>
       <r>  -16.6782    1.0000 </r>
       <r>  -16.6663    1.0000 </r>
       <r>  -16.6531    1.0000 </r>
       <r>  -16.4740    1.0000 </r>
       <r>  -16.4569    1.0000 </r>
       <r>  -16.4433    1.0000 </r>
       <r>  -16.4336    1.0000 </r>
       <r>  -16.4046    1.0000 </r>
       <r>  -16.3962    1.0000 </r>
       <r>  -16.3885    1.0000 </r>
       <r>  -16.3703    1.0000 </r>
       <r>  -16.3167    1.0000 </r>
       <r>  -16.3108    1.0000 </r>
       <r>  -16.3097    1.0000 </r>
       <r>  -16.3069    1.0000 </r>
       <r>  -16.3042    1.0000 </r>
       <r>  -16.3014    1.0000 </r>
       <r>  -16.3004    1.0000 </r>
       <r>  -16.2999    1.0000 </r>
       <r>  -16.2954    1.0000 </r>
       <r>  -16.2917    1.0000 </r>
       <r>  -16.2902    1.0000 </r>
       <r>  -16.2830    1.0000 </r>
       <r>  -14.6968    1.0000 </r>
       <r>  -14.5889    1.0000 </r>
       <r>  -14.3223    1.0000 </r>
       <r>  -14.2543    1.0000 </r>
       <r>  -14.1637    1.0000 </r>
       <r>  -14.1399    1.0000 </r>
       <r>  -14.1062    1.0000 </r>
       <r>  -14.1007    1.0000 </r>
       <r>  -14.0956    1.0000 </r>
       <r>  -14.0900    1.0000 </r>
       <r>  -14.0745    1.0000 </r>
       <r>  -14.0634    1.0000 </r>
       <r>  -14.0333    1.0000 </r>
       <r>  -14.0227    1.0000 </r>
       <r>  -14.0122    1.0000 </r>
       <r>  -13.9949    1.0000 </r>
       <r>  -13.9704    1.0000 </r>
       <r>  -13.8939    1.0000 </r>
       <r>  -13.8494    1.0000 </r>
       <r>  -13.7819    1.0000 </r>
       <r>  -13.7528    1.0000 </r>
       <r>  -13.7347    1.0000 </r>
       <r>  -12.7463    1.0000 </r>
       <r>   -8.2918    1.0000 </r>
       <r>   -7.8994    1.0000 </r>
       <r>   -7.8221    1.0000 </r>
       <r>   -7.7899    1.0000 </r>
       <r>   -7.4363    1.0000 </r>
       <r>   -7.4013    1.0000 </r>
       <r>   -7.3756    1.0000 </r>
       <r>   -7.3590    1.0000 </r>
       <r>   -7.3051    1.0000 </r>
       <r>   -7.2961    1.0000 </r>
       <r>   -7.2692    1.0000 </r>
       <r>   -7.2616    1.0000 </r>
       <r>   -7.2582    1.0000 </r>
       <r>   -7.2444    1.0000 </r>
       <r>   -7.2263    1.0000 </r>
       <r>   -7.2225    1.0000 </r>
       <r>   -7.2060    1.0000 </r>
       <r>   -7.1994    1.0000 </r>
       <r>   -7.1874    1.0000 </r>
       <r>   -7.1791    1.0000 </r>
       <r>   -7.1762    1.0000 </r>
       <r>   -7.1559    1.0000 </r>
       <r>   -7.0808    1.0000 </r>
       <r>   -7.0454    1.0000 </r>
       <r>   -7.0413    1.0000 </r>
       <r>   -6.8999    1.0000 </r>
       <r>   -6.8657    1.0000 </r>
       <r>   -6.8522    1.0000 </r>
       <r>   -6.7271    1.0000 </r>
       <r>   -6.6742    1.0000 </r>
       <r>   -6.6434    1.0000 </r>
       <r>   -6.6301    1.0000 </r>
       <r>   -3.3729    1.0000 </r>
       <r>   -3.3526    1.0000 </r>
       <r>   -3.3067    1.0000 </r>
       <r>   -3.2795    1.0000 </r>
       <r>   -3.2580    1.0000 </r>
       <r>   -3.2437    1.0000 </r>
       <r>   -3.2138    1.0000 </r>
       <r>   -3.2005    1.0000 </r>
       <r>   -3.1221    1.0000 </r>
       <r>   -3.0613    1.0000 </r>
       <r>   -2.9945    1.0000 </r>
       <r>   -2.9132    1.0000 </r>
       <r>   -2.3415    1.0000 </r>
       <r>   -2.2850    1.0000 </r>
       <r>   -2.1782    1.0000 </r>
       <r>   -2.0942    1.0000 </r>
       <r>   -2.0197    1.0000 </r>
       <r>   -1.9878    1.0000 </r>
       <r>   -1.9404    1.0000 </r>
       <r>   -1.9053    1.0000 </r>
       <r>   -1.8854    1.0000 </r>
       <r>   -1.8548    1.0000 </r>
       <r>   -1.8040    1.0000 </r>
       <r>   -1.7657    1.0000 </r>
       <r>   -1.7326    1.0000 </r>
       <r>   -1.7126    1.0000 </r>
       <r>   -1.6994    1.0000 </r>
       <r>   -1.6290    1.0000 </r>
       <r>   -1.6027    1.0000 </r>
       <r>   -1.5891    1.0000 </r>
       <r>   -1.5779    1.0000 </r>
       <r>   -1.5412    1.0000 </r>
       <r>   -1.5252    1.0000 </r>
       <r>   -1.5139    1.0000 </r>
       <r>   -1.4988    1.0000 </r>
       <r>   -1.4836    1.0000 </r>
       <r>   -1.4639    1.0000 </r>
       <r>   -1.4499    1.0000 </r>
       <r>   -1.4339    1.0000 </r>
       <r>   -1.4172    1.0000 </r>
       <r>   -1.4039    1.0000 </r>
       <r>   -1.3834    1.0000 </r>
       <r>   -1.3718    1.0000 </r>
       <r>   -1.3717    1.0000 </r>
       <r>   -1.3623    1.0000 </r>
       <r>   -1.3436    1.0000 </r>
       <r>   -1.3420    1.0000 </r>
       <r>   -1.3320    1.0000 </r>
       <r>   -1.3006    1.0000 </r>
       <r>   -1.2452    1.0000 </r>
       <r>   -1.2206    1.0000 </r>
       <r>   -1.2046    1.0000 </r>
       <r>   -1.1833    1.0000 </r>
       <r>   -1.1752    1.0000 </r>
       <r>   -1.1593    1.0000 </r>
       <r>   -1.1255    1.0000 </r>
       <r>   -1.0846    1.0000 </r>
       <r>   -0.9917    1.0000 </r>
       <r>   -0.9044    1.0000 </r>
       <r>   -0.8911    1.0000 </r>
       <r>   -0.8046    1.0000 </r>
       <r>   -0.7691    1.0000 </r>
       <r>   -0.5877    1.0000 </r>
       <r>   -0.4903    1.0000 </r>
       <r>   -0.2815    1.0000 </r>
       <r>   -0.2098    1.0000 </r>
       <r>   -0.0500    1.0000 </r>
       <r>    0.3227    1.0000 </r>
       <r>    0.4048    1.0000 </r>
       <r>    2.3777    0.0000 </r>
       <r>    2.4587    0.0000 </r>
       <r>    2.6223    0.0000 </r>
       <r>    2.8193    0.0000 </r>
       <r>    2.9374    0.0000 </r>
       <r>    2.9933    0.0000 </r>
       <r>    3.0672    0.0000 </r>
       <r>    3.0886    0.0000 </r>
       <r>    3.1319    0.0000 </r>
       <r>    3.3661    0.0000 </r>
       <r>    3.4215    0.0000 </r>
       <r>    3.5029    0.0000 </r>
       <r>    4.0147    0.0000 </r>
       <r>    4.4631    0.0000 </r>
       <r>    4.8333    0.0000 </r>
       <r>    5.3721    0.0000 </r>
       <r>    5.4550    0.0000 </r>
       <r>    5.6227    0.0000 </r>
       <r>    5.7678    0.0000 </r>
       <r>    5.7853    0.0000 </r>
       <r>    5.8262    0.0000 </r>
       <r>    5.8557    0.0000 </r>
       <r>    5.9876    0.0000 </r>
       <r>    6.0455    0.0000 </r>
       <r>    6.0524    0.0000 </r>
       <r>    6.0855    0.0000 </r>
       <r>    6.1719    0.0000 </r>
       <r>    6.2228    0.0000 </r>
       <r>    6.3231    0.0000 </r>
       <r>    6.3536    0.0000 </r>
       <r>    6.4125    0.0000 </r>
       <r>    6.4859    0.0000 </r>
       <r>    6.5165    0.0000 </r>
       <r>    6.5496    0.0000 </r>
       <r>    6.6541    0.0000 </r>
       <r>    6.6964    0.0000 </r>
      </set>
      <set comment="kpoint 2">
       <r>  -20.9978    1.0000 </r>
       <r>  -20.8832    1.0000 </r>
       <r>  -20.8319    1.0000 </r>
       <r>  -20.7952    1.0000 </r>
       <r>  -20.7841    1.0000 </r>
       <r>  -20.6492    1.0000 </r>
       <r>  -20.4428    1.0000 </r>
       <r>  -20.2235    1.0000 </r>
       <r>  -16.8943    1.0000 </r>
       <r>  -16.8459    1.0000 </r>
       <r>  -16.8341    1.0000 </r>
       <r>  -16.8111    1.0000 </r>
       <r>  -16.7999    1.0000 </r>
       <r>  -16.7892    1.0000 </r>
       <r>  -16.7779    1.0000 </r>
       <r>  -16.7738    1.0000 </r>
       <r>  -16.7677    1.0000 </r>
       <r>  -16.7656    1.0000 </r>
       <r>  -16.7468    1.0000 </r>
       <r>  -16.7369    1.0000 </r>
       <r>  -16.7277    1.0000 </r>
       <r>  -16.7235    1.0000 </r>
       <r>  -16.7193    1.0000 </r>
       <r>  -16.7186    1.0000 </r>
       <r>  -16.7010    1.0000 </r>
       <r>  -16.6782    1.0000 </r>
       <r>  -16.6663    1.0000 </r>
       <r>  -16.6531    1.0000 </r>
       <r>  -16.4680    1.0000 </r>
       <r>  -16.4567    1.0000 </r>
       <r>  -16.4226    1.0000 </r>
       <r>  -16.4166    1.0000 </r>
       <r>  -16.4130    1.0000 </r>
       <r>  -16.4088    1.0000 </r>
       <r>  -16.3963    1.0000 </r>
       <r>  -16.3872    1.0000 </r>
       <r>  -16.3167    1.0000 </r>
       <r>  -16.3108    1.0000 </r>
       <r>  -16.3097    1.0000 </r>
       <r>  -16.3070    1.0000 </r>
       <r>  -16.3042    1.0000 </r>
       <r>  -16.3013    1.0000 </r>
       <r>  -16.3005    1.0000 </r>
       <r>  -16.2998    1.0000 </r>
       <r>  -16.2955    1.0000 </r>
       <r>  -16.2917    1.0000 </r>
       <r>  -16.2902    1.0000 </r>
       <r>  -16.2830    1.0000 </r>
       <r>  -14.6924    1.0000 </r>
       <r>  -14.5973    1.0000 </r>
       <r>  -14.2882    1.0000 </r>
       <r>  -14.2541    1.0000 </r>
       <r>  -14.2298    1.0000 </r>
       <r>  -14.1569    1.0000 </r>
       <r>  -14.1177    1.0000 </r>
       <r>  -14.1033    1.0000 </r>
       <r>  -14.0991    1.0000 </r>
       <r>  -14.0888    1.0000 </r>
       <r>  -14.0880    1.0000 </r>
       <r>  -14.0682    1.0000 </r>
       <r>  -14.0639    1.0000 </r>
       <r>  -13.9994    1.0000 </r>
       <r>  -13.9876    1.0000 </r>
       <r>  -13.9079    1.0000 </r>
       <r>  -13.9016    1.0000 </r>
       <r>  -13.8714    1.0000 </r>
       <r>  -13.8304    1.0000 </r>
       <r>  -13.8218    1.0000 </r>
       <r>  -13.7968    1.0000 </r>
       <r>  -13.7738    1.0000 </r>
       <r>  -12.7463    1.0000 </r>
       <r>   -8.1024    1.0000 </r>
       <r>   -8.0463    1.0000 </r>
       <r>   -7.6948    1.0000 </r>
       <r>   -7.6500    1.0000 </r>
       <r>   -7.5736    1.0000 </r>
       <r>   -7.5421    1.0000 </r>
       <r>   -7.4225    1.0000 </r>
       <r>   -7.3934    1.0000 </r>
       <r>   -7.3478    1.0000 </r>
       <r>   -7.3019    1.0000 </r>
       <r>   -7.2887    1.0000 </r>
       <r>   -7.2685    1.0000 </r>
       <r>   -7.2481    1.0000 </r>
       <r>   -7.2281    1.0000 </r>
       <r>   -7.2217    1.0000 </r>
       <r>   -7.2138    1.0000 </r>
       <r>   -7.2034    1.0000 </r>
       <r>   -7.1953    1.0000 </r>
       <r>   -7.1864    1.0000 </r>
       <r>   -7.1754    1.0000 </r>
       <r>   -7.1593    1.0000 </r>
       <r>   -7.0852    1.0000 </r>
       <r>   -7.0474    1.0000 </r>
       <r>   -7.0413    1.0000 </r>
       <r>   -6.9908    1.0000 </r>
       <r>   -6.9762    1.0000 </r>
       <r>   -6.8967    1.0000 </r>
       <r>   -6.8662    1.0000 </r>
       <r>   -6.8450    1.0000 </r>
       <r>   -6.7192    1.0000 </r>
       <r>   -6.6740    1.0000 </r>
       <r>   -6.6363    1.0000 </r>
       <r>   -3.3254    1.0000 </r>
       <r>   -3.3085    1.0000 </r>
       <r>   -3.3066    1.0000 </r>
       <r>   -3.3012    1.0000 </r>
       <r>   -3.1955    1.0000 </r>
       <r>   -3.1825    1.0000 </r>
       <r>   -3.0774    1.0000 </r>
       <r>   -2.9893    1.0000 </r>
       <r>   -2.6649    1.0000 </r>
       <r>   -2.5935    1.0000 </r>
       <r>   -2.5092    1.0000 </r>
       <r>   -2.4938    1.0000 </r>
       <r>   -2.4481    1.0000 </r>
       <r>   -2.3642    1.0000 </r>
       <r>   -2.3278    1.0000 </r>
       <r>   -2.2900    1.0000 </r>
       <r>   -2.2304    1.0000 </r>
       <r>   -2.1734    1.0000 </r>
       <r>   -2.0799    1.0000 </r>
       <r>   -2.0509    1.0000 </r>
       <r>   -1.9803    1.0000 </r>
       <r>   -1.9498    1.0000 </r>
       <r>   -1.8938    1.0000 </r>
       <r>   -1.8551    1.0000 </r>
       <r>   -1.8150    1.0000 </r>
       <r>   -1.7738    1.0000 </r>
       <r>   -1.7724    1.0000 </r>
       <r>   -1.7260    1.0000 </r>
       <r>   -1.6802    1.0000 </r>
       <r>   -1.6373    1.0000 </r>
       <r>   -1.6138    1.0000 </r>
       <r>   -1.5907    1.0000 </r>
       <r>   -1.5756    1.0000 </r>
       <r>   -1.5504    1.0000 </r>
       <r>   -1.5210    1.0000 </r>
       <r>   -1.5052    1.0000 </r>
       <r>   -1.4707    1.0000 </r>
       <r>   -1.4561    1.0000 </r>
       <r>   -1.4468    1.0000 </r>
       <r>   -1.4207    1.0000 </r>
       <r>   -1.3984    1.0000 </r>
       <r>   -1.3913    1.0000 </r>
       <r>   -1.3643    1.0000 </r>
       <r>   -1.3454    1.0000 </r>
       <r>   -1.3336    1.0000 </r>
       <r>   -1.3088    1.0000 </r>
       <r>   -1.3071    1.0000 </r>
       <r>   -1.2726    1.0000 </r>
       <r>   -1.2574    1.0000 </r>
       <r>   -1.2241    1.0000 </r>
       <r>   -1.2203    1.0000 </r>
       <r>   -1.2121    1.0000 </r>
       <r>   -1.1943    1.0000 </r>
       <r>   -1.1672    1.0000 </r>
       <r>   -1.1321    1.0000 </r>
       <r>   -1.1215    1.0000 </r>
       <r>   -1.0914    1.0000 </r>
       <r>   -1.0804    1.0000 </r>
       <r>   -0.9647    1.0000 </r>
       <r>   -0.9271    1.0000 </r>
       <r>   -0.9059    1.0000 </r>
       <r>   -0.8688    1.0000 </r>
       <r>   -0.6725    1.0000 </r>
       <r>   -0.6515    1.0000 </r>
       <r>   -0.5384    1.0000 </r>
       <r>   -0.1253    1.0000 </r>
       <r>   -0.1242    1.0000 </r>
       <r>   -0.0490    1.0000 </r>
       <r>    0.4029    1.0000 </r>
       <r>    2.2859    0.0000 </r>
       <r>    2.5826    0.0000 </r>
       <r>    2.8738    0.0000 </r>
       <r>    2.9048    0.0000 </r>
       <r>    3.1621    0.0000 </r>
       <r>    3.1806    0.0000 </r>
       <r>    3.2197    0.0000 </r>
       <r>    3.2387    0.0000 </r>
       <r>    3.9476    0.0000 </r>
       <r>    4.1008    0.0000 </r>
       <r>    4.1763    0.0000 </r>
       <r>    4.2696    0.0000 </r>
       <r>    4.3155    0.0000 </r>
       <r>    4.4215    0.0000 </r>
       <r>    4.5323    0.0000 </r>
       <r>    4.6111    0.0000 </r>
       <r>    4.8177    0.0000 </r>
       <r>    4.8495    0.0000 </r>
       <r>    5.4171    0.0000 </r>
       <r>    5.5738    0.0000 </r>
       <r>    5.5892    0.0000 </r>
       <r>    5.6185    0.0000 </r>
       <r>    5.8496    0.0000 </r>
       <r>    5.8693    0.0000 </r>
       <r>    6.1106    0.0000 </r>
       <r>    6.1496    0.0000 </r>
       <r>    6.1725    0.0000 </r>
       <r>    6.1907    0.0000 </r>
       <r>    6.1983    0.0000 </r>
       <r>    6.2486    0.0000 </r>
       <r>    6.3557    0.0000 </r>
       <r>    6.4008    0.0000 </r>
       <r>    6.4627    0.0000 </r>
       <r>    6.5287    0.0000 </r>
       <r>    6.6056    0.0000 </r>
       <r>    6.6500    0.0000 </r>
      </set>
      <set comment="kpoint 3">
       <r>  -20.9978    1.0000 </r>
       <r>  -20.8832    1.0000 </r>
       <r>  -20.8319    1.0000 </r>
       <r>  -20.7952    1.0000 </r>
       <r>  -20.7841    1.0000 </r>
       <r>  -20.6492    1.0000 </r>
       <r>  -20.4428    1.0000 </r>
       <r>  -20.2235    1.0000 </r>
       <r>  -16.8951    1.0000 </r>
       <r>  -16.8470    1.0000 </r>
       <r>  -16.8364    1.0000 </r>
       <r>  -16.8177    1.0000 </r>
       <r>  -16.8033    1.0000 </r>
       <r>  -16.7927    1.0000 </r>
       <r>  -16.7776    1.0000 </r>
       <r>  -16.7683    1.0000 </r>
       <r>  -16.7653    1.0000 </r>
       <r>  -16.7559    1.0000 </r>
       <r>  -16.7462    1.0000 </r>
       <r>  -16.7369    1.0000 </r>
       <r>  -16.7277    1.0000 </r>
       <r>  -16.7234    1.0000 </r>
       <r>  -16.7192    1.0000 </r>
       <r>  -16.7186    1.0000 </r>
       <r>  -16.7010    1.0000 </r>
       <r>  -16.6782    1.0000 </r>
       <r>  -16.6663    1.0000 </r>
       <r>  -16.6531    1.0000 </r>
       <r>  -16.4525    1.0000 </r>
       <r>  -16.4447    1.0000 </r>
       <r>  -16.4337    1.0000 </r>
       <r>  -16.4256    1.0000 </r>
       <r>  -16.4245    1.0000 </r>
       <r>  -16.4184    1.0000 </r>
       <r>  -16.3892    1.0000 </r>
       <r>  -16.3812    1.0000 </r>
       <r>  -16.3167    1.0000 </r>
       <r>  -16.3108    1.0000 </r>
       <r>  -16.3096    1.0000 </r>
       <r>  -16.3069    1.0000 </r>
       <r>  -16.3042    1.0000 </r>
       <r>  -16.3014    1.0000 </r>
       <r>  -16.3004    1.0000 </r>
       <r>  -16.2999    1.0000 </r>
       <r>  -16.2954    1.0000 </r>
       <r>  -16.2917    1.0000 </r>
       <r>  -16.2902    1.0000 </r>
       <r>  -16.2830    1.0000 </r>
       <r>  -14.6959    1.0000 </r>
       <r>  -14.5878    1.0000 </r>
       <r>  -14.3112    1.0000 </r>
       <r>  -14.2782    1.0000 </r>
       <r>  -14.1838    1.0000 </r>
       <r>  -14.1550    1.0000 </r>
       <r>  -14.1419    1.0000 </r>
       <r>  -14.1035    1.0000 </r>
       <r>  -14.0897    1.0000 </r>
       <r>  -14.0848    1.0000 </r>
       <r>  -14.0706    1.0000 </r>
       <r>  -14.0480    1.0000 </r>
       <r>  -14.0177    1.0000 </r>
       <r>  -14.0081    1.0000 </r>
       <r>  -14.0007    1.0000 </r>
       <r>  -13.9569    1.0000 </r>
       <r>  -13.9186    1.0000 </r>
       <r>  -13.9090    1.0000 </r>
       <r>  -13.8422    1.0000 </r>
       <r>  -13.8172    1.0000 </r>
       <r>  -13.7673    1.0000 </r>
       <r>  -13.7511    1.0000 </r>
       <r>  -12.7463    1.0000 </r>
       <r>   -8.2300    1.0000 </r>
       <r>   -7.9888    1.0000 </r>
       <r>   -7.7565    1.0000 </r>
       <r>   -7.6162    1.0000 </r>
       <r>   -7.4895    1.0000 </r>
       <r>   -7.4807    1.0000 </r>
       <r>   -7.4237    1.0000 </r>
       <r>   -7.3892    1.0000 </r>
       <r>   -7.3495    1.0000 </r>
       <r>   -7.3034    1.0000 </r>
       <r>   -7.2872    1.0000 </r>
       <r>   -7.2673    1.0000 </r>
       <r>   -7.2494    1.0000 </r>
       <r>   -7.2281    1.0000 </r>
       <r>   -7.2220    1.0000 </r>
       <r>   -7.2080    1.0000 </r>
       <r>   -7.2069    1.0000 </r>
       <r>   -7.1937    1.0000 </r>
       <r>   -7.1905    1.0000 </r>
       <r>   -7.1676    1.0000 </r>
       <r>   -7.1611    1.0000 </r>
       <r>   -7.0810    1.0000 </r>
       <r>   -7.0601    1.0000 </r>
       <r>   -7.0476    1.0000 </r>
       <r>   -7.0344    1.0000 </r>
       <r>   -6.9019    1.0000 </r>
       <r>   -6.8956    1.0000 </r>
       <r>   -6.8652    1.0000 </r>
       <r>   -6.8478    1.0000 </r>
       <r>   -6.7222    1.0000 </r>
       <r>   -6.6740    1.0000 </r>
       <r>   -6.6377    1.0000 </r>
       <r>   -3.3289    1.0000 </r>
       <r>   -3.2951    1.0000 </r>
       <r>   -3.2850    1.0000 </r>
       <r>   -3.2386    1.0000 </r>
       <r>   -3.2233    1.0000 </r>
       <r>   -3.1728    1.0000 </r>
       <r>   -3.1704    1.0000 </r>
       <r>   -3.1150    1.0000 </r>
       <r>   -3.0182    1.0000 </r>
       <r>   -2.9213    1.0000 </r>
       <r>   -2.4969    1.0000 </r>
       <r>   -2.4886    1.0000 </r>
       <r>   -2.4395    1.0000 </r>
       <r>   -2.4314    1.0000 </r>
       <r>   -2.3335    1.0000 </r>
       <r>   -2.2539    1.0000 </r>
       <r>   -2.1105    1.0000 </r>
       <r>   -2.0618    1.0000 </r>
       <r>   -2.0240    1.0000 </r>
       <r>   -1.9967    1.0000 </r>
       <r>   -1.9525    1.0000 </r>
       <r>   -1.8953    1.0000 </r>
       <r>   -1.8881    1.0000 </r>
       <r>   -1.8476    1.0000 </r>
       <r>   -1.7739    1.0000 </r>
       <r>   -1.7487    1.0000 </r>
       <r>   -1.7311    1.0000 </r>
       <r>   -1.6913    1.0000 </r>
       <r>   -1.6417    1.0000 </r>
       <r>   -1.6111    1.0000 </r>
       <r>   -1.6039    1.0000 </r>
       <r>   -1.5762    1.0000 </r>
       <r>   -1.5630    1.0000 </r>
       <r>   -1.5476    1.0000 </r>
       <r>   -1.5127    1.0000 </r>
       <r>   -1.5003    1.0000 </r>
       <r>   -1.4767    1.0000 </r>
       <r>   -1.4288    1.0000 </r>
       <r>   -1.4248    1.0000 </r>
       <r>   -1.4203    1.0000 </r>
       <r>   -1.4024    1.0000 </r>
       <r>   -1.3856    1.0000 </r>
       <r>   -1.3672    1.0000 </r>
       <r>   -1.3590    1.0000 </r>
       <r>   -1.3417    1.0000 </r>
       <r>   -1.3233    1.0000 </r>
       <r>   -1.3057    1.0000 </r>
       <r>   -1.3017    1.0000 </r>
       <r>   -1.2622    1.0000 </r>
       <r>   -1.2321    1.0000 </r>
       <r>   -1.2079    1.0000 </r>
       <r>   -1.1974    1.0000 </r>
       <r>   -1.1807    1.0000 </r>
       <r>   -1.1646    1.0000 </r>
       <r>   -1.1567    1.0000 </r>
       <r>   -1.1420    1.0000 </r>
       <r>   -1.0983    1.0000 </r>
       <r>   -1.0699    1.0000 </r>
       <r>   -0.9088    1.0000 </r>
       <r>   -0.8765    1.0000 </r>
       <r>   -0.7466    1.0000 </r>
       <r>   -0.7121    1.0000 </r>
       <r>   -0.6811    1.0000 </r>
       <r>   -0.6509    1.0000 </r>
       <r>   -0.4873    1.0000 </r>
       <r>   -0.1170    1.0000 </r>
       <r>   -0.0491    1.0000 </r>
       <r>   -0.0341    1.0000 </r>
       <r>    0.3358    1.0000 </r>
       <r>    2.4593    0.0000 </r>
       <r>    2.6123    0.0000 </r>
       <r>    2.7992    0.0000 </r>
       <r>    2.8772    0.0000 </r>
       <r>    2.8881    0.0000 </r>
       <r>    3.0758    0.0000 </r>
       <r>    3.1424    0.0000 </r>
       <r>    3.2252    0.0000 </r>
       <r>    3.3108    0.0000 </r>
       <r>    3.3682    0.0000 </r>
       <r>    3.7603    0.0000 </r>
       <r>    3.9017    0.0000 </r>
       <r>    4.5433    0.0000 </r>
       <r>    4.5861    0.0000 </r>
       <r>    4.8282    0.0000 </r>
       <r>    4.8489    0.0000 </r>
       <r>    5.4131    0.0000 </r>
       <r>    5.4586    0.0000 </r>
       <r>    5.5333    0.0000 </r>
       <r>    5.6638    0.0000 </r>
       <r>    5.6754    0.0000 </r>
       <r>    5.7426    0.0000 </r>
       <r>    5.8233    0.0000 </r>
       <r>    6.0202    0.0000 </r>
       <r>    6.0514    0.0000 </r>
       <r>    6.1288    0.0000 </r>
       <r>    6.1333    0.0000 </r>
       <r>    6.2118    0.0000 </r>
       <r>    6.2594    0.0000 </r>
       <r>    6.2947    0.0000 </r>
       <r>    6.3430    0.0000 </r>
       <r>    6.4894    0.0000 </r>
       <r>    6.5313    0.0000 </r>
       <r>    6.5696    0.0000 </r>
       <r>    6.6028    0.0000 </r>
       <r>    6.6304    0.0000 </r>
      </set>
      <set comment="kpoint 4">
       <r>  -20.9978    1.0000 </r>
       <r>  -20.8832    1.0000 </r>
       <r>  -20.8319    1.0000 </r>
       <r>  -20.7952    1.0000 </r>
       <r>  -20.7841    1.0000 </r>
       <r>  -20.6492    1.0000 </r>
       <r>  -20.4428    1.0000 </r>
       <r>  -20.2235    1.0000 </r>
       <r>  -16.8940    1.0000 </r>
       <r>  -16.8456    1.0000 </r>
       <r>  -16.8343    1.0000 </r>
       <r>  -16.8111    1.0000 </r>
       <r>  -16.8002    1.0000 </r>
       <r>  -16.7892    1.0000 </r>
       <r>  -16.7779    1.0000 </r>
       <r>  -16.7739    1.0000 </r>
       <r>  -16.7678    1.0000 </r>
       <r>  -16.7656    1.0000 </r>
       <r>  -16.7467    1.0000 </r>
       <r>  -16.7369    1.0000 </r>
       <r>  -16.7278    1.0000 </r>
       <r>  -16.7235    1.0000 </r>
       <r>  -16.7193    1.0000 </r>
       <r>  -16.7187    1.0000 </r>
       <r>  -16.7010    1.0000 </r>
       <r>  -16.6782    1.0000 </r>
       <r>  -16.6663    1.0000 </r>
       <r>  -16.6531    1.0000 </r>
       <r>  -16.4370    1.0000 </r>
       <r>  -16.4286    1.0000 </r>
       <r>  -16.4264    1.0000 </r>
       <r>  -16.4225    1.0000 </r>
       <r>  -16.4196    1.0000 </r>
       <r>  -16.4159    1.0000 </r>
       <r>  -16.4130    1.0000 </r>
       <r>  -16.4083    1.0000 </r>
       <r>  -16.3167    1.0000 </r>
       <r>  -16.3108    1.0000 </r>
       <r>  -16.3097    1.0000 </r>
       <r>  -16.3070    1.0000 </r>
       <r>  -16.3042    1.0000 </r>
       <r>  -16.3013    1.0000 </r>
       <r>  -16.3005    1.0000 </r>
       <r>  -16.2999    1.0000 </r>
       <r>  -16.2954    1.0000 </r>
       <r>  -16.2917    1.0000 </r>
       <r>  -16.2902    1.0000 </r>
       <r>  -16.2831    1.0000 </r>
       <r>  -14.6916    1.0000 </r>
       <r>  -14.5960    1.0000 </r>
       <r>  -14.2812    1.0000 </r>
       <r>  -14.2444    1.0000 </r>
       <r>  -14.2397    1.0000 </r>
       <r>  -14.2180    1.0000 </r>
       <r>  -14.1720    1.0000 </r>
       <r>  -14.1023    1.0000 </r>
       <r>  -14.0927    1.0000 </r>
       <r>  -14.0877    1.0000 </r>
       <r>  -14.0744    1.0000 </r>
       <r>  -14.0421    1.0000 </r>
       <r>  -14.0058    1.0000 </r>
       <r>  -13.9644    1.0000 </r>
       <r>  -13.9211    1.0000 </r>
       <r>  -13.9171    1.0000 </r>
       <r>  -13.8971    1.0000 </r>
       <r>  -13.8724    1.0000 </r>
       <r>  -13.8570    1.0000 </r>
       <r>  -13.8518    1.0000 </r>
       <r>  -13.8287    1.0000 </r>
       <r>  -13.7774    1.0000 </r>
       <r>  -12.7463    1.0000 </r>
       <r>   -8.0478    1.0000 </r>
       <r>   -7.9795    1.0000 </r>
       <r>   -7.7793    1.0000 </r>
       <r>   -7.7419    1.0000 </r>
       <r>   -7.4348    1.0000 </r>
       <r>   -7.4128    1.0000 </r>
       <r>   -7.3719    1.0000 </r>
       <r>   -7.3653    1.0000 </r>
       <r>   -7.3486    1.0000 </r>
       <r>   -7.3084    1.0000 </r>
       <r>   -7.2885    1.0000 </r>
       <r>   -7.2642    1.0000 </r>
       <r>   -7.2587    1.0000 </r>
       <r>   -7.2445    1.0000 </r>
       <r>   -7.2262    1.0000 </r>
       <r>   -7.2223    1.0000 </r>
       <r>   -7.2142    1.0000 </r>
       <r>   -7.2065    1.0000 </r>
       <r>   -7.1932    1.0000 </r>
       <r>   -7.1848    1.0000 </r>
       <r>   -7.1822    1.0000 </r>
       <r>   -7.1594    1.0000 </r>
       <r>   -7.1459    1.0000 </r>
       <r>   -7.0728    1.0000 </r>
       <r>   -7.0458    1.0000 </r>
       <r>   -7.0396    1.0000 </r>
       <r>   -6.9009    1.0000 </r>
       <r>   -6.8653    1.0000 </r>
       <r>   -6.8490    1.0000 </r>
       <r>   -6.7224    1.0000 </r>
       <r>   -6.6732    1.0000 </r>
       <r>   -6.6372    1.0000 </r>
       <r>   -3.2823    1.0000 </r>
       <r>   -3.2722    1.0000 </r>
       <r>   -3.2385    1.0000 </r>
       <r>   -3.2241    1.0000 </r>
       <r>   -3.1042    1.0000 </r>
       <r>   -3.0061    1.0000 </r>
       <r>   -2.6782    1.0000 </r>
       <r>   -2.6397    1.0000 </r>
       <r>   -2.6028    1.0000 </r>
       <r>   -2.5840    1.0000 </r>
       <r>   -2.5772    1.0000 </r>
       <r>   -2.5371    1.0000 </r>
       <r>   -2.3697    1.0000 </r>
       <r>   -2.3438    1.0000 </r>
       <r>   -2.3358    1.0000 </r>
       <r>   -2.3252    1.0000 </r>
       <r>   -2.3198    1.0000 </r>
       <r>   -2.2921    1.0000 </r>
       <r>   -2.2100    1.0000 </r>
       <r>   -2.1616    1.0000 </r>
       <r>   -2.1167    1.0000 </r>
       <r>   -1.9887    1.0000 </r>
       <r>   -1.9221    1.0000 </r>
       <r>   -1.8996    1.0000 </r>
       <r>   -1.8662    1.0000 </r>
       <r>   -1.7755    1.0000 </r>
       <r>   -1.7289    1.0000 </r>
       <r>   -1.7217    1.0000 </r>
       <r>   -1.7099    1.0000 </r>
       <r>   -1.6792    1.0000 </r>
       <r>   -1.6147    1.0000 </r>
       <r>   -1.6116    1.0000 </r>
       <r>   -1.5946    1.0000 </r>
       <r>   -1.5819    1.0000 </r>
       <r>   -1.5607    1.0000 </r>
       <r>   -1.5464    1.0000 </r>
       <r>   -1.5345    1.0000 </r>
       <r>   -1.4995    1.0000 </r>
       <r>   -1.4790    1.0000 </r>
       <r>   -1.4569    1.0000 </r>
       <r>   -1.4443    1.0000 </r>
       <r>   -1.3896    1.0000 </r>
       <r>   -1.3875    1.0000 </r>
       <r>   -1.3717    1.0000 </r>
       <r>   -1.3630    1.0000 </r>
       <r>   -1.3276    1.0000 </r>
       <r>   -1.2699    1.0000 </r>
       <r>   -1.2458    1.0000 </r>
       <r>   -1.2155    1.0000 </r>
       <r>   -1.1970    1.0000 </r>
       <r>   -1.1908    1.0000 </r>
       <r>   -1.1896    1.0000 </r>
       <r>   -1.1644    1.0000 </r>
       <r>   -1.1547    1.0000 </r>
       <r>   -1.1435    1.0000 </r>
       <r>   -1.1365    1.0000 </r>
       <r>   -1.0939    1.0000 </r>
       <r>   -1.0821    1.0000 </r>
       <r>   -0.9760    1.0000 </r>
       <r>   -0.9460    1.0000 </r>
       <r>   -0.9351    1.0000 </r>
       <r>   -0.9091    1.0000 </r>
       <r>   -0.5862    1.0000 </r>
       <r>   -0.5773    1.0000 </r>
       <r>   -0.5632    1.0000 </r>
       <r>   -0.5139    1.0000 </r>
       <r>   -0.4594    1.0000 </r>
       <r>   -0.0486    1.0000 </r>
       <r>    0.3392    1.0000 </r>
       <r>    2.6114    0.0000 </r>
       <r>    2.7021    0.0000 </r>
       <r>    2.9434    0.0000 </r>
       <r>    2.9833    0.0000 </r>
       <r>    3.0980    0.0000 </r>
       <r>    3.1413    0.0000 </r>
       <r>    3.5219    0.0000 </r>
       <r>    3.8493    0.0000 </r>
       <r>    4.0740    0.0000 </r>
       <r>    4.2553    0.0000 </r>
       <r>    4.3218    0.0000 </r>
       <r>    4.4010    0.0000 </r>
       <r>    4.5932    0.0000 </r>
       <r>    4.6195    0.0000 </r>
       <r>    4.6492    0.0000 </r>
       <r>    4.6722    0.0000 </r>
       <r>    4.7360    0.0000 </r>
       <r>    4.7674    0.0000 </r>
       <r>    4.7891    0.0000 </r>
       <r>    4.8225    0.0000 </r>
       <r>    5.6499    0.0000 </r>
       <r>    5.6643    0.0000 </r>
       <r>    5.8364    0.0000 </r>
       <r>    5.8687    0.0000 </r>
       <r>    5.8968    0.0000 </r>
       <r>    5.9297    0.0000 </r>
       <r>    6.0249    0.0000 </r>
       <r>    6.0699    0.0000 </r>
       <r>    6.1873    0.0000 </r>
       <r>    6.2739    0.0000 </r>
       <r>    6.3211    0.0000 </r>
       <r>    6.3767    0.0000 </r>
       <r>    6.4135    0.0000 </r>
       <r>    6.4739    0.0000 </r>
       <r>    6.5242    0.0000 </r>
       <r>    6.5817    0.0000 </r>
      </set>
      <set comment="kpoint 5">
       <r>  -20.9978    1.0000 </r>
       <r>  -20.8832    1.0000 </r>
       <r>  -20.8319    1.0000 </r>
       <r>  -20.7952    1.0000 </r>
       <r>  -20.7841    1.0000 </r>
       <r>  -20.6492    1.0000 </r>
       <r>  -20.4428    1.0000 </r>
       <r>  -20.2235    1.0000 </r>
       <r>  -16.8951    1.0000 </r>
       <r>  -16.8469    1.0000 </r>
       <r>  -16.8360    1.0000 </r>
       <r>  -16.8165    1.0000 </r>
       <r>  -16.8022    1.0000 </r>
       <r>  -16.7912    1.0000 </r>
       <r>  -16.7776    1.0000 </r>
       <r>  -16.7683    1.0000 </r>
       <r>  -16.7641    1.0000 </r>
       <r>  -16.7548    1.0000 </r>
       <r>  -16.7462    1.0000 </r>
       <r>  -16.7369    1.0000 </r>
       <r>  -16.7278    1.0000 </r>
       <r>  -16.7235    1.0000 </r>
       <r>  -16.7192    1.0000 </r>
       <r>  -16.7185    1.0000 </r>
       <r>  -16.7010    1.0000 </r>
       <r>  -16.6782    1.0000 </r>
       <r>  -16.6663    1.0000 </r>
       <r>  -16.6531    1.0000 </r>
       <r>  -16.4742    1.0000 </r>
       <r>  -16.4578    1.0000 </r>
       <r>  -16.4446    1.0000 </r>
       <r>  -16.4353    1.0000 </r>
       <r>  -16.4070    1.0000 </r>
       <r>  -16.3978    1.0000 </r>
       <r>  -16.3899    1.0000 </r>
       <r>  -16.3704    1.0000 </r>
       <r>  -16.3167    1.0000 </r>
       <r>  -16.3108    1.0000 </r>
       <r>  -16.3097    1.0000 </r>
       <r>  -16.3070    1.0000 </r>
       <r>  -16.3042    1.0000 </r>
       <r>  -16.3014    1.0000 </r>
       <r>  -16.3004    1.0000 </r>
       <r>  -16.2999    1.0000 </r>
       <r>  -16.2954    1.0000 </r>
       <r>  -16.2917    1.0000 </r>
       <r>  -16.2902    1.0000 </r>
       <r>  -16.2830    1.0000 </r>
       <r>  -14.6962    1.0000 </r>
       <r>  -14.5884    1.0000 </r>
       <r>  -14.3385    1.0000 </r>
       <r>  -14.2452    1.0000 </r>
       <r>  -14.1916    1.0000 </r>
       <r>  -14.1725    1.0000 </r>
       <r>  -14.1292    1.0000 </r>
       <r>  -14.1004    1.0000 </r>
       <r>  -14.0797    1.0000 </r>
       <r>  -14.0693    1.0000 </r>
       <r>  -14.0517    1.0000 </r>
       <r>  -14.0393    1.0000 </r>
       <r>  -14.0313    1.0000 </r>
       <r>  -14.0140    1.0000 </r>
       <r>  -14.0103    1.0000 </r>
       <r>  -13.9955    1.0000 </r>
       <r>  -13.9087    1.0000 </r>
       <r>  -13.8710    1.0000 </r>
       <r>  -13.8526    1.0000 </r>
       <r>  -13.8318    1.0000 </r>
       <r>  -13.7853    1.0000 </r>
       <r>  -13.7351    1.0000 </r>
       <r>  -12.7465    1.0000 </r>
       <r>   -8.1218    1.0000 </r>
       <r>   -8.0022    1.0000 </r>
       <r>   -7.7817    1.0000 </r>
       <r>   -7.6556    1.0000 </r>
       <r>   -7.4910    1.0000 </r>
       <r>   -7.4730    1.0000 </r>
       <r>   -7.4237    1.0000 </r>
       <r>   -7.3741    1.0000 </r>
       <r>   -7.3522    1.0000 </r>
       <r>   -7.3088    1.0000 </r>
       <r>   -7.2912    1.0000 </r>
       <r>   -7.2667    1.0000 </r>
       <r>   -7.2593    1.0000 </r>
       <r>   -7.2373    1.0000 </r>
       <r>   -7.2247    1.0000 </r>
       <r>   -7.2211    1.0000 </r>
       <r>   -7.2109    1.0000 </r>
       <r>   -7.1965    1.0000 </r>
       <r>   -7.1877    1.0000 </r>
       <r>   -7.1796    1.0000 </r>
       <r>   -7.1772    1.0000 </r>
       <r>   -7.1566    1.0000 </r>
       <r>   -7.0819    1.0000 </r>
       <r>   -7.0448    1.0000 </r>
       <r>   -7.0406    1.0000 </r>
       <r>   -6.9057    1.0000 </r>
       <r>   -6.8797    1.0000 </r>
       <r>   -6.8656    1.0000 </r>
       <r>   -6.8448    1.0000 </r>
       <r>   -6.7210    1.0000 </r>
       <r>   -6.6743    1.0000 </r>
       <r>   -6.5953    1.0000 </r>
       <r>   -3.3580    1.0000 </r>
       <r>   -3.2725    1.0000 </r>
       <r>   -3.2583    1.0000 </r>
       <r>   -3.2530    1.0000 </r>
       <r>   -3.1621    1.0000 </r>
       <r>   -3.1227    1.0000 </r>
       <r>   -3.0759    1.0000 </r>
       <r>   -2.9873    1.0000 </r>
       <r>   -2.6624    1.0000 </r>
       <r>   -2.6111    1.0000 </r>
       <r>   -2.5628    1.0000 </r>
       <r>   -2.5512    1.0000 </r>
       <r>   -2.4854    1.0000 </r>
       <r>   -2.4460    1.0000 </r>
       <r>   -2.3293    1.0000 </r>
       <r>   -2.2804    1.0000 </r>
       <r>   -2.2480    1.0000 </r>
       <r>   -2.1370    1.0000 </r>
       <r>   -2.0955    1.0000 </r>
       <r>   -2.0605    1.0000 </r>
       <r>   -1.9984    1.0000 </r>
       <r>   -1.9480    1.0000 </r>
       <r>   -1.9049    1.0000 </r>
       <r>   -1.8479    1.0000 </r>
       <r>   -1.8165    1.0000 </r>
       <r>   -1.8132    1.0000 </r>
       <r>   -1.7592    1.0000 </r>
       <r>   -1.7207    1.0000 </r>
       <r>   -1.7019    1.0000 </r>
       <r>   -1.6353    1.0000 </r>
       <r>   -1.6144    1.0000 </r>
       <r>   -1.5537    1.0000 </r>
       <r>   -1.5518    1.0000 </r>
       <r>   -1.4941    1.0000 </r>
       <r>   -1.4737    1.0000 </r>
       <r>   -1.4614    1.0000 </r>
       <r>   -1.4494    1.0000 </r>
       <r>   -1.4418    1.0000 </r>
       <r>   -1.4366    1.0000 </r>
       <r>   -1.4107    1.0000 </r>
       <r>   -1.4041    1.0000 </r>
       <r>   -1.3924    1.0000 </r>
       <r>   -1.3798    1.0000 </r>
       <r>   -1.3739    1.0000 </r>
       <r>   -1.3676    1.0000 </r>
       <r>   -1.3307    1.0000 </r>
       <r>   -1.3136    1.0000 </r>
       <r>   -1.3074    1.0000 </r>
       <r>   -1.2807    1.0000 </r>
       <r>   -1.2659    1.0000 </r>
       <r>   -1.2358    1.0000 </r>
       <r>   -1.2213    1.0000 </r>
       <r>   -1.1983    1.0000 </r>
       <r>   -1.1855    1.0000 </r>
       <r>   -1.1677    1.0000 </r>
       <r>   -1.1603    1.0000 </r>
       <r>   -1.1421    1.0000 </r>
       <r>   -1.0446    1.0000 </r>
       <r>   -0.9755    1.0000 </r>
       <r>   -0.9448    1.0000 </r>
       <r>   -0.8751    1.0000 </r>
       <r>   -0.7087    1.0000 </r>
       <r>   -0.6091    1.0000 </r>
       <r>   -0.5721    1.0000 </r>
       <r>   -0.5050    1.0000 </r>
       <r>   -0.4814    1.0000 </r>
       <r>   -0.0393    1.0000 </r>
       <r>    0.0659    1.0000 </r>
       <r>    0.4031    1.0000 </r>
       <r>    2.4303    0.0000 </r>
       <r>    2.5115    0.0000 </r>
       <r>    2.8250    0.0000 </r>
       <r>    2.9410    0.0000 </r>
       <r>    2.9695    0.0000 </r>
       <r>    3.0721    0.0000 </r>
       <r>    3.3091    0.0000 </r>
       <r>    3.4023    0.0000 </r>
       <r>    3.9326    0.0000 </r>
       <r>    4.1272    0.0000 </r>
       <r>    4.2055    0.0000 </r>
       <r>    4.3788    0.0000 </r>
       <r>    4.4086    0.0000 </r>
       <r>    4.4894    0.0000 </r>
       <r>    4.5596    0.0000 </r>
       <r>    4.5819    0.0000 </r>
       <r>    4.6053    0.0000 </r>
       <r>    4.8415    0.0000 </r>
       <r>    5.3482    0.0000 </r>
       <r>    5.4448    0.0000 </r>
       <r>    5.5464    0.0000 </r>
       <r>    5.6669    0.0000 </r>
       <r>    5.7119    0.0000 </r>
       <r>    5.9941    0.0000 </r>
       <r>    6.0306    0.0000 </r>
       <r>    6.1027    0.0000 </r>
       <r>    6.1817    0.0000 </r>
       <r>    6.1884    0.0000 </r>
       <r>    6.2477    0.0000 </r>
       <r>    6.3441    0.0000 </r>
       <r>    6.3815    0.0000 </r>
       <r>    6.3924    0.0000 </r>
       <r>    6.4782    0.0000 </r>
       <r>    6.5074    0.0000 </r>
       <r>    6.5323    0.0000 </r>
       <r>    6.5689    0.0000 </r>
      </set>
      <set comment="kpoint 6">
       <r>  -20.9978    1.0000 </r>
       <r>  -20.8832    1.0000 </r>
       <r>  -20.8319    1.0000 </r>
       <r>  -20.7952    1.0000 </r>
       <r>  -20.7841    1.0000 </r>
       <r>  -20.6492    1.0000 </r>
       <r>  -20.4428    1.0000 </r>
       <r>  -20.2235    1.0000 </r>
       <r>  -16.8939    1.0000 </r>
       <r>  -16.8455    1.0000 </r>
       <r>  -16.8336    1.0000 </r>
       <r>  -16.8099    1.0000 </r>
       <r>  -16.7994    1.0000 </r>
       <r>  -16.7878    1.0000 </r>
       <r>  -16.7776    1.0000 </r>
       <r>  -16.7728    1.0000 </r>
       <r>  -16.7677    1.0000 </r>
       <r>  -16.7643    1.0000 </r>
       <r>  -16.7467    1.0000 </r>
       <r>  -16.7369    1.0000 </r>
       <r>  -16.7277    1.0000 </r>
       <r>  -16.7235    1.0000 </r>
       <r>  -16.7193    1.0000 </r>
       <r>  -16.7186    1.0000 </r>
       <r>  -16.7010    1.0000 </r>
       <r>  -16.6782    1.0000 </r>
       <r>  -16.6663    1.0000 </r>
       <r>  -16.6531    1.0000 </r>
       <r>  -16.4685    1.0000 </r>
       <r>  -16.4574    1.0000 </r>
       <r>  -16.4242    1.0000 </r>
       <r>  -16.4185    1.0000 </r>
       <r>  -16.4147    1.0000 </r>
       <r>  -16.4107    1.0000 </r>
       <r>  -16.3968    1.0000 </r>
       <r>  -16.3877    1.0000 </r>
       <r>  -16.3167    1.0000 </r>
       <r>  -16.3108    1.0000 </r>
       <r>  -16.3097    1.0000 </r>
       <r>  -16.3070    1.0000 </r>
       <r>  -16.3042    1.0000 </r>
       <r>  -16.3013    1.0000 </r>
       <r>  -16.3004    1.0000 </r>
       <r>  -16.2999    1.0000 </r>
       <r>  -16.2954    1.0000 </r>
       <r>  -16.2917    1.0000 </r>
       <r>  -16.2902    1.0000 </r>
       <r>  -16.2831    1.0000 </r>
       <r>  -14.6921    1.0000 </r>
       <r>  -14.5965    1.0000 </r>
       <r>  -14.2998    1.0000 </r>
       <r>  -14.2766    1.0000 </r>
       <r>  -14.2341    1.0000 </r>
       <r>  -14.1523    1.0000 </r>
       <r>  -14.1429    1.0000 </r>
       <r>  -14.1177    1.0000 </r>
       <r>  -14.0991    1.0000 </r>
       <r>  -14.0861    1.0000 </r>
       <r>  -14.0798    1.0000 </r>
       <r>  -14.0636    1.0000 </r>
       <r>  -14.0068    1.0000 </r>
       <r>  -13.9408    1.0000 </r>
       <r>  -13.9337    1.0000 </r>
       <r>  -13.9145    1.0000 </r>
       <r>  -13.9041    1.0000 </r>
       <r>  -13.8978    1.0000 </r>
       <r>  -13.8658    1.0000 </r>
       <r>  -13.8389    1.0000 </r>
       <r>  -13.7972    1.0000 </r>
       <r>  -13.7937    1.0000 </r>
       <r>  -12.7465    1.0000 </r>
       <r>   -7.9502    1.0000 </r>
       <r>   -7.8690    1.0000 </r>
       <r>   -7.7763    1.0000 </r>
       <r>   -7.7621    1.0000 </r>
       <r>   -7.5887    1.0000 </r>
       <r>   -7.5154    1.0000 </r>
       <r>   -7.4223    1.0000 </r>
       <r>   -7.3980    1.0000 </r>
       <r>   -7.3524    1.0000 </r>
       <r>   -7.3079    1.0000 </r>
       <r>   -7.2967    1.0000 </r>
       <r>   -7.2703    1.0000 </r>
       <r>   -7.2643    1.0000 </r>
       <r>   -7.2315    1.0000 </r>
       <r>   -7.2245    1.0000 </r>
       <r>   -7.2223    1.0000 </r>
       <r>   -7.2017    1.0000 </r>
       <r>   -7.1970    1.0000 </r>
       <r>   -7.1918    1.0000 </r>
       <r>   -7.1781    1.0000 </r>
       <r>   -7.1594    1.0000 </r>
       <r>   -7.1426    1.0000 </r>
       <r>   -7.1359    1.0000 </r>
       <r>   -7.0740    1.0000 </r>
       <r>   -7.0431    1.0000 </r>
       <r>   -7.0394    1.0000 </r>
       <r>   -6.9037    1.0000 </r>
       <r>   -6.8760    1.0000 </r>
       <r>   -6.8664    1.0000 </r>
       <r>   -6.7228    1.0000 </r>
       <r>   -6.6742    1.0000 </r>
       <r>   -6.5953    1.0000 </r>
       <r>   -3.3204    1.0000 </r>
       <r>   -3.2861    1.0000 </r>
       <r>   -3.1186    1.0000 </r>
       <r>   -3.0272    1.0000 </r>
       <r>   -2.8047    1.0000 </r>
       <r>   -2.7424    1.0000 </r>
       <r>   -2.7261    1.0000 </r>
       <r>   -2.6971    1.0000 </r>
       <r>   -2.6084    1.0000 </r>
       <r>   -2.5790    1.0000 </r>
       <r>   -2.5469    1.0000 </r>
       <r>   -2.5230    1.0000 </r>
       <r>   -2.4408    1.0000 </r>
       <r>   -2.4219    1.0000 </r>
       <r>   -2.4023    1.0000 </r>
       <r>   -2.3786    1.0000 </r>
       <r>   -2.3101    1.0000 </r>
       <r>   -2.3067    1.0000 </r>
       <r>   -2.1514    1.0000 </r>
[...]
        <r>  0.0000  0.0002  0.0014 </r>
        <r>  0.0000  0.0004  0.0001 </r>
        <r>  0.0001  0.0004  0.0011 </r>
        <r>  0.0001  0.0008  0.0004 </r>
        <r>  0.0000  0.0007  0.0002 </r>
        <r>  0.0030  0.0002  0.0023 </r>
        <r>  0.0004  0.0010  0.0009 </r>
        <r>  0.0024  0.0042  0.0024 </r>
        <r>  0.0000  0.0004  0.0002 </r>
       </set>
       <set comment="band 199">
        <r>  0.0000  0.0000  0.0050 </r>
        <r>  0.0000  0.0000  0.0054 </r>
        <r>  0.0090  0.0045  0.0156 </r>
        <r>  0.0041  0.0003  0.0061 </r>
        <r>  0.0000  0.0000  0.0028 </r>
        <r>  0.0000  0.0001  0.0004 </r>
        <r>  0.0006  0.0003  0.0026 </r>
        <r>  0.0017  0.0023  0.0171 </r>
        <r>  0.0000  0.0011  0.0001 </r>
        <r>  0.0000  0.0026  0.0001 </r>
        <r>  0.0000  0.0017  0.0002 </r>
        <r>  0.0000  0.0152  0.0009 </r>
        <r>  0.0000  0.0012  0.0002 </r>
        <r>  0.0000  0.0163  0.0010 </r>
        <r>  0.0000  0.0008  0.0001 </r>
        <r>  0.0000  0.0029  0.0002 </r>
        <r>  0.0001  0.0029  0.0001 </r>
        <r>  0.0000  0.0019  0.0000 </r>
        <r>  0.0001  0.0033  0.0001 </r>
        <r>  0.0026  0.0056  0.0041 </r>
        <r>  0.0000  0.0001  0.0001 </r>
        <r>  0.0000  0.0090  0.0003 </r>
        <r>  0.0001  0.0003  0.0003 </r>
        <r>  0.0002  0.0001  0.0006 </r>
        <r>  0.0003  0.0003  0.0011 </r>
        <r>  0.0000  0.0031  0.0017 </r>
        <r>  0.0002  0.0004  0.0005 </r>
        <r>  0.0015  0.0043  0.0017 </r>
        <r>  0.0003  0.0020  0.0008 </r>
        <r>  0.0002  0.0015  0.0012 </r>
        <r>  0.0000  0.0002  0.0002 </r>
        <r>  0.0004  0.0004  0.0008 </r>
        <r>  0.0004  0.0004  0.0009 </r>
        <r>  0.0000  0.0025  0.0014 </r>
        <r>  0.0002  0.0023  0.0007 </r>
        <r>  0.0001  0.0013  0.0010 </r>
        <r>  0.0002  0.0004  0.0002 </r>
        <r>  0.0010  0.0034  0.0018 </r>
        <r>  0.0003  0.0006  0.0011 </r>
       </set>
       <set comment="band 200">
        <r>  0.0002  0.0006  0.0160 </r>
        <r>  0.0049  0.0014  0.0058 </r>
        <r>  0.0001  0.0001  0.0016 </r>
        <r>  0.0003  0.0003  0.0022 </r>
        <r>  0.0116  0.0000  0.0179 </r>
        <r>  0.0019  0.0004  0.0198 </r>
        <r>  0.0000  0.0003  0.0051 </r>
        <r>  0.0000  0.0000  0.0044 </r>
        <r>  0.0000  0.0002  0.0002 </r>
        <r>  0.0003  0.0015  0.0002 </r>
        <r>  0.0000  0.0027  0.0002 </r>
        <r>  0.0000  0.0017  0.0003 </r>
        <r>  0.0000  0.0025  0.0003 </r>
        <r>  0.0000  0.0023  0.0003 </r>
        <r>  0.0000  0.0006  0.0002 </r>
        <r>  0.0002  0.0039  0.0002 </r>
        <r>  0.0000  0.0007  0.0002 </r>
        <r>  0.0004  0.0031  0.0031 </r>
        <r>  0.0042  0.0023  0.0039 </r>
        <r>  0.0000  0.0006  0.0002 </r>
        <r>  0.0007  0.0057  0.0020 </r>
        <r>  0.0000  0.0038  0.0022 </r>
        <r>  0.0012  0.0024  0.0012 </r>
        <r>  0.0006  0.0047  0.0006 </r>
        <r>  0.0005  0.0035  0.0005 </r>
        <r>  0.0005  0.0010  0.0006 </r>
        <r>  0.0013  0.0033  0.0016 </r>
        <r>  0.0006  0.0004  0.0004 </r>
        <r>  0.0002  0.0018  0.0003 </r>
        <r>  0.0000  0.0008  0.0007 </r>
        <r>  0.0010  0.0019  0.0010 </r>
        <r>  0.0008  0.0029  0.0006 </r>
        <r>  0.0006  0.0026  0.0006 </r>
        <r>  0.0001  0.0009  0.0008 </r>
        <r>  0.0003  0.0019  0.0005 </r>
        <r>  0.0001  0.0015  0.0007 </r>
        <r>  0.0023  0.0016  0.0021 </r>
        <r>  0.0005  0.0001  0.0004 </r>
        <r>  0.0000  0.0008  0.0002 </r>
       </set>
       <set comment="band 201">
        <r>  0.0001  0.0006  0.0056 </r>
        <r>  0.0003  0.0001  0.0027 </r>
        <r>  0.0049  0.0005  0.0093 </r>
        <r>  0.0055  0.0019  0.0070 </r>
        <r>  0.0003  0.0000  0.0060 </r>
        <r>  0.0000  0.0001  0.0033 </r>
        <r>  0.0012  0.0019  0.0041 </r>
        <r>  0.0103  0.0008  0.0106 </r>
        <r>  0.0000  0.0031  0.0001 </r>
        <r>  0.0000  0.0103  0.0007 </r>
        <r>  0.0000  0.0038  0.0001 </r>
        <r>  0.0000  0.0014  0.0002 </r>
        <r>  0.0000  0.0066  0.0001 </r>
        <r>  0.0000  0.0025  0.0002 </r>
        <r>  0.0000  0.0027  0.0002 </r>
        <r>  0.0001  0.0072  0.0008 </r>
        <r>  0.0044  0.0025  0.0029 </r>
        <r>  0.0000  0.0007  0.0003 </r>
        <r>  0.0002  0.0001  0.0007 </r>
        <r>  0.0001  0.0058  0.0002 </r>
        <r>  0.0000  0.0051  0.0001 </r>
        <r>  0.0000  0.0004  0.0002 </r>
        <r>  0.0006  0.0008  0.0009 </r>
        <r>  0.0002  0.0006  0.0004 </r>
        <r>  0.0022  0.0062  0.0036 </r>
        <r>  0.0002  0.0003  0.0005 </r>
        <r>  0.0010  0.0046  0.0017 </r>
        <r>  0.0000  0.0003  0.0006 </r>
        <r>  0.0004  0.0016  0.0005 </r>
        <r>  0.0000  0.0018  0.0021 </r>
        <r>  0.0006  0.0010  0.0008 </r>
        <r>  0.0001  0.0009  0.0002 </r>
        <r>  0.0014  0.0084  0.0030 </r>
        <r>  0.0003  0.0003  0.0002 </r>
        <r>  0.0001  0.0019  0.0005 </r>
        <r>  0.0000  0.0013  0.0020 </r>
        <r>  0.0002  0.0073  0.0009 </r>
        <r>  0.0000  0.0003  0.0006 </r>
        <r>  0.0004  0.0007  0.0003 </r>
       </set>
       <set comment="band 202">
        <r>  0.0070  0.0002  0.0212 </r>
        <r>  0.0153  0.0002  0.0049 </r>
        <r>  0.0000  0.0002  0.0034 </r>
        <r>  0.0000  0.0006  0.0089 </r>
        <r>  0.0040  0.0030  0.0033 </r>
        <r>  0.0001  0.0014  0.0030 </r>
        <r>  0.0000  0.0002  0.0003 </r>
        <r>  0.0002  0.0001  0.0037 </r>
        <r>  0.0000  0.0079  0.0002 </r>
        <r>  0.0002  0.0008  0.0002 </r>
        <r>  0.0000  0.0083  0.0000 </r>
        <r>  0.0001  0.0046  0.0001 </r>
        <r>  0.0000  0.0062  0.0000 </r>
        <r>  0.0001  0.0017  0.0001 </r>
        <r>  0.0000  0.0083  0.0002 </r>
        <r>  0.0001  0.0023  0.0001 </r>
        <r>  0.0000  0.0000  0.0000 </r>
        <r>  0.0045  0.0025  0.0047 </r>
        <r>  0.0016  0.0013  0.0034 </r>
        <r>  0.0000  0.0072  0.0003 </r>
        <r>  0.0000  0.0029  0.0013 </r>
        <r>  0.0014  0.0037  0.0007 </r>
        <r>  0.0021  0.0039  0.0028 </r>
        <r>  0.0005  0.0020  0.0012 </r>
        <r>  0.0002  0.0016  0.0006 </r>
        <r>  0.0008  0.0016  0.0006 </r>
        <r>  0.0003  0.0029  0.0008 </r>
        <r>  0.0000  0.0022  0.0004 </r>
        <r>  0.0005  0.0039  0.0006 </r>
        <r>  0.0001  0.0012  0.0007 </r>
        <r>  0.0021  0.0035  0.0033 </r>
        <r>  0.0003  0.0018  0.0012 </r>
        <r>  0.0004  0.0019  0.0005 </r>
        <r>  0.0005  0.0018  0.0006 </r>
        <r>  0.0005  0.0031  0.0006 </r>
        <r>  0.0001  0.0008  0.0010 </r>
        <r>  0.0004  0.0018  0.0009 </r>
        <r>  0.0000  0.0022  0.0004 </r>
        <r>  0.0000  0.0011  0.0003 </r>
       </set>
       <set comment="band 203">
        <r>  0.0038  0.0021  0.0002 </r>
        <r>  0.0033  0.0008  0.0059 </r>
        <r>  0.0000  0.0002  0.0016 </r>
        <r>  0.0000  0.0001  0.0028 </r>
        <r>  0.0017  0.0013  0.0188 </r>
        <r>  0.0135  0.0009  0.0125 </r>
        <r>  0.0000  0.0004  0.0032 </r>
        <r>  0.0000  0.0001  0.0089 </r>
        <r>  0.0000  0.0020  0.0002 </r>
        <r>  0.0002  0.0069  0.0000 </r>
        <r>  0.0000  0.0083  0.0002 </r>
        <r>  0.0001  0.0006  0.0000 </r>
        <r>  0.0000  0.0067  0.0002 </r>
        <r>  0.0001  0.0006  0.0000 </r>
        <r>  0.0000  0.0024  0.0002 </r>
        <r>  0.0001  0.0073  0.0000 </r>
        <r>  0.0000  0.0095  0.0002 </r>
        <r>  0.0005  0.0034  0.0005 </r>
        <r>  0.0029  0.0039  0.0029 </r>
        <r>  0.0000  0.0010  0.0004 </r>
        <r>  0.0043  0.0037  0.0059 </r>
        <r>  0.0001  0.0002  0.0031 </r>
        <r>  0.0002  0.0012  0.0006 </r>
        <r>  0.0003  0.0035  0.0007 </r>
        <r>  0.0018  0.0021  0.0012 </r>
        <r>  0.0000  0.0001  0.0004 </r>
        <r>  0.0013  0.0041  0.0015 </r>
        <r>  0.0004  0.0012  0.0018 </r>
        <r>  0.0004  0.0017  0.0004 </r>
        <r>  0.0000  0.0014  0.0003 </r>
        <r>  0.0002  0.0012  0.0005 </r>
        <r>  0.0003  0.0034  0.0006 </r>
        <r>  0.0014  0.0019  0.0012 </r>
        <r>  0.0000  0.0001  0.0004 </r>
        <r>  0.0005  0.0018  0.0004 </r>
        <r>  0.0000  0.0014  0.0003 </r>
        <r>  0.0012  0.0042  0.0016 </r>
        <r>  0.0004  0.0013  0.0016 </r>
        <r>  0.0000  0.0005  0.0001 </r>
       </set>
       <set comment="band 204">
        <r>  0.0007  0.0001  0.0072 </r>
        <r>  0.0000  0.0006  0.0061 </r>
        <r>  0.0002  0.0002  0.0050 </r>
        <r>  0.0089  0.0002  0.0187 </r>
        <r>  0.0000  0.0003  0.0102 </r>
        <r>  0.0005  0.0002  0.0040 </r>
        <r>  0.0005  0.0006  0.0028 </r>
        <r>  0.0001  0.0044  0.0275 </r>
        <r>  0.0000  0.0020  0.0005 </r>
        <r>  0.0000  0.0048  0.0003 </r>
        <r>  0.0000  0.0120  0.0001 </r>
        <r>  0.0001  0.0147  0.0003 </r>
        <r>  0.0000  0.0039  0.0003 </r>
        <r>  0.0000  0.0073  0.0008 </r>
        <r>  0.0000  0.0064  0.0000 </r>
        <r>  0.0000  0.0070  0.0002 </r>
        <r>  0.0010  0.0038  0.0033 </r>
        <r>  0.0000  0.0027  0.0001 </r>
        <r>  0.0002  0.0026  0.0006 </r>
        <r>  0.0007  0.0039  0.0033 </r>
        <r>  0.0001  0.0014  0.0006 </r>
        <r>  0.0001  0.0058  0.0011 </r>
        <r>  0.0008  0.0012  0.0013 </r>
        <r>  0.0000  0.0034  0.0005 </r>
        <r>  0.0004  0.0003  0.0016 </r>
        <r>  0.0010  0.0006  0.0016 </r>
        <r>  0.0000  0.0003  0.0003 </r>
        <r>  0.0000  0.0025  0.0005 </r>
        <r>  0.0007  0.0033  0.0008 </r>
        <r>  0.0012  0.0033  0.0021 </r>
        <r>  0.0018  0.0014  0.0026 </r>
        <r>  0.0000  0.0021  0.0006 </r>
        <r>  0.0000  0.0034  0.0011 </r>
        <r>  0.0003  0.0007  0.0006 </r>
        <r>  0.0001  0.0005  0.0002 </r>
        <r>  0.0000  0.0041  0.0015 </r>
        <r>  0.0001  0.0018  0.0010 </r>
        <r>  0.0004  0.0014  0.0013 </r>
        <r>  0.0000  0.0011  0.0003 </r>
       </set>
       <set comment="band 205">
        <r>  0.0002  0.0002  0.0176 </r>
        <r>  0.0001  0.0001  0.0122 </r>
        <r>  0.0012  0.0001  0.0029 </r>
        <r>  0.0012  0.0002  0.0171 </r>
        <r>  0.0002  0.0007  0.0280 </r>
        <r>  0.0016  0.0001  0.0086 </r>
        <r>  0.0010  0.0001  0.0086 </r>
        <r>  0.0012  0.0004  0.0187 </r>
        <r>  0.0000  0.0095  0.0001 </r>
        <r>  0.0000  0.0091  0.0002 </r>
        <r>  0.0000  0.0008  0.0005 </r>
        <r>  0.0001  0.0024  0.0009 </r>
        <r>  0.0000  0.0118  0.0002 </r>
        <r>  0.0001  0.0109  0.0006 </r>
        <r>  0.0001  0.0004  0.0007 </r>
        <r>  0.0000  0.0045  0.0002 </r>
        <r>  0.0000  0.0003  0.0005 </r>
        <r>  0.0000  0.0004  0.0001 </r>
        <r>  0.0001  0.0012  0.0003 </r>
        <r>  0.0000  0.0005  0.0006 </r>
        <r>  0.0005  0.0003  0.0012 </r>
        <r>  0.0000  0.0001  0.0010 </r>
        <r>  0.0009  0.0033  0.0036 </r>
        <r>  0.0002  0.0023  0.0015 </r>
        <r>  0.0002  0.0011  0.0012 </r>
        <r>  0.0000  0.0012  0.0011 </r>
        <r>  0.0009  0.0018  0.0033 </r>
        <r>  0.0010  0.0012  0.0028 </r>
        <r>  0.0001  0.0001  0.0006 </r>
        <r>  0.0000  0.0006  0.0010 </r>
        <r>  0.0002  0.0022  0.0018 </r>
        <r>  0.0000  0.0019  0.0005 </r>
        <r>  0.0008  0.0009  0.0019 </r>
        <r>  0.0004  0.0009  0.0026 </r>
        <r>  0.0008  0.0007  0.0019 </r>
        <r>  0.0022  0.0016  0.0042 </r>
        <r>  0.0000  0.0024  0.0007 </r>
        <r>  0.0001  0.0021  0.0007 </r>
        <r>  0.0000  0.0002  0.0001 </r>
       </set>
       <set comment="band 206">
        <r>  0.0004  0.0002  0.0170 </r>
        <r>  0.0007  0.0003  0.0068 </r>
        <r>  0.0001  0.0001  0.0094 </r>
        <r>  0.0004  0.0002  0.0171 </r>
        <r>  0.0002  0.0003  0.0138 </r>
        <r>  0.0013  0.0001  0.0085 </r>
        <r>  0.0001  0.0002  0.0051 </r>
        <r>  0.0003  0.0011  0.0379 </r>
        <r>  0.0001  0.0010  0.0008 </r>
        <r>  0.0001  0.0049  0.0006 </r>
        <r>  0.0000  0.0051  0.0002 </r>
        <r>  0.0001  0.0076  0.0003 </r>
        <r>  0.0001  0.0022  0.0005 </r>
        <r>  0.0001  0.0061  0.0007 </r>
        <r>  0.0000  0.0081  0.0001 </r>
        <r>  0.0000  0.0088  0.0005 </r>
        <r>  0.0000  0.0015  0.0003 </r>
        <r>  0.0001  0.0011  0.0004 </r>
        <r>  0.0000  0.0014  0.0010 </r>
        <r>  0.0003  0.0010  0.0007 </r>
        <r>  0.0003  0.0004  0.0006 </r>
        <r>  0.0000  0.0012  0.0009 </r>
        <r>  0.0001  0.0010  0.0014 </r>
        <r>  0.0000  0.0002  0.0008 </r>
        <r>  0.0005  0.0044  0.0035 </r>
        <r>  0.0001  0.0017  0.0011 </r>
        <r>  0.0000  0.0012  0.0008 </r>
        <r>  0.0001  0.0008  0.0010 </r>
        <r>  0.0001  0.0006  0.0012 </r>
        <r>  0.0006  0.0032  0.0032 </r>
        <r>  0.0001  0.0004  0.0027 </r>
        <r>  0.0006  0.0010  0.0016 </r>
        <r>  0.0000  0.0016  0.0020 </r>
        <r>  0.0008  0.0006  0.0014 </r>
        <r>  0.0003  0.0018  0.0009 </r>
        <r>  0.0000  0.0039  0.0009 </r>
        <r>  0.0003  0.0002  0.0016 </r>
        <r>  0.0011  0.0018  0.0037 </r>
        <r>  0.0001  0.0009  0.0003 </r>
       </set>
       <set comment="band 207">
        <r>  0.0005  0.0006  0.0221 </r>
        <r>  0.0002  0.0018  0.0670 </r>
        <r>  0.0000  0.0001  0.0033 </r>
        <r>  0.0000  0.0001  0.0023 </r>
        <r>  0.0000  0.0013  0.0121 </r>
        <r>  0.0002  0.0000  0.0144 </r>
        <r>  0.0004  0.0001  0.0010 </r>
        <r>  0.0000  0.0003  0.0041 </r>
        <r>  0.0000  0.0010  0.0003 </r>
        <r>  0.0000  0.0027  0.0002 </r>
        <r>  0.0000  0.0026  0.0003 </r>
        <r>  0.0000  0.0019  0.0003 </r>
        <r>  0.0000  0.0017  0.0004 </r>
        <r>  0.0000  0.0036  0.0003 </r>
        <r>  0.0000  0.0017  0.0007 </r>
        <r>  0.0000  0.0019  0.0007 </r>
        <r>  0.0001  0.0006  0.0004 </r>
        <r>  0.0006  0.0042  0.0051 </r>
        <r>  0.0014  0.0027  0.0047 </r>
        <r>  0.0000  0.0001  0.0006 </r>
        <r>  0.0005  0.0020  0.0015 </r>
        <r>  0.0019  0.0005  0.0019 </r>
        <r>  0.0000  0.0014  0.0006 </r>
        <r>  0.0001  0.0008  0.0006 </r>
        <r>  0.0001  0.0002  0.0009 </r>
        <r>  0.0001  0.0011  0.0014 </r>
        <r>  0.0002  0.0030  0.0033 </r>
        <r>  0.0000  0.0009  0.0011 </r>
        <r>  0.0004  0.0012  0.0008 </r>
        <r>  0.0000  0.0015  0.0002 </r>
        <r>  0.0000  0.0013  0.0001 </r>
        <r>  0.0000  0.0006  0.0005 </r>
        <r>  0.0000  0.0009  0.0006 </r>
        <r>  0.0001  0.0009  0.0008 </r>
        <r>  0.0007  0.0008  0.0013 </r>
        <r>  0.0000  0.0006  0.0005 </r>
        <r>  0.0000  0.0035  0.0036 </r>
        <r>  0.0001  0.0009  0.0020 </r>
        <r>  0.0001  0.0002  0.0001 </r>
       </set>
       <set comment="band 208">
        <r>  0.0002  0.0003  0.0203 </r>
        <r>  0.0009  0.0008  0.0076 </r>
        <r>  0.0002  0.0002  0.0018 </r>
        <r>  0.0009  0.0017  0.0140 </r>
        <r>  0.0001  0.0004  0.0184 </r>
        <r>  0.0012  0.0009  0.0093 </r>
        <r>  0.0023  0.0002  0.0116 </r>
        <r>  0.0005  0.0006  0.0209 </r>
        <r>  0.0000  0.0060  0.0001 </r>
        <r>  0.0000  0.0135  0.0005 </r>
        <r>  0.0000  0.0012  0.0002 </r>
        <r>  0.0001  0.0079  0.0010 </r>
        <r>  0.0001  0.0005  0.0000 </r>
        <r>  0.0001  0.0143  0.0003 </r>
        <r>  0.0001  0.0012  0.0005 </r>
        <r>  0.0000  0.0085  0.0007 </r>
        <r>  0.0000  0.0011  0.0015 </r>
        <r>  0.0011  0.0009  0.0022 </r>
        <r>  0.0003  0.0068  0.0014 </r>
        <r>  0.0007  0.0023  0.0019 </r>
        <r>  0.0001  0.0008  0.0022 </r>
        <r>  0.0000  0.0060  0.0016 </r>
        <r>  0.0000  0.0013  0.0013 </r>
        <r>  0.0001  0.0008  0.0006 </r>
        <r>  0.0002  0.0011  0.0006 </r>
        <r>  0.0019  0.0022  0.0032 </r>
        <r>  0.0002  0.0006  0.0012 </r>
        <r>  0.0002  0.0019  0.0013 </r>
        <r>  0.0001  0.0002  0.0005 </r>
        <r>  0.0002  0.0012  0.0017 </r>
        <r>  0.0001  0.0014  0.0009 </r>
        <r>  0.0001  0.0020  0.0005 </r>
        <r>  0.0000  0.0019  0.0006 </r>
        <r>  0.0002  0.0031  0.0015 </r>
        <r>  0.0000  0.0003  0.0003 </r>
        <r>  0.0000  0.0017  0.0010 </r>
        <r>  0.0000  0.0004  0.0005 </r>
        <r>  0.0003  0.0039  0.0017 </r>
        <r>  0.0001  0.0004  0.0003 </r>
       </set>
      </set>
     </set>
    </set>
   </array>
  </projected>
 </calculation>
 <structure name="finalpos" >
  <crystal>
   <varray name="basis" >
    <v>       8.45648900       0.00000000       8.04030100 </v>
    <v>       0.00000000      11.72984700       0.00000000 </v>
    <v>      -8.45648900       0.00000000       8.04030100 </v>
   </varray>
   <i name="volume">   1595.08833419 </i>
   <varray name="rec_basis" >
    <v>       0.05912619      -0.00000000       0.06218673 </v>
    <v>       0.00000000       0.08525260      -0.00000000 </v>
    <v>      -0.05912619       0.00000000       0.06218673 </v>
   </varray>
  </crystal>
  <varray name="positions" >
   <v>       0.26650300       0.25139500       0.20197500 </v>
   <v>       0.77070900       0.24703200       0.72348700 </v>
   <v>       0.70525100       0.75531100       0.25164400 </v>
   <v>       0.21091900       0.74969300       0.78022800 </v>
   <v>       0.29709700       0.25445100       0.73752700 </v>
   <v>       0.79014900       0.24840000       0.22191700 </v>
   <v>       0.73342200       0.75004200       0.80652500 </v>
   <v>       0.22898300       0.74840900       0.27832300 </v>
   <v>       0.00122700       0.00080200       0.99888800 </v>
   <v>       0.49978700       0.00625000       0.49768800 </v>
   <v>       0.49849500       0.00130900       0.99875100 </v>
   <v>       0.00286600       0.01222000       0.50170000 </v>
   <v>       0.50019400       0.50022800       0.00044700 </v>
   <v>       0.99033800       0.49543300       0.50113800 </v>
   <v>       0.99986500       0.49981200       0.00108700 </v>
   <v>       0.50344800       0.49655500       0.49977000 </v>
   <v>       0.47291700       0.75071500       0.96948400 </v>
   <v>       0.97310600       0.25036800       0.97105700 </v>
   <v>       0.45455700       0.24811500       0.46927400 </v>
   <v>       0.02407100       0.75047000       0.03145000 </v>
   <v>       0.52632200       0.25056100       0.03397900 </v>
   <v>       0.03805800       0.25530400       0.54262700 </v>
   <v>       0.24774700       0.47189900       0.95253100 </v>
   <v>       0.74792500       0.44884600       0.45483000 </v>
   <v>       0.45583800       0.53834900       0.25029800 </v>
   <v>       0.95111500       0.53605900       0.74569900 </v>
   <v>       0.54863800       0.02967700       0.75023000 </v>
   <v>       0.04887900       0.03135200       0.25332700 </v>
   <v>       0.75282800       0.97581500       0.04363200 </v>
   <v>       0.25097500       0.95427800       0.54466000 </v>
   <v>       0.24794200       0.03125700       0.94662400 </v>
   <v>       0.74842800       0.03115100       0.44822700 </v>
   <v>       0.45080500       0.96382600       0.24894500 </v>
   <v>       0.95238400       0.96256700       0.74468700 </v>
   <v>       0.75244500       0.52790800       0.05045700 </v>
   <v>       0.25692900       0.54886100       0.54487600 </v>
   <v>       0.55231500       0.46933800       0.75203100 </v>
   <v>       0.04726300       0.46870300       0.25420500 </v>
   <v>       0.74338700       0.73723900       0.49940900 </v>
  </varray>
 </structure>
</modeling>
