 running on   64 total cores
 distrk:  each k-point on   64 cores,    1 groups
 distr:  one band on    8 cores,    8 groups
 using from now: INCAR     
 vasp.5.4.4.18Apr17-6-g9f103f2a35 (build Jun 22 2020 09:27:21) complex           
 POSCAR found type information on POSCAR  Cs Pb Br
 POSCAR found :  3 types and      39 ions
 scaLAPACK will be used
 LDA part: xc-table for Pade appr. of Perdew
 POSCAR found type information on POSCAR  Cs Pb Br
 POSCAR found :  3 types and      39 ions
 POSCAR, INCAR and KPOINTS ok, starting setup
 FFT: planning ...
 WAVECAR not read
 entering main loop
       N       E                     dE             d eps       ncg     rms          rms(c)
DAV:   1     0.133339440441E+04    0.13334E+04   -0.11053E+05  3472   0.973E+02
DAV:   2    -0.111112094233E+04   -0.24445E+04   -0.23563E+04  4088   0.300E+02
DAV:   3    -0.147442103754E+04   -0.36330E+03   -0.36128E+03  4440   0.137E+02
DAV:   4    -0.148644005178E+04   -0.12019E+02   -0.11985E+02  3888   0.330E+01
DAV:   5    -0.148701107629E+04   -0.57102E+00   -0.57078E+00  4368   0.564E+00BRMIX: very serious problems
 the old and the new charge density differ
 old charge density:   345.00000 new  344.00000
    0.102E+01
DAV:   6    -0.140865364731E+04    0.78357E+02   -0.23999E+01  4304   0.314E+01    0.725E+00
DAV:   7    -0.140797600986E+04    0.67764E+00   -0.94916E+00  4032   0.594E+00    0.373E+00
DAV:   8    -0.140815603525E+04   -0.18003E+00   -0.59581E-01  3936   0.223E+00    0.223E+00
DAV:   9    -0.140820718617E+04   -0.51151E-01   -0.21039E-01  3720   0.144E+00    0.491E-01
DAV:  10    -0.140821218098E+04   -0.49948E-02   -0.33636E-02  4240   0.469E-01    0.350E-01
DAV:  11    -0.140821403281E+04   -0.18518E-02   -0.38301E-03  3624   0.169E-01    0.159E-01
DAV:  12    -0.140821668407E+04   -0.26513E-02   -0.72046E-03  3600   0.203E-01    0.115E-01
DAV:  13    -0.140821617762E+04    0.50645E-03   -0.18852E-03  4432   0.119E-01    0.464E-02
DAV:  14    -0.140821617130E+04    0.63162E-05   -0.40438E-04  3872   0.386E-02    0.224E-02
DAV:  15    -0.140821616723E+04    0.40729E-05   -0.50230E-05  3832   0.183E-02    0.128E-02
DAV:  16    -0.140821622760E+04   -0.60371E-04   -0.31222E-05  3824   0.146E-02    0.564E-03
DAV:  17    -0.140821622718E+04    0.41571E-06   -0.84763E-06  3696   0.658E-03
   1 F= -.14082162E+04 E0= -.14082162E+04  d E =-.868112E-35
Application 1918715 resources: utime ~27232s, stime ~118s, Rss ~77124, inblocks ~1334, outblocks ~111056
