  40  40   1   0
  0.4040437E+02  0.1173535E-08  0.1173535E-08  0.1173535E-08  0.5000000E-15
   1.0000000000000000E-004
  CAR 
 CsPbBr3 cubic bulk                      
      8.16660263    -22.48622434  301      1.14199645      1.00000000
    -22.486  0.0000E+00  0.0000E+00
    -22.384  0.0000E+00  0.0000E+00
    -22.282  0.0000E+00  0.0000E+00
    -22.180  0.0000E+00  0.0000E+00
    -22.078  0.0000E+00  0.0000E+00
    -21.975  0.0000E+00  0.0000E+00
    -21.873  0.0000E+00  0.0000E+00
    -21.771  0.0000E+00  0.0000E+00
    -21.669  0.0000E+00  0.0000E+00
    -21.567  0.0000E+00  0.0000E+00
    -21.464  0.0000E+00  0.0000E+00
    -21.362  0.0000E+00  0.0000E+00
    -21.260  0.0000E+00  0.0000E+00
    -21.158  0.0000E+00  0.0000E+00
    -21.056  0.1566E+03  0.1600E+02
    -20.954  0.0000E+00  0.1600E+02
    -20.851  0.0000E+00  0.1600E+02
    -20.749  0.0000E+00  0.1600E+02
    -20.647  0.0000E+00  0.1600E+02
    -20.545  0.0000E+00  0.1600E+02
    -20.443  0.0000E+00  0.1600E+02
    -20.341  0.0000E+00  0.1600E+02
    -20.238  0.0000E+00  0.1600E+02
    -20.136  0.0000E+00  0.1600E+02
    -20.034  0.0000E+00  0.1600E+02
    -19.932  0.0000E+00  0.1600E+02
    -19.830  0.0000E+00  0.1600E+02
    -19.727  0.0000E+00  0.1600E+02
    -19.625  0.0000E+00  0.1600E+02
    -19.523  0.0000E+00  0.1600E+02
    -19.421  0.0000E+00  0.1600E+02
    -19.319  0.0000E+00  0.1600E+02
    -19.217  0.0000E+00  0.1600E+02
    -19.114  0.0000E+00  0.1600E+02
    -19.012  0.0000E+00  0.1600E+02
    -18.910  0.0000E+00  0.1600E+02
    -18.808  0.0000E+00  0.1600E+02
    -18.706  0.0000E+00  0.1600E+02
    -18.604  0.0000E+00  0.1600E+02
    -18.501  0.0000E+00  0.1600E+02
    -18.399  0.0000E+00  0.1600E+02
    -18.297  0.0000E+00  0.1600E+02
    -18.195  0.0000E+00  0.1600E+02
    -18.093  0.0000E+00  0.1600E+02
    -17.990  0.0000E+00  0.1600E+02
    -17.888  0.0000E+00  0.1600E+02
    -17.786  0.0000E+00  0.1600E+02
    -17.684  0.0000E+00  0.1600E+02
    -17.582  0.0000E+00  0.1600E+02
    -17.480  0.0000E+00  0.1600E+02
    -17.377  0.0000E+00  0.1600E+02
    -17.275  0.0000E+00  0.1600E+02
    -17.173  0.0000E+00  0.1600E+02
    -17.071  0.0000E+00  0.1600E+02
    -16.969  0.0000E+00  0.1600E+02
    -16.867  0.0000E+00  0.1600E+02
    -16.764  0.0000E+00  0.1600E+02
    -16.662  0.0000E+00  0.1600E+02
    -16.560  0.0000E+00  0.1600E+02
    -16.458  0.0000E+00  0.1600E+02
    -16.356  0.0000E+00  0.1600E+02
    -16.253  0.6766E+02  0.2291E+02
    -16.151  0.1895E+03  0.4636E+02
    -16.049  0.2267E+03  0.7116E+02
    -15.947  0.0000E+00  0.9600E+02
    -15.845  0.0000E+00  0.9600E+02
    -15.743  0.0000E+00  0.9600E+02
    -15.640  0.0000E+00  0.9600E+02
    -15.538  0.0000E+00  0.9600E+02
    -15.436  0.0000E+00  0.9600E+02
    -15.334  0.0000E+00  0.9600E+02
    -15.232  0.0000E+00  0.9600E+02
    -15.130  0.0000E+00  0.9600E+02
    -15.027  0.0000E+00  0.9600E+02
    -14.925  0.0000E+00  0.9600E+02
    -14.823  0.0000E+00  0.9600E+02
    -14.721  0.0000E+00  0.9600E+02
    -14.619  0.0000E+00  0.9600E+02
    -14.516  0.0000E+00  0.9600E+02
    -14.414  0.7253E-02  0.9600E+02
    -14.312  0.1349E+02  0.9763E+02
    -14.210  0.3600E+02  0.1014E+03
    -14.108  0.2688E+02  0.1055E+03
    -14.006  0.3077E+02  0.1096E+03
    -13.903  0.1631E+02  0.1232E+03
    -13.801  0.5557E+02  0.1294E+03
    -13.699  0.5237E+02  0.1391E+03
    -13.597  0.2684E+02  0.1440E+03
    -13.495  0.0000E+00  0.1440E+03
    -13.393  0.0000E+00  0.1440E+03
    -13.290  0.0000E+00  0.1440E+03
    -13.188  0.0000E+00  0.1440E+03
    -13.086  0.0000E+00  0.1440E+03
    -12.984  0.0000E+00  0.1440E+03
    -12.882  0.0000E+00  0.1440E+03
    -12.779  0.0000E+00  0.1440E+03
    -12.677  0.0000E+00  0.1440E+03
    -12.575  0.0000E+00  0.1440E+03
    -12.473  0.0000E+00  0.1440E+03
    -12.371  0.0000E+00  0.1440E+03
    -12.269  0.0000E+00  0.1440E+03
    -12.166  0.0000E+00  0.1440E+03
    -12.064  0.0000E+00  0.1440E+03
    -11.962  0.0000E+00  0.1440E+03
    -11.860  0.0000E+00  0.1440E+03
    -11.758  0.0000E+00  0.1440E+03
    -11.656  0.0000E+00  0.1440E+03
    -11.553  0.0000E+00  0.1440E+03
    -11.451  0.0000E+00  0.1440E+03
    -11.349  0.0000E+00  0.1440E+03
    -11.247  0.0000E+00  0.1440E+03
    -11.145  0.0000E+00  0.1440E+03
    -11.043  0.0000E+00  0.1440E+03
    -10.940  0.0000E+00  0.1440E+03
    -10.838  0.0000E+00  0.1440E+03
    -10.736  0.0000E+00  0.1440E+03
    -10.634  0.0000E+00  0.1440E+03
    -10.532  0.0000E+00  0.1440E+03
    -10.429  0.0000E+00  0.1440E+03
    -10.327  0.0000E+00  0.1440E+03
    -10.225  0.0000E+00  0.1440E+03
    -10.123  0.0000E+00  0.1440E+03
    -10.021  0.0000E+00  0.1440E+03
     -9.919  0.0000E+00  0.1440E+03
     -9.816  0.0000E+00  0.1440E+03
     -9.714  0.0000E+00  0.1440E+03
     -9.612  0.0000E+00  0.1440E+03
     -9.510  0.0000E+00  0.1440E+03
     -9.408  0.0000E+00  0.1440E+03
     -9.306  0.0000E+00  0.1440E+03
     -9.203  0.0000E+00  0.1440E+03
     -9.101  0.0000E+00  0.1440E+03
     -8.999  0.0000E+00  0.1440E+03
     -8.897  0.0000E+00  0.1440E+03
     -8.795  0.0000E+00  0.1440E+03
     -8.692  0.0000E+00  0.1440E+03
     -8.590  0.0000E+00  0.1440E+03
     -8.488  0.0000E+00  0.1440E+03
     -8.386  0.0000E+00  0.1440E+03
     -8.284  0.3764E-01  0.1440E+03
     -8.182  0.0000E+00  0.1442E+03
     -8.079  0.0000E+00  0.1442E+03
     -7.977  0.1372E+02  0.1457E+03
     -7.875  0.0000E+00  0.1458E+03
     -7.773  0.0000E+00  0.1458E+03
     -7.671  0.2936E+02  0.1488E+03
     -7.569  0.7340E+01  0.1495E+03
     -7.466  0.1978E+02  0.1515E+03
     -7.364  0.2964E+03  0.1995E+03
     -7.262  0.0000E+00  0.2025E+03
     -7.160  0.0000E+00  0.2025E+03
     -7.058  0.4556E+01  0.2030E+03
     -6.955  0.6473E+01  0.2062E+03
     -6.853  0.0000E+00  0.2062E+03
     -6.751  0.0000E+00  0.2062E+03
     -6.649  0.2344E+01  0.2065E+03
     -6.547  0.0000E+00  0.2078E+03
     -6.445  0.0000E+00  0.2078E+03
     -6.342  0.0000E+00  0.2078E+03
     -6.240  0.0000E+00  0.2078E+03
     -6.138  0.2447E+01  0.2080E+03
     -6.036  0.0000E+00  0.2080E+03
     -5.934  0.0000E+00  0.2080E+03
     -5.832  0.0000E+00  0.2080E+03
     -5.729  0.0000E+00  0.2080E+03
     -5.627  0.0000E+00  0.2080E+03
     -5.525  0.0000E+00  0.2080E+03
     -5.423  0.0000E+00  0.2080E+03
     -5.321  0.0000E+00  0.2080E+03
     -5.218  0.0000E+00  0.2080E+03
     -5.116  0.0000E+00  0.2080E+03
     -5.014  0.0000E+00  0.2080E+03
     -4.912  0.0000E+00  0.2080E+03
     -4.810  0.0000E+00  0.2080E+03
     -4.708  0.0000E+00  0.2080E+03
     -4.605  0.0000E+00  0.2080E+03
     -4.503  0.0000E+00  0.2080E+03
     -4.401  0.0000E+00  0.2080E+03
     -4.299  0.0000E+00  0.2080E+03
     -4.197  0.0000E+00  0.2080E+03
     -4.095  0.0000E+00  0.2080E+03
     -3.992  0.0000E+00  0.2080E+03
     -3.890  0.0000E+00  0.2080E+03
     -3.788  0.0000E+00  0.2080E+03
     -3.686  0.0000E+00  0.2080E+03
     -3.584  0.0000E+00  0.2080E+03
     -3.481  0.1212E-10  0.2080E+03
     -3.379  0.3070E+02  0.2111E+03
     -3.277  0.4479E+02  0.2163E+03
     -3.175  0.6545E+01  0.2199E+03
     -3.073  0.0000E+00  0.2200E+03
     -2.971  0.0000E+00  0.2200E+03
     -2.868  0.0000E+00  0.2200E+03
     -2.766  0.0000E+00  0.2200E+03
     -2.664  0.4408E-01  0.2200E+03
     -2.562  0.3848E+02  0.2269E+03
     -2.460  0.3116E+02  0.2302E+03
     -2.358  0.2936E+02  0.2345E+03
     -2.255  0.3925E+02  0.2385E+03
     -2.153  0.4605E+02  0.2437E+03
     -2.051  0.6128E+01  0.2454E+03
     -1.949  0.6436E+02  0.2528E+03
     -1.847  0.1033E+02  0.2541E+03
     -1.744  0.2936E+02  0.2598E+03
     -1.642  0.3204E+01  0.2601E+03
     -1.540  0.7592E+02  0.2715E+03
     -1.438  0.1462E+02  0.2757E+03
     -1.336  0.6647E+02  0.2855E+03
     -1.234  0.1150E+03  0.3010E+03
     -1.131  0.2950E+02  0.3085E+03
     -1.029  0.5013E+02  0.3144E+03
     -0.927  0.1288E+03  0.3369E+03
     -0.825  0.0000E+00  0.3398E+03
     -0.723  0.2932E+02  0.3427E+03
     -0.621  0.0000E+00  0.3428E+03
     -0.518  0.0000E+00  0.3428E+03
     -0.416  0.7340E+01  0.3435E+03
     -0.314  0.2866E-09  0.3435E+03
     -0.212  0.2936E+02  0.3465E+03
     -0.110  0.2934E+02  0.3495E+03
     -0.007  0.0000E+00  0.3495E+03
      0.095  0.0000E+00  0.3495E+03
      0.197  0.0000E+00  0.3495E+03
      0.299  0.3168E+00  0.3495E+03
      0.401  0.0000E+00  0.3502E+03
      0.503  0.1468E+02  0.3517E+03
      0.606  0.0000E+00  0.3518E+03
      0.708  0.0000E+00  0.3518E+03
      0.810  0.0000E+00  0.3518E+03
      0.912  0.0000E+00  0.3518E+03
      1.014  0.2702E-02  0.3518E+03
      1.116  0.0000E+00  0.3520E+03
      1.219  0.0000E+00  0.3520E+03
      1.321  0.0000E+00  0.3520E+03
      1.423  0.0000E+00  0.3520E+03
      1.525  0.0000E+00  0.3520E+03
      1.627  0.0000E+00  0.3520E+03
      1.730  0.0000E+00  0.3520E+03
      1.832  0.0000E+00  0.3520E+03
      1.934  0.0000E+00  0.3520E+03
      2.036  0.0000E+00  0.3520E+03
      2.138  0.0000E+00  0.3520E+03
      2.240  0.0000E+00  0.3520E+03
      2.343  0.0000E+00  0.3520E+03
      2.445  0.0000E+00  0.3520E+03
      2.547  0.0000E+00  0.3520E+03
      2.649  0.0000E+00  0.3520E+03
      2.751  0.0000E+00  0.3520E+03
      2.853  0.7186E+01  0.3527E+03
      2.956  0.0000E+00  0.3528E+03
      3.058  0.2388E-11  0.3528E+03
      3.160  0.2936E+02  0.3557E+03
      3.262  0.0000E+00  0.3558E+03
      3.364  0.2373E+02  0.3582E+03
      3.467  0.0000E+00  0.3602E+03
      3.569  0.8700E-06  0.3603E+03
      3.671  0.2936E+02  0.3632E+03
      3.773  0.0000E+00  0.3632E+03
      3.875  0.7340E+01  0.3640E+03
      3.977  0.0000E+00  0.3640E+03
      4.080  0.0000E+00  0.3640E+03
      4.182  0.0000E+00  0.3640E+03
      4.284  0.0000E+00  0.3640E+03
      4.386  0.0000E+00  0.3640E+03
      4.488  0.2074E-12  0.3640E+03
      4.590  0.2447E+01  0.3643E+03
      4.693  0.1468E+02  0.3658E+03
      4.795  0.8680E+00  0.3658E+03
      4.897  0.4514E+01  0.3692E+03
      4.999  0.1356E+01  0.3719E+03
      5.101  0.2358E+02  0.3782E+03
      5.203  0.2936E+02  0.3823E+03
      5.306  0.5871E+02  0.3882E+03
      5.408  0.0000E+00  0.3882E+03
      5.510  0.1569E-02  0.3883E+03
      5.612  0.5029E+01  0.3888E+03
      5.714  0.6518E-06  0.3903E+03
      5.817  0.2936E+02  0.3932E+03
      5.919  0.8448E+00  0.3933E+03
      6.021  0.2241E+02  0.3970E+03
      6.123  0.8176E+00  0.3991E+03
      6.225  0.1153E+01  0.3994E+03
      6.327  0.2936E+02  0.4030E+03
      6.430  0.9536E+02  0.4127E+03
      6.532  0.5883E+02  0.4188E+03
      6.634  0.5969E+02  0.4256E+03
      6.736  0.3698E+02  0.4313E+03
      6.838  0.2447E+01  0.4320E+03
      6.940  0.0000E+00  0.4320E+03
      7.043  0.0000E+00  0.4320E+03
      7.145  0.0000E+00  0.4320E+03
      7.247  0.0000E+00  0.4320E+03
      7.349  0.0000E+00  0.4320E+03
      7.451  0.0000E+00  0.4320E+03
      7.554  0.0000E+00  0.4320E+03
      7.656  0.0000E+00  0.4320E+03
      7.758  0.0000E+00  0.4320E+03
      7.860  0.0000E+00  0.4320E+03
      7.962  0.0000E+00  0.4320E+03
      8.064  0.0000E+00  0.4320E+03
      8.167  0.0000E+00  0.4320E+03
      8.16660263    -22.48622434  301      1.14199645      1.00000000
    -22.486  0.0000E+00  0.0000E+00  0.0000E+00
    -22.384  0.0000E+00  0.0000E+00  0.0000E+00
    -22.282  0.0000E+00  0.0000E+00  0.0000E+00
    -22.180  0.0000E+00  0.0000E+00  0.0000E+00
    -22.078  0.0000E+00  0.0000E+00  0.0000E+00
    -21.975  0.0000E+00  0.0000E+00  0.0000E+00
    -21.873  0.0000E+00  0.0000E+00  0.0000E+00
    -21.771  0.0000E+00  0.0000E+00  0.0000E+00
    -21.669  0.0000E+00  0.0000E+00  0.0000E+00
    -21.567  0.0000E+00  0.0000E+00  0.0000E+00
    -21.464  0.0000E+00  0.0000E+00  0.0000E+00
    -21.362  0.0000E+00  0.0000E+00  0.0000E+00
    -21.260  0.0000E+00  0.0000E+00  0.0000E+00
    -21.158  0.0000E+00  0.0000E+00  0.0000E+00
    -21.056  0.1737E+02  0.7286E-07  0.6331E-08
    -20.954  0.0000E+00  0.0000E+00  0.0000E+00
    -20.851  0.0000E+00  0.0000E+00  0.0000E+00
    -20.749  0.0000E+00  0.0000E+00  0.0000E+00
    -20.647  0.0000E+00  0.0000E+00  0.0000E+00
    -20.545  0.0000E+00  0.0000E+00  0.0000E+00
    -20.443  0.0000E+00  0.0000E+00  0.0000E+00
    -20.341  0.0000E+00  0.0000E+00  0.0000E+00
    -20.238  0.0000E+00  0.0000E+00  0.0000E+00
    -20.136  0.0000E+00  0.0000E+00  0.0000E+00
    -20.034  0.0000E+00  0.0000E+00  0.0000E+00
    -19.932  0.0000E+00  0.0000E+00  0.0000E+00
    -19.830  0.0000E+00  0.0000E+00  0.0000E+00
    -19.727  0.0000E+00  0.0000E+00  0.0000E+00
    -19.625  0.0000E+00  0.0000E+00  0.0000E+00
    -19.523  0.0000E+00  0.0000E+00  0.0000E+00
    -19.421  0.0000E+00  0.0000E+00  0.0000E+00
    -19.319  0.0000E+00  0.0000E+00  0.0000E+00
    -19.217  0.0000E+00  0.0000E+00  0.0000E+00
    -19.114  0.0000E+00  0.0000E+00  0.0000E+00
    -19.012  0.0000E+00  0.0000E+00  0.0000E+00
    -18.910  0.0000E+00  0.0000E+00  0.0000E+00
    -18.808  0.0000E+00  0.0000E+00  0.0000E+00
    -18.706  0.0000E+00  0.0000E+00  0.0000E+00
    -18.604  0.0000E+00  0.0000E+00  0.0000E+00
    -18.501  0.0000E+00  0.0000E+00  0.0000E+00
    -18.399  0.0000E+00  0.0000E+00  0.0000E+00
    -18.297  0.0000E+00  0.0000E+00  0.0000E+00
    -18.195  0.0000E+00  0.0000E+00  0.0000E+00
    -18.093  0.0000E+00  0.0000E+00  0.0000E+00
    -17.990  0.0000E+00  0.0000E+00  0.0000E+00
    -17.888  0.0000E+00  0.0000E+00  0.0000E+00
    -17.786  0.0000E+00  0.0000E+00  0.0000E+00
    -17.684  0.0000E+00  0.0000E+00  0.0000E+00
    -17.582  0.0000E+00  0.0000E+00  0.0000E+00
    -17.480  0.0000E+00  0.0000E+00  0.0000E+00
    -17.377  0.0000E+00  0.0000E+00  0.0000E+00
    -17.275  0.0000E+00  0.0000E+00  0.0000E+00
    -17.173  0.0000E+00  0.0000E+00  0.0000E+00
    -17.071  0.0000E+00  0.0000E+00  0.0000E+00
    -16.969  0.0000E+00  0.0000E+00  0.0000E+00
    -16.867  0.0000E+00  0.0000E+00  0.0000E+00
    -16.764  0.0000E+00  0.0000E+00  0.0000E+00
    -16.662  0.0000E+00  0.0000E+00  0.0000E+00
    -16.560  0.0000E+00  0.0000E+00  0.0000E+00
    -16.458  0.0000E+00  0.0000E+00  0.0000E+00
    -16.356  0.0000E+00  0.0000E+00  0.0000E+00
    -16.253  0.3061E-07  0.2661E-05  0.2859E-05
    -16.151  0.2319E-16  0.3363E-04  0.4455E-05
    -16.049  0.1372E-04  0.1059E-04  0.1017E-05
    -15.947  0.0000E+00  0.0000E+00  0.0000E+00
    -15.845  0.0000E+00  0.0000E+00  0.0000E+00
    -15.743  0.0000E+00  0.0000E+00  0.0000E+00
    -15.640  0.0000E+00  0.0000E+00  0.0000E+00
    -15.538  0.0000E+00  0.0000E+00  0.0000E+00
    -15.436  0.0000E+00  0.0000E+00  0.0000E+00
    -15.334  0.0000E+00  0.0000E+00  0.0000E+00
    -15.232  0.0000E+00  0.0000E+00  0.0000E+00
    -15.130  0.0000E+00  0.0000E+00  0.0000E+00
    -15.027  0.0000E+00  0.0000E+00  0.0000E+00
    -14.925  0.0000E+00  0.0000E+00  0.0000E+00
    -14.823  0.0000E+00  0.0000E+00  0.0000E+00
    -14.721  0.0000E+00  0.0000E+00  0.0000E+00
    -14.619  0.0000E+00  0.0000E+00  0.0000E+00
    -14.516  0.0000E+00  0.0000E+00  0.0000E+00
    -14.414  0.6243E-06  0.2327E-22  0.7087E-21
    -14.312  0.7571E-03  0.2767E-03  0.3278E-06
    -14.210  0.1202E-02  0.1103E-02  0.1548E-04
    -14.108  0.1068E-15  0.1442E-02  0.1581E-04
    -14.006  0.1207E-04  0.1042E-02  0.5616E-04
    -13.903  0.4005E-18  0.1168E-18  0.6327E-04
    -13.801  0.2223E-13  0.6151E-03  0.7958E-04
    -13.699  0.4454E-04  0.2183E-03  0.6745E-04
    -13.597  0.1981E-16  0.1186E-16  0.2387E-04
    -13.495  0.0000E+00  0.0000E+00  0.0000E+00
    -13.393  0.0000E+00  0.0000E+00  0.0000E+00
    -13.290  0.0000E+00  0.0000E+00  0.0000E+00
    -13.188  0.0000E+00  0.0000E+00  0.0000E+00
    -13.086  0.0000E+00  0.0000E+00  0.0000E+00
    -12.984  0.0000E+00  0.0000E+00  0.0000E+00
    -12.882  0.0000E+00  0.0000E+00  0.0000E+00
    -12.779  0.0000E+00  0.0000E+00  0.0000E+00
    -12.677  0.0000E+00  0.0000E+00  0.0000E+00
    -12.575  0.0000E+00  0.0000E+00  0.0000E+00
    -12.473  0.0000E+00  0.0000E+00  0.0000E+00
    -12.371  0.0000E+00  0.0000E+00  0.0000E+00
    -12.269  0.0000E+00  0.0000E+00  0.0000E+00
    -12.166  0.0000E+00  0.0000E+00  0.0000E+00
    -12.064  0.0000E+00  0.0000E+00  0.0000E+00
    -11.962  0.0000E+00  0.0000E+00  0.0000E+00
    -11.860  0.0000E+00  0.0000E+00  0.0000E+00
    -11.758  0.0000E+00  0.0000E+00  0.0000E+00
    -11.656  0.0000E+00  0.0000E+00  0.0000E+00
    -11.553  0.0000E+00  0.0000E+00  0.0000E+00
    -11.451  0.0000E+00  0.0000E+00  0.0000E+00
    -11.349  0.0000E+00  0.0000E+00  0.0000E+00
    -11.247  0.0000E+00  0.0000E+00  0.0000E+00
    -11.145  0.0000E+00  0.0000E+00  0.0000E+00
    -11.043  0.0000E+00  0.0000E+00  0.0000E+00
    -10.940  0.0000E+00  0.0000E+00  0.0000E+00
    -10.838  0.0000E+00  0.0000E+00  0.0000E+00
    -10.736  0.0000E+00  0.0000E+00  0.0000E+00
    -10.634  0.0000E+00  0.0000E+00  0.0000E+00
    -10.532  0.0000E+00  0.0000E+00  0.0000E+00
    -10.429  0.0000E+00  0.0000E+00  0.0000E+00
    -10.327  0.0000E+00  0.0000E+00  0.0000E+00
    -10.225  0.0000E+00  0.0000E+00  0.0000E+00
    -10.123  0.0000E+00  0.0000E+00  0.0000E+00
    -10.021  0.0000E+00  0.0000E+00  0.0000E+00
     -9.919  0.0000E+00  0.0000E+00  0.0000E+00
     -9.816  0.0000E+00  0.0000E+00  0.0000E+00
     -9.714  0.0000E+00  0.0000E+00  0.0000E+00
     -9.612  0.0000E+00  0.0000E+00  0.0000E+00
     -9.510  0.0000E+00  0.0000E+00  0.0000E+00
     -9.408  0.0000E+00  0.0000E+00  0.0000E+00
     -9.306  0.0000E+00  0.0000E+00  0.0000E+00
     -9.203  0.0000E+00  0.0000E+00  0.0000E+00
     -9.101  0.0000E+00  0.0000E+00  0.0000E+00
     -8.999  0.0000E+00  0.0000E+00  0.0000E+00
     -8.897  0.0000E+00  0.0000E+00  0.0000E+00
     -8.795  0.0000E+00  0.0000E+00  0.0000E+00
     -8.692  0.0000E+00  0.0000E+00  0.0000E+00
     -8.590  0.0000E+00  0.0000E+00  0.0000E+00
     -8.488  0.0000E+00  0.0000E+00  0.0000E+00
     -8.386  0.0000E+00  0.0000E+00  0.0000E+00
     -8.284  0.2438E-21  0.1625E-18  0.2092E-19
     -8.182  0.0000E+00  0.0000E+00  0.0000E+00
     -8.079  0.0000E+00  0.0000E+00  0.0000E+00
     -7.977  0.4871E-18  0.2489E-17  0.3476E-05
     -7.875  0.0000E+00  0.0000E+00  0.0000E+00
     -7.773  0.0000E+00  0.0000E+00  0.0000E+00
     -7.671  0.1331E-17  0.4216E-02  0.1472E-04
     -7.569  0.1129E-18  0.5945E-16  0.5223E-05
     -7.466  0.3029E-07  0.1901E+01  0.7121E-06
     -7.364  0.2460E-04  0.2687E+02  0.2235E-04
     -7.262  0.0000E+00  0.0000E+00  0.0000E+00
     -7.160  0.0000E+00  0.0000E+00  0.0000E+00
     -7.058  0.4302E-05  0.1147E-03  0.2893E-05
     -6.955  0.2142E-18  0.1569E-08  0.3450E-16
     -6.853  0.0000E+00  0.0000E+00  0.0000E+00
     -6.751  0.0000E+00  0.0000E+00  0.0000E+00
     -6.649  0.3104E-05  0.1220E-03  0.8512E-08
     -6.547  0.0000E+00  0.0000E+00  0.0000E+00
     -6.445  0.0000E+00  0.0000E+00  0.0000E+00
     -6.342  0.0000E+00  0.0000E+00  0.0000E+00
     -6.240  0.0000E+00  0.0000E+00  0.0000E+00
     -6.138  0.3423E-05  0.8618E-18  0.2416E-18
     -6.036  0.0000E+00  0.0000E+00  0.0000E+00
     -5.934  0.0000E+00  0.0000E+00  0.0000E+00
     -5.832  0.0000E+00  0.0000E+00  0.0000E+00
     -5.729  0.0000E+00  0.0000E+00  0.0000E+00
     -5.627  0.0000E+00  0.0000E+00  0.0000E+00
     -5.525  0.0000E+00  0.0000E+00  0.0000E+00
     -5.423  0.0000E+00  0.0000E+00  0.0000E+00
     -5.321  0.0000E+00  0.0000E+00  0.0000E+00
     -5.218  0.0000E+00  0.0000E+00  0.0000E+00
     -5.116  0.0000E+00  0.0000E+00  0.0000E+00
     -5.014  0.0000E+00  0.0000E+00  0.0000E+00
     -4.912  0.0000E+00  0.0000E+00  0.0000E+00
     -4.810  0.0000E+00  0.0000E+00  0.0000E+00
     -4.708  0.0000E+00  0.0000E+00  0.0000E+00
     -4.605  0.0000E+00  0.0000E+00  0.0000E+00
     -4.503  0.0000E+00  0.0000E+00  0.0000E+00
     -4.401  0.0000E+00  0.0000E+00  0.0000E+00
     -4.299  0.0000E+00  0.0000E+00  0.0000E+00
     -4.197  0.0000E+00  0.0000E+00  0.0000E+00
     -4.095  0.0000E+00  0.0000E+00  0.0000E+00
     -3.992  0.0000E+00  0.0000E+00  0.0000E+00
     -3.890  0.0000E+00  0.0000E+00  0.0000E+00
     -3.788  0.0000E+00  0.0000E+00  0.0000E+00
     -3.686  0.0000E+00  0.0000E+00  0.0000E+00
     -3.584  0.0000E+00  0.0000E+00  0.0000E+00
     -3.481  0.6607E-31  0.9950E-14  0.2051E-27
     -3.379  0.2887E-17  0.1626E-01  0.5094E-03
     -3.277  0.6563E-17  0.6965E-02  0.1434E-02
     -3.175  0.7862E-19  0.2051E-17  0.1241E-16
     -3.073  0.0000E+00  0.0000E+00  0.0000E+00
     -2.971  0.0000E+00  0.0000E+00  0.0000E+00
     -2.868  0.0000E+00  0.0000E+00  0.0000E+00
     -2.766  0.0000E+00  0.0000E+00  0.0000E+00
     -2.664  0.3839E-21  0.2869E-04  0.2886E-08
     -2.562  0.4809E-16  0.1608E-01  0.4468E-03
     -2.460  0.1450E-03  0.1185E-02  0.9640E-03
     -2.358  0.8541E-17  0.7537E-02  0.1378E-02
     -2.255  0.4416E-02  0.3495E-02  0.1361E-02
     -2.153  0.4009E-02  0.1725E-01  0.2667E-02
     -2.051  0.1224E-02  0.9511E-02  0.3741E-03
     -1.949  0.2039E-01  0.3593E-01  0.3203E-02
     -1.847  0.3172E-02  0.6911E-02  0.1602E-03
     -1.744  0.2577E-19  0.5850E-01  0.2556E-02
     -1.642  0.1191E-17  0.3713E-02  0.3941E-03
     -1.540  0.1555E-02  0.5959E-01  0.9467E-02
     -1.438  0.4315E-18  0.2700E-04  0.4147E-02
     -1.336  0.2338E-16  0.1341E-01  0.1027E-01
     -1.234  0.3883E-15  0.4430E-01  0.9278E-02
     -1.131  0.7789E-16  0.2105E-01  0.2294E-02
     -1.029  0.2582E-02  0.1005E-01  0.5023E-02
     -0.927  0.5299E-02  0.1689E-01  0.4670E-02
     -0.825  0.0000E+00  0.0000E+00  0.0000E+00
     -0.723  0.8246E-16  0.4008E-15  0.1377E-02
     -0.621  0.0000E+00  0.0000E+00  0.0000E+00
     -0.518  0.0000E+00  0.0000E+00  0.0000E+00
     -0.416  0.6847E-16  0.4481E-03  0.4774E-14
     -0.314  0.9122E-26  0.2756E-13  0.1468E-14
     -0.212  0.9346E-15  0.2824E-02  0.1504E-03
     -0.110  0.1237E-16  0.1553E-02  0.1470E-03
     -0.007  0.0000E+00  0.0000E+00  0.0000E+00
      0.095  0.0000E+00  0.0000E+00  0.0000E+00
      0.197  0.0000E+00  0.0000E+00  0.0000E+00
      0.299  0.1657E-16  0.1740E-17  0.1857E-04
      0.401  0.0000E+00  0.0000E+00  0.0000E+00
      0.503  0.3804E-16  0.1531E-15  0.2863E-03
      0.606  0.0000E+00  0.0000E+00  0.0000E+00
      0.708  0.0000E+00  0.0000E+00  0.0000E+00
      0.810  0.0000E+00  0.0000E+00  0.0000E+00
      0.912  0.0000E+00  0.0000E+00  0.0000E+00
      1.014  0.3548E-19  0.8538E-21  0.2901E-17
      1.116  0.0000E+00  0.0000E+00  0.0000E+00
      1.219  0.0000E+00  0.0000E+00  0.0000E+00
      1.321  0.0000E+00  0.0000E+00  0.0000E+00
      1.423  0.0000E+00  0.0000E+00  0.0000E+00
      1.525  0.0000E+00  0.0000E+00  0.0000E+00
      1.627  0.0000E+00  0.0000E+00  0.0000E+00
      1.730  0.0000E+00  0.0000E+00  0.0000E+00
      1.832  0.0000E+00  0.0000E+00  0.0000E+00
      1.934  0.0000E+00  0.0000E+00  0.0000E+00
      2.036  0.0000E+00  0.0000E+00  0.0000E+00
      2.138  0.0000E+00  0.0000E+00  0.0000E+00
      2.240  0.0000E+00  0.0000E+00  0.0000E+00
      2.343  0.0000E+00  0.0000E+00  0.0000E+00
      2.445  0.0000E+00  0.0000E+00  0.0000E+00
      2.547  0.0000E+00  0.0000E+00  0.0000E+00
      2.649  0.0000E+00  0.0000E+00  0.0000E+00
      2.751  0.0000E+00  0.0000E+00  0.0000E+00
      2.853  0.2237E-14  0.5172E-15  0.2527E-02
      2.956  0.0000E+00  0.0000E+00  0.0000E+00
      3.058  0.7638E-28  0.2908E-16  0.3786E-15
      3.160  0.9392E-15  0.3576E-03  0.4655E-02
      3.262  0.0000E+00  0.0000E+00  0.0000E+00
      3.364  0.2442E-04  0.2263E-03  0.1690E-02
      3.467  0.0000E+00  0.0000E+00  0.0000E+00
      3.569  0.5238E-11  0.3073E-11  0.1967E-11
      3.671  0.1768E-03  0.1037E-03  0.6638E-04
      3.773  0.0000E+00  0.0000E+00  0.0000E+00
      3.875  0.1633E-03  0.3702E-16  0.3122E-04
      3.977  0.0000E+00  0.0000E+00  0.0000E+00
      4.080  0.0000E+00  0.0000E+00  0.0000E+00
      4.182  0.0000E+00  0.0000E+00  0.0000E+00
      4.284  0.0000E+00  0.0000E+00  0.0000E+00
      4.386  0.0000E+00  0.0000E+00  0.0000E+00
      4.488  0.1245E-14  0.2389E-28  0.1901E-25
      4.590  0.1469E-01  0.2818E-15  0.2856E-12
      4.693  0.4236E-14  0.4079E-12  0.1910E-01
      4.795  0.8324E-16  0.3290E-13  0.4260E-03
      4.897  0.1314E-14  0.1274E-02  0.4163E-02
      4.999  0.9244E-16  0.1454E-04  0.6724E-03
      5.101  0.2998E-01  0.1535E-01  0.1647E-01
      5.203  0.4536E-11  0.5288E-02  0.9016E-04
      5.306  0.3384E-01  0.2183E-01  0.6332E-02
      5.408  0.0000E+00  0.0000E+00  0.0000E+00
      5.510  0.5625E-16  0.1312E-17  0.2340E-04
      5.612  0.7390E-04  0.2091E-04  0.7295E-01
      5.714  0.2485E-08  0.5874E-09  0.1230E-08
      5.817  0.1119E+00  0.2646E-01  0.5540E-01
      5.919  0.7285E-05  0.8904E-03  0.1187E-01
      6.021  0.3383E-01  0.1369E-03  0.2942E+00
      6.123  0.6697E-02  0.6148E-15  0.1661E-11
      6.225  0.1418E-09  0.1232E-11  0.3344E-08
      6.327  0.5070E-02  0.1100E-02  0.5057E+00
      6.430  0.1430E+00  0.3839E-01  0.8059E+00
      6.532  0.1360E+00  0.2605E-01  0.2550E+00
      6.634  0.1184E+00  0.1762E-01  0.7872E+00
      6.736  0.1458E-04  0.6333E-01  0.4099E+00
      6.838  0.8966E-08  0.3677E-07  0.3911E-01
      6.940  0.0000E+00  0.0000E+00  0.0000E+00
      7.043  0.0000E+00  0.0000E+00  0.0000E+00
      7.145  0.0000E+00  0.0000E+00  0.0000E+00
      7.247  0.0000E+00  0.0000E+00  0.0000E+00
      7.349  0.0000E+00  0.0000E+00  0.0000E+00
      7.451  0.0000E+00  0.0000E+00  0.0000E+00
      7.554  0.0000E+00  0.0000E+00  0.0000E+00
      7.656  0.0000E+00  0.0000E+00  0.0000E+00
      7.758  0.0000E+00  0.0000E+00  0.0000E+00
      7.860  0.0000E+00  0.0000E+00  0.0000E+00
      7.962  0.0000E+00  0.0000E+00  0.0000E+00
      8.064  0.0000E+00  0.0000E+00  0.0000E+00
      8.167  0.0000E+00  0.0000E+00  0.0000E+00
      8.16660263    -22.48622434  301      1.14199645      1.00000000
    -22.486  0.0000E+00  0.0000E+00  0.0000E+00
    -22.384  0.0000E+00  0.0000E+00  0.0000E+00
    -22.282  0.0000E+00  0.0000E+00  0.0000E+00
    -22.180  0.0000E+00  0.0000E+00  0.0000E+00
    -22.078  0.0000E+00  0.0000E+00  0.0000E+00
    -21.975  0.0000E+00  0.0000E+00  0.0000E+00
    -21.873  0.0000E+00  0.0000E+00  0.0000E+00
    -21.771  0.0000E+00  0.0000E+00  0.0000E+00
    -21.669  0.0000E+00  0.0000E+00  0.0000E+00
    -21.567  0.0000E+00  0.0000E+00  0.0000E+00
    -21.464  0.0000E+00  0.0000E+00  0.0000E+00
    -21.362  0.0000E+00  0.0000E+00  0.0000E+00
    -21.260  0.0000E+00  0.0000E+00  0.0000E+00
    -21.158  0.0000E+00  0.0000E+00  0.0000E+00
    -21.056  0.1737E+02  0.7286E-07  0.6331E-08
    -20.954  0.0000E+00  0.0000E+00  0.0000E+00
    -20.851  0.0000E+00  0.0000E+00  0.0000E+00
    -20.749  0.0000E+00  0.0000E+00  0.0000E+00
    -20.647  0.0000E+00  0.0000E+00  0.0000E+00
    -20.545  0.0000E+00  0.0000E+00  0.0000E+00
    -20.443  0.0000E+00  0.0000E+00  0.0000E+00
    -20.341  0.0000E+00  0.0000E+00  0.0000E+00
    -20.238  0.0000E+00  0.0000E+00  0.0000E+00
    -20.136  0.0000E+00  0.0000E+00  0.0000E+00
    -20.034  0.0000E+00  0.0000E+00  0.0000E+00
    -19.932  0.0000E+00  0.0000E+00  0.0000E+00
    -19.830  0.0000E+00  0.0000E+00  0.0000E+00
    -19.727  0.0000E+00  0.0000E+00  0.0000E+00
    -19.625  0.0000E+00  0.0000E+00  0.0000E+00
    -19.523  0.0000E+00  0.0000E+00  0.0000E+00
    -19.421  0.0000E+00  0.0000E+00  0.0000E+00
    -19.319  0.0000E+00  0.0000E+00  0.0000E+00
    -19.217  0.0000E+00  0.0000E+00  0.0000E+00
    -19.114  0.0000E+00  0.0000E+00  0.0000E+00
    -19.012  0.0000E+00  0.0000E+00  0.0000E+00
    -18.910  0.0000E+00  0.0000E+00  0.0000E+00
    -18.808  0.0000E+00  0.0000E+00  0.0000E+00
    -18.706  0.0000E+00  0.0000E+00  0.0000E+00
    -18.604  0.0000E+00  0.0000E+00  0.0000E+00
    -18.501  0.0000E+00  0.0000E+00  0.0000E+00
    -18.399  0.0000E+00  0.0000E+00  0.0000E+00
    -18.297  0.0000E+00  0.0000E+00  0.0000E+00
    -18.195  0.0000E+00  0.0000E+00  0.0000E+00
    -18.093  0.0000E+00  0.0000E+00  0.0000E+00
    -17.990  0.0000E+00  0.0000E+00  0.0000E+00
    -17.888  0.0000E+00  0.0000E+00  0.0000E+00
    -17.786  0.0000E+00  0.0000E+00  0.0000E+00
    -17.684  0.0000E+00  0.0000E+00  0.0000E+00
    -17.582  0.0000E+00  0.0000E+00  0.0000E+00
    -17.480  0.0000E+00  0.0000E+00  0.0000E+00
    -17.377  0.0000E+00  0.0000E+00  0.0000E+00
    -17.275  0.0000E+00  0.0000E+00  0.0000E+00
    -17.173  0.0000E+00  0.0000E+00  0.0000E+00
    -17.071  0.0000E+00  0.0000E+00  0.0000E+00
    -16.969  0.0000E+00  0.0000E+00  0.0000E+00
    -16.867  0.0000E+00  0.0000E+00  0.0000E+00
    -16.764  0.0000E+00  0.0000E+00  0.0000E+00
    -16.662  0.0000E+00  0.0000E+00  0.0000E+00
    -16.560  0.0000E+00  0.0000E+00  0.0000E+00
    -16.458  0.0000E+00  0.0000E+00  0.0000E+00
    -16.356  0.0000E+00  0.0000E+00  0.0000E+00
    -16.253  0.3061E-07  0.2661E-05  0.2859E-05
    -16.151  0.2661E-16  0.3363E-04  0.4455E-05
    -16.049  0.1372E-04  0.1059E-04  0.1017E-05
    -15.947  0.0000E+00  0.0000E+00  0.0000E+00
    -15.845  0.0000E+00  0.0000E+00  0.0000E+00
    -15.743  0.0000E+00  0.0000E+00  0.0000E+00
    -15.640  0.0000E+00  0.0000E+00  0.0000E+00
    -15.538  0.0000E+00  0.0000E+00  0.0000E+00
    -15.436  0.0000E+00  0.0000E+00  0.0000E+00
    -15.334  0.0000E+00  0.0000E+00  0.0000E+00
    -15.232  0.0000E+00  0.0000E+00  0.0000E+00
    -15.130  0.0000E+00  0.0000E+00  0.0000E+00
    -15.027  0.0000E+00  0.0000E+00  0.0000E+00
    -14.925  0.0000E+00  0.0000E+00  0.0000E+00
    -14.823  0.0000E+00  0.0000E+00  0.0000E+00
    -14.721  0.0000E+00  0.0000E+00  0.0000E+00
    -14.619  0.0000E+00  0.0000E+00  0.0000E+00
    -14.516  0.0000E+00  0.0000E+00  0.0000E+00
    -14.414  0.6243E-06  0.3171E-22  0.6529E-21
    -14.312  0.7571E-03  0.2767E-03  0.3278E-06
    -14.210  0.1202E-02  0.1103E-02  0.1548E-04
    -14.108  0.1065E-15  0.1442E-02  0.1581E-04
    -14.006  0.1207E-04  0.1042E-02  0.5616E-04
    -13.903  0.5328E-18  0.1314E-18  0.6327E-04
    -13.801  0.2223E-13  0.6151E-03  0.7958E-04
    -13.699  0.4454E-04  0.2183E-03  0.6745E-04
    -13.597  0.2035E-16  0.1202E-16  0.2387E-04
    -13.495  0.0000E+00  0.0000E+00  0.0000E+00
    -13.393  0.0000E+00  0.0000E+00  0.0000E+00