PROCAR new format
# of k-points:    4         # of bands:  216         # of ions:   40

 k-point     1 :    0.00000000 0.00000000 0.00000000     weight = 0.12500000

band     1 # energy  -21.09291402 # occ.  2.00000000

ion      s      p      d    tot
    1  0.111  0.000  0.000  0.111
    2  0.111  0.000  0.000  0.111
    3  0.111  0.000  0.000  0.111
    4  0.111  0.000  0.000  0.111
    5  0.111  0.000  0.000  0.111
    6  0.111  0.000  0.000  0.111
    7  0.111  0.000  0.000  0.111
    8  0.111  0.000  0.000  0.111
    9  0.000  0.000  0.000  0.000
   10  0.000  0.000  0.000  0.000
   11  0.000  0.000  0.000  0.000
   12  0.000  0.000  0.000  0.000
   13  0.000  0.000  0.000  0.000
   14  0.000  0.000  0.000  0.000
   15  0.000  0.000  0.000  0.000
   16  0.000  0.000  0.000  0.000
   17  0.000  0.000  0.000  0.000
   18  0.000  0.000  0.000  0.000
   19  0.000  0.000  0.000  0.000
   20  0.000  0.000  0.000  0.000
   21  0.000  0.000  0.000  0.000
   22  0.000  0.000  0.000  0.000
   23  0.000  0.000  0.000  0.000
   24  0.000  0.000  0.000  0.000
   25  0.000  0.000  0.000  0.000
   26  0.000  0.000  0.000  0.000
   27  0.000  0.000  0.000  0.000
   28  0.000  0.000  0.000  0.000
   29  0.000  0.000  0.000  0.000
   30  0.000  0.000  0.000  0.000
   31  0.000  0.000  0.000  0.000
   32  0.000  0.000  0.000  0.000
   33  0.000  0.000  0.000  0.000
   34  0.000  0.000  0.000  0.000
   35  0.000  0.000  0.000  0.000
   36  0.000  0.000  0.000  0.000
   37  0.000  0.000  0.000  0.000
   38  0.000  0.000  0.000  0.000
   39  0.000  0.000  0.000  0.000
   40  0.000  0.000  0.000  0.000
tot    0.887  0.000  0.000  0.887

band     2 # energy  -21.09187216 # occ.  2.00000000

ion      s      p      d    tot
    1  0.151  0.000  0.000  0.151
    2  0.073  0.000  0.000  0.073
    3  0.072  0.000  0.000  0.072
    4  0.148  0.000  0.000  0.148
    5  0.148  0.000  0.000  0.148
    6  0.072  0.000  0.000  0.072
    7  0.073  0.000  0.000  0.073
    8  0.151  0.000  0.000  0.151
    9  0.000  0.000  0.000  0.000
   10  0.000  0.000  0.000  0.000
   11  0.000  0.000  0.000  0.000
   12  0.000  0.000  0.000  0.000
   13  0.000  0.000  0.000  0.000
   14  0.000  0.000  0.000  0.000
   15  0.000  0.000  0.000  0.000
   16  0.000  0.000  0.000  0.000
   17  0.000  0.000  0.000  0.000
   18  0.000  0.000  0.000  0.000
   19  0.000  0.000  0.000  0.000
   20  0.000  0.000  0.000  0.000
   21  0.000  0.000  0.000  0.000
   22  0.000  0.000  0.000  0.000
   23  0.000  0.000  0.000  0.000
   24  0.000  0.000  0.000  0.000
   25  0.000  0.000  0.000  0.000
   26  0.000  0.000  0.000  0.000
   27  0.000  0.000  0.000  0.000
   28  0.000  0.000  0.000  0.000
   29  0.000  0.000  0.000  0.000
   30  0.000  0.000  0.000  0.000
   31  0.000  0.000  0.000  0.000
   32  0.000  0.000  0.000  0.000
   33  0.000  0.000  0.000  0.000
   34  0.000  0.000  0.000  0.000
   35  0.000  0.000  0.000  0.000
   36  0.000  0.000  0.000  0.000
   37  0.000  0.000  0.000  0.000
   38  0.000  0.000  0.000  0.000
   39  0.000  0.000  0.000  0.000
   40  0.000  0.000  0.000  0.000
tot    0.887  0.000  0.000  0.887

band     3 # energy  -21.09187216 # occ.  2.00000000

ion      s      p      d    tot
    1  0.113  0.000  0.000  0.113
    2  0.130  0.000  0.000  0.130
    3  0.091  0.000  0.000  0.091
    4  0.108  0.000  0.000  0.108
    5  0.108  0.000  0.000  0.108
    6  0.091  0.000  0.000  0.091
    7  0.130  0.000  0.000  0.130
    8  0.113  0.000  0.000  0.113
    9  0.000  0.000  0.000  0.000
   10  0.000  0.000  0.000  0.000
   11  0.000  0.000  0.000  0.000
   12  0.000  0.000  0.000  0.000
   13  0.000  0.000  0.000  0.000
   14  0.000  0.000  0.000  0.000
   15  0.000  0.000  0.000  0.000
   16  0.000  0.000  0.000  0.000
   17  0.000  0.000  0.000  0.000
   18  0.000  0.000  0.000  0.000
   19  0.000  0.000  0.000  0.000
   20  0.000  0.000  0.000  0.000
   21  0.000  0.000  0.000  0.000
   22  0.000  0.000  0.000  0.000
   23  0.000  0.000  0.000  0.000
   24  0.000  0.000  0.000  0.000
   25  0.000  0.000  0.000  0.000
   26  0.000  0.000  0.000  0.000
   27  0.000  0.000  0.000  0.000
   28  0.000  0.000  0.000  0.000
   29  0.000  0.000  0.000  0.000
   30  0.000  0.000  0.000  0.000
   31  0.000  0.000  0.000  0.000
   32  0.000  0.000  0.000  0.000
   33  0.000  0.000  0.000  0.000
   34  0.000  0.000  0.000  0.000
   35  0.000  0.000  0.000  0.000
   36  0.000  0.000  0.000  0.000
   37  0.000  0.000  0.000  0.000
   38  0.000  0.000  0.000  0.000
   39  0.000  0.000  0.000  0.000
   40  0.000  0.000  0.000  0.000
tot    0.887  0.000  0.000  0.887

band     4 # energy  -21.09187216 # occ.  2.00000000

ion      s      p      d    tot
    1  0.068  0.000  0.000  0.068
    2  0.129  0.000  0.000  0.129
    3  0.170  0.000  0.000  0.170
    4  0.077  0.000  0.000  0.077
    5  0.077  0.000  0.000  0.077
    6  0.170  0.000  0.000  0.170
    7  0.129  0.000  0.000  0.129
    8  0.068  0.000  0.000  0.068
    9  0.000  0.000  0.000  0.000
   10  0.000  0.000  0.000  0.000
   11  0.000  0.000  0.000  0.000
   12  0.000  0.000  0.000  0.000
   13  0.000  0.000  0.000  0.000
   14  0.000  0.000  0.000  0.000
   15  0.000  0.000  0.000  0.000
   16  0.000  0.000  0.000  0.000
   17  0.000  0.000  0.000  0.000
   18  0.000  0.000  0.000  0.000
   19  0.000  0.000  0.000  0.000
   20  0.000  0.000  0.000  0.000
   21  0.000  0.000  0.000  0.000
   22  0.000  0.000  0.000  0.000
   23  0.000  0.000  0.000  0.000
   24  0.000  0.000  0.000  0.000
   25  0.000  0.000  0.000  0.000
   26  0.000  0.000  0.000  0.000
   27  0.000  0.000  0.000  0.000
   28  0.000  0.000  0.000  0.000
   29  0.000  0.000  0.000  0.000
   30  0.000  0.000  0.000  0.000
   31  0.000  0.000  0.000  0.000
   32  0.000  0.000  0.000  0.000
   33  0.000  0.000  0.000  0.000
   34  0.000  0.000  0.000  0.000
   35  0.000  0.000  0.000  0.000
   36  0.000  0.000  0.000  0.000
   37  0.000  0.000  0.000  0.000
   38  0.000  0.000  0.000  0.000
   39  0.000  0.000  0.000  0.000
   40  0.000  0.000  0.000  0.000
tot    0.887  0.000  0.000  0.887

band     5 # energy  -21.09097864 # occ.  2.00000000

ion      s      p      d    tot
    1  0.131  0.000  0.000  0.131
    2  0.092  0.000  0.000  0.092
    3  0.112  0.000  0.000  0.112
    4  0.109  0.000  0.000  0.109
    5  0.109  0.000  0.000  0.109
    6  0.112  0.000  0.000  0.112
    7  0.092  0.000  0.000  0.092
    8  0.131  0.000  0.000  0.131
    9  0.000  0.000  0.000  0.000
   10  0.000  0.000  0.000  0.000
   11  0.000  0.000  0.000  0.000
   12  0.000  0.000  0.000  0.000
   13  0.000  0.000  0.000  0.000
   14  0.000  0.000  0.000  0.000
   15  0.000  0.000  0.000  0.000
   16  0.000  0.000  0.000  0.000
   17  0.000  0.000  0.000  0.000
   18  0.000  0.000  0.000  0.000
   19  0.000  0.000  0.000  0.000
   20  0.000  0.000  0.000  0.000
   21  0.000  0.000  0.000  0.000
   22  0.000  0.000  0.000  0.000
   23  0.000  0.000  0.000  0.000
   24  0.000  0.000  0.000  0.000
   25  0.000  0.000  0.000  0.000
   26  0.000  0.000  0.000  0.000
   27  0.000  0.000  0.000  0.000
   28  0.000  0.000  0.000  0.000
   29  0.000  0.000  0.000  0.000
   30  0.000  0.000  0.000  0.000
   31  0.000  0.000  0.000  0.000
   32  0.000  0.000  0.000  0.000
   33  0.000  0.000  0.000  0.000
   34  0.000  0.000  0.000  0.000
   35  0.000  0.000  0.000  0.000
   36  0.000  0.000  0.000  0.000
   37  0.000  0.000  0.000  0.000
   38  0.000  0.000  0.000  0.000
   39  0.000  0.000  0.000  0.000
   40  0.000  0.000  0.000  0.000
tot    0.888  0.000  0.000  0.888

band     6 # energy  -21.09097864 # occ.  2.00000000

ion      s      p      d    tot
    1  0.158  0.000  0.000  0.158
    2  0.191  0.000  0.000  0.191
    3  0.048  0.000  0.000  0.048
    4  0.047  0.000  0.000  0.047
    5  0.047  0.000  0.000  0.047
    6  0.048  0.000  0.000  0.048
    7  0.191  0.000  0.000  0.191
    8  0.158  0.000  0.000  0.158
    9  0.000  0.000  0.000  0.000
   10  0.000  0.000  0.000  0.000
   11  0.000  0.000  0.000  0.000
   12  0.000  0.000  0.000  0.000
   13  0.000  0.000  0.000  0.000
   14  0.000  0.000  0.000  0.000
   15  0.000  0.000  0.000  0.000
   16  0.000  0.000  0.000  0.000
   17  0.000  0.000  0.000  0.000
   18  0.000  0.000  0.000  0.000
   19  0.000  0.000  0.000  0.000
   20  0.000  0.000  0.000  0.000
   21  0.000  0.000  0.000  0.000
   22  0.000  0.000  0.000  0.000
   23  0.000  0.000  0.000  0.000
   24  0.000  0.000  0.000  0.000
   25  0.000  0.000  0.000  0.000
   26  0.000  0.000  0.000  0.000
   27  0.000  0.000  0.000  0.000
   28  0.000  0.000  0.000  0.000
   29  0.000  0.000  0.000  0.000
   30  0.000  0.000  0.000  0.000
   31  0.000  0.000  0.000  0.000
   32  0.000  0.000  0.000  0.000
   33  0.000  0.000  0.000  0.000
   34  0.000  0.000  0.000  0.000
   35  0.000  0.000  0.000  0.000
   36  0.000  0.000  0.000  0.000
   37  0.000  0.000  0.000  0.000
   38  0.000  0.000  0.000  0.000
   39  0.000  0.000  0.000  0.000
   40  0.000  0.000  0.000  0.000
tot    0.888  0.000  0.000  0.888

band     7 # energy  -21.09097864 # occ.  2.00000000

ion      s      p      d    tot
    1  0.045  0.000  0.000  0.045
    2  0.050  0.000  0.000  0.050
    3  0.172  0.000  0.000  0.172
    4  0.178  0.000  0.000  0.178
    5  0.178  0.000  0.000  0.178
    6  0.172  0.000  0.000  0.172
    7  0.050  0.000  0.000  0.050
    8  0.045  0.000  0.000  0.045
    9  0.000  0.000  0.000  0.000
   10  0.000  0.000  0.000  0.000
   11  0.000  0.000  0.000  0.000
   12  0.000  0.000  0.000  0.000
   13  0.000  0.000  0.000  0.000
   14  0.000  0.000  0.000  0.000
   15  0.000  0.000  0.000  0.000
   16  0.000  0.000  0.000  0.000
   17  0.000  0.000  0.000  0.000
   18  0.000  0.000  0.000  0.000
   19  0.000  0.000  0.000  0.000
   20  0.000  0.000  0.000  0.000
   21  0.000  0.000  0.000  0.000
   22  0.000  0.000  0.000  0.000
   23  0.000  0.000  0.000  0.000
   24  0.000  0.000  0.000  0.000
   25  0.000  0.000  0.000  0.000
   26  0.000  0.000  0.000  0.000
   27  0.000  0.000  0.000  0.000
   28  0.000  0.000  0.000  0.000
   29  0.000  0.000  0.000  0.000
   30  0.000  0.000  0.000  0.000
   31  0.000  0.000  0.000  0.000
   32  0.000  0.000  0.000  0.000
   33  0.000  0.000  0.000  0.000
   34  0.000  0.000  0.000  0.000
   35  0.000  0.000  0.000  0.000
   36  0.000  0.000  0.000  0.000
   37  0.000  0.000  0.000  0.000
   38  0.000  0.000  0.000  0.000
   39  0.000  0.000  0.000  0.000
   40  0.000  0.000  0.000  0.000
tot    0.888  0.000  0.000  0.888

band     8 # energy  -21.08971849 # occ.  2.00000000

ion      s      p      d    tot
    1  0.111  0.000  0.000  0.111
    2  0.111  0.000  0.000  0.111
    3  0.111  0.000  0.000  0.111
    4  0.111  0.000  0.000  0.111
    5  0.111  0.000  0.000  0.111
    6  0.111  0.000  0.000  0.111
    7  0.111  0.000  0.000  0.111
    8  0.111  0.000  0.000  0.111
    9  0.000  0.000  0.000  0.000
   10  0.000  0.000  0.000  0.000
   11  0.000  0.000  0.000  0.000
   12  0.000  0.000  0.000  0.000
   13  0.000  0.000  0.000  0.000
   14  0.000  0.000  0.000  0.000
   15  0.000  0.000  0.000  0.000
   16  0.000  0.000  0.000  0.000
   17  0.000  0.000  0.000  0.000
   18  0.000  0.000  0.000  0.000
   19  0.000  0.000  0.000  0.000
   20  0.000  0.000  0.000  0.000
   21  0.000  0.000  0.000  0.000
   22  0.000  0.000  0.000  0.000
   23  0.000  0.000  0.000  0.000
   24  0.000  0.000  0.000  0.000
   25  0.000  0.000  0.000  0.000
   26  0.000  0.000  0.000  0.000
   27  0.000  0.000  0.000  0.000
   28  0.000  0.000  0.000  0.000
   29  0.000  0.000  0.000  0.000
   30  0.000  0.000  0.000  0.000
   31  0.000  0.000  0.000  0.000
   32  0.000  0.000  0.000  0.000
   33  0.000  0.000  0.000  0.000
   34  0.000  0.000  0.000  0.000
   35  0.000  0.000  0.000  0.000
   36  0.000  0.000  0.000  0.000
   37  0.000  0.000  0.000  0.000
   38  0.000  0.000  0.000  0.000
   39  0.000  0.000  0.000  0.000
   40  0.000  0.000  0.000  0.000
tot    0.888  0.000  0.000  0.888

band     9 # energy  -16.27830805 # occ.  2.00000000

ion      s      p      d    tot
    1  0.000  0.000  0.000  0.000
    2  0.000  0.000  0.000  0.000
    3  0.000  0.000  0.000  0.000
    4  0.000  0.000  0.000  0.000
    5  0.000  0.000  0.000  0.000
    6  0.000  0.000  0.000  0.000
    7  0.000  0.000  0.000  0.000
    8  0.000  0.000  0.000  0.000
    9  0.000  0.000  0.113  0.113
   10  0.000  0.000  0.113  0.113
   11  0.000  0.000  0.113  0.113
   12  0.000  0.000  0.113  0.113
   13  0.000  0.000  0.113  0.113
   14  0.000  0.000  0.113  0.113
   15  0.000  0.000  0.113  0.113
   16  0.000  0.000  0.113  0.113
   17  0.001  0.000  0.000  0.001
   18  0.001  0.000  0.000  0.001
   19  0.001  0.000  0.000  0.001
   20  0.001  0.000  0.000  0.001
   21  0.001  0.000  0.000  0.001
   22  0.001  0.000  0.000  0.001
   23  0.001  0.000  0.000  0.001
   24  0.001  0.000  0.000  0.001
   25  0.005  0.000  0.000  0.005
   26  0.005  0.000  0.000  0.005
   27  0.005  0.000  0.000  0.005
   28  0.005  0.000  0.000  0.005
   29  0.005  0.000  0.000  0.005
   30  0.005  0.000  0.000  0.005
   31  0.005  0.000  0.000  0.005
   32  0.005  0.000  0.000  0.005
   33  0.001  0.000  0.000  0.001
   34  0.001  0.000  0.000  0.001
   35  0.001  0.000  0.000  0.001
   36  0.001  0.000  0.000  0.001
   37  0.001  0.000  0.000  0.001
   38  0.001  0.000  0.000  0.001
   39  0.001  0.000  0.000  0.001
   40  0.001  0.000  0.000  0.001
tot    0.054  0.000  0.901  0.955

band    10 # energy  -16.27830791 # occ.  2.00000000

ion      s      p      d    tot
    1  0.000  0.000  0.000  0.000
    2  0.000  0.000  0.000  0.000
    3  0.000  0.000  0.000  0.000
    4  0.000  0.000  0.000  0.000
    5  0.000  0.000  0.000  0.000
    6  0.000  0.000  0.000  0.000
    7  0.000  0.000  0.000  0.000
    8  0.000  0.000  0.000  0.000
    9  0.000  0.000  0.113  0.113
   10  0.000  0.000  0.113  0.113
   11  0.000  0.000  0.113  0.113
   12  0.000  0.000  0.113  0.113
   13  0.000  0.000  0.113  0.113
   14  0.000  0.000  0.113  0.113
   15  0.000  0.000  0.113  0.113
   16  0.000  0.000  0.113  0.113
   17  0.003  0.000  0.000  0.003
   18  0.003  0.000  0.000  0.003
   19  0.003  0.000  0.000  0.003
   20  0.003  0.000  0.000  0.003
   21  0.003  0.000  0.000  0.003
   22  0.003  0.000  0.000  0.003
   23  0.003  0.000  0.000  0.003
   24  0.003  0.000  0.000  0.003
   25  0.000  0.000  0.000  0.000
   26  0.000  0.000  0.000  0.000
   27  0.000  0.000  0.000  0.000
   28  0.000  0.000  0.000  0.000
   29  0.000  0.000  0.000  0.000
   30  0.000  0.000  0.000  0.000
   31  0.000  0.000  0.000  0.000
   32  0.000  0.000  0.000  0.000
   33  0.003  0.000  0.000  0.003
   34  0.003  0.000  0.000  0.003
   35  0.003  0.000  0.000  0.003
   36  0.003  0.000  0.000  0.003
   37  0.003  0.000  0.000  0.003
   38  0.003  0.000  0.000  0.003
   39  0.003  0.000  0.000  0.003
   40  0.003  0.000  0.000  0.003
tot    0.054  0.000  0.901  0.955

band    11 # energy  -16.27828257 # occ.  2.00000000

ion      s      p      d    tot
    1  0.000  0.000  0.000  0.000
    2  0.000  0.000  0.000  0.000
    3  0.000  0.000  0.000  0.000
    4  0.000  0.000  0.000  0.000
    5  0.000  0.000  0.000  0.000
    6  0.000  0.000  0.000  0.000
    7  0.000  0.000  0.000  0.000
    8  0.000  0.000  0.000  0.000
    9  0.000  0.000  0.146  0.146
   10  0.000  0.000  0.146  0.146
   11  0.000  0.000  0.079  0.079
   12  0.000  0.000  0.079  0.079
   13  0.000  0.000  0.079  0.079
   14  0.000  0.000  0.079  0.079
   15  0.000  0.000  0.146  0.146
   16  0.000  0.000  0.146  0.146
   17  0.001  0.000  0.000  0.001
   18  0.001  0.000  0.000  0.001
   19  0.001  0.000  0.000  0.001
   20  0.001  0.000  0.000  0.001
   21  0.001  0.000  0.000  0.001
   22  0.001  0.000  0.000  0.001
   23  0.001  0.000  0.000  0.001
   24  0.001  0.000  0.000  0.001
   25  0.005  0.000  0.000  0.005
   26  0.005  0.000  0.000  0.005
   27  0.001  0.000  0.000  0.001
   28  0.001  0.000  0.000  0.001
   29  0.001  0.000  0.000  0.001
   30  0.001  0.000  0.000  0.001
   31  0.005  0.000  0.000  0.005
   32  0.005  0.000  0.000  0.005
   33  0.002  0.000  0.000  0.002
   34  0.002  0.000  0.000  0.002
   35  0.002  0.000  0.000  0.002
   36  0.002  0.000  0.000  0.002
   37  0.002  0.000  0.000  0.002
   38  0.002  0.000  0.000  0.002
   39  0.002  0.000  0.000  0.002
   40  0.002  0.000  0.000  0.002
tot    0.054  0.000  0.901  0.955

band    12 # energy  -16.27828257 # occ.  2.00000000

ion      s      p      d    tot
    1  0.000  0.000  0.000  0.000
    2  0.000  0.000  0.000  0.000
    3  0.000  0.000  0.000  0.000
    4  0.000  0.000  0.000  0.000
    5  0.000  0.000  0.000  0.000
    6  0.000  0.000  0.000  0.000
    7  0.000  0.000  0.000  0.000
    8  0.000  0.000  0.000  0.000
    9  0.000  0.000  0.079  0.079
   10  0.000  0.000  0.079  0.079
   11  0.000  0.000  0.146  0.146
   12  0.000  0.000  0.146  0.146
   13  0.000  0.000  0.146  0.146
   14  0.000  0.000  0.146  0.146
   15  0.000  0.000  0.079  0.079
   16  0.000  0.000  0.079  0.079
   17  0.002  0.000  0.000  0.002
   18  0.002  0.000  0.000  0.002
   19  0.002  0.000  0.000  0.002
   20  0.002  0.000  0.000  0.002
   21  0.002  0.000  0.000  0.002
   22  0.002  0.000  0.000  0.002
   23  0.002  0.000  0.000  0.002
   24  0.002  0.000  0.000  0.002
   25  0.001  0.000  0.000  0.001
   26  0.001  0.000  0.000  0.001
   27  0.005  0.000  0.000  0.005
   28  0.005  0.000  0.000  0.005
   29  0.005  0.000  0.000  0.005
   30  0.005  0.000  0.000  0.005
   31  0.001  0.000  0.000  0.001
   32  0.001  0.000  0.000  0.001
   33  0.001  0.000  0.000  0.001
   34  0.001  0.000  0.000  0.001
   35  0.001  0.000  0.000  0.001
   36  0.001  0.000  0.000  0.001
   37  0.001  0.000  0.000  0.001
   38  0.001  0.000  0.000  0.001
   39  0.001  0.000  0.000  0.001
   40  0.001  0.000  0.000  0.001
tot    0.054  0.000  0.901  0.955

band    13 # energy  -16.27828247 # occ.  2.00000000

ion      s      p      d    tot
    1  0.000  0.000  0.000  0.000
    2  0.000  0.000  0.000  0.000
    3  0.000  0.000  0.000  0.000
    4  0.000  0.000  0.000  0.000
    5  0.000  0.000  0.000  0.000
    6  0.000  0.000  0.000  0.000
    7  0.000  0.000  0.000  0.000
    8  0.000  0.000  0.000  0.000
    9  0.000  0.000  0.113  0.113
   10  0.000  0.000  0.113  0.113
   11  0.000  0.000  0.113  0.113
   12  0.000  0.000  0.113  0.113
   13  0.000  0.000  0.113  0.113
   14  0.000  0.000  0.113  0.113
   15  0.000  0.000  0.113  0.113
   16  0.000  0.000  0.113  0.113
   17  0.003  0.000  0.000  0.003
   18  0.003  0.000  0.000  0.003
   19  0.003  0.000  0.000  0.003
   20  0.003  0.000  0.000  0.003
   21  0.003  0.000  0.000  0.003
   22  0.003  0.000  0.000  0.003
   23  0.003  0.000  0.000  0.003
   24  0.003  0.000  0.000  0.003
   25  0.000  0.000  0.000  0.000
   26  0.000  0.000  0.000  0.000
   27  0.000  0.000  0.000  0.000
   28  0.000  0.000  0.000  0.000
   29  0.000  0.000  0.000  0.000
   30  0.000  0.000  0.000  0.000
   31  0.000  0.000  0.000  0.000
   32  0.000  0.000  0.000  0.000
   33  0.003  0.000  0.000  0.003
   34  0.003  0.000  0.000  0.003
   35  0.003  0.000  0.000  0.003
   36  0.003  0.000  0.000  0.003
   37  0.003  0.000  0.000  0.003
   38  0.003  0.000  0.000  0.003
   39  0.003  0.000  0.000  0.003
   40  0.003  0.000  0.000  0.003
tot    0.054  0.000  0.901  0.955

band    14 # energy  -16.24164161 # occ.  2.00000000

ion      s      p      d    tot
    1  0.000  0.000  0.000  0.000
    2  0.000  0.000  0.000  0.000
    3  0.000  0.000  0.000  0.000
    4  0.000  0.000  0.000  0.000
    5  0.000  0.000  0.000  0.000
    6  0.000  0.000  0.000  0.000
    7  0.000  0.000  0.000  0.000
    8  0.000  0.000  0.000  0.000
    9  0.000  0.000  0.115  0.115
   10  0.000  0.000  0.115  0.115
   11  0.000  0.000  0.115  0.115
   12  0.000  0.000  0.115  0.115
   13  0.000  0.000  0.115  0.115
   14  0.000  0.000  0.115  0.115
   15  0.000  0.000  0.115  0.115
   16  0.000  0.000  0.115  0.115
   17  0.000  0.000  0.000  0.000
   18  0.000  0.000  0.000  0.000
   19  0.000  0.000  0.000  0.000
   20  0.000  0.000  0.000  0.000
   21  0.000  0.000  0.000  0.000
   22  0.000  0.000  0.000  0.000
   23  0.000  0.000  0.000  0.000
   24  0.000  0.000  0.000  0.000
   25  0.005  0.000  0.000  0.005
   26  0.005  0.000  0.000  0.005
   27  0.005  0.000  0.000  0.005
   28  0.005  0.000  0.000  0.005
   29  0.005  0.000  0.000  0.005
   30  0.005  0.000  0.000  0.005
   31  0.005  0.000  0.000  0.005
   32  0.005  0.000  0.000  0.005
   33  0.000  0.000  0.000  0.000
   34  0.000  0.000  0.000  0.000
   35  0.000  0.000  0.000  0.000
   36  0.000  0.000  0.000  0.000
   37  0.000  0.000  0.000  0.000
   38  0.000  0.000  0.000  0.000
   39  0.000  0.000  0.000  0.000
   40  0.000  0.000  0.000  0.000
tot    0.042  0.001  0.916  0.959

band    15 # energy  -16.24164151 # occ.  2.00000000

ion      s      p      d    tot
    1  0.000  0.000  0.000  0.000
    2  0.000  0.000  0.000  0.000
    3  0.000  0.000  0.000  0.000
    4  0.000  0.000  0.000  0.000
    5  0.000  0.000  0.000  0.000
    6  0.000  0.000  0.000  0.000
    7  0.000  0.000  0.000  0.000
    8  0.000  0.000  0.000  0.000
    9  0.000  0.000  0.103  0.104
   10  0.000  0.000  0.103  0.104
   11  0.000  0.000  0.126  0.126
   12  0.000  0.000  0.126  0.126
   13  0.000  0.000  0.126  0.126
   14  0.000  0.000  0.126  0.126
   15  0.000  0.000  0.103  0.104
   16  0.000  0.000  0.103  0.104
   17  0.002  0.000  0.000  0.002
   18  0.002  0.000  0.000  0.002
   19  0.002  0.000  0.000  0.002
   20  0.002  0.000  0.000  0.002
   21  0.002  0.000  0.000  0.002
   22  0.002  0.000  0.000  0.002
   23  0.002  0.000  0.000  0.002
   24  0.002  0.000  0.000  0.002
   25  0.000  0.000  0.000  0.000
   26  0.000  0.000  0.000  0.000
   27  0.000  0.000  0.000  0.000
   28  0.000  0.000  0.000  0.000
   29  0.000  0.000  0.000  0.000
   30  0.000  0.000  0.000  0.000
   31  0.000  0.000  0.000  0.000
   32  0.000  0.000  0.000  0.000
   33  0.004  0.000  0.000  0.004
   34  0.004  0.000  0.000  0.004
   35  0.004  0.000  0.000  0.004
   36  0.004  0.000  0.000  0.004
   37  0.004  0.000  0.000  0.004
   38  0.004  0.000  0.000  0.004
   39  0.004  0.000  0.000  0.004
   40  0.004  0.000  0.000  0.004
tot    0.042  0.001  0.916  0.959

band    16 # energy  -16.24164151 # occ.  2.00000000

ion      s      p      d    tot
    1  0.000  0.000  0.000  0.000
    2  0.000  0.000  0.000  0.000
    3  0.000  0.000  0.000  0.000
    4  0.000  0.000  0.000  0.000
    5  0.000  0.000  0.000  0.000
    6  0.000  0.000  0.000  0.000
    7  0.000  0.000  0.000  0.000
    8  0.000  0.000  0.000  0.000
    9  0.000  0.000  0.126  0.126
   10  0.000  0.000  0.126  0.126
   11  0.000  0.000  0.103  0.104
   12  0.000  0.000  0.103  0.104
   13  0.000  0.000  0.103  0.104
   14  0.000  0.000  0.103  0.104
   15  0.000  0.000  0.126  0.126
   16  0.000  0.000  0.126  0.126
   17  0.004  0.000  0.000  0.004
   18  0.004  0.000  0.000  0.004
   19  0.004  0.000  0.000  0.004
   20  0.004  0.000  0.000  0.004
   21  0.004  0.000  0.000  0.004
   22  0.004  0.000  0.000  0.004
   23  0.004  0.000  0.000  0.004
   24  0.004  0.000  0.000  0.004
   25  0.000  0.000  0.000  0.000
   26  0.000  0.000  0.000  0.000
   27  0.000  0.000  0.000  0.000
   28  0.000  0.000  0.000  0.000
   29  0.000  0.000  0.000  0.000
   30  0.000  0.000  0.000  0.000
   31  0.000  0.000  0.000  0.000
   32  0.000  0.000  0.000  0.000
   33  0.002  0.000  0.000  0.002
   34  0.002  0.000  0.000  0.002
   35  0.002  0.000  0.000  0.002
   36  0.002  0.000  0.000  0.002
   37  0.002  0.000  0.000  0.002
   38  0.002  0.000  0.000  0.002
   39  0.002  0.000  0.000  0.002
   40  0.002  0.000  0.000  0.002
tot    0.042  0.001  0.916  0.959

band    17 # energy  -16.19960497 # occ.  2.00000000

ion      s      p      d    tot
    1  0.000  0.000  0.000  0.000
    2  0.000  0.000  0.000  0.000
    3  0.000  0.000  0.000  0.000
    4  0.000  0.000  0.000  0.000
    5  0.000  0.000  0.000  0.000
    6  0.000  0.000  0.000  0.000
    7  0.000  0.000  0.000  0.000
    8  0.000  0.000  0.000  0.000
    9  0.000  0.000  0.117  0.117
   10  0.000  0.000  0.117  0.117
   11  0.000  0.000  0.117  0.117
   12  0.000  0.000  0.117  0.117
   13  0.000  0.000  0.117  0.117
   14  0.000  0.000  0.117  0.117
   15  0.000  0.000  0.117  0.117
   16  0.000  0.000  0.117  0.117
   17  0.002  0.000  0.000  0.002
   18  0.002  0.000  0.000  0.002
   19  0.002  0.000  0.000  0.002
   20  0.002  0.000  0.000  0.002
   21  0.002  0.000  0.000  0.002
   22  0.002  0.000  0.000  0.002
   23  0.002  0.000  0.000  0.002
   24  0.002  0.000  0.000  0.002
   25  0.000  0.000  0.000  0.000
   26  0.000  0.000  0.000  0.000
   27  0.000  0.000  0.000  0.000
   28  0.000  0.000  0.000  0.000
   29  0.000  0.000  0.000  0.000
   30  0.000  0.000  0.000  0.000
   31  0.000  0.000  0.000  0.000
   32  0.000  0.000  0.000  0.000
   33  0.002  0.000  0.000  0.002
   34  0.002  0.000  0.000  0.002
   35  0.002  0.000  0.000  0.002
   36  0.002  0.000  0.000  0.002
   37  0.002  0.000  0.000  0.002
   38  0.002  0.000  0.000  0.002
   39  0.002  0.000  0.000  0.002
   40  0.002  0.000  0.000  0.002
tot    0.025  0.002  0.938  0.965

band    18 # energy  -16.19960485 # occ.  2.00000000

ion      s      p      d    tot
    1  0.000  0.000  0.000  0.000
    2  0.000  0.000  0.000  0.000
    3  0.000  0.000  0.000  0.000
    4  0.000  0.000  0.000  0.000
    5  0.000  0.000  0.000  0.000
    6  0.000  0.000  0.000  0.000
    7  0.000  0.000  0.000  0.000
    8  0.000  0.000  0.000  0.000
    9  0.000  0.000  0.114  0.114
   10  0.000  0.000  0.114  0.114
   11  0.000  0.000  0.121  0.121
   12  0.000  0.000  0.121  0.121
   13  0.000  0.000  0.121  0.121
   14  0.000  0.000  0.121  0.121
   15  0.000  0.000  0.114  0.114
   16  0.000  0.000  0.114  0.114
   17  0.002  0.000  0.000  0.002
   18  0.002  0.000  0.000  0.002
   19  0.002  0.000  0.000  0.002
   20  0.002  0.000  0.000  0.002
   21  0.002  0.000  0.000  0.002
   22  0.002  0.000  0.000  0.002
   23  0.002  0.000  0.000  0.002
   24  0.002  0.000  0.000  0.002
   25  0.002  0.000  0.000  0.002
   26  0.002  0.000  0.000  0.002
   27  0.001  0.000  0.000  0.001
   28  0.001  0.000  0.000  0.001
   29  0.001  0.000  0.000  0.001
   30  0.001  0.000  0.000  0.001
   31  0.002  0.000  0.000  0.002
   32  0.002  0.000  0.000  0.002
   33  0.000  0.000  0.000  0.000
   34  0.000  0.000  0.000  0.000
   35  0.000  0.000  0.000  0.000
   36  0.000  0.000  0.000  0.000
   37  0.000  0.000  0.000  0.000
   38  0.000  0.000  0.000  0.000
   39  0.000  0.000  0.000  0.000
   40  0.000  0.000  0.000  0.000
tot    0.025  0.002  0.938  0.965

band    19 # energy  -16.19960485 # occ.  2.00000000

ion      s      p      d    tot
    1  0.000  0.000  0.000  0.000
    2  0.000  0.000  0.000  0.000
    3  0.000  0.000  0.000  0.000
    4  0.000  0.000  0.000  0.000
    5  0.000  0.000  0.000  0.000
    6  0.000  0.000  0.000  0.000
    7  0.000  0.000  0.000  0.000
    8  0.000  0.000  0.000  0.000
    9  0.000  0.000  0.121  0.121
   10  0.000  0.000  0.121  0.121
   11  0.000  0.000  0.114  0.114
   12  0.000  0.000  0.114  0.114
   13  0.000  0.000  0.114  0.114
   14  0.000  0.000  0.114  0.114
   15  0.000  0.000  0.121  0.121
   16  0.000  0.000  0.121  0.121
   17  0.000  0.000  0.000  0.000
   18  0.000  0.000  0.000  0.000
   19  0.000  0.000  0.000  0.000
   20  0.000  0.000  0.000  0.000
   21  0.000  0.000  0.000  0.000
   22  0.000  0.000  0.000  0.000
   23  0.000  0.000  0.000  0.000
   24  0.000  0.000  0.000  0.000
   25  0.001  0.000  0.000  0.001
   26  0.001  0.000  0.000  0.001
   27  0.002  0.000  0.000  0.002
   28  0.002  0.000  0.000  0.002
   29  0.002  0.000  0.000  0.002
   30  0.002  0.000  0.000  0.002
   31  0.001  0.000  0.000  0.001
   32  0.001  0.000  0.000  0.001
   33  0.002  0.000  0.000  0.002
   34  0.002  0.000  0.000  0.002
   35  0.002  0.000  0.000  0.002
   36  0.002  0.000  0.000  0.002
   37  0.002  0.000  0.000  0.002
   38  0.002  0.000  0.000  0.002
   39  0.002  0.000  0.000  0.002
   40  0.002  0.000  0.000  0.002
tot    0.025  0.002  0.938  0.965

band    20 # energy  -16.14977341 # occ.  2.00000000

ion      s      p      d    tot
    1  0.000  0.000  0.000  0.000
    2  0.000  0.000  0.000  0.000
    3  0.000  0.000  0.000  0.000
    4  0.000  0.000  0.000  0.000
    5  0.000  0.000  0.000  0.000
    6  0.000  0.000  0.000  0.000
    7  0.000  0.000  0.000  0.000
    8  0.000  0.000  0.000  0.000
    9  0.000  0.000  0.177  0.177
   10  0.000  0.000  0.177  0.177
   11  0.000  0.000  0.065  0.065
   12  0.000  0.000  0.065  0.065
   13  0.000  0.000  0.065  0.065
   14  0.000  0.000  0.065  0.065
   15  0.000  0.000  0.177  0.177
   16  0.000  0.000  0.177  0.177
   17  0.000  0.000  0.000  0.000
   18  0.000  0.000  0.000  0.000
   19  0.000  0.000  0.000  0.000
   20  0.000  0.000  0.000  0.000
   21  0.000  0.000  0.000  0.000
   22  0.000  0.000  0.000  0.000
   23  0.000  0.000  0.000  0.000
   24  0.000  0.000  0.000  0.000
   25  0.000  0.000  0.000  0.000
   26  0.000  0.000  0.000  0.000
   27  0.000  0.000  0.000  0.000
   28  0.000  0.000  0.000  0.000
   29  0.000  0.000  0.000  0.000
   30  0.000  0.000  0.000  0.000
   31  0.000  0.000  0.000  0.000
   32  0.000  0.000  0.000  0.000
   33  0.000  0.000  0.000  0.000
   34  0.000  0.000  0.000  0.000
   35  0.000  0.000  0.000  0.000
   36  0.000  0.000  0.000  0.000
   37  0.000  0.000  0.000  0.000
   38  0.000  0.000  0.000  0.000
   39  0.000  0.000  0.000  0.000
   40  0.000  0.000  0.000  0.000
tot    0.000  0.004  0.970  0.973

band    21 # energy  -16.14977341 # occ.  2.00000000

ion      s      p      d    tot
    1  0.000  0.000  0.000  0.000
    2  0.000  0.000  0.000  0.000
    3  0.000  0.000  0.000  0.000