<?xml version="1.0" encoding="ISO-8859-1"?>
<modeling>
 <generator>
  <i name="program" type="string">vasp </i>
  <i name="version" type="string">5.4.4.18Apr17-6-g9f103f2a35  </i>
  <i name="subversion" type="string">(build Jun 22 2020 09:27:21) complex            parallel </i>
  <i name="platform" type="string">tx2_gcc-7.3_libsci-18.07_cray-fftw-3.3.8 </i>
  <i name="date" type="string">2021 09 22 </i>
  <i name="time" type="string">08:55:47 </i>
 </generator>
 <incar>
  <i type="string" name="SYSTEM"> CsPbBr3 cubic bulk</i>
  <i type="string" name="PREC">accurate</i>
  <i type="string" name="ALGO"> Normal   ! Electronic minimisation algo</i>
  <i type="logical" name="ADDGRID"> T  </i>
  <i type="int" name="NELM">   200</i>
  <i type="int" name="IBRION">     2</i>
  <i name="EDIFF">      0.00000100</i>
  <i name="EDIFFG">     -0.01000000</i>
  <i type="int" name="NSW">     0</i>
  <i type="int" name="ISIF">     3</i>
  <i type="int" name="ISYM">     2</i>
  <i name="ENCUT">    300.00000000</i>
  <i name="POTIM">      0.50000000</i>
  <i type="string" name="LREAL"> AUTO</i>
  <i type="int" name="ISMEAR">     0</i>
  <i name="SIGMA">      0.01000000</i>
  <i name="PSTRESS">      0.00000000</i>
  <i type="logical" name="LWAVE"> F  </i>
  <i type="logical" name="LCHARG"> T  </i>
  <i type="logical" name="LVHAR"> T  </i>
  <i type="int" name="LORBIT">    10</i>
  <i type="logical" name="LASPH"> T  </i>
  <v type="int" name="KPOINT_BSE">    -1     0     0     0</v>
  <i type="int" name="NELM">   200</i>
  <i type="string" name="METAGGA"> SCAN       ! PBE exchange-correlation</i>
  <i type="logical" name="LASPH"> T  </i>
 </incar>
 <structure name="primitive_cell" >
  <crystal>
   <varray name="basis" >
    <v>       5.86767600       0.00000000       0.00000000 </v>
    <v>       0.00000000       5.86767600       0.00000000 </v>
    <v>       0.00000000       0.00000000       5.86767600 </v>
   </varray>
   <i name="volume">    202.02186459 </i>
   <varray name="rec_basis" >
    <v>       0.17042522       0.00000000       0.00000000 </v>
    <v>       0.00000000       0.17042522       0.00000000 </v>
    <v>       0.00000000       0.00000000       0.17042522 </v>
   </varray>
  </crystal>
  <varray name="positions" >
   <v>      -0.50000000      -0.50000000      -0.50000000 </v>
   <v>       0.00000000      -0.50000000       0.00000000 </v>
   <v>       0.00000000       0.00000000      -0.50000000 </v>
   <v>      -0.50000000       0.00000000       0.00000000 </v>
   <v>       0.00000000       0.00000000       0.00000000 </v>
  </varray>
 </structure>
 <varray name="primitive_index" >
  <v type="int" >        1 </v>
  <v type="int" >       17 </v>
  <v type="int" >       25 </v>
  <v type="int" >       33 </v>
  <v type="int" >        9 </v>
 </varray>
 <kpoints>
  <generation param="Gamma">
   <v type="int" name="divisions">       2        2        2 </v>
   <v name="usershift">      0.00000000       0.00000000       0.00000000 </v>
   <v name="genvec1">      0.50000000       0.00000000       0.00000000 </v>
   <v name="genvec2">      0.00000000       0.50000000       0.00000000 </v>
   <v name="genvec3">      0.00000000       0.00000000       0.50000000 </v>
   <v name="shift">      0.00000000       0.00000000       0.00000000 </v>
  </generation>
  <varray name="kpointlist" >
   <v>       0.00000000       0.00000000       0.00000000 </v>
   <v>       0.50000000       0.00000000       0.00000000 </v>
   <v>       0.50000000       0.50000000       0.00000000 </v>
   <v>       0.50000000       0.50000000       0.50000000 </v>
  </varray>
  <varray name="weights" >
   <v>       0.12500000 </v>
   <v>       0.37500000 </v>
   <v>       0.37500000 </v>
   <v>       0.12500000 </v>
  </varray>
 </kpoints>
 <parameters>
  <separator name="general" >
   <i type="string" name="SYSTEM">CsPbBr3 cubic bulk</i>
   <i type="logical" name="LCOMPAT"> F  </i>
  </separator>
  <separator name="electronic" >
   <i type="string" name="PREC">accura</i>
   <i name="ENMAX">    300.00000000</i>
   <i name="ENAUG">    503.85200000</i>
   <i name="EDIFF">      0.00000100</i>
   <i type="int" name="IALGO">    38</i>
   <i type="int" name="IWAVPR">    10</i>
   <i type="int" name="NBANDS">   216</i>
   <i name="NELECT">    352.00000000</i>
   <i type="int" name="TURBO">     0</i>
   <i type="int" name="IRESTART">     0</i>
   <i type="int" name="NREBOOT">     0</i>
   <i type="int" name="NMIN">     0</i>
   <i name="EREF">      0.00000000</i>
   <separator name="electronic smearing" >
    <i type="int" name="ISMEAR">     0</i>
    <i name="SIGMA">      0.01000000</i>
    <i name="KSPACING">      0.50000000</i>
    <i type="logical" name="KGAMMA"> T  </i>
   </separator>
   <separator name="electronic projectors" >
    <i type="logical" name="LREAL"> T  </i>
    <v name="ROPT">     -0.00025000     -0.00025000     -0.00025000</v>
    <i type="int" name="LMAXPAW">  -100</i>
    <i type="int" name="LMAXMIX">     2</i>
    <i type="logical" name="NLSPLINE"> F  </i>
   </separator>
   <separator name="electronic startup" >
    <i type="int" name="ISTART">     0</i>
    <i type="int" name="ICHARG">     2</i>
    <i type="int" name="INIWAV">     1</i>
   </separator>
   <separator name="electronic spin" >
    <i type="int" name="ISPIN">     1</i>
    <i type="logical" name="LNONCOLLINEAR"> F  </i>
    <v name="MAGMOM">      1.00000000      1.00000000      1.00000000      1.00000000      1.00000000      1.00000000      1.00000000      1.00000000      1.00000000      1.00000000      1.00000000      1.00000000      1.00000000      1.00000000      1.00000000      1.00000000      1.00000000      1.00000000      1.00000000      1.00000000
      1.00000000      1.00000000      1.00000000      1.00000000      1.00000000      1.00000000      1.00000000      1.00000000      1.00000000      1.00000000      1.00000000      1.00000000      1.00000000      1.00000000      1.00000000      1.00000000      1.00000000      1.00000000      1.00000000      1.00000000
</v>
    <i name="NUPDOWN">     -1.00000000</i>
    <i type="logical" name="LSORBIT"> F  </i>
    <v name="SAXIS">      0.00000000      0.00000000      1.00000000</v>
    <i type="logical" name="LSPIRAL"> F  </i>
    <v name="QSPIRAL">      0.00000000      0.00000000      0.00000000</v>
    <i type="logical" name="LZEROZ"> F  </i>
   </separator>
   <separator name="electronic exchange-correlation" >
    <i type="logical" name="LASPH"> T  </i>
    <i type="logical" name="LMETAGGA"> F  </i>
   </separator>
   <separator name="electronic convergence" >
    <i type="int" name="NELM">   200</i>
    <i type="int" name="NELMDL">     0</i>
    <i type="int" name="NELMIN">     2</i>
    <i name="ENINI">    300.00000000</i>
    <separator name="electronic convergence detail" >
     <i type="logical" name="LDIAG"> T  </i>
     <i type="logical" name="LSUBROT"> F  </i>
     <i name="WEIMIN">      0.00000000</i>
     <i name="EBREAK">      0.00000000</i>
     <i name="DEPER">      0.30000000</i>
     <i type="int" name="NRMM">     4</i>
     <i name="TIME">      0.40000000</i>
    </separator>
   </separator>
   <separator name="electronic mixer" >
    <i name="AMIX">      0.40000000</i>
    <i name="BMIX">      1.00000000</i>
    <i name="AMIN">      0.10000000</i>
    <i name="AMIX_MAG">      1.60000000</i>
    <i name="BMIX_MAG">      1.00000000</i>
    <separator name="electronic mixer details" >
     <i type="int" name="IMIX">     4</i>
     <i type="logical" name="MIXFIRST"> F  </i>
     <i type="int" name="MAXMIX">   -45</i>
     <i name="WC">    100.00000000</i>
     <i type="int" name="INIMIX">     1</i>
     <i type="int" name="MIXPRE">     1</i>
     <i type="int" name="MREMOVE">     5</i>
    </separator>
   </separator>
   <separator name="electronic dipolcorrection" >
    <i type="logical" name="LDIPOL"> F  </i>
    <i type="logical" name="LMONO"> F  </i>
    <i type="int" name="IDIPOL">     0</i>
    <i name="EPSILON">      1.00000000</i>
    <v name="DIPOL">   -100.00000000   -100.00000000   -100.00000000</v>
    <i name="EFIELD">      0.00000000</i>
   </separator>
  </separator>
  <separator name="grids" >
   <i type="int" name="NGX">    70</i>
   <i type="int" name="NGY">    70</i>
   <i type="int" name="NGZ">    70</i>
   <i type="int" name="NGXF">   140</i>
   <i type="int" name="NGYF">   140</i>
   <i type="int" name="NGZF">   140</i>
   <i type="logical" name="ADDGRID"> T  </i>
  </separator>
  <separator name="ionic" >
   <i type="int" name="NSW">     0</i>
   <i type="int" name="IBRION">    -1</i>
   <i type="int" name="MDALGO">     0</i>
   <i type="int" name="ISIF">     3</i>
   <i name="PSTRESS">      0.00000000</i>
   <i name="EDIFFG">     -0.01000000</i>
   <i type="int" name="NFREE">     1</i>
   <i name="POTIM">      0.50000000</i>
   <i name="SMASS">     -3.00000000</i>
   <i name="SCALEE">      1.00000000</i>
  </separator>
  <separator name="ionic md" >
   <i name="TEBEG">      0.00010000</i>
   <i name="TEEND">      0.00010000</i>
   <i type="int" name="NBLOCK">     1</i>
   <i type="int" name="KBLOCK">     1</i>
   <i type="int" name="NPACO">   256</i>
   <i name="APACO">     16.00000000</i>
  </separator>
  <separator name="symmetry" >
   <i type="int" name="ISYM">     2</i>
   <i name="SYMPREC">      0.00001000</i>
  </separator>
  <separator name="dos" >
   <i type="int" name="LORBIT">    10</i>
   <v name="RWIGS">     -1.00000000     -1.00000000     -1.00000000</v>
   <i type="int" name="NEDOS">   301</i>
   <i name="EMIN">     10.00000000</i>
   <i name="EMAX">    -10.00000000</i>
   <i name="EFERMI">      0.00000000</i>
  </separator>
  <separator name="writing" >
   <i type="int" name="NWRITE">     2</i>
   <i type="logical" name="LWAVE"> F  </i>
   <i type="logical" name="LDOWNSAMPLE"> F  </i>
   <i type="logical" name="LCHARG"> T  </i>
   <i type="logical" name="LPARD"> F  </i>
   <i type="logical" name="LVTOT"> F  </i>
   <i type="logical" name="LVHAR"> T  </i>
   <i type="logical" name="LELF"> F  </i>
   <i type="logical" name="LOPTICS"> F  </i>
   <v name="STM">      0.00000000      0.00000000      0.00000000      0.00000000      0.00000000      0.00000000      0.00000000</v>
  </separator>
  <separator name="performance" >
   <i type="int" name="NPAR">     8</i>
   <i type="int" name="NSIM">     4</i>
   <i type="int" name="NBLK">    -1</i>
   <i type="logical" name="LPLANE"> T  </i>
   <i type="logical" name="LSCALAPACK"> T  </i>
   <i type="logical" name="LSCAAWARE"> F  </i>
   <i type="logical" name="LSCALU"> F  </i>
   <i type="logical" name="LASYNC"> F  </i>
   <i type="logical" name="LORBITALREAL"> F  </i>
  </separator>
  <separator name="miscellaneous" >
   <i type="int" name="IDIOT">     3</i>
   <i type="int" name="ISPECIAL">     0</i>
   <i type="logical" name="LMUSIC"> F  </i>
   <v name="POMASS">    132.90000000    207.20000000     79.90400000</v>
   <v name="DARWINR">      0.00000000      0.00000000      0.00000000</v>
   <v name="DARWINV">      1.00000000      1.00000000      1.00000000</v>
   <i type="logical" name="LCORR"> T  </i>
  </separator>
  <i type="logical" name="GGA_COMPAT"> T  </i>
  <i type="logical" name="LBERRY"> F  </i>
  <i type="int" name="ICORELEVEL">     0</i>
  <i type="logical" name="LDAU"> F  </i>
  <i type="int" name="I_CONSTRAINED_M">     0</i>
  <separator name="electronic exchange-correlation" >
   <i type="string" name="GGA">--</i>
   <i type="int" name="VOSKOWN">     0</i>
   <i type="logical" name="LHFCALC"> F  </i>
   <i type="string" name="PRECFOCK"></i>
   <i type="logical" name="LSYMGRAD"> F  </i>
   <i type="logical" name="LHFONE"> F  </i>
   <i type="logical" name="LRHFCALC"> F  </i>
   <i type="logical" name="LTHOMAS"> F  </i>
   <i type="logical" name="LMODELHF"> F  </i>
   <i name="ENCUT4O">     -1.00000000</i>
   <i type="int" name="EXXOEP">     0</i>
   <i type="int" name="FOURORBIT">     0</i>
   <i name="AEXX">      0.00000000</i>
   <i name="HFALPHA">      0.00000000</i>
   <i name="MCALPHA">      0.00000000</i>
   <i name="ALDAX">      1.00000000</i>
   <i name="AGGAX">      1.00000000</i>
   <i name="ALDAC">      1.00000000</i>
   <i name="AGGAC">      1.00000000</i>
   <i type="int" name="NKREDX">     1</i>
   <i type="int" name="NKREDY">     1</i>
   <i type="int" name="NKREDZ">     1</i>
   <i type="logical" name="SHIFTRED"> F  </i>
   <i type="logical" name="ODDONLY"> F  </i>
   <i type="logical" name="EVENONLY"> F  </i>
   <i type="int" name="LMAXFOCK">     0</i>
   <i type="int" name="NMAXFOCKAE">     0</i>
   <i type="logical" name="LFOCKAEDFT"> F  </i>
   <i name="HFSCREEN">      0.00000000</i>
   <i name="HFSCREENC">      0.00000000</i>
   <i type="int" name="NBANDSGWLOW">     0</i>
  </separator>
  <separator name="vdW DFT" >
   <i type="logical" name="LUSE_VDW"> F  </i>
   <i name="Zab_VDW">     -0.84910000</i>
   <i name="PARAM1">      0.12340000</i>
   <i name="PARAM2">      1.00000000</i>
   <i name="PARAM3">      0.00000000</i>
  </separator>
  <separator name="model GW" >
   <i type="int" name="MODEL_GW">     0</i>
   <i name="MODEL_EPS0">     24.24262375</i>
   <i name="MODEL_ALPHA">      1.00000000</i>
  </separator>
  <separator name="linear response parameters" >
   <i type="logical" name="LEPSILON"> F  </i>
   <i type="logical" name="LRPA"> F  </i>
   <i type="logical" name="LNABLA"> F  </i>
   <i type="logical" name="LVEL"> F  </i>
   <i type="int" name="KINTER">     0</i>
   <i name="CSHIFT">      0.10000000</i>
   <i name="OMEGAMAX">     -1.00000000</i>
   <i name="DEG_THRESHOLD">      0.00200000</i>
   <i name="RTIME">     -0.10000000</i>
   <i name="WPLASMAI">      0.00000000</i>
   <v name="DFIELD">      0.00000000      0.00000000      0.00000000</v>
   <v name="WPLASMA">      0.00000000      0.00000000      0.00000000      0.00000000      0.00000000      0.00000000      0.00000000      0.00000000      0.00000000</v>
  </separator>
  <separator name="orbital magnetization" >
   <i type="logical" name="NUCIND"> F  </i>
   <v name="MAGPOS">      0.00000000      0.00000000      0.00000000</v>
   <i type="logical" name="LNICSALL"> T  </i>
   <i type="logical" name="ORBITALMAG"> F  </i>
   <i type="logical" name="LMAGBLOCH"> F  </i>
   <i type="logical" name="LCHIMAG"> F  </i>
   <i type="logical" name="LGAUGE"> T  </i>
   <i type="int" name="MAGATOM">     0</i>
   <v name="MAGDIPOL">      0.00000000      0.00000000      0.00000000</v>
   <v name="AVECCONST">      0.00000000      0.00000000      0.00000000</v>
  </separator>
  <separator name="response functions" >
   <i type="logical" name="LADDER"> F  </i>
   <i type="logical" name="LRPAFORCE"> F  </i>
   <i type="logical" name="LFXC"> F  </i>
   <i type="logical" name="LHARTREE"> T  </i>
   <i type="int" name="IBSE">     0</i>
   <v type="int" name="KPOINT">    -1     0     0     0</v>
   <i type="logical" name="LTCTE"> F  </i>
   <i type="logical" name="LTETE"> F  </i>
   <i type="logical" name="LTRIPLET"> F  </i>
   <i type="logical" name="LFXCEPS"> F  </i>
   <i type="logical" name="LFXHEG"> F  </i>
   <i type="int" name="NATURALO">     2</i>
   <i type="logical" name="L2ORDER"> F  </i>
   <i type="logical" name="LMP2LT"> F  </i>
   <i type="logical" name="LUSEW"> F  </i>
   <i name="ENCUTGW">     -2.00000000</i>
   <i name="ENCUTGWSOFT">     -2.00000000</i>
   <i name="ENCUTLF">     -1.00000000</i>
   <i type="int" name="LMAXMP2">    -1</i>
   <i name="SCISSOR">      0.00000000</i>
   <i type="int" name="NOMEGA">     0</i>
   <i type="int" name="NOMEGAR">     0</i>
   <i type="int" name="NBANDSGW">    -1</i>
   <i type="int" name="NBANDSO">    -1</i>
   <i type="int" name="NBANDSV">    -1</i>
   <i type="int" name="NELM">   200</i>
   <i type="int" name="NELMHF">     1</i>
   <i type="int" name="DIM">     3</i>
   <i type="int" name="ANTIRES">     0</i>
   <i name="OMEGAMAX">    -30.00000000</i>
   <i name="OMEGAMIN">    -30.00000000</i>
   <i name="OMEGATL">   -200.00000000</i>
   <i type="int" name="OMEGAGRID">   140</i>
   <i name="CSHIFT">     -0.10000000</i>
   <i type="logical" name="SELFENERGY"> F  </i>
   <i type="logical" name="LSPECTRAL"> F  </i>
   <i type="logical" name="LSPECTRALGW"> F  </i>
   <i type="logical" name="LSINGLES"> F  </i>
   <i type="logical" name="LFERMIGW"> F  </i>
   <i type="logical" name="ODDONLYGW"> F  </i>
   <i type="logical" name="EVENONLYGW"> F  </i>
   <i type="int" name="NKREDLFX">     1</i>
   <i type="int" name="NKREDLFY">     1</i>
   <i type="int" name="NKREDLFZ">     1</i>
   <i type="int" name="MAXMEM">  2800</i>
   <i type="int" name="TELESCOPE">     0</i>
   <i type="int" name="TAUPAR">     1</i>
   <i type="int" name="OMEGAPAR">    -1</i>
   <i name="LAMBDA">      1.00000000</i>
  </separator>
  <separator name="External order field" >
   <i name="OFIELD_KAPPA">      0.00000000</i>
   <v name="OFIELD_K">      0.00000000      0.00000000      0.00000000</v>
   <i name="OFIELD_Q6_NEAR">      0.00000000</i>
   <i name="OFIELD_Q6_FAR">      0.00000000</i>
   <i name="OFIELD_A">      0.00000000</i>
  </separator>
 </parameters>
 <atominfo>
  <atoms>      40 </atoms>
  <types>       3 </types>
  <array name="atoms" >
   <dimension dim="1">ion</dimension>
   <field type="string">element</field>
   <field type="int">atomtype</field>
   <set>
    <rc><c>Cs</c><c>   1</c></rc>
    <rc><c>Cs</c><c>   1</c></rc>
    <rc><c>Cs</c><c>   1</c></rc>
    <rc><c>Cs</c><c>   1</c></rc>
    <rc><c>Cs</c><c>   1</c></rc>
    <rc><c>Cs</c><c>   1</c></rc>
    <rc><c>Cs</c><c>   1</c></rc>
    <rc><c>Cs</c><c>   1</c></rc>
    <rc><c>Pb</c><c>   2</c></rc>
    <rc><c>Pb</c><c>   2</c></rc>
    <rc><c>Pb</c><c>   2</c></rc>
    <rc><c>Pb</c><c>   2</c></rc>
    <rc><c>Pb</c><c>   2</c></rc>
    <rc><c>Pb</c><c>   2</c></rc>
    <rc><c>Pb</c><c>   2</c></rc>
    <rc><c>Pb</c><c>   2</c></rc>
    <rc><c>Br</c><c>   3</c></rc>
    <rc><c>Br</c><c>   3</c></rc>
    <rc><c>Br</c><c>   3</c></rc>
    <rc><c>Br</c><c>   3</c></rc>
    <rc><c>Br</c><c>   3</c></rc>
    <rc><c>Br</c><c>   3</c></rc>
    <rc><c>Br</c><c>   3</c></rc>
    <rc><c>Br</c><c>   3</c></rc>
    <rc><c>Br</c><c>   3</c></rc>
    <rc><c>Br</c><c>   3</c></rc>
    <rc><c>Br</c><c>   3</c></rc>
    <rc><c>Br</c><c>   3</c></rc>
    <rc><c>Br</c><c>   3</c></rc>
    <rc><c>Br</c><c>   3</c></rc>
    <rc><c>Br</c><c>   3</c></rc>
    <rc><c>Br</c><c>   3</c></rc>
    <rc><c>Br</c><c>   3</c></rc>
    <rc><c>Br</c><c>   3</c></rc>
    <rc><c>Br</c><c>   3</c></rc>
    <rc><c>Br</c><c>   3</c></rc>
    <rc><c>Br</c><c>   3</c></rc>
    <rc><c>Br</c><c>   3</c></rc>
    <rc><c>Br</c><c>   3</c></rc>
    <rc><c>Br</c><c>   3</c></rc>
   </set>
  </array>
  <array name="atomtypes" >
   <dimension dim="1">type</dimension>
   <field type="int">atomspertype</field>
   <field type="string">element</field>
   <field>mass</field>
   <field>valence</field>
   <field type="string">pseudopotential</field>
   <set>
    <rc><c>   8</c><c>Cs</c><c>    132.90000000</c><c>      9.00000000</c><c>  PAW_PBE Cs_sv 08Apr2002               </c></rc>
    <rc><c>   8</c><c>Pb</c><c>    207.20000000</c><c>     14.00000000</c><c>  PAW_PBE Pb_d 06Sep2000                </c></rc>
    <rc><c>  24</c><c>Br</c><c>     79.90400000</c><c>      7.00000000</c><c>  PAW_PBE Br 06Sep2000                  </c></rc>
   </set>
  </array>
 </atominfo>
 <structure name="initialpos" >
  <crystal>
   <varray name="basis" >
    <v>      11.73535200       0.00000000       0.00000000 </v>
    <v>       0.00000000      11.73535200       0.00000000 </v>
    <v>       0.00000000       0.00000000      11.73535200 </v>
   </varray>
   <i name="volume">   1616.17491673 </i>
   <varray name="rec_basis" >
    <v>       0.08521261       0.00000000       0.00000000 </v>
    <v>       0.00000000       0.08521261       0.00000000 </v>
    <v>       0.00000000       0.00000000       0.08521261 </v>
   </varray>
  </crystal>
  <varray name="positions" >
   <v>       0.25000000       0.25000000       0.25000000 </v>
   <v>       0.25000000       0.25000000       0.75000000 </v>
   <v>       0.25000000       0.75000000       0.25000000 </v>
   <v>       0.25000000       0.75000000       0.75000000 </v>
   <v>       0.75000000       0.25000000       0.25000000 </v>
   <v>       0.75000000       0.25000000       0.75000000 </v>
   <v>       0.75000000       0.75000000       0.25000000 </v>
   <v>       0.75000000       0.75000000       0.75000000 </v>
   <v>       0.00000000       0.00000000       0.00000000 </v>
   <v>       0.00000000       0.00000000       0.50000000 </v>
   <v>       0.00000000       0.50000000       0.00000000 </v>
   <v>       0.00000000       0.50000000       0.50000000 </v>
   <v>       0.50000000       0.00000000       0.00000000 </v>
   <v>       0.50000000       0.00000000       0.50000000 </v>
   <v>       0.50000000       0.50000000       0.00000000 </v>
   <v>       0.50000000       0.50000000       0.50000000 </v>
   <v>       0.00000000       0.25000000       0.00000000 </v>
   <v>       0.00000000       0.25000000       0.50000000 </v>
   <v>       0.00000000       0.75000000       0.00000000 </v>
   <v>       0.00000000       0.75000000       0.50000000 </v>
   <v>       0.50000000       0.25000000       0.00000000 </v>
   <v>       0.50000000       0.25000000       0.50000000 </v>
   <v>       0.50000000       0.75000000       0.00000000 </v>
   <v>       0.50000000       0.75000000       0.50000000 </v>
   <v>       0.00000000       0.00000000       0.25000000 </v>
   <v>       0.00000000       0.00000000       0.75000000 </v>
   <v>       0.00000000       0.50000000       0.25000000 </v>
   <v>       0.00000000       0.50000000       0.75000000 </v>
   <v>       0.50000000       0.00000000       0.25000000 </v>
   <v>       0.50000000       0.00000000       0.75000000 </v>
   <v>       0.50000000       0.50000000       0.25000000 </v>
   <v>       0.50000000       0.50000000       0.75000000 </v>
   <v>       0.25000000       0.00000000       0.00000000 </v>
   <v>       0.25000000       0.00000000       0.50000000 </v>
   <v>       0.25000000       0.50000000       0.00000000 </v>
   <v>       0.25000000       0.50000000       0.50000000 </v>
   <v>       0.75000000       0.00000000       0.00000000 </v>
   <v>       0.75000000       0.00000000       0.50000000 </v>
   <v>       0.75000000       0.50000000       0.00000000 </v>
   <v>       0.75000000       0.50000000       0.50000000 </v>
  </varray>
 </structure>
 <calculation>
  <scstep>
   <time name="dav">    8.46    8.47</time>
   <time name="total">    9.93    9.95</time>
   <energy>
    <i name="alphaZ">    892.99476195 </i>
    <i name="ewald"> -18189.34802154 </i>
    <i name="hartreedc">  -7559.37169323 </i>
    <i name="XCdc">    924.80357255 </i>
    <i name="pawpsdc">  21633.96174531 </i>
    <i name="pawaedc"> -22707.92185401 </i>
    <i name="eentropy">     -0.00213778 </i>
    <i name="bandstr">   -240.95809408 </i>
    <i name="atom">  26580.56019858 </i>
    <i name="e_fr_energy">   1334.71847775 </i>
    <i name="e_wo_entrp">   1334.72061552 </i>
    <i name="e_0_energy">   1334.71954663 </i>
   </energy>
  </scstep>
  <scstep>
   <time name="dav">    9.32    9.36</time>
   <time name="total">    9.32    9.36</time>
   <energy>
    <i name="e_fr_energy">  -1130.68371308 </i>
    <i name="e_wo_entrp">  -1130.68371308 </i>
    <i name="e_0_energy">  -1130.68371308 </i>
   </energy>
  </scstep>
  <scstep>
   <time name="dav">   10.05   10.10</time>
   <time name="total">   10.05   10.10</time>
   <energy>
    <i name="e_fr_energy">  -1494.92028797 </i>
    <i name="e_wo_entrp">  -1494.92028797 </i>
    <i name="e_0_energy">  -1494.92028797 </i>
   </energy>
  </scstep>
  <scstep>
   <time name="dav">    9.44    9.48</time>
   <time name="total">    9.44    9.48</time>
   <energy>
    <i name="e_fr_energy">  -1507.11959622 </i>
    <i name="e_wo_entrp">  -1507.11959622 </i>
    <i name="e_0_energy">  -1507.11959622 </i>
   </energy>
  </scstep>
  <scstep>
   <time name="dav">    9.84    9.86</time>
   <time name="total">   12.95   12.97</time>
   <energy>
    <i name="e_fr_energy">  -1507.61409400 </i>
    <i name="e_wo_entrp">  -1507.61409400 </i>
    <i name="e_0_energy">  -1507.61409400 </i>
   </energy>
  </scstep>
  <scstep>
   <time name="dav">    9.68    9.68</time>
   <time name="total">   14.29   14.30</time>
   <energy>
    <i name="e_fr_energy">  -1429.15450924 </i>
    <i name="e_wo_entrp">  -1429.15450924 </i>
    <i name="e_0_energy">  -1429.15450924 </i>
   </energy>
  </scstep>
  <scstep>
   <time name="dav">    9.45    9.45</time>
   <time name="total">   14.05   14.09</time>
   <energy>
    <i name="e_fr_energy">  -1428.64516549 </i>
    <i name="e_wo_entrp">  -1428.64516549 </i>
    <i name="e_0_energy">  -1428.64516549 </i>
   </energy>
  </scstep>
  <scstep>
   <time name="dav">    9.35    9.35</time>
   <time name="total">   13.98   13.99</time>
   <energy>
    <i name="e_fr_energy">  -1428.81209867 </i>
    <i name="e_wo_entrp">  -1428.81209867 </i>
    <i name="e_0_energy">  -1428.81209867 </i>
   </energy>
  </scstep>
  <scstep>
   <time name="dav">    8.81    8.81</time>
   <time name="total">   13.43   13.46</time>
   <energy>
    <i name="e_fr_energy">  -1428.89167141 </i>
    <i name="e_wo_entrp">  -1428.89167141 </i>
    <i name="e_0_energy">  -1428.89167141 </i>
   </energy>
  </scstep>
  <scstep>
   <time name="dav">   10.14   10.14</time>
   <time name="total">   14.75   14.78</time>
   <energy>
    <i name="e_fr_energy">  -1428.89272724 </i>
    <i name="e_wo_entrp">  -1428.89272724 </i>
    <i name="e_0_energy">  -1428.89272724 </i>
   </energy>
  </scstep>
  <scstep>
   <time name="dav">    9.02    9.02</time>
   <time name="total">   13.66   13.67</time>
   <energy>
    <i name="e_fr_energy">  -1428.89583840 </i>
    <i name="e_wo_entrp">  -1428.89583840 </i>
    <i name="e_0_energy">  -1428.89583840 </i>
   </energy>
  </scstep>
  <scstep>
   <time name="dav">    8.99    8.99</time>
   <time name="total">   13.61   13.64</time>
   <energy>
    <i name="e_fr_energy">  -1428.89639588 </i>
    <i name="e_wo_entrp">  -1428.89639588 </i>
    <i name="e_0_energy">  -1428.89639588 </i>
   </energy>
  </scstep>
  <scstep>
   <time name="dav">    9.70    9.70</time>
   <time name="total">   14.30   14.34</time>
   <energy>
    <i name="e_fr_energy">  -1428.89641594 </i>
    <i name="e_wo_entrp">  -1428.89641594 </i>
    <i name="e_0_energy">  -1428.89641594 </i>
   </energy>
  </scstep>
  <scstep>
   <time name="dav">    8.88    8.88</time>
   <time name="total">   13.49   13.51</time>
   <energy>
    <i name="e_fr_energy">  -1428.89644616 </i>
    <i name="e_wo_entrp">  -1428.89644616 </i>
    <i name="e_0_energy">  -1428.89644616 </i>
   </energy>
  </scstep>
  <scstep>
   <time name="dav">    6.81    6.81</time>
   <time name="total">   11.42   11.47</time>
   <energy>
    <i name="e_fr_energy">  -1428.89642930 </i>
    <i name="e_wo_entrp">  -1428.89642930 </i>
    <i name="e_0_energy">  -1428.89642930 </i>
   </energy>
  </scstep>
  <scstep>
   <time name="dav">    6.59    6.59</time>
   <time name="total">   11.24   11.25</time>
   <energy>
    <i name="e_fr_energy">  -1428.89642524 </i>
    <i name="e_wo_entrp">  -1428.89642524 </i>
    <i name="e_0_energy">  -1428.89642524 </i>
   </energy>
  </scstep>
  <scstep>
   <time name="dav">    6.51    6.51</time>
   <time name="total">   11.11   11.16</time>
   <energy>
    <i name="e_fr_energy">  -1428.89641886 </i>
    <i name="e_wo_entrp">  -1428.89641886 </i>
    <i name="e_0_energy">  -1428.89641886 </i>
   </energy>
  </scstep>
  <scstep>
   <time name="dav">    6.54    6.54</time>
   <time name="total">    8.00    8.04</time>
   <energy>
    <i name="alphaZ">    892.99476195 </i>
    <i name="ewald"> -18189.34802154 </i>
    <i name="hartreedc">  -7602.55460904 </i>
    <i name="XCdc">    964.48470839 </i>
    <i name="pawpsdc">  23346.70951330 </i>
    <i name="pawaedc"> -24421.50748431 </i>
    <i name="eentropy">     -0.00000000 </i>
    <i name="bandstr">  -3000.23548525 </i>
    <i name="atom">  26580.56019858 </i>
    <i name="e_fr_energy">  -1428.89641793 </i>
    <i name="e_wo_entrp">  -1428.89641793 </i>
    <i name="e_0_energy">  -1428.89641793 </i>
   </energy>
  </scstep>
  <structure>
   <crystal>
    <varray name="basis" >
     <v>      11.73535200       0.00000000       0.00000000 </v>
     <v>       0.00000000      11.73535200       0.00000000 </v>
     <v>       0.00000000       0.00000000      11.73535200 </v>
    </varray>
    <i name="volume">   1616.17491673 </i>
    <varray name="rec_basis" >
     <v>       0.08521261       0.00000000       0.00000000 </v>
     <v>       0.00000000       0.08521261       0.00000000 </v>
     <v>       0.00000000       0.00000000       0.08521261 </v>
    </varray>
   </crystal>
   <varray name="positions" >
    <v>       0.25000000       0.25000000       0.25000000 </v>
    <v>       0.25000000       0.25000000       0.75000000 </v>
    <v>       0.25000000       0.75000000       0.25000000 </v>
    <v>       0.25000000       0.75000000       0.75000000 </v>
    <v>       0.75000000       0.25000000       0.25000000 </v>
    <v>       0.75000000       0.25000000       0.75000000 </v>
    <v>       0.75000000       0.75000000       0.25000000 </v>
    <v>       0.75000000       0.75000000       0.75000000 </v>
    <v>       0.00000000       0.00000000       0.00000000 </v>
    <v>       0.00000000       0.00000000       0.50000000 </v>
    <v>       0.00000000       0.50000000       0.00000000 </v>
    <v>       0.00000000       0.50000000       0.50000000 </v>
    <v>       0.50000000       0.00000000       0.00000000 </v>
    <v>       0.50000000       0.00000000       0.50000000 </v>
    <v>       0.50000000       0.50000000       0.00000000 </v>
    <v>       0.50000000       0.50000000       0.50000000 </v>
    <v>       0.00000000       0.25000000       0.00000000 </v>
    <v>       0.00000000       0.25000000       0.50000000 </v>
    <v>       0.00000000       0.75000000       0.00000000 </v>
    <v>       0.00000000       0.75000000       0.50000000 </v>
    <v>       0.50000000       0.25000000       0.00000000 </v>
    <v>       0.50000000       0.25000000       0.50000000 </v>
    <v>       0.50000000       0.75000000       0.00000000 </v>
    <v>       0.50000000       0.75000000       0.50000000 </v>
    <v>       0.00000000       0.00000000       0.25000000 </v>
    <v>       0.00000000       0.00000000       0.75000000 </v>
    <v>       0.00000000       0.50000000       0.25000000 </v>
    <v>       0.00000000       0.50000000       0.75000000 </v>
    <v>       0.50000000       0.00000000       0.25000000 </v>
    <v>       0.50000000       0.00000000       0.75000000 </v>
    <v>       0.50000000       0.50000000       0.25000000 </v>
    <v>       0.50000000       0.50000000       0.75000000 </v>
    <v>       0.25000000       0.00000000       0.00000000 </v>
    <v>       0.25000000       0.00000000       0.50000000 </v>
    <v>       0.25000000       0.50000000       0.00000000 </v>
    <v>       0.25000000       0.50000000       0.50000000 </v>
    <v>       0.75000000       0.00000000       0.00000000 </v>
    <v>       0.75000000       0.00000000       0.50000000 </v>
    <v>       0.75000000       0.50000000       0.00000000 </v>
    <v>       0.75000000       0.50000000       0.50000000 </v>
   </varray>
  </structure>
  <varray name="forces" >
   <v>      -0.00000000      -0.00000000      -0.00000000 </v>
   <v>      -0.00000000      -0.00000000      -0.00000000 </v>
   <v>      -0.00000000      -0.00000000      -0.00000000 </v>
   <v>       0.00000000       0.00000000       0.00000000 </v>
   <v>       0.00000000       0.00000000       0.00000000 </v>
   <v>      -0.00000000      -0.00000000       0.00000000 </v>
   <v>       0.00000000      -0.00000000      -0.00000000 </v>
   <v>       0.00000000      -0.00000000       0.00000000 </v>
   <v>       0.00000000       0.00000000       0.00000000 </v>
   <v>       0.00000000       0.00000000       0.00000000 </v>
   <v>      -0.00000000      -0.00000000      -0.00000000 </v>
   <v>       0.00000000      -0.00000000      -0.00000000 </v>
   <v>      -0.00000000       0.00000000      -0.00000000 </v>
   <v>      -0.00000000      -0.00000000       0.00000000 </v>
   <v>       0.00000000       0.00000000       0.00000000 </v>
   <v>       0.00000000       0.00000000      -0.00000000 </v>
   <v>      -0.00000000       0.00000000      -0.00000000 </v>
   <v>      -0.00000000       0.00000000      -0.00000000 </v>
   <v>       0.00000000      -0.00000000      -0.00000000 </v>
   <v>       0.00000000      -0.00000000      -0.00000000 </v>
   <v>       0.00000000       0.00000000      -0.00000000 </v>
   <v>       0.00000000       0.00000000       0.00000000 </v>
   <v>      -0.00000000      -0.00000000      -0.00000000 </v>
   <v>      -0.00000000      -0.00000000      -0.00000000 </v>
   <v>      -0.00000000       0.00000000       0.00000000 </v>
   <v>       0.00000000      -0.00000000      -0.00000000 </v>
   <v>      -0.00000000      -0.00000000      -0.00000000 </v>
   <v>       0.00000000       0.00000000       0.00000000 </v>
   <v>      -0.00000000       0.00000000       0.00000000 </v>
   <v>       0.00000000       0.00000000      -0.00000000 </v>
   <v>      -0.00000000      -0.00000000       0.00000000 </v>
   <v>      -0.00000000      -0.00000000      -0.00000000 </v>
   <v>      -0.00000000       0.00000000       0.00000000 </v>
   <v>       0.00000000      -0.00000000       0.00000000 </v>
   <v>       0.00000000       0.00000000      -0.00000000 </v>
   <v>       0.00000000      -0.00000000      -0.00000000 </v>
   <v>       0.00000000      -0.00000000       0.00000000 </v>
   <v>       0.00000000      -0.00000000       0.00000000 </v>
   <v>      -0.00000000       0.00000000       0.00000000 </v>
   <v>      -0.00000000       0.00000000      -0.00000000 </v>
  </varray>
  <varray name="stress" >
   <v>       4.67754206      -0.00000000       0.00000000 </v>
   <v>      -0.00000000       4.67754206      -0.00000000 </v>
   <v>      -0.00000000      -0.00000000       4.67754206 </v>
  </varray>
  <energy>
   <i name="e_fr_energy">  -1428.89641793 </i>
   <i name="e_wo_entrp">  -1428.89641793 </i>
   <i name="e_0_energy">     -0.00000000 </i>
  </energy>
  <time name="totalsc">  256.39  257.02</time>
  <eigenvalues>
   <array>
    <dimension dim="1">band</dimension>
    <dimension dim="2">kpoint</dimension>
    <dimension dim="3">spin</dimension>
    <field>eigene</field>
    <field>occ</field>
    <set>
     <set comment="spin 1">
      <set comment="kpoint 1">
       <r>  -21.0929    1.0000 </r>
       <r>  -21.0919    1.0000 </r>
       <r>  -21.0919    1.0000 </r>
       <r>  -21.0919    1.0000 </r>
       <r>  -21.0910    1.0000 </r>
       <r>  -21.0910    1.0000 </r>
       <r>  -21.0910    1.0000 </r>
       <r>  -21.0897    1.0000 </r>
       <r>  -16.2783    1.0000 </r>
       <r>  -16.2783    1.0000 </r>
       <r>  -16.2783    1.0000 </r>
       <r>  -16.2783    1.0000 </r>
       <r>  -16.2783    1.0000 </r>
       <r>  -16.2416    1.0000 </r>
       <r>  -16.2416    1.0000 </r>
       <r>  -16.2416    1.0000 </r>
       <r>  -16.1996    1.0000 </r>
       <r>  -16.1996    1.0000 </r>
       <r>  -16.1996    1.0000 </r>
       <r>  -16.1498    1.0000 </r>
       <r>  -16.1498    1.0000 </r>
       <r>  -16.1498    1.0000 </r>
       <r>  -16.1493    1.0000 </r>
       <r>  -16.1493    1.0000 </r>
       <r>  -16.0500    1.0000 </r>
       <r>  -16.0500    1.0000 </r>
       <r>  -16.0500    1.0000 </r>
       <r>  -16.0497    1.0000 </r>
       <r>  -16.0497    1.0000 </r>
       <r>  -16.0497    1.0000 </r>
       <r>  -16.0490    1.0000 </r>
       <r>  -16.0490    1.0000 </r>
       <r>  -16.0490    1.0000 </r>
       <r>  -16.0490    1.0000 </r>
       <r>  -16.0490    1.0000 </r>
       <r>  -16.0490    1.0000 </r>
       <r>  -16.0488    1.0000 </r>
       <r>  -16.0488    1.0000 </r>
       <r>  -16.0488    1.0000 </r>
       <r>  -16.0488    1.0000 </r>
       <r>  -16.0488    1.0000 </r>
       <r>  -16.0488    1.0000 </r>
       <r>  -16.0477    1.0000 </r>
       <r>  -16.0477    1.0000 </r>
       <r>  -16.0477    1.0000 </r>
       <r>  -16.0476    1.0000 </r>
       <r>  -16.0476    1.0000 </r>
       <r>  -16.0476    1.0000 </r>
       <r>  -14.3949    1.0000 </r>
       <r>  -14.1601    1.0000 </r>
       <r>  -14.1601    1.0000 </r>
       <r>  -14.1601    1.0000 </r>
       <r>  -13.9909    1.0000 </r>
       <r>  -13.9909    1.0000 </r>
       <r>  -13.9909    1.0000 </r>
       <r>  -13.9909    1.0000 </r>
       <r>  -13.9909    1.0000 </r>
       <r>  -13.9909    1.0000 </r>
       <r>  -13.9897    1.0000 </r>
       <r>  -13.9897    1.0000 </r>
       <r>  -13.9897    1.0000 </r>
       <r>  -13.9864    1.0000 </r>
       <r>  -13.9864    1.0000 </r>
       <r>  -13.9864    1.0000 </r>
       <r>  -13.8980    1.0000 </r>
       <r>  -13.8980    1.0000 </r>
       <r>  -13.8980    1.0000 </r>
       <r>  -13.6175    1.0000 </r>
       <r>  -13.6175    1.0000 </r>
       <r>  -13.6158    1.0000 </r>
       <r>  -13.6158    1.0000 </r>
       <r>  -13.6158    1.0000 </r>
       <r>   -8.2685    1.0000 </r>
       <r>   -7.6398    1.0000 </r>
       <r>   -7.6398    1.0000 </r>
       <r>   -7.6398    1.0000 </r>
       <r>   -7.4767    1.0000 </r>
       <r>   -7.4767    1.0000 </r>
       <r>   -7.4767    1.0000 </r>
       <r>   -7.4512    1.0000 </r>
       <r>   -7.4512    1.0000 </r>
       <r>   -7.4512    1.0000 </r>
       <r>   -7.4512    1.0000 </r>
       <r>   -7.4512    1.0000 </r>
       <r>   -7.4512    1.0000 </r>
       <r>   -7.4418    1.0000 </r>
       <r>   -7.4418    1.0000 </r>
       <r>   -7.4418    1.0000 </r>
       <r>   -7.4287    1.0000 </r>
       <r>   -7.4287    1.0000 </r>
       <r>   -7.4287    1.0000 </r>
       <r>   -7.4287    1.0000 </r>
       <r>   -7.4287    1.0000 </r>
       <r>   -7.4287    1.0000 </r>
       <r>   -7.4285    1.0000 </r>
       <r>   -7.4285    1.0000 </r>
       <r>   -7.4285    1.0000 </r>
       <r>   -7.4189    1.0000 </r>
       <r>   -7.4189    1.0000 </r>
       <r>   -7.4189    1.0000 </r>
       <r>   -6.9638    1.0000 </r>
       <r>   -6.9638    1.0000 </r>
       <r>   -6.9638    1.0000 </r>
       <r>   -6.1689    1.0000 </r>
       <r>   -3.4322    1.0000 </r>
       <r>   -3.4322    1.0000 </r>
       <r>   -3.4322    1.0000 </r>
       <r>   -3.3347    1.0000 </r>
       <r>   -3.3347    1.0000 </r>
       <r>   -3.3347    1.0000 </r>
       <r>   -3.3347    1.0000 </r>
       <r>   -3.3347    1.0000 </r>
       <r>   -3.3347    1.0000 </r>
       <r>   -3.1837    1.0000 </r>
       <r>   -3.1837    1.0000 </r>
       <r>   -3.1837    1.0000 </r>
       <r>   -2.1435    1.0000 </r>
       <r>   -2.1435    1.0000 </r>
       <r>   -2.1435    1.0000 </r>
       <r>   -1.9540    1.0000 </r>
       <r>   -1.9540    1.0000 </r>
       <r>   -1.9540    1.0000 </r>
       <r>   -1.8712    1.0000 </r>
       <r>   -1.8712    1.0000 </r>
       <r>   -1.8712    1.0000 </r>
       <r>   -1.5242    1.0000 </r>
       <r>   -1.5242    1.0000 </r>
       <r>   -1.5242    1.0000 </r>
       <r>   -1.5242    1.0000 </r>
       <r>   -1.5242    1.0000 </r>
       <r>   -1.5242    1.0000 </r>
       <r>   -1.4549    1.0000 </r>
       <r>   -1.4549    1.0000 </r>
       <r>   -1.4549    1.0000 </r>
       <r>   -1.4549    1.0000 </r>
       <r>   -1.4549    1.0000 </r>
       <r>   -1.4549    1.0000 </r>
       <r>   -1.3798    1.0000 </r>
       <r>   -1.3798    1.0000 </r>
       <r>   -1.3798    1.0000 </r>
       <r>   -1.3798    1.0000 </r>
       <r>   -1.3798    1.0000 </r>
       <r>   -1.3798    1.0000 </r>
       <r>   -1.3663    1.0000 </r>
       <r>   -1.3663    1.0000 </r>
       <r>   -1.3663    1.0000 </r>
       <r>   -1.3175    1.0000 </r>
       <r>   -1.3175    1.0000 </r>
       <r>   -1.3175    1.0000 </r>
       <r>   -1.3112    1.0000 </r>
       <r>   -1.3112    1.0000 </r>
       <r>   -1.2381    1.0000 </r>
       <r>   -1.2381    1.0000 </r>
       <r>   -1.2381    1.0000 </r>
       <r>   -1.2256    1.0000 </r>
       <r>   -1.2256    1.0000 </r>
       <r>   -1.2256    1.0000 </r>
       <r>   -1.2256    1.0000 </r>
       <r>   -1.2256    1.0000 </r>
       <r>   -1.2256    1.0000 </r>
       <r>   -1.1166    1.0000 </r>
       <r>   -1.1166    1.0000 </r>
       <r>   -1.1166    1.0000 </r>
       <r>   -0.7532    1.0000 </r>
       <r>   -0.7532    1.0000 </r>
       <r>   -0.7532    1.0000 </r>
       <r>   -0.7412    1.0000 </r>
       <r>   -0.7412    1.0000 </r>
       <r>   -0.7412    1.0000 </r>
       <r>   -0.4446    1.0000 </r>
       <r>   -0.4446    1.0000 </r>
       <r>   -0.4446    1.0000 </r>
       <r>    0.3112    1.0000 </r>
       <r>    0.3112    1.0000 </r>
       <r>    0.3112    1.0000 </r>
       <r>    1.0359    1.0000 </r>
       <r>    2.8391    0.0000 </r>
       <r>    2.8391    0.0000 </r>
       <r>    2.8391    0.0000 </r>
       <r>    3.3709    0.0000 </r>
       <r>    3.3709    0.0000 </r>
       <r>    3.3709    0.0000 </r>
       <r>    3.3709    0.0000 </r>
       <r>    3.3709    0.0000 </r>
       <r>    3.3709    0.0000 </r>
       <r>    3.8430    0.0000 </r>
       <r>    3.8430    0.0000 </r>
       <r>    3.8430    0.0000 </r>
       <r>    4.5404    0.0000 </r>
       <r>    5.5342    0.0000 </r>
       <r>    5.5342    0.0000 </r>
       <r>    5.9833    0.0000 </r>
       <r>    5.9833    0.0000 </r>
       <r>    5.9833    0.0000 </r>
       <r>    6.1261    0.0000 </r>
       <r>    6.2324    0.0000 </r>
       <r>    6.2324    0.0000 </r>
       <r>    6.2324    0.0000 </r>
       <r>    6.4061    0.0000 </r>
       <r>    6.4061    0.0000 </r>
       <r>    6.4061    0.0000 </r>
       <r>    6.5471    0.0000 </r>
       <r>    6.5472    0.0000 </r>
       <r>    6.5472    0.0000 </r>
       <r>    6.5837    0.0000 </r>
       <r>    6.5838    0.0000 </r>
       <r>    6.5839    0.0000 </r>
       <r>    6.6841    0.0000 </r>
       <r>    6.6841    0.0000 </r>
       <r>    6.6844    0.0000 </r>
       <r>    6.7039    0.0000 </r>
       <r>    6.7074    0.0000 </r>
       <r>    6.7275    0.0000 </r>
       <r>    6.7333    0.0000 </r>
       <r>    6.7454    0.0000 </r>
       <r>    6.7733    0.0000 </r>
      </set>
      <set comment="kpoint 2">
       <r>  -21.0925    1.0000 </r>
       <r>  -21.0925    1.0000 </r>
       <r>  -21.0912    1.0000 </r>
       <r>  -21.0912    1.0000 </r>
       <r>  -21.0912    1.0000 </r>
       <r>  -21.0912    1.0000 </r>
       <r>  -21.0905    1.0000 </r>
       <r>  -21.0905    1.0000 </r>
       <r>  -16.2785    1.0000 </r>
       <r>  -16.2785    1.0000 </r>
       <r>  -16.2545    1.0000 </r>
       <r>  -16.2545    1.0000 </r>
       <r>  -16.2545    1.0000 </r>
       <r>  -16.2545    1.0000 </r>
       <r>  -16.2396    1.0000 </r>
       <r>  -16.2396    1.0000 </r>
       <r>  -16.1969    1.0000 </r>
       <r>  -16.1969    1.0000 </r>
       <r>  -16.1808    1.0000 </r>
       <r>  -16.1808    1.0000 </r>
       <r>  -16.1808    1.0000 </r>
       <r>  -16.1808    1.0000 </r>
       <r>  -16.1496    1.0000 </r>
       <r>  -16.1496    1.0000 </r>
       <r>  -16.0501    1.0000 </r>
       <r>  -16.0501    1.0000 </r>
       <r>  -16.0494    1.0000 </r>
       <r>  -16.0494    1.0000 </r>
       <r>  -16.0494    1.0000 </r>
       <r>  -16.0494    1.0000 </r>
       <r>  -16.0493    1.0000 </r>
       <r>  -16.0493    1.0000 </r>
       <r>  -16.0493    1.0000 </r>
       <r>  -16.0493    1.0000 </r>
       <r>  -16.0487    1.0000 </r>
       <r>  -16.0487    1.0000 </r>
       <r>  -16.0487    1.0000 </r>
       <r>  -16.0487    1.0000 </r>
       <r>  -16.0483    1.0000 </r>
       <r>  -16.0483    1.0000 </r>
       <r>  -16.0483    1.0000 </r>
       <r>  -16.0483    1.0000 </r>
       <r>  -16.0481    1.0000 </r>
       <r>  -16.0481    1.0000 </r>
       <r>  -16.0481    1.0000 </r>
       <r>  -16.0481    1.0000 </r>
       <r>  -16.0479    1.0000 </r>
       <r>  -16.0479    1.0000 </r>
       <r>  -14.3220    1.0000 </r>
       <r>  -14.3220    1.0000 </r>
       <r>  -14.1108    1.0000 </r>
       <r>  -14.1108    1.0000 </r>
       <r>  -14.1108    1.0000 </r>
       <r>  -14.1108    1.0000 </r>
       <r>  -13.9903    1.0000 </r>
       <r>  -13.9903    1.0000 </r>
       <r>  -13.9903    1.0000 </r>
       <r>  -13.9903    1.0000 </r>
       <r>  -13.9887    1.0000 </r>
       <r>  -13.9887    1.0000 </r>
       <r>  -13.9887    1.0000 </r>
       <r>  -13.9887    1.0000 </r>
       <r>  -13.9408    1.0000 </r>
       <r>  -13.9408    1.0000 </r>
       <r>  -13.7583    1.0000 </r>
       <r>  -13.7583    1.0000 </r>
       <r>  -13.7202    1.0000 </r>
       <r>  -13.7202    1.0000 </r>
       <r>  -13.7202    1.0000 </r>
       <r>  -13.7202    1.0000 </r>
       <r>  -13.6167    1.0000 </r>
       <r>  -13.6167    1.0000 </r>
       <r>   -7.9879    1.0000 </r>
       <r>   -7.9879    1.0000 </r>
       <r>   -7.4640    1.0000 </r>
       <r>   -7.4640    1.0000 </r>
       <r>   -7.4640    1.0000 </r>
       <r>   -7.4640    1.0000 </r>
       <r>   -7.4482    1.0000 </r>
       <r>   -7.4482    1.0000 </r>
       <r>   -7.4406    1.0000 </r>
       <r>   -7.4406    1.0000 </r>
       <r>   -7.4406    1.0000 </r>
       <r>   -7.4406    1.0000 </r>
       <r>   -7.4399    1.0000 </r>
       <r>   -7.4399    1.0000 </r>
       <r>   -7.4399    1.0000 </r>
       <r>   -7.4399    1.0000 </r>
       <r>   -7.4354    1.0000 </r>
       <r>   -7.4354    1.0000 </r>
       <r>   -7.4354    1.0000 </r>
       <r>   -7.4354    1.0000 </r>
       <r>   -7.4348    1.0000 </r>
       <r>   -7.4348    1.0000 </r>
       <r>   -7.4237    1.0000 </r>
       <r>   -7.4237    1.0000 </r>
       <r>   -7.4237    1.0000 </r>
       <r>   -7.4237    1.0000 </r>
       <r>   -7.3481    1.0000 </r>
       <r>   -7.3481    1.0000 </r>
       <r>   -7.3481    1.0000 </r>
       <r>   -7.3481    1.0000 </r>
       <r>   -6.6419    1.0000 </r>
       <r>   -6.6419    1.0000 </r>
       <r>   -3.3851    1.0000 </r>
       <r>   -3.3851    1.0000 </r>
       <r>   -3.3851    1.0000 </r>
       <r>   -3.3851    1.0000 </r>
       <r>   -3.2633    1.0000 </r>
       <r>   -3.2633    1.0000 </r>
       <r>   -3.2633    1.0000 </r>
       <r>   -3.2633    1.0000 </r>
       <r>   -2.4515    1.0000 </r>
       <r>   -2.4515    1.0000 </r>
       <r>   -2.4138    1.0000 </r>
       <r>   -2.4138    1.0000 </r>
       <r>   -2.4138    1.0000 </r>
       <r>   -2.4138    1.0000 </r>
       <r>   -2.2737    1.0000 </r>
       <r>   -2.2737    1.0000 </r>
       <r>   -2.0495    1.0000 </r>
       <r>   -2.0495    1.0000 </r>
       <r>   -2.0155    1.0000 </r>
       <r>   -2.0155    1.0000 </r>
       <r>   -2.0155    1.0000 </r>
       <r>   -2.0155    1.0000 </r>
       <r>   -1.8377    1.0000 </r>
       <r>   -1.8377    1.0000 </r>
       <r>   -1.8377    1.0000 </r>
       <r>   -1.8377    1.0000 </r>
       <r>   -1.5416    1.0000 </r>
       <r>   -1.5416    1.0000 </r>
       <r>   -1.5416    1.0000 </r>
       <r>   -1.5416    1.0000 </r>
       <r>   -1.4176    1.0000 </r>
       <r>   -1.4176    1.0000 </r>
       <r>   -1.4176    1.0000 </r>
       <r>   -1.4176    1.0000 </r>
       <r>   -1.3364    1.0000 </r>
       <r>   -1.3364    1.0000 </r>
       <r>   -1.3364    1.0000 </r>
       <r>   -1.3364    1.0000 </r>
       <r>   -1.3144    1.0000 </r>
       <r>   -1.3144    1.0000 </r>
       <r>   -1.3037    1.0000 </r>
       <r>   -1.3037    1.0000 </r>
       <r>   -1.3029    1.0000 </r>
       <r>   -1.3029    1.0000 </r>
       <r>   -1.3029    1.0000 </r>
       <r>   -1.3029    1.0000 </r>
       <r>   -1.2435    1.0000 </r>
       <r>   -1.2435    1.0000 </r>
       <r>   -1.2435    1.0000 </r>
       <r>   -1.2435    1.0000 </r>
       <r>   -1.1765    1.0000 </r>
       <r>   -1.1765    1.0000 </r>
       <r>   -1.1765    1.0000 </r>
       <r>   -1.1765    1.0000 </r>
       <r>   -1.0741    1.0000 </r>
       <r>   -1.0741    1.0000 </r>
       <r>   -1.0074    1.0000 </r>
       <r>   -1.0074    1.0000 </r>
       <r>   -1.0074    1.0000 </r>
       <r>   -1.0074    1.0000 </r>
       <r>   -0.9661    1.0000 </r>
       <r>   -0.9661    1.0000 </r>
       <r>   -0.9661    1.0000 </r>
       <r>   -0.9661    1.0000 </r>
       <r>   -0.7472    1.0000 </r>
       <r>   -0.7472    1.0000 </r>
       <r>   -0.2666    1.0000 </r>
       <r>   -0.2666    1.0000 </r>
       <r>   -0.2666    1.0000 </r>
       <r>   -0.2666    1.0000 </r>
       <r>    0.4627    1.0000 </r>
       <r>    0.4627    1.0000 </r>
       <r>    3.1100    0.0000 </r>
       <r>    3.1100    0.0000 </r>
       <r>    3.1100    0.0000 </r>
       <r>    3.1100    0.0000 </r>
       <r>    3.6070    0.0000 </r>
       <r>    3.6070    0.0000 </r>
       <r>    3.6070    0.0000 </r>
       <r>    3.6070    0.0000 </r>
       <r>    4.6390    0.0000 </r>
       <r>    4.6390    0.0000 </r>
       <r>    5.1055    0.0000 </r>
       <r>    5.1055    0.0000 </r>
       <r>    5.1273    0.0000 </r>
       <r>    5.1273    0.0000 </r>
       <r>    5.1273    0.0000 </r>
       <r>    5.1273    0.0000 </r>
       <r>    5.6288    0.0000 </r>
       <r>    5.6288    0.0000 </r>
       <r>    5.9299    0.0000 </r>
       <r>    5.9299    0.0000 </r>
       <r>    5.9924    0.0000 </r>
       <r>    5.9924    0.0000 </r>
       <r>    6.4091    0.0000 </r>
       <r>    6.4091    0.0000 </r>
       <r>    6.4092    0.0000 </r>
       <r>    6.4092    0.0000 </r>
       <r>    6.4583    0.0000 </r>
       <r>    6.4583    0.0000 </r>
       <r>    6.4583    0.0000 </r>
       <r>    6.4583    0.0000 </r>
       <r>    6.5712    0.0000 </r>
       <r>    6.5713    0.0000 </r>
       <r>    6.6177    0.0000 </r>
       <r>    6.6208    0.0000 </r>
       <r>    6.6396    0.0000 </r>
       <r>    6.6397    0.0000 </r>
       <r>    6.6436    0.0000 </r>
       <r>    6.6602    0.0000 </r>
       <r>    6.7263    0.0000 </r>
       <r>    6.7268    0.0000 </r>
      </set>
      <set comment="kpoint 3">
       <r>  -21.0919    1.0000 </r>
       <r>  -21.0919    1.0000 </r>
       <r>  -21.0919    1.0000 </r>
       <r>  -21.0919    1.0000 </r>
       <r>  -21.0909    1.0000 </r>
       <r>  -21.0909    1.0000 </r>
       <r>  -21.0909    1.0000 </r>
       <r>  -21.0909    1.0000 </r>
       <r>  -16.2597    1.0000 </r>
       <r>  -16.2597    1.0000 </r>
       <r>  -16.2597    1.0000 </r>
       <r>  -16.2597    1.0000 </r>
       <r>  -16.2177    1.0000 </r>
       <r>  -16.2177    1.0000 </r>
       <r>  -16.2177    1.0000 </r>
       <r>  -16.2177    1.0000 </r>
       <r>  -16.2177    1.0000 </r>
       <r>  -16.2177    1.0000 </r>
       <r>  -16.2177    1.0000 </r>
       <r>  -16.2177    1.0000 </r>
       <r>  -16.1743    1.0000 </r>
       <r>  -16.1743    1.0000 </r>
       <r>  -16.1743    1.0000 </r>
       <r>  -16.1743    1.0000 </r>
       <r>  -16.0494    1.0000 </r>
       <r>  -16.0494    1.0000 </r>
       <r>  -16.0494    1.0000 </r>
       <r>  -16.0494    1.0000 </r>
       <r>  -16.0494    1.0000 </r>
       <r>  -16.0494    1.0000 </r>
       <r>  -16.0494    1.0000 </r>
       <r>  -16.0494    1.0000 </r>
       <r>  -16.0489    1.0000 </r>
       <r>  -16.0489    1.0000 </r>
       <r>  -16.0489    1.0000 </r>
       <r>  -16.0489    1.0000 </r>
       <r>  -16.0488    1.0000 </r>
       <r>  -16.0488    1.0000 </r>
       <r>  -16.0488    1.0000 </r>
       <r>  -16.0488    1.0000 </r>
       <r>  -16.0483    1.0000 </r>
       <r>  -16.0483    1.0000 </r>
       <r>  -16.0483    1.0000 </r>
       <r>  -16.0483    1.0000 </r>
       <r>  -16.0482    1.0000 </r>
       <r>  -16.0482    1.0000 </r>
       <r>  -16.0482    1.0000 </r>
       <r>  -16.0482    1.0000 </r>
       <r>  -14.2589    1.0000 </r>
       <r>  -14.2589    1.0000 </r>
       <r>  -14.2589    1.0000 </r>
       <r>  -14.2589    1.0000 </r>
       <r>  -14.0780    1.0000 </r>
       <r>  -14.0780    1.0000 </r>
       <r>  -14.0780    1.0000 </r>
       <r>  -14.0780    1.0000 </r>
       <r>  -13.9895    1.0000 </r>
       <r>  -13.9895    1.0000 </r>
       <r>  -13.9895    1.0000 </r>
       <r>  -13.9895    1.0000 </r>
       <r>  -13.8041    1.0000 </r>
       <r>  -13.8041    1.0000 </r>
       <r>  -13.8041    1.0000 </r>
       <r>  -13.8041    1.0000 </r>
       <r>  -13.8009    1.0000 </r>
       <r>  -13.8009    1.0000 </r>
       <r>  -13.8009    1.0000 </r>
       <r>  -13.8009    1.0000 </r>
       <r>  -13.6951    1.0000 </r>
       <r>  -13.6951    1.0000 </r>
       <r>  -13.6951    1.0000 </r>
       <r>  -13.6951    1.0000 </r>
       <r>   -7.7068    1.0000 </r>
       <r>   -7.7068    1.0000 </r>
       <r>   -7.7068    1.0000 </r>
       <r>   -7.7068    1.0000 </r>
       <r>   -7.4527    1.0000 </r>
       <r>   -7.4527    1.0000 </r>
       <r>   -7.4527    1.0000 </r>
       <r>   -7.4527    1.0000 </r>
       <r>   -7.4517    1.0000 </r>
       <r>   -7.4517    1.0000 </r>
       <r>   -7.4517    1.0000 </r>
       <r>   -7.4517    1.0000 </r>
       <r>   -7.4455    1.0000 </r>
       <r>   -7.4455    1.0000 </r>
       <r>   -7.4455    1.0000 </r>
       <r>   -7.4455    1.0000 </r>
       <r>   -7.4353    1.0000 </r>
       <r>   -7.4353    1.0000 </r>
       <r>   -7.4353    1.0000 </r>
       <r>   -7.4353    1.0000 </r>
       <r>   -7.4295    1.0000 </r>
       <r>   -7.4295    1.0000 </r>
       <r>   -7.4295    1.0000 </r>
       <r>   -7.4295    1.0000 </r>
       <r>   -7.4293    1.0000 </r>
       <r>   -7.4293    1.0000 </r>
       <r>   -7.4293    1.0000 </r>
       <r>   -7.4293    1.0000 </r>
       <r>   -7.0505    1.0000 </r>
       <r>   -7.0505    1.0000 </r>
       <r>   -7.0505    1.0000 </r>
       <r>   -7.0505    1.0000 </r>
       <r>   -3.3269    1.0000 </r>
       <r>   -3.3269    1.0000 </r>
       <r>   -3.3269    1.0000 </r>
       <r>   -3.3269    1.0000 </r>
       <r>   -2.6431    1.0000 </r>
       <r>   -2.6431    1.0000 </r>
       <r>   -2.6431    1.0000 </r>
       <r>   -2.6431    1.0000 </r>
       <r>   -2.4961    1.0000 </r>
       <r>   -2.4961    1.0000 </r>
       <r>   -2.4961    1.0000 </r>
       <r>   -2.4961    1.0000 </r>
       <r>   -2.2624    1.0000 </r>
       <r>   -2.2624    1.0000 </r>
       <r>   -2.2624    1.0000 </r>
       <r>   -2.2624    1.0000 </r>
       <r>   -2.2250    1.0000 </r>
       <r>   -2.2250    1.0000 </r>
       <r>   -2.2250    1.0000 </r>
       <r>   -2.2250    1.0000 </r>
       <r>   -2.0042    1.0000 </r>
       <r>   -2.0042    1.0000 </r>
       <r>   -2.0042    1.0000 </r>
       <r>   -2.0042    1.0000 </r>
       <r>   -1.8020    1.0000 </r>
       <r>   -1.8020    1.0000 </r>
       <r>   -1.8020    1.0000 </r>
       <r>   -1.8020    1.0000 </r>
       <r>   -1.5859    1.0000 </r>
       <r>   -1.5859    1.0000 </r>
       <r>   -1.5859    1.0000 </r>
       <r>   -1.5859    1.0000 </r>
       <r>   -1.5593    1.0000 </r>
       <r>   -1.5593    1.0000 </r>
       <r>   -1.5593    1.0000 </r>
       <r>   -1.5593    1.0000 </r>
       <r>   -1.3502    1.0000 </r>
       <r>   -1.3502    1.0000 </r>
       <r>   -1.3502    1.0000 </r>
       <r>   -1.3502    1.0000 </r>
       <r>   -1.2646    1.0000 </r>
       <r>   -1.2646    1.0000 </r>
       <r>   -1.2646    1.0000 </r>
       <r>   -1.2646    1.0000 </r>
       <r>   -1.2237    1.0000 </r>
       <r>   -1.2237    1.0000 </r>
       <r>   -1.2237    1.0000 </r>
       <r>   -1.2237    1.0000 </r>
       <r>   -1.0744    1.0000 </r>
       <r>   -1.0744    1.0000 </r>
       <r>   -1.0744    1.0000 </r>
       <r>   -1.0744    1.0000 </r>
       <r>   -1.0233    1.0000 </r>
       <r>   -1.0233    1.0000 </r>
       <r>   -1.0233    1.0000 </r>
       <r>   -1.0233    1.0000 </r>
       <r>   -0.9950    1.0000 </r>
       <r>   -0.9950    1.0000 </r>
       <r>   -0.9950    1.0000 </r>
       <r>   -0.9950    1.0000 </r>
       <r>   -0.9844    1.0000 </r>
       <r>   -0.9844    1.0000 </r>
       <r>   -0.9844    1.0000 </r>
       <r>   -0.9844    1.0000 </r>
       <r>   -0.9156    1.0000 </r>
       <r>   -0.9156    1.0000 </r>
       <r>   -0.9156    1.0000 </r>
       <r>   -0.9156    1.0000 </r>
       <r>   -0.1325    1.0000 </r>
       <r>   -0.1325    1.0000 </r>
       <r>   -0.1325    1.0000 </r>
       <r>   -0.1325    1.0000 </r>
       <r>    3.3602    0.0000 </r>
       <r>    3.3602    0.0000 </r>
       <r>    3.3602    0.0000 </r>
       <r>    3.3602    0.0000 </r>
       <r>    4.8081    0.0000 </r>
       <r>    4.8081    0.0000 </r>
       <r>    4.8081    0.0000 </r>
       <r>    4.8081    0.0000 </r>
       <r>    4.9042    0.0000 </r>
       <r>    4.9042    0.0000 </r>
       <r>    4.9042    0.0000 </r>
       <r>    4.9042    0.0000 </r>
       <r>    5.2484    0.0000 </r>
       <r>    5.2484    0.0000 </r>
       <r>    5.2484    0.0000 </r>
       <r>    5.2484    0.0000 </r>
       <r>    5.2820    0.0000 </r>
       <r>    5.2820    0.0000 </r>
       <r>    5.2820    0.0000 </r>
       <r>    5.2820    0.0000 </r>
       <r>    5.7531    0.0000 </r>
       <r>    5.7531    0.0000 </r>
       <r>    5.7531    0.0000 </r>
       <r>    5.7531    0.0000 </r>
       <r>    6.2875    0.0000 </r>
       <r>    6.2875    0.0000 </r>
       <r>    6.2875    0.0000 </r>
       <r>    6.2875    0.0000 </r>
       <r>    6.3677    0.0000 </r>
       <r>    6.3677    0.0000 </r>
       <r>    6.3677    0.0000 </r>
       <r>    6.3677    0.0000 </r>
       <r>    6.4037    0.0000 </r>
       <r>    6.4037    0.0000 </r>
       <r>    6.4037    0.0000 </r>
       <r>    6.4037    0.0000 </r>
       <r>    6.5031    0.0000 </r>
       <r>    6.5031    0.0000 </r>
       <r>    6.5031    0.0000 </r>
       <r>    6.5039    0.0000 </r>
      </set>
      <set comment="kpoint 4">
       <r>  -21.0914    1.0000 </r>
       <r>  -21.0914    1.0000 </r>
       <r>  -21.0914    1.0000 </r>
       <r>  -21.0914    1.0000 </r>
       <r>  -21.0914    1.0000 </r>
       <r>  -21.0914    1.0000 </r>
       <r>  -21.0914    1.0000 </r>
       <r>  -21.0914    1.0000 </r>
       <r>  -16.2178    1.0000 </r>
       <r>  -16.2178    1.0000 </r>
       <r>  -16.2178    1.0000 </r>
       <r>  -16.2178    1.0000 </r>
       <r>  -16.2178    1.0000 </r>
       <r>  -16.2178    1.0000 </r>
       <r>  -16.2178    1.0000 </r>
       <r>  -16.2178    1.0000 </r>
       <r>  -16.2178    1.0000 </r>
       <r>  -16.2178    1.0000 </r>
       <r>  -16.2178    1.0000 </r>
       <r>  -16.2178    1.0000 </r>
       <r>  -16.2178    1.0000 </r>
       <r>  -16.2178    1.0000 </r>
       <r>  -16.2178    1.0000 </r>
       <r>  -16.2178    1.0000 </r>
       <r>  -16.0489    1.0000 </r>
       <r>  -16.0489    1.0000 </r>
       <r>  -16.0489    1.0000 </r>
       <r>  -16.0489    1.0000 </r>
       <r>  -16.0489    1.0000 </r>
       <r>  -16.0489    1.0000 </r>
       <r>  -16.0489    1.0000 </r>
       <r>  -16.0489    1.0000 </r>
       <r>  -16.0488    1.0000 </r>
       <r>  -16.0488    1.0000 </r>
       <r>  -16.0488    1.0000 </r>
       <r>  -16.0488    1.0000 </r>
       <r>  -16.0488    1.0000 </r>
       <r>  -16.0488    1.0000 </r>
       <r>  -16.0488    1.0000 </r>
       <r>  -16.0488    1.0000 </r>
       <r>  -16.0488    1.0000 </r>
       <r>  -16.0488    1.0000 </r>
       <r>  -16.0488    1.0000 </r>
       <r>  -16.0488    1.0000 </r>
       <r>  -16.0488    1.0000 </r>
       <r>  -16.0488    1.0000 </r>
       <r>  -16.0488    1.0000 </r>
       <r>  -16.0488    1.0000 </r>
       <r>  -14.2070    1.0000 </r>
       <r>  -14.2070    1.0000 </r>
       <r>  -14.2070    1.0000 </r>
       <r>  -14.2070    1.0000 </r>
       <r>  -14.2070    1.0000 </r>
       <r>  -14.2070    1.0000 </r>
       <r>  -14.2070    1.0000 </r>
       <r>  -14.2070    1.0000 </r>
       <r>  -13.8025    1.0000 </r>
       <r>  -13.8025    1.0000 </r>
       <r>  -13.8025    1.0000 </r>
       <r>  -13.8025    1.0000 </r>
       <r>  -13.8025    1.0000 </r>
       <r>  -13.8025    1.0000 </r>
       <r>  -13.8025    1.0000 </r>
       <r>  -13.8025    1.0000 </r>
       <r>  -13.8025    1.0000 </r>
       <r>  -13.8025    1.0000 </r>
       <r>  -13.8025    1.0000 </r>
       <r>  -13.8025    1.0000 </r>
       <r>  -13.8025    1.0000 </r>
       <r>  -13.8025    1.0000 </r>
       <r>  -13.8025    1.0000 </r>
       <r>  -13.8025    1.0000 </r>
       <r>   -7.4491    1.0000 </r>
       <r>   -7.4491    1.0000 </r>
       <r>   -7.4491    1.0000 </r>
       <r>   -7.4491    1.0000 </r>
       <r>   -7.4491    1.0000 </r>
       <r>   -7.4491    1.0000 </r>
       <r>   -7.4491    1.0000 </r>
       <r>   -7.4491    1.0000 </r>
       <r>   -7.4491    1.0000 </r>
       <r>   -7.4491    1.0000 </r>
       <r>   -7.4491    1.0000 </r>
       <r>   -7.4491    1.0000 </r>
       <r>   -7.4491    1.0000 </r>
       <r>   -7.4491    1.0000 </r>
       <r>   -7.4491    1.0000 </r>
       <r>   -7.4491    1.0000 </r>
       <r>   -7.4253    1.0000 </r>
       <r>   -7.4253    1.0000 </r>
       <r>   -7.4253    1.0000 </r>
       <r>   -7.4253    1.0000 </r>
       <r>   -7.4253    1.0000 </r>
       <r>   -7.4253    1.0000 </r>
       <r>   -7.4253    1.0000 </r>
       <r>   -7.4253    1.0000 </r>
       <r>   -7.4206    1.0000 </r>
       <r>   -7.4206    1.0000 </r>
       <r>   -7.4206    1.0000 </r>
       <r>   -7.4206    1.0000 </r>
       <r>   -7.4206    1.0000 </r>
       <r>   -7.4206    1.0000 </r>
       <r>   -7.4206    1.0000 </r>
       <r>   -7.4206    1.0000 </r>
       <r>   -2.5769    1.0000 </r>
       <r>   -2.5769    1.0000 </r>
       <r>   -2.5769    1.0000 </r>
       <r>   -2.5769    1.0000 </r>
       <r>   -2.5769    1.0000 </r>
       <r>   -2.5769    1.0000 </r>
       <r>   -2.5769    1.0000 </r>
       <r>   -2.5769    1.0000 </r>
       <r>   -2.5769    1.0000 </r>
       <r>   -2.5769    1.0000 </r>
       <r>   -2.5769    1.0000 </r>
       <r>   -2.5769    1.0000 </r>
       <r>   -2.5769    1.0000 </r>
       <r>   -2.5769    1.0000 </r>
       <r>   -2.5769    1.0000 </r>
       <r>   -2.5769    1.0000 </r>
       <r>   -2.1597    1.0000 </r>
       <r>   -2.1597    1.0000 </r>
       <r>   -2.1597    1.0000 </r>
       <r>   -2.1597    1.0000 </r>
       <r>   -2.1597    1.0000 </r>
       <r>   -2.1597    1.0000 </r>
       <r>   -2.1597    1.0000 </r>
       <r>   -2.1597    1.0000 </r>
       <r>   -1.6325    1.0000 </r>
       <r>   -1.6325    1.0000 </r>
       <r>   -1.6325    1.0000 </r>
       <r>   -1.6325    1.0000 </r>
       <r>   -1.6325    1.0000 </r>
       <r>   -1.6325    1.0000 </r>
       <r>   -1.6325    1.0000 </r>
       <r>   -1.6325    1.0000 </r>
       <r>   -1.6325    1.0000 </r>
       <r>   -1.6325    1.0000 </r>
       <r>   -1.6325    1.0000 </r>
       <r>   -1.6325    1.0000 </r>
       <r>   -1.6325    1.0000 </r>
       <r>   -1.6325    1.0000 </r>
       <r>   -1.6325    1.0000 </r>
       <r>   -1.6325    1.0000 </r>
       <r>   -1.0114    1.0000 </r>
       <r>   -1.0114    1.0000 </r>
       <r>   -1.0114    1.0000 </r>
       <r>   -1.0114    1.0000 </r>
       <r>   -1.0114    1.0000 </r>
       <r>   -1.0114    1.0000 </r>
       <r>   -1.0114    1.0000 </r>
       <r>   -1.0114    1.0000 </r>
       <r>   -1.0114    1.0000 </r>
       <r>   -1.0114    1.0000 </r>
       <r>   -1.0114    1.0000 </r>
       <r>   -1.0114    1.0000 </r>
       <r>   -1.0114    1.0000 </r>
       <r>   -1.0114    1.0000 </r>
       <r>   -1.0114    1.0000 </r>
       <r>   -1.0114    1.0000 </r>
       <r>   -1.0026    1.0000 </r>
       <r>   -1.0026    1.0000 </r>
       <r>   -1.0026    1.0000 </r>
       <r>   -1.0026    1.0000 </r>
       <r>   -1.0026    1.0000 </r>
       <r>   -1.0026    1.0000 </r>
       <r>   -1.0026    1.0000 </r>
       <r>   -1.0026    1.0000 </r>
       <r>   -0.9816    1.0000 </r>
       <r>   -0.9816    1.0000 </r>
       <r>   -0.9816    1.0000 </r>
       <r>   -0.9816    1.0000 </r>
       <r>   -0.9816    1.0000 </r>
       <r>   -0.9816    1.0000 </r>
       <r>   -0.9816    1.0000 </r>
       <r>   -0.9816    1.0000 </r>
       <r>    5.0120    0.0000 </r>
       <r>    5.0120    0.0000 </r>
       <r>    5.0120    0.0000 </r>
       <r>    5.0120    0.0000 </r>
       <r>    5.0120    0.0000 </r>
       <r>    5.0120    0.0000 </r>
       <r>    5.0120    0.0000 </r>
       <r>    5.0120    0.0000 </r>
       <r>    5.0120    0.0000 </r>
       <r>    5.0120    0.0000 </r>
       <r>    5.0120    0.0000 </r>
       <r>    5.0120    0.0000 </r>
       <r>    5.0120    0.0000 </r>
       <r>    5.0120    0.0000 </r>
       <r>    5.0120    0.0000 </r>
       <r>    5.0120    0.0000 </r>
       <r>    5.0814    0.0000 </r>
       <r>    5.0814    0.0000 </r>
       <r>    5.0814    0.0000 </r>
       <r>    5.0814    0.0000 </r>
       <r>    5.0814    0.0000 </r>
       <r>    5.0814    0.0000 </r>
       <r>    5.0814    0.0000 </r>
       <r>    5.0814    0.0000 </r>
       <r>    6.0354    0.0000 </r>
       <r>    6.0354    0.0000 </r>
       <r>    6.0354    0.0000 </r>
       <r>    6.0354    0.0000 </r>
       <r>    6.0354    0.0000 </r>
       <r>    6.0354    0.0000 </r>
       <r>    6.0354    0.0000 </r>
       <r>    6.0354    0.0000 </r>
       <r>    6.5613    0.0000 </r>
       <r>    6.5613    0.0000 </r>
       <r>    6.5613    0.0000 </r>
       <r>    6.5613    0.0000 </r>
       <r>    6.5613    0.0000 </r>
       <r>    6.5613    0.0000 </r>
       <r>    6.5613    0.0000 </r>
       <r>    6.5613    0.0000 </r>
      </set>
     </set>
    </set>
   </array>
  </eigenvalues>
  <separator name="orbital magnetization" >
   <v name="MAGDIPOLOUT">      0.00000000      0.00000000      0.00000000</v>
  </separator>
  <dos>
   <i name="efermi">      1.14199645 </i>
   <total>
    <array>
     <dimension dim="1">gridpoints</dimension>
     <dimension dim="2">spin</dimension>
     <field>energy</field>
     <field>total</field>
     <field>integrated</field>
     <set>
      <set comment="spin 1">
       <r>   -22.4862     0.0000     0.0000 </r>
       <r>   -22.3840     0.0000     0.0000 </r>
       <r>   -22.2819     0.0000     0.0000 </r>
       <r>   -22.1797     0.0000     0.0000 </r>
       <r>   -22.0775     0.0000     0.0000 </r>
       <r>   -21.9753     0.0000     0.0000 </r>
       <r>   -21.8732     0.0000     0.0000 </r>
       <r>   -21.7710     0.0000     0.0000 </r>
       <r>   -21.6688     0.0000     0.0000 </r>
       <r>   -21.5666     0.0000     0.0000 </r>
       <r>   -21.4645     0.0000     0.0000 </r>
       <r>   -21.3623     0.0000     0.0000 </r>
       <r>   -21.2601     0.0000     0.0000 </r>
       <r>   -21.1579     0.0000     0.0000 </r>
       <r>   -21.0558   156.5924    16.0000 </r>
       <r>   -20.9536     0.0000    16.0000 </r>
       <r>   -20.8514     0.0000    16.0000 </r>
       <r>   -20.7492     0.0000    16.0000 </r>
       <r>   -20.6471     0.0000    16.0000 </r>
       <r>   -20.5449     0.0000    16.0000 </r>
       <r>   -20.4427     0.0000    16.0000 </r>
       <r>   -20.3405     0.0000    16.0000 </r>
       <r>   -20.2384     0.0000    16.0000 </r>
       <r>   -20.1362     0.0000    16.0000 </r>
       <r>   -20.0340     0.0000    16.0000 </r>
       <r>   -19.9318     0.0000    16.0000 </r>
       <r>   -19.8296     0.0000    16.0000 </r>
       <r>   -19.7275     0.0000    16.0000 </r>
       <r>   -19.6253     0.0000    16.0000 </r>
       <r>   -19.5231     0.0000    16.0000 </r>
       <r>   -19.4209     0.0000    16.0000 </r>
       <r>   -19.3188     0.0000    16.0000 </r>
       <r>   -19.2166     0.0000    16.0000 </r>
       <r>   -19.1144     0.0000    16.0000 </r>
       <r>   -19.0122     0.0000    16.0000 </r>
       <r>   -18.9101     0.0000    16.0000 </r>
       <r>   -18.8079     0.0000    16.0000 </r>
       <r>   -18.7057     0.0000    16.0000 </r>
       <r>   -18.6035     0.0000    16.0000 </r>
       <r>   -18.5014     0.0000    16.0000 </r>
       <r>   -18.3992     0.0000    16.0000 </r>
       <r>   -18.2970     0.0000    16.0000 </r>
       <r>   -18.1948     0.0000    16.0000 </r>
       <r>   -18.0927     0.0000    16.0000 </r>
       <r>   -17.9905     0.0000    16.0000 </r>
       <r>   -17.8883     0.0000    16.0000 </r>
       <r>   -17.7861     0.0000    16.0000 </r>
       <r>   -17.6839     0.0000    16.0000 </r>
       <r>   -17.5818     0.0000    16.0000 </r>
       <r>   -17.4796     0.0000    16.0000 </r>
       <r>   -17.3774     0.0000    16.0000 </r>
       <r>   -17.2752     0.0000    16.0000 </r>
       <r>   -17.1731     0.0000    16.0000 </r>
       <r>   -17.0709     0.0000    16.0000 </r>
       <r>   -16.9687     0.0000    16.0000 </r>
       <r>   -16.8665     0.0000    16.0000 </r>
       <r>   -16.7644     0.0000    16.0000 </r>
       <r>   -16.6622     0.0000    16.0000 </r>
       <r>   -16.5600     0.0000    16.0000 </r>
       <r>   -16.4578     0.0000    16.0000 </r>
       <r>   -16.3557     0.0000    16.0000 </r>
       <r>   -16.2535    67.6601    22.9132 </r>
       <r>   -16.1513   189.5171    46.3641 </r>
       <r>   -16.0491   226.7131    71.1647 </r>
       <r>   -15.9470     0.0000    96.0000 </r>
       <r>   -15.8448     0.0000    96.0000 </r>
       <r>   -15.7426     0.0000    96.0000 </r>
       <r>   -15.6404     0.0000    96.0000 </r>
       <r>   -15.5383     0.0000    96.0000 </r>
       <r>   -15.4361     0.0000    96.0000 </r>
       <r>   -15.3339     0.0000    96.0000 </r>
       <r>   -15.2317     0.0000    96.0000 </r>
       <r>   -15.1295     0.0000    96.0000 </r>
       <r>   -15.0274     0.0000    96.0000 </r>
       <r>   -14.9252     0.0000    96.0000 </r>
       <r>   -14.8230     0.0000    96.0000 </r>
       <r>   -14.7208     0.0000    96.0000 </r>
       <r>   -14.6187     0.0000    96.0000 </r>
       <r>   -14.5165     0.0000    96.0000 </r>
       <r>   -14.4143     0.0073    96.0007 </r>
       <r>   -14.3121    13.4877    97.6281 </r>
       <r>   -14.2100    35.9977   101.4281 </r>
       <r>   -14.1078    26.8813   105.4966 </r>
       <r>   -14.0056    30.7677   109.6438 </r>
       <r>   -13.9034    16.3141   123.1669 </r>
       <r>   -13.8013    55.5669   129.4276 </r>
       <r>   -13.6991    52.3660   139.1006 </r>
       <r>   -13.5969    26.8416   143.9926 </r>
       <r>   -13.4947     0.0000   144.0000 </r>
       <r>   -13.3926     0.0000   144.0000 </r>
       <r>   -13.2904     0.0000   144.0000 </r>
       <r>   -13.1882     0.0000   144.0000 </r>
       <r>   -13.0860     0.0000   144.0000 </r>
       <r>   -12.9838     0.0000   144.0000 </r>
       <r>   -12.8817     0.0000   144.0000 </r>
       <r>   -12.7795     0.0000   144.0000 </r>
       <r>   -12.6773     0.0000   144.0000 </r>
       <r>   -12.5751     0.0000   144.0000 </r>
       <r>   -12.4730     0.0000   144.0000 </r>
       <r>   -12.3708     0.0000   144.0000 </r>
       <r>   -12.2686     0.0000   144.0000 </r>
       <r>   -12.1664     0.0000   144.0000 </r>
       <r>   -12.0643     0.0000   144.0000 </r>
       <r>   -11.9621     0.0000   144.0000 </r>
       <r>   -11.8599     0.0000   144.0000 </r>
       <r>   -11.7577     0.0000   144.0000 </r>
       <r>   -11.6556     0.0000   144.0000 </r>
       <r>   -11.5534     0.0000   144.0000 </r>
       <r>   -11.4512     0.0000   144.0000 </r>
       <r>   -11.3490     0.0000   144.0000 </r>
       <r>   -11.2469     0.0000   144.0000 </r>
       <r>   -11.1447     0.0000   144.0000 </r>
       <r>   -11.0425     0.0000   144.0000 </r>
       <r>   -10.9403     0.0000   144.0000 </r>
       <r>   -10.8382     0.0000   144.0000 </r>
       <r>   -10.7360     0.0000   144.0000 </r>
       <r>   -10.6338     0.0000   144.0000 </r>
       <r>   -10.5316     0.0000   144.0000 </r>
       <r>   -10.4294     0.0000   144.0000 </r>
       <r>   -10.3273     0.0000   144.0000 </r>
       <r>   -10.2251     0.0000   144.0000 </r>
       <r>   -10.1229     0.0000   144.0000 </r>
       <r>   -10.0207     0.0000   144.0000 </r>
       <r>    -9.9186     0.0000   144.0000 </r>
       <r>    -9.8164     0.0000   144.0000 </r>
       <r>    -9.7142     0.0000   144.0000 </r>
       <r>    -9.6120     0.0000   144.0000 </r>
       <r>    -9.5099     0.0000   144.0000 </r>
       <r>    -9.4077     0.0000   144.0000 </r>
       <r>    -9.3055     0.0000   144.0000 </r>
       <r>    -9.2033     0.0000   144.0000 </r>
       <r>    -9.1012     0.0000   144.0000 </r>
       <r>    -8.9990     0.0000   144.0000 </r>
       <r>    -8.8968     0.0000   144.0000 </r>
       <r>    -8.7946     0.0000   144.0000 </r>
       <r>    -8.6925     0.0000   144.0000 </r>
       <r>    -8.5903     0.0000   144.0000 </r>
       <r>    -8.4881     0.0000   144.0000 </r>
       <r>    -8.3859     0.0000   144.0000 </r>
       <r>    -8.2837     0.0376   144.0038 </r>
       <r>    -8.1816     0.0000   144.2500 </r>
       <r>    -8.0794     0.0000   144.2500 </r>
       <r>    -7.9772    13.7176   145.6516 </r>
       <r>    -7.8750     0.0000   145.7500 </r>
       <r>    -7.7729     0.0000   145.7500 </r>
       <r>    -7.6707    29.3611   148.7500 </r>
       <r>    -7.5685     7.3402   149.5000 </r>
       <r>    -7.4663    19.7812   151.5212 </r>
       <r>    -7.3642   296.3856   199.5344 </r>
       <r>    -7.2620     0.0000   202.5000 </r>
       <r>    -7.1598     0.0000   202.5000 </r>
       <r>    -7.0576     4.5555   202.9655 </r>
       <r>    -6.9555     6.4729   206.1614 </r>
       <r>    -6.8533     0.0000   206.2500 </r>
       <r>    -6.7511     0.0000   206.2500 </r>
       <r>    -6.6489     2.3444   206.4895 </r>
       <r>    -6.5468     0.0000   207.7500 </r>
       <r>    -6.4446     0.0000   207.7500 </r>
       <r>    -6.3424     0.0000   207.7500 </r>
       <r>    -6.2402     0.0000   207.7500 </r>
       <r>    -6.1380     2.4467   208.0000 </r>
       <r>    -6.0359     0.0000   208.0000 </r>
       <r>    -5.9337     0.0000   208.0000 </r>
       <r>    -5.8315     0.0000   208.0000 </r>
       <r>    -5.7293     0.0000   208.0000 </r>
       <r>    -5.6272     0.0000   208.0000 </r>
       <r>    -5.5250     0.0000   208.0000 </r>
       <r>    -5.4228     0.0000   208.0000 </r>
       <r>    -5.3206     0.0000   208.0000 </r>
       <r>    -5.2185     0.0000   208.0000 </r>
       <r>    -5.1163     0.0000   208.0000 </r>
       <r>    -5.0141     0.0000   208.0000 </r>
       <r>    -4.9119     0.0000   208.0000 </r>
       <r>    -4.8098     0.0000   208.0000 </r>
       <r>    -4.7076     0.0000   208.0000 </r>
       <r>    -4.6054     0.0000   208.0000 </r>
       <r>    -4.5032     0.0000   208.0000 </r>
       <r>    -4.4011     0.0000   208.0000 </r>
       <r>    -4.2989     0.0000   208.0000 </r>
       <r>    -4.1967     0.0000   208.0000 </r>
       <r>    -4.0945     0.0000   208.0000 </r>
       <r>    -3.9924     0.0000   208.0000 </r>
       <r>    -3.8902     0.0000   208.0000 </r>
       <r>    -3.7880     0.0000   208.0000 </r>
       <r>    -3.6858     0.0000   208.0000 </r>
       <r>    -3.5836     0.0000   208.0000 </r>
       <r>    -3.4815     0.0000   208.0000 </r>
       <r>    -3.3793    30.7005   211.1369 </r>
       <r>    -3.2771    44.7914   216.3266 </r>
       <r>    -3.1749     6.5447   219.9187 </r>
       <r>    -3.0728     0.0000   220.0000 </r>
       <r>    -2.9706     0.0000   220.0000 </r>
       <r>    -2.8684     0.0000   220.0000 </r>
       <r>    -2.7662     0.0000   220.0000 </r>
       <r>    -2.6641     0.0441   220.0045 </r>
       <r>    -2.5619    38.4764   226.9314 </r>
       <r>    -2.4597    31.1606   230.1839 </r>
       <r>    -2.3575    29.3611   234.5000 </r>
       <r>    -2.2554    39.2544   238.5109 </r>
       <r>    -2.1532    46.0495   243.7052 </r>
       <r>    -2.0510     6.1275   245.3761 </r>
       <r>    -1.9488    64.3570   252.8257 </r>
       <r>    -1.8467    10.3265   254.0551 </r>
       <r>    -1.7445    29.3611   259.7500 </r>
       <r>    -1.6423     3.2036   260.0773 </r>
       <r>    -1.5401    75.9244   271.5077 </r>
       <r>    -1.4379    14.6170   275.7435 </r>
       <r>    -1.3358    66.4745   285.5421 </r>
       <r>    -1.2336   114.9792   300.9983 </r>
       <r>    -1.1314    29.4953   308.5137 </r>
       <r>    -1.0292    50.1256   314.3716 </r>
       <r>    -0.9271   128.7693   336.9073 </r>
       <r>    -0.8249     0.0000   339.7500 </r>
       <r>    -0.7227    29.3239   342.7462 </r>
       <r>    -0.6205     0.0000   342.7500 </r>
       <r>    -0.5184     0.0000   342.7500 </r>
       <r>    -0.4162     7.3401   343.5000 </r>
       <r>    -0.3140     0.0000   343.5000 </r>
       <r>    -0.2118    29.3611   346.5000 </r>
       <r>    -0.1097    29.3426   349.4981 </r>
       <r>    -0.0075     0.0000   349.5000 </r>
       <r>     0.0947     0.0000   349.5000 </r>
       <r>     0.1969     0.0000   349.5000 </r>
       <r>     0.2990     0.3168   349.5324 </r>
       <r>     0.4012     0.0000   350.2500 </r>
       <r>     0.5034    14.6805   351.7500 </r>
       <r>     0.6056     0.0000   351.7500 </r>
       <r>     0.7077     0.0000   351.7500 </r>
       <r>     0.8099     0.0000   351.7500 </r>
       <r>     0.9121     0.0000   351.7500 </r>
       <r>     1.0143     0.0027   351.7503 </r>
       <r>     1.1165     0.0000   352.0000 </r>
       <r>     1.2186     0.0000   352.0000 </r>
       <r>     1.3208     0.0000   352.0000 </r>
       <r>     1.4230     0.0000   352.0000 </r>
       <r>     1.5252     0.0000   352.0000 </r>
       <r>     1.6273     0.0000   352.0000 </r>
       <r>     1.7295     0.0000   352.0000 </r>
       <r>     1.8317     0.0000   352.0000 </r>
       <r>     1.9339     0.0000   352.0000 </r>
       <r>     2.0360     0.0000   352.0000 </r>
       <r>     2.1382     0.0000   352.0000 </r>
       <r>     2.2404     0.0000   352.0000 </r>
       <r>     2.3426     0.0000   352.0000 </r>
       <r>     2.4447     0.0000   352.0000 </r>
       <r>     2.5469     0.0000   352.0000 </r>
       <r>     2.6491     0.0000   352.0000 </r>
       <r>     2.7513     0.0000   352.0000 </r>
       <r>     2.8534     7.1862   352.7343 </r>
       <r>     2.9556     0.0000   352.7500 </r>
       <r>     3.0578     0.0000   352.7500 </r>
       <r>     3.1600    29.3611   355.7500 </r>
       <r>     3.2622     0.0000   355.7500 </r>
       <r>     3.3643    23.7315   358.1748 </r>
       <r>     3.4665     0.0000   360.2500 </r>
       <r>     3.5687     0.0000   360.2500 </r>
       <r>     3.6709    29.3611   363.2500 </r>
       <r>     3.7730     0.0000   363.2500 </r>
       <r>     3.8752     7.3402   364.0000 </r>
       <r>     3.9774     0.0000   364.0000 </r>
       <r>     4.0796     0.0000   364.0000 </r>
       <r>     4.1817     0.0000   364.0000 </r>
       <r>     4.2839     0.0000   364.0000 </r>
       <r>     4.3861     0.0000   364.0000 </r>
       <r>     4.4883     0.0000   364.0000 </r>
       <r>     4.5904     2.4468   364.2500 </r>
       <r>     4.6926    14.6805   365.7500 </r>
       <r>     4.7948     0.8680   365.8387 </r>
       <r>     4.8970     4.5139   369.2112 </r>
       <r>     4.9991     1.3558   371.8885 </r>
       <r>     5.1013    23.5768   378.1590 </r>
       <r>     5.2035    29.3575   382.2500 </r>
       <r>     5.3057    58.7101   388.2488 </r>
       <r>     5.4078     0.0000   388.2500 </r>
       <r>     5.5100     0.0016   388.2502 </r>
[...]
        <r>  0.0078  0.0002  0.0036 </r>
        <r>  0.0020  0.0005  0.0031 </r>
        <r>  0.0039  0.0003  0.0046 </r>
        <r>  0.0071  0.0004  0.0018 </r>
        <r>  0.0043  0.0004  0.0025 </r>
        <r>  0.0044  0.0003  0.0045 </r>
        <r>  0.0011  0.0040  0.0001 </r>
        <r>  0.0002  0.0163  0.0000 </r>
        <r>  0.0001  0.0174  0.0000 </r>
        <r>  0.0007  0.0025  0.0001 </r>
        <r>  0.0002  0.0133  0.0000 </r>
        <r>  0.0002  0.0037  0.0001 </r>
        <r>  0.0003  0.0029  0.0001 </r>
        <r>  0.0000  0.0098  0.0000 </r>
        <r>  0.0011  0.0036  0.0017 </r>
        <r>  0.0004  0.0049  0.0009 </r>
        <r>  0.0006  0.0063  0.0010 </r>
        <r>  0.0008  0.0028  0.0015 </r>
        <r>  0.0003  0.0035  0.0007 </r>
        <r>  0.0002  0.0013  0.0011 </r>
        <r>  0.0005  0.0019  0.0013 </r>
        <r>  0.0002  0.0019  0.0007 </r>
        <r>  0.0008  0.0058  0.0013 </r>
        <r>  0.0010  0.0046  0.0017 </r>
        <r>  0.0005  0.0035  0.0011 </r>
        <r>  0.0005  0.0038  0.0010 </r>
        <r>  0.0003  0.0021  0.0009 </r>
        <r>  0.0003  0.0027  0.0008 </r>
        <r>  0.0002  0.0023  0.0009 </r>
        <r>  0.0003  0.0016  0.0012 </r>
        <r>  0.0008  0.0058  0.0014 </r>
        <r>  0.0003  0.0022  0.0007 </r>
        <r>  0.0003  0.0024  0.0007 </r>
        <r>  0.0004  0.0034  0.0012 </r>
        <r>  0.0011  0.0044  0.0019 </r>
        <r>  0.0002  0.0028  0.0006 </r>
        <r>  0.0003  0.0028  0.0007 </r>
        <r>  0.0006  0.0025  0.0016 </r>
       </set>
       <set comment="band 208">
        <r>  0.0087  0.0003  0.0033 </r>
        <r>  0.0048  0.0005  0.0025 </r>
        <r>  0.0013  0.0004  0.0033 </r>
        <r>  0.0067  0.0002  0.0038 </r>
        <r>  0.0067  0.0004  0.0020 </r>
        <r>  0.0053  0.0003  0.0042 </r>
        <r>  0.0008  0.0002  0.0053 </r>
        <r>  0.0015  0.0003  0.0033 </r>
        <r>  0.0000  0.0164  0.0000 </r>
        <r>  0.0009  0.0010  0.0001 </r>
        <r>  0.0008  0.0023  0.0001 </r>
        <r>  0.0000  0.0183  0.0000 </r>
        <r>  0.0003  0.0022  0.0001 </r>
        <r>  0.0000  0.0144  0.0000 </r>
        <r>  0.0002  0.0132  0.0000 </r>
        <r>  0.0005  0.0022  0.0001 </r>
        <r>  0.0008  0.0031  0.0015 </r>
        <r>  0.0009  0.0034  0.0017 </r>
        <r>  0.0004  0.0043  0.0009 </r>
        <r>  0.0005  0.0049  0.0008 </r>
        <r>  0.0007  0.0011  0.0016 </r>
        <r>  0.0005  0.0028  0.0012 </r>
        <r>  0.0000  0.0039  0.0005 </r>
        <r>  0.0003  0.0028  0.0008 </r>
        <r>  0.0009  0.0030  0.0014 </r>
        <r>  0.0004  0.0050  0.0013 </r>
        <r>  0.0008  0.0028  0.0013 </r>
        <r>  0.0004  0.0049  0.0008 </r>
        <r>  0.0002  0.0021  0.0009 </r>
        <r>  0.0003  0.0021  0.0007 </r>
        <r>  0.0001  0.0054  0.0008 </r>
        <r>  0.0009  0.0010  0.0017 </r>
        <r>  0.0004  0.0019  0.0008 </r>
        <r>  0.0006  0.0043  0.0016 </r>
        <r>  0.0012  0.0013  0.0021 </r>
        <r>  0.0002  0.0043  0.0007 </r>
        <r>  0.0001  0.0027  0.0007 </r>
        <r>  0.0008  0.0033  0.0012 </r>
        <r>  0.0002  0.0065  0.0008 </r>
        <r>  0.0006  0.0020  0.0010 </r>
       </set>
       <set comment="band 209">
        <r>  0.0000  0.0008  0.0123 </r>
        <r>  0.0000  0.0002  0.0117 </r>
        <r>  0.0000  0.0003  0.0520 </r>
        <r>  0.0000  0.0004  0.0068 </r>
        <r>  0.0000  0.0002  0.0085 </r>
        <r>  0.0000  0.0005  0.0132 </r>
        <r>  0.0000  0.0009  0.0094 </r>
        <r>  0.0000  0.0003  0.0321 </r>
        <r>  0.0000  0.0035  0.0002 </r>
        <r>  0.0000  0.0024  0.0005 </r>
        <r>  0.0000  0.0016  0.0002 </r>
        <r>  0.0000  0.0042  0.0002 </r>
        <r>  0.0000  0.0016  0.0004 </r>
        <r>  0.0000  0.0028  0.0001 </r>
        <r>  0.0000  0.0057  0.0002 </r>
        <r>  0.0000  0.0027  0.0002 </r>
        <r>  0.0000  0.0000  0.0004 </r>
        <r>  0.0002  0.0007  0.0007 </r>
        <r>  0.0000  0.0007  0.0006 </r>
        <r>  0.0008  0.0003  0.0026 </r>
        <r>  0.0006  0.0008  0.0013 </r>
        <r>  0.0001  0.0005  0.0004 </r>
        <r>  0.0010  0.0009  0.0027 </r>
        <r>  0.0004  0.0007  0.0011 </r>
        <r>  0.0001  0.0012  0.0013 </r>
        <r>  0.0000  0.0006  0.0009 </r>
        <r>  0.0001  0.0005  0.0009 </r>
        <r>  0.0000  0.0004  0.0005 </r>
        <r>  0.0000  0.0006  0.0024 </r>
        <r>  0.0001  0.0006  0.0013 </r>
        <r>  0.0000  0.0007  0.0006 </r>
        <r>  0.0000  0.0004  0.0009 </r>
        <r>  0.0006  0.0008  0.0019 </r>
        <r>  0.0004  0.0008  0.0016 </r>
        <r>  0.0004  0.0004  0.0009 </r>
        <r>  0.0003  0.0003  0.0010 </r>
        <r>  0.0003  0.0008  0.0015 </r>
        <r>  0.0003  0.0008  0.0012 </r>
        <r>  0.0001  0.0004  0.0006 </r>
        <r>  0.0003  0.0004  0.0008 </r>
       </set>
       <set comment="band 210">
        <r>  0.0000  0.0004  0.0173 </r>
        <r>  0.0000  0.0007  0.0248 </r>
        <r>  0.0000  0.0003  0.0256 </r>
        <r>  0.0000  0.0005  0.0112 </r>
        <r>  0.0000  0.0001  0.0104 </r>
        <r>  0.0000  0.0003  0.0360 </r>
        <r>  0.0000  0.0005  0.0093 </r>
        <r>  0.0000  0.0007  0.0114 </r>
        <r>  0.0000  0.0018  0.0003 </r>
        <r>  0.0000  0.0057  0.0001 </r>
        <r>  0.0000  0.0033  0.0002 </r>
        <r>  0.0000  0.0034  0.0004 </r>
        <r>  0.0000  0.0032  0.0002 </r>
        <r>  0.0000  0.0026  0.0002 </r>
        <r>  0.0000  0.0007  0.0004 </r>
        <r>  0.0000  0.0035  0.0002 </r>
        <r>  0.0003  0.0006  0.0009 </r>
        <r>  0.0016  0.0005  0.0032 </r>
        <r>  0.0002  0.0005  0.0012 </r>
        <r>  0.0002  0.0016  0.0007 </r>
        <r>  0.0001  0.0001  0.0015 </r>
        <r>  0.0001  0.0009  0.0004 </r>
        <r>  0.0001  0.0004  0.0004 </r>
        <r>  0.0006  0.0002  0.0014 </r>
        <r>  0.0002  0.0003  0.0009 </r>
        <r>  0.0001  0.0006  0.0022 </r>
        <r>  0.0000  0.0005  0.0013 </r>
        <r>  0.0002  0.0008  0.0015 </r>
        <r>  0.0001  0.0003  0.0005 </r>
        <r>  0.0000  0.0009  0.0008 </r>
        <r>  0.0000  0.0007  0.0009 </r>
        <r>  0.0002  0.0008  0.0009 </r>
        <r>  0.0003  0.0006  0.0010 </r>
        <r>  0.0001  0.0005  0.0006 </r>
        <r>  0.0001  0.0013  0.0006 </r>
        <r>  0.0006  0.0003  0.0030 </r>
        <r>  0.0005  0.0008  0.0014 </r>
        <r>  0.0002  0.0005  0.0015 </r>
        <r>  0.0001  0.0003  0.0006 </r>
        <r>  0.0001  0.0006  0.0007 </r>
       </set>
       <set comment="band 211">
        <r>  0.0000  0.0005  0.0154 </r>
        <r>  0.0000  0.0002  0.0337 </r>
        <r>  0.0000  0.0006  0.0158 </r>
        <r>  0.0000  0.0005  0.0163 </r>
        <r>  0.0000  0.0002  0.0252 </r>
        <r>  0.0000  0.0007  0.0120 </r>
        <r>  0.0000  0.0005  0.0128 </r>
        <r>  0.0000  0.0004  0.0149 </r>
        <r>  0.0000  0.0010  0.0002 </r>
        <r>  0.0000  0.0006  0.0001 </r>
        <r>  0.0000  0.0097  0.0001 </r>
        <r>  0.0000  0.0025  0.0004 </r>
        <r>  0.0000  0.0051  0.0002 </r>
        <r>  0.0000  0.0015  0.0006 </r>
        <r>  0.0000  0.0009  0.0003 </r>
        <r>  0.0000  0.0031  0.0001 </r>
        <r>  0.0001  0.0005  0.0005 </r>
        <r>  0.0004  0.0002  0.0018 </r>
        <r>  0.0000  0.0003  0.0003 </r>
        <r>  0.0001  0.0003  0.0006 </r>
        <r>  0.0009  0.0004  0.0028 </r>
        <r>  0.0001  0.0011  0.0006 </r>
        <r>  0.0003  0.0008  0.0021 </r>
        <r>  0.0001  0.0011  0.0006 </r>
        <r>  0.0000  0.0002  0.0005 </r>
        <r>  0.0000  0.0005  0.0008 </r>
        <r>  0.0000  0.0008  0.0003 </r>
        <r>  0.0002  0.0007  0.0012 </r>
        <r>  0.0001  0.0012  0.0008 </r>
        <r>  0.0000  0.0012  0.0005 </r>
        <r>  0.0001  0.0002  0.0025 </r>
        <r>  0.0001  0.0002  0.0022 </r>
        <r>  0.0002  0.0003  0.0007 </r>
        <r>  0.0001  0.0004  0.0012 </r>
        <r>  0.0015  0.0006  0.0031 </r>
        <r>  0.0002  0.0010  0.0006 </r>
        <r>  0.0001  0.0004  0.0005 </r>
        <r>  0.0002  0.0001  0.0011 </r>
        <r>  0.0007  0.0013  0.0015 </r>
        <r>  0.0005  0.0005  0.0012 </r>
       </set>
       <set comment="band 212">
        <r>  0.0000  0.0001  0.0207 </r>
        <r>  0.0000  0.0010  0.0139 </r>
        <r>  0.0000  0.0004  0.0100 </r>
        <r>  0.0000  0.0003  0.0410 </r>
        <r>  0.0000  0.0003  0.0070 </r>
        <r>  0.0000  0.0005  0.0245 </r>
        <r>  0.0000  0.0002  0.0201 </r>
        <r>  0.0000  0.0009  0.0089 </r>
        <r>  0.0000  0.0048  0.0004 </r>
        <r>  0.0000  0.0042  0.0001 </r>
        <r>  0.0000  0.0042  0.0002 </r>
        <r>  0.0000  0.0007  0.0002 </r>
        <r>  0.0000  0.0021  0.0002 </r>
        <r>  0.0000  0.0030  0.0004 </r>
        <r>  0.0000  0.0009  0.0003 </r>
        <r>  0.0000  0.0045  0.0003 </r>
        <r>  0.0003  0.0009  0.0013 </r>
        <r>  0.0000  0.0003  0.0003 </r>
        <r>  0.0009  0.0010  0.0020 </r>
        <r>  0.0002  0.0004  0.0008 </r>
        <r>  0.0001  0.0005  0.0013 </r>
        <r>  0.0005  0.0007  0.0013 </r>
        <r>  0.0001  0.0003  0.0015 </r>
        <r>  0.0002  0.0007  0.0010 </r>
        <r>  0.0001  0.0004  0.0006 </r>
        <r>  0.0003  0.0008  0.0017 </r>
        <r>  0.0001  0.0001  0.0008 </r>
        <r>  0.0000  0.0005  0.0012 </r>
        <r>  0.0005  0.0004  0.0012 </r>
        <r>  0.0002  0.0010  0.0021 </r>
        <r>  0.0001  0.0004  0.0006 </r>
        <r>  0.0002  0.0013  0.0010 </r>
        <r>  0.0009  0.0006  0.0028 </r>
        <r>  0.0004  0.0006  0.0012 </r>
        <r>  0.0001  0.0009  0.0006 </r>
        <r>  0.0001  0.0002  0.0010 </r>
        <r>  0.0001  0.0010  0.0010 </r>
        <r>  0.0001  0.0005  0.0007 </r>
        <r>  0.0003  0.0004  0.0016 </r>
        <r>  0.0002  0.0006  0.0005 </r>
       </set>
       <set comment="band 213">
        <r>  0.0000  0.0005  0.0225 </r>
        <r>  0.0000  0.0005  0.0224 </r>
        <r>  0.0000  0.0004  0.0147 </r>
        <r>  0.0000  0.0005  0.0142 </r>
        <r>  0.0000  0.0001  0.0249 </r>
        <r>  0.0000  0.0002  0.0071 </r>
        <r>  0.0000  0.0011  0.0077 </r>
        <r>  0.0000  0.0002  0.0325 </r>
        <r>  0.0000  0.0061  0.0002 </r>
        <r>  0.0000  0.0014  0.0001 </r>
        <r>  0.0000  0.0014  0.0003 </r>
        <r>  0.0000  0.0046  0.0002 </r>
        <r>  0.0000  0.0029  0.0003 </r>
        <r>  0.0000  0.0027  0.0002 </r>
        <r>  0.0000  0.0018  0.0001 </r>
        <r>  0.0000  0.0034  0.0005 </r>
        <r>  0.0005  0.0006  0.0016 </r>
        <r>  0.0000  0.0003  0.0004 </r>
        <r>  0.0007  0.0005  0.0018 </r>
        <r>  0.0001  0.0003  0.0006 </r>
        <r>  0.0003  0.0005  0.0007 </r>
        <r>  0.0010  0.0002  0.0024 </r>
        <r>  0.0002  0.0008  0.0010 </r>
        <r>  0.0002  0.0013  0.0012 </r>
        <r>  0.0002  0.0009  0.0006 </r>
        <r>  0.0001  0.0003  0.0005 </r>
        <r>  0.0001  0.0010  0.0009 </r>
        <r>  0.0007  0.0003  0.0020 </r>
        <r>  0.0002  0.0004  0.0017 </r>
        <r>  0.0004  0.0006  0.0012 </r>
        <r>  0.0002  0.0006  0.0013 </r>
        <r>  0.0000  0.0008  0.0011 </r>
        <r>  0.0001  0.0006  0.0010 </r>
        <r>  0.0001  0.0004  0.0007 </r>
        <r>  0.0002  0.0005  0.0019 </r>
        <r>  0.0002  0.0013  0.0009 </r>
        <r>  0.0003  0.0009  0.0008 </r>
        <r>  0.0000  0.0002  0.0013 </r>
        <r>  0.0000  0.0004  0.0010 </r>
        <r>  0.0003  0.0006  0.0013 </r>
       </set>
       <set comment="band 214">
        <r>  0.0000  0.0003  0.0219 </r>
        <r>  0.0000  0.0006  0.0069 </r>
        <r>  0.0000  0.0005  0.0310 </r>
        <r>  0.0000  0.0007  0.0140 </r>
        <r>  0.0000  0.0009  0.0099 </r>
        <r>  0.0000  0.0001  0.0441 </r>
        <r>  0.0000  0.0002  0.0126 </r>
        <r>  0.0000  0.0003  0.0057 </r>
        <r>  0.0000  0.0051  0.0001 </r>
        <r>  0.0000  0.0024  0.0003 </r>
        <r>  0.0000  0.0016  0.0004 </r>
        <r>  0.0000  0.0067  0.0001 </r>
        <r>  0.0000  0.0009  0.0004 </r>
        <r>  0.0000  0.0031  0.0001 </r>
        <r>  0.0000  0.0034  0.0002 </r>
        <r>  0.0000  0.0010  0.0004 </r>
        <r>  0.0003  0.0003  0.0025 </r>
        <r>  0.0002  0.0007  0.0007 </r>
        <r>  0.0001  0.0004  0.0008 </r>
        <r>  0.0002  0.0004  0.0017 </r>
        <r>  0.0001  0.0012  0.0007 </r>
        <r>  0.0003  0.0004  0.0015 </r>
        <r>  0.0000  0.0004  0.0006 </r>
        <r>  0.0002  0.0010  0.0007 </r>
        <r>  0.0001  0.0011  0.0006 </r>
        <r>  0.0010  0.0002  0.0021 </r>
        <r>  0.0012  0.0004  0.0026 </r>
        <r>  0.0002  0.0013  0.0006 </r>
        <r>  0.0000  0.0002  0.0012 </r>
        <r>  0.0001  0.0004  0.0005 </r>
        <r>  0.0003  0.0006  0.0007 </r>
        <r>  0.0003  0.0003  0.0016 </r>
        <r>  0.0001  0.0008  0.0005 </r>
        <r>  0.0001  0.0008  0.0011 </r>
        <r>  0.0001  0.0007  0.0013 </r>
        <r>  0.0001  0.0005  0.0018 </r>
        <r>  0.0001  0.0007  0.0009 </r>
        <r>  0.0003  0.0002  0.0013 </r>
        <r>  0.0003  0.0004  0.0018 </r>
        <r>  0.0001  0.0007  0.0003 </r>
       </set>
       <set comment="band 215">
        <r>  0.0000  0.0002  0.0234 </r>
        <r>  0.0000  0.0005  0.0126 </r>
        <r>  0.0000  0.0006  0.0093 </r>
        <r>  0.0000  0.0003  0.0238 </r>
        <r>  0.0000  0.0004  0.0052 </r>
        <r>  0.0000  0.0003  0.0150 </r>
        <r>  0.0000  0.0007  0.0257 </r>
        <r>  0.0000  0.0006  0.0311 </r>
        <r>  0.0000  0.0029  0.0003 </r>
        <r>  0.0000  0.0035  0.0002 </r>
        <r>  0.0000  0.0049  0.0003 </r>
        <r>  0.0000  0.0016  0.0003 </r>
        <r>  0.0000  0.0027  0.0001 </r>
        <r>  0.0000  0.0035  0.0003 </r>
        <r>  0.0000  0.0016  0.0003 </r>
        <r>  0.0000  0.0036  0.0002 </r>
        <r>  0.0004  0.0003  0.0014 </r>
        <r>  0.0002  0.0005  0.0005 </r>
        <r>  0.0003  0.0014  0.0010 </r>
        <r>  0.0002  0.0004  0.0029 </r>
        <r>  0.0000  0.0006  0.0004 </r>
        <r>  0.0001  0.0004  0.0008 </r>
        <r>  0.0003  0.0003  0.0012 </r>
        <r>  0.0002  0.0009  0.0009 </r>
        <r>  0.0001  0.0010  0.0006 </r>
        <r>  0.0006  0.0002  0.0023 </r>
        <r>  0.0003  0.0005  0.0018 </r>
        <r>  0.0006  0.0011  0.0011 </r>
        <r>  0.0002  0.0002  0.0012 </r>
        <r>  0.0001  0.0006  0.0007 </r>
        <r>  0.0002  0.0007  0.0004 </r>
        <r>  0.0002  0.0003  0.0013 </r>
        <r>  0.0005  0.0003  0.0015 </r>
        <r>  0.0001  0.0009  0.0008 </r>
        <r>  0.0001  0.0006  0.0004 </r>
        <r>  0.0005  0.0003  0.0017 </r>
        <r>  0.0000  0.0006  0.0009 </r>
        <r>  0.0007  0.0007  0.0015 </r>
        <r>  0.0002  0.0004  0.0016 </r>
        <r>  0.0002  0.0009  0.0011 </r>
       </set>
       <set comment="band 216">
        <r>  0.0000  0.0007  0.0086 </r>
        <r>  0.0000  0.0002  0.0353 </r>
        <r>  0.0000  0.0004  0.0186 </r>
        <r>  0.0000  0.0006  0.0186 </r>
        <r>  0.0000  0.0003  0.0264 </r>
        <r>  0.0000  0.0006  0.0142 </r>
        <r>  0.0000  0.0004  0.0121 </r>
        <r>  0.0000  0.0004  0.0122 </r>
        <r>  0.0000  0.0007  0.0002 </r>
        <r>  0.0000  0.0049  0.0001 </r>
        <r>  0.0000  0.0037  0.0001 </r>
        <r>  0.0000  0.0012  0.0007 </r>
        <r>  0.0000  0.0087  0.0001 </r>
        <r>  0.0000  0.0007  0.0005 </r>
        <r>  0.0000  0.0012  0.0003 </r>
        <r>  0.0000  0.0030  0.0001 </r>
        <r>  0.0002  0.0001  0.0009 </r>
        <r>  0.0003  0.0011  0.0014 </r>
        <r>  0.0000  0.0002  0.0006 </r>
        <r>  0.0001  0.0010  0.0009 </r>
        <r>  0.0002  0.0005  0.0007 </r>
        <r>  0.0004  0.0007  0.0024 </r>
        <r>  0.0001  0.0006  0.0003 </r>
        <r>  0.0003  0.0005  0.0019 </r>
        <r>  0.0001  0.0006  0.0004 </r>
        <r>  0.0003  0.0004  0.0008 </r>
        <r>  0.0002  0.0007  0.0011 </r>
        <r>  0.0008  0.0002  0.0021 </r>
        <r>  0.0012  0.0008  0.0024 </r>
        <r>  0.0009  0.0010  0.0023 </r>
        <r>  0.0000  0.0002  0.0005 </r>
        <r>  0.0001  0.0006  0.0004 </r>
        <r>  0.0001  0.0005  0.0009 </r>
        <r>  0.0003  0.0007  0.0022 </r>
        <r>  0.0000  0.0003  0.0006 </r>
        <r>  0.0003  0.0010  0.0013 </r>
        <r>  0.0001  0.0003  0.0006 </r>
        <r>  0.0002  0.0006  0.0019 </r>
        <r>  0.0000  0.0004  0.0002 </r>
        <r>  0.0000  0.0010  0.0011 </r>
       </set>
      </set>
     </set>
    </set>
   </array>
  </projected>
 </calculation>
 <structure name="finalpos" >
  <crystal>
   <varray name="basis" >
    <v>      11.73535200       0.00000000       0.00000000 </v>
    <v>       0.00000000      11.73535200       0.00000000 </v>
    <v>       0.00000000       0.00000000      11.73535200 </v>
   </varray>
   <i name="volume">   1616.17491673 </i>
   <varray name="rec_basis" >
    <v>       0.08521261       0.00000000       0.00000000 </v>
    <v>       0.00000000       0.08521261       0.00000000 </v>
    <v>       0.00000000       0.00000000       0.08521261 </v>
   </varray>
  </crystal>
  <varray name="positions" >
   <v>       0.25000000       0.25000000       0.25000000 </v>
   <v>       0.25000000       0.25000000       0.75000000 </v>
   <v>       0.25000000       0.75000000       0.25000000 </v>
   <v>       0.25000000       0.75000000       0.75000000 </v>
   <v>       0.75000000       0.25000000       0.25000000 </v>
   <v>       0.75000000       0.25000000       0.75000000 </v>
   <v>       0.75000000       0.75000000       0.25000000 </v>
   <v>       0.75000000       0.75000000       0.75000000 </v>
   <v>       0.00000000       0.00000000       0.00000000 </v>
   <v>       0.00000000       0.00000000       0.50000000 </v>
   <v>       0.00000000       0.50000000       0.00000000 </v>
   <v>       0.00000000       0.50000000       0.50000000 </v>
   <v>       0.50000000       0.00000000       0.00000000 </v>
   <v>       0.50000000       0.00000000       0.50000000 </v>
   <v>       0.50000000       0.50000000       0.00000000 </v>
   <v>       0.50000000       0.50000000       0.50000000 </v>
   <v>       0.00000000       0.25000000       0.00000000 </v>
   <v>       0.00000000       0.25000000       0.50000000 </v>
   <v>       0.00000000       0.75000000       0.00000000 </v>
   <v>       0.00000000       0.75000000       0.50000000 </v>
   <v>       0.50000000       0.25000000       0.00000000 </v>
   <v>       0.50000000       0.25000000       0.50000000 </v>
   <v>       0.50000000       0.75000000       0.00000000 </v>
   <v>       0.50000000       0.75000000       0.50000000 </v>
   <v>       0.00000000       0.00000000       0.25000000 </v>
   <v>       0.00000000       0.00000000       0.75000000 </v>
   <v>       0.00000000       0.50000000       0.25000000 </v>
   <v>       0.00000000       0.50000000       0.75000000 </v>
   <v>       0.50000000       0.00000000       0.25000000 </v>
   <v>       0.50000000       0.00000000       0.75000000 </v>
   <v>       0.50000000       0.50000000       0.25000000 </v>
   <v>       0.50000000       0.50000000       0.75000000 </v>
   <v>       0.25000000       0.00000000       0.00000000 </v>
   <v>       0.25000000       0.00000000       0.50000000 </v>
   <v>       0.25000000       0.50000000       0.00000000 </v>
   <v>       0.25000000       0.50000000       0.50000000 </v>
   <v>       0.75000000       0.00000000       0.00000000 </v>
   <v>       0.75000000       0.00000000       0.50000000 </v>
   <v>       0.75000000       0.50000000       0.00000000 </v>
   <v>       0.75000000       0.50000000       0.50000000 </v>
  </varray>
 </structure>
</modeling>
