 running on   64 total cores
 distrk:  each k-point on   64 cores,    1 groups
 distr:  one band on    8 cores,    8 groups
 using from now: INCAR     
 vasp.5.4.4.18Apr17-6-g9f103f2a35 (build Jun 22 2020 09:27:21) complex           
 POSCAR found type information on POSCAR  Cs Pb Br
 POSCAR found :  3 types and      40 ions
 scaLAPACK will be used
 LDA part: xc-table for Pade appr. of Perdew
 POSCAR found type information on POSCAR  Cs Pb Br
 POSCAR found :  3 types and      40 ions
 POSCAR, INCAR and KPOINTS ok, starting setup
 FFT: planning ...
 WAVECAR not read
 WARNING: random wavefunctions but no delay for mixing, default for NELMDL
 entering main loop
       N       E                     dE             d eps       ncg     rms          rms(c)
DAV:   1     0.133471847775E+04    0.13347E+04   -0.11287E+05  1776   0.958E+02
DAV:   2    -0.113068371308E+04   -0.24654E+04   -0.23819E+04  2064   0.295E+02
DAV:   3    -0.149492028797E+04   -0.36424E+03   -0.36187E+03  2328   0.134E+02
DAV:   4    -0.150711959622E+04   -0.12199E+02   -0.12156E+02  2112   0.319E+01
DAV:   5    -0.150761409400E+04   -0.49450E+00   -0.49419E+00  2248   0.507E+00    0.107E+01
DAV:   6    -0.142915450924E+04    0.78460E+02   -0.22268E+01  2208   0.278E+01    0.756E+00
DAV:   7    -0.142864516549E+04    0.50934E+00   -0.74867E+00  2128   0.485E+00    0.363E+00
DAV:   8    -0.142881209867E+04   -0.16693E+00   -0.37006E-01  2096   0.174E+00    0.209E+00
DAV:   9    -0.142889167141E+04   -0.79573E-01   -0.14423E-01  1904   0.117E+00    0.471E-01
DAV:  10    -0.142889272724E+04   -0.10558E-02   -0.87684E-03  2368   0.346E-01    0.266E-01
DAV:  11    -0.142889583840E+04   -0.31112E-02   -0.28536E-03  1976   0.172E-01    0.947E-02
DAV:  12    -0.142889639588E+04   -0.55748E-03   -0.93938E-04  1968   0.101E-01    0.416E-02
DAV:  13    -0.142889641594E+04   -0.20064E-04   -0.12330E-04  2216   0.254E-02    0.151E-02
DAV:  14    -0.142889644616E+04   -0.30219E-04   -0.95356E-06  1920   0.688E-03    0.724E-03
DAV:  15    -0.142889642930E+04    0.16859E-04   -0.11890E-06  1184   0.410E-03    0.823E-04
DAV:  16    -0.142889642524E+04    0.40603E-05   -0.47871E-07  1104   0.183E-03    0.104E-03
DAV:  17    -0.142889641886E+04    0.63843E-05   -0.11711E-07  1072   0.158E-03    0.157E-04
DAV:  18    -0.142889641793E+04    0.92971E-06   -0.46273E-08  1080   0.563E-04
   1 F= -.14288964E+04 E0= -.14288964E+04  d E =-.953473E-52
Application 1868236 resources: utime ~17440s, stime ~206s, Rss ~125716, inblocks ~1438, outblocks ~269128
