 vasp.5.4.4.18Apr17-6-g9f103f2a35 (build Jun 22 2020 09:36:46) gamma-only        
 executed on tx2_gcc-7.3_libsci-1 date 2021.03.02  09:49:07
 running on   64 total cores
 distrk:  each k-point on   64 cores,    1 groups
 distr:  one band on NCORES_PER_BAND=   8 cores,    8 groups


--------------------------------------------------------------------------------------------------------


 INCAR:
 POTCAR:    PAW_PBE Cs_sv 08Apr2002               
 POTCAR:    PAW_PBE Pb_d 06Sep2000                
 POTCAR:    PAW_PBE Br 06Sep2000                  
 POTCAR:    PAW_PBE Cs_sv 08Apr2002               
 POTCAR:    PAW_PBE Pb_d 06Sep2000                
 POTCAR:    PAW_PBE Br 06Sep2000                  
 POTCAR:    PAW_PBE Cs_sv 08Apr2002               
   SHA256 =  c1463496f0f6037ed62c6012a8013a89ee9ad6ffb38599dcd6c079e7ed31779b Cs
   COPYR  = (c) Copyright 08Apr2002 Georg Kresse                                
   COPYR  = This file is part of the software VASP. Any use, copying, and all ot
   COPYR  = If you do not have a valid VASP license, you may not use, copy or di
   VRHFIN =Cs: 5s5p6s                                                           
   LEXCH  = PE                                                                  
   EATOM  =   555.6835 eV,   40.8416 Ry                                         
                                                                                
   TITEL  = PAW_PBE Cs_sv 08Apr2002                                             
   LULTRA =        F    use ultrasoft PP ?                                      
   IUNSCR =        1    unscreen: 0-lin 1-nonlin 2-no                           
   RPACOR =    2.200    partial core radius                                     
   POMASS =  132.900; ZVAL   =    9.000    mass and valenz                      
   RCORE  =    2.500    outmost cutoff radius                                   
   RWIGS  =    2.500; RWIGS  =    1.323    wigner-seitz radius (au A)           
   ENMAX  =  220.318; ENMIN  =  165.238 eV                                      
   RCLOC  =    2.207    cutoff for local pot                                    
   LCOR   =        T    correct aug charges                                     
   LPAW   =        T    paw PP                                                  
   EAUG   =  407.933                                                            
   DEXC   =    0.000                                                            
   RMAX   =    2.554    core radius for proj-oper                               
   RAUG   =    1.300    factor for augmentation sphere                          
   RDEP   =    2.590    radius for radial grids                                 
   RDEPT  =    2.117    core radius for aug-charge                              
                                                                                
   Atomic configuration                                                         
   13 entries                                                                   
     n  l   j            E        occ.                                          
     1  0  0.50    -35790.1377   2.0000                                         
     2  0  0.50     -5613.6201   2.0000                                         
     2  1  1.50     -5035.0101   6.0000                                         
     3  0  0.50     -1167.0767   2.0000                                         
     3  1  1.50      -980.9754   6.0000                                         
     3  2  2.50      -708.0703  10.0000                                         
     4  0  0.50      -220.2386   2.0000                                         
     4  1  1.50      -160.7596   6.0000                                         
     4  2  2.50       -74.2354  10.0000                                         
     5  0  0.50       -26.7287   2.0000                                         
     6  0  0.50        -2.0862   1.0000                                         
     5  1  1.50       -13.5159   6.0000                                         
     5  2  2.50        -0.4136   0.0000                                         
   Description                                                                  
     l       E           TYP  RCUT    TYP  RCUT                                 
     0    -26.7287425     23  1.900                                             
     0     -2.0862306     23  1.900                                             
     1    -13.5158719     23  2.500                                             
     1     -2.7211652     23  2.500                                             
     2     -0.4136171     23  2.500                                             
  local pseudopotential read in
  partial core-charges read in
  partial kinetic energy density read in
  atomic valenz-charges read in
  non local Contribution for L=           0  read in
    real space projection operators read in
  non local Contribution for L=           0  read in
    real space projection operators read in
  non local Contribution for L=           1  read in
    real space projection operators read in
  non local Contribution for L=           1  read in
    real space projection operators read in
  non local Contribution for L=           2  read in
    real space projection operators read in
    PAW grid and wavefunctions read in

   number of l-projection  operators is LMAX  =           5
   number of lm-projection operators is LMMAX =          13

 POTCAR:    PAW_PBE Pb_d 06Sep2000                
   SHA256 =  fb885b08f0fba73a15f6a6b0e39bd200c13ec96ef97cf3ecd8e63bade5137abd Pb
   COPYR  = (c) Copyright 06Sep2000 Georg Kresse                                
   COPYR  = This file is part of the software VASP. Any use, copying, and all ot
   COPYR  = If you do not have a valid VASP license, you may not use, copy or di
   VRHFIN =Pb:                                                                  
   LEXCH  = PE                                                                  
   EATOM  =  1661.6185 eV,  122.1255 Ry                                         
                                                                                
   TITEL  = PAW_PBE Pb_d 06Sep2000                                              
   LULTRA =        F    use ultrasoft PP ?                                      
   IUNSCR =        1    unscreen: 0-lin 1-nonlin 2-no                           
   RPACOR =    2.200    partial core radius                                     
   POMASS =  207.200; ZVAL   =   14.000    mass and valenz                      
   RCORE  =    2.500    outmost cutoff radius                                   
   RWIGS  =    3.260; RWIGS  =    1.725    wigner-seitz radius (au A)           
   ENMAX  =  237.835; ENMIN  =  178.376 eV                                      
   ICORE  =        3    local potential                                         
   LCOR   =        T    correct aug charges                                     
   LPAW   =        T    paw PP                                                  
   EAUG   =  391.914                                                            
   DEXC   =    0.000                                                            
   RMAX   =    2.565    core radius for proj-oper                               
   RAUG   =    1.300    factor for augmentation sphere                          
   RDEP   =    2.643    radius for radial grids                                 
   RDEPT  =    2.092    core radius for aug-charge                              
                                                                                
   Atomic configuration                                                         
   16 entries                                                                   
     n  l   j            E        occ.                                          
     1  0  0.50    -88091.8466   2.0000                                         
     2  0  0.50    -15753.4197   2.0000                                         
     2  1  1.50    -13508.1797   6.0000                                         
     3  0  0.50     -3781.7194   2.0000                                         
     3  1  1.50     -3138.2529   6.0000                                         
     3  2  2.50     -2483.2977  10.0000                                         
     4  0  0.50      -856.2895   2.0000                                         
     4  1  1.50      -645.4942   6.0000                                         
     4  2  2.50      -401.8768  10.0000                                         
     4  3  3.50      -132.9059  14.0000                                         
     5  0  0.50      -144.0950   2.0000                                         
     5  1  1.50       -85.7879   6.0000                                         
     5  2  2.50       -21.1769  10.0000                                         
     6  0  0.50       -12.0372   2.0000                                         
     6  1  1.50        -3.4971   2.0000                                         
     5  3  2.50        -2.7212   0.0000                                         
   Description                                                                  
     l       E           TYP  RCUT    TYP  RCUT                                 
     2    -21.1768523     23  2.500                                             
     2      1.3605826     23  2.500                                             
     0    -12.0371562     23  2.500                                             
     0     13.6058260     23  2.500                                             
     1     -3.4971339     23  2.500                                             
     1     13.6058260     23  2.500                                             
     3     -1.3605826      7  2.500                                             
  local pseudopotential read in
  partial core-charges read in
  partial kinetic energy density read in
  atomic valenz-charges read in
  non local Contribution for L=           2  read in
    real space projection operators read in
  non local Contribution for L=           2  read in
    real space projection operators read in
  non local Contribution for L=           0  read in
    real space projection operators read in
  non local Contribution for L=           0  read in
    real space projection operators read in
  non local Contribution for L=           1  read in
    real space projection operators read in
  non local Contribution for L=           1  read in
    real space projection operators read in
    PAW grid and wavefunctions read in

   number of l-projection  operators is LMAX  =           6
   number of lm-projection operators is LMMAX =          18

 POTCAR:    PAW_PBE Br 06Sep2000                  
   SHA256 =  96a73d2954943bbee26f4990d676cc6c3bf44b8dd2c75cd4b3b825d8403f0103 Br
   COPYR  = (c) Copyright 06Sep2000 Georg Kresse                                
   COPYR  = This file is part of the software VASP. Any use, copying, and all ot
   COPYR  = If you do not have a valid VASP license, you may not use, copy or di
   VRHFIN =Br: s2p5                                                             
   LEXCH  = PE                                                                  
   EATOM  =   368.4488 eV,   27.0802 Ry                                         
                                                                                
   TITEL  = PAW_PBE Br 06Sep2000                                                
   LULTRA =        F    use ultrasoft PP ?                                      
   IUNSCR =        1    unscreen: 0-lin 1-nonlin 2-no                           
   RPACOR =    1.900    partial core radius                                     
   POMASS =   79.904; ZVAL   =    7.000    mass and valenz                      
   RCORE  =    2.100    outmost cutoff radius                                   
   RWIGS  =    2.200; RWIGS  =    1.164    wigner-seitz radius (au A)           
   ENMAX  =  216.285; ENMIN  =  162.214 eV                                      
   ICORE  =        3    local potential                                         
   LCOR   =        T    correct aug charges                                     
   LPAW   =        T    paw PP                                                  
   EAUG   =  503.852                                                            
   DEXC   =    0.000                                                            
   RMAX   =    2.139    core radius for proj-oper                               
   RAUG   =    1.300    factor for augmentation sphere                          
   RDEP   =    2.186    radius for radial grids                                 
   RDEPT  =    1.890    core radius for aug-charge                              
                                                                                
   Atomic configuration                                                         
   10 entries                                                                   
     n  l   j            E        occ.                                          
     1  0  0.50    -13316.2796   2.0000                                         
     2  0  0.50     -1732.8239   2.0000                                         
     2  1  1.50     -1528.2193   6.0000                                         
     3  0  0.50      -238.0460   2.0000                                         
     3  1  1.50      -173.4609   6.0000                                         
     3  2  2.50       -66.7132  10.0000                                         
     4  0  0.50       -20.1334   2.0000                                         
     4  1  0.50        -7.8591   5.0000                                         
     4  2  2.50        -8.1635   0.0000                                         
     4  3  2.50        -8.1635   0.0000                                         
   Description                                                                  
     l       E           TYP  RCUT    TYP  RCUT                                 
     0    -20.1333652     23  2.100                                             
     0    -21.4939478     23  2.100                                             
     1     -7.8591052     23  2.100                                             
     1     -3.1608434     23  2.100                                             
     2     -8.1634956     23  2.100                                             
     3     -1.3605826      7  2.100                                             
  local pseudopotential read in
  partial core-charges read in
  partial kinetic energy density read in
  atomic valenz-charges read in
  non local Contribution for L=           0  read in
    real space projection operators read in
  non local Contribution for L=           0  read in
    real space projection operators read in
  non local Contribution for L=           1  read in
    real space projection operators read in
  non local Contribution for L=           1  read in
    real space projection operators read in
  non local Contribution for L=           2  read in
    real space projection operators read in
    PAW grid and wavefunctions read in

   number of l-projection  operators is LMAX  =           5
   number of lm-projection operators is LMMAX =          13

 POTCAR:    PAW_PBE Cs_sv 08Apr2002               
   SHA256 =  c1463496f0f6037ed62c6012a8013a89ee9ad6ffb38599dcd6c079e7ed31779b Cs
   COPYR  = (c) Copyright 08Apr2002 Georg Kresse                                
   COPYR  = This file is part of the software VASP. Any use, copying, and all ot
   COPYR  = If you do not have a valid VASP license, you may not use, copy or di
   VRHFIN =Cs: 5s5p6s                                                           
   LEXCH  = PE                                                                  
   EATOM  =   555.6835 eV,   40.8416 Ry                                         
                                                                                
   TITEL  = PAW_PBE Cs_sv 08Apr2002                                             
   LULTRA =        F    use ultrasoft PP ?                                      
   IUNSCR =        1    unscreen: 0-lin 1-nonlin 2-no                           
   RPACOR =    2.200    partial core radius                                     
   POMASS =  132.900; ZVAL   =    9.000    mass and valenz                      
   RCORE  =    2.500    outmost cutoff radius                                   
   RWIGS  =    2.500; RWIGS  =    1.323    wigner-seitz radius (au A)           
   ENMAX  =  220.318; ENMIN  =  165.238 eV                                      
   RCLOC  =    2.207    cutoff for local pot                                    
   LCOR   =        T    correct aug charges                                     
   LPAW   =        T    paw PP                                                  
   EAUG   =  407.933                                                            
   DEXC   =    0.000                                                            
   RMAX   =    2.554    core radius for proj-oper                               
   RAUG   =    1.300    factor for augmentation sphere                          
   RDEP   =    2.590    radius for radial grids                                 
   RDEPT  =    2.117    core radius for aug-charge                              
                                                                                
   Atomic configuration                                                         
   13 entries                                                                   
     n  l   j            E        occ.                                          
     1  0  0.50    -35790.1377   2.0000                                         
     2  0  0.50     -5613.6201   2.0000                                         
     2  1  1.50     -5035.0101   6.0000                                         
     3  0  0.50     -1167.0767   2.0000                                         
     3  1  1.50      -980.9754   6.0000                                         
     3  2  2.50      -708.0703  10.0000                                         
     4  0  0.50      -220.2386   2.0000                                         
     4  1  1.50      -160.7596   6.0000                                         
     4  2  2.50       -74.2354  10.0000                                         
     5  0  0.50       -26.7287   2.0000                                         
     6  0  0.50        -2.0862   1.0000                                         
     5  1  1.50       -13.5159   6.0000                                         
     5  2  2.50        -0.4136   0.0000                                         
   Description                                                                  
     l       E           TYP  RCUT    TYP  RCUT                                 
     0    -26.7287425     23  1.900                                             
     0     -2.0862306     23  1.900                                             
     1    -13.5158719     23  2.500                                             
     1     -2.7211652     23  2.500                                             
     2     -0.4136171     23  2.500                                             
  local pseudopotential read in
  partial core-charges read in
  partial kinetic energy density read in
  atomic valenz-charges read in
  non local Contribution for L=           0  read in
    real space projection operators read in
  non local Contribution for L=           0  read in
    real space projection operators read in
  non local Contribution for L=           1  read in
    real space projection operators read in
  non local Contribution for L=           1  read in
    real space projection operators read in
  non local Contribution for L=           2  read in
    real space projection operators read in
    PAW grid and wavefunctions read in

   number of l-projection  operators is LMAX  =           5
   number of lm-projection operators is LMMAX =          13

 POTCAR:    PAW_PBE Pb_d 06Sep2000                
   SHA256 =  fb885b08f0fba73a15f6a6b0e39bd200c13ec96ef97cf3ecd8e63bade5137abd Pb
   COPYR  = (c) Copyright 06Sep2000 Georg Kresse                                
   COPYR  = This file is part of the software VASP. Any use, copying, and all ot
   COPYR  = If you do not have a valid VASP license, you may not use, copy or di
   VRHFIN =Pb:                                                                  
   LEXCH  = PE                                                                  
   EATOM  =  1661.6185 eV,  122.1255 Ry                                         
                                                                                
   TITEL  = PAW_PBE Pb_d 06Sep2000                                              
   LULTRA =        F    use ultrasoft PP ?                                      
   IUNSCR =        1    unscreen: 0-lin 1-nonlin 2-no                           
   RPACOR =    2.200    partial core radius                                     
   POMASS =  207.200; ZVAL   =   14.000    mass and valenz                      
   RCORE  =    2.500    outmost cutoff radius                                   
   RWIGS  =    3.260; RWIGS  =    1.725    wigner-seitz radius (au A)           
   ENMAX  =  237.835; ENMIN  =  178.376 eV                                      
   ICORE  =        3    local potential                                         
   LCOR   =        T    correct aug charges                                     
   LPAW   =        T    paw PP                                                  
   EAUG   =  391.914                                                            
   DEXC   =    0.000                                                            
   RMAX   =    2.565    core radius for proj-oper                               
   RAUG   =    1.300    factor for augmentation sphere                          
   RDEP   =    2.643    radius for radial grids                                 
   RDEPT  =    2.092    core radius for aug-charge                              
                                                                                
   Atomic configuration                                                         
   16 entries                                                                   
     n  l   j            E        occ.                                          
     1  0  0.50    -88091.8466   2.0000                                         
     2  0  0.50    -15753.4197   2.0000                                         
     2  1  1.50    -13508.1797   6.0000                                         
     3  0  0.50     -3781.7194   2.0000                                         
     3  1  1.50     -3138.2529   6.0000                                         
     3  2  2.50     -2483.2977  10.0000                                         
     4  0  0.50      -856.2895   2.0000                                         
     4  1  1.50      -645.4942   6.0000                                         
     4  2  2.50      -401.8768  10.0000                                         
     4  3  3.50      -132.9059  14.0000                                         
     5  0  0.50      -144.0950   2.0000                                         
     5  1  1.50       -85.7879   6.0000                                         
     5  2  2.50       -21.1769  10.0000                                         
     6  0  0.50       -12.0372   2.0000                                         
     6  1  1.50        -3.4971   2.0000                                         
     5  3  2.50        -2.7212   0.0000                                         
   Description                                                                  
     l       E           TYP  RCUT    TYP  RCUT                                 
     2    -21.1768523     23  2.500                                             
     2      1.3605826     23  2.500                                             
     0    -12.0371562     23  2.500                                             
     0     13.6058260     23  2.500                                             
     1     -3.4971339     23  2.500                                             
     1     13.6058260     23  2.500                                             
     3     -1.3605826      7  2.500                                             
  local pseudopotential read in
  partial core-charges read in
  partial kinetic energy density read in
  atomic valenz-charges read in
  non local Contribution for L=           2  read in
    real space projection operators read in
  non local Contribution for L=           2  read in
    real space projection operators read in
  non local Contribution for L=           0  read in
    real space projection operators read in
  non local Contribution for L=           0  read in
    real space projection operators read in
  non local Contribution for L=           1  read in
    real space projection operators read in
  non local Contribution for L=           1  read in
    real space projection operators read in
    PAW grid and wavefunctions read in

   number of l-projection  operators is LMAX  =           6
   number of lm-projection operators is LMMAX =          18

 POTCAR:    PAW_PBE Br 06Sep2000                  
   SHA256 =  96a73d2954943bbee26f4990d676cc6c3bf44b8dd2c75cd4b3b825d8403f0103 Br
   COPYR  = (c) Copyright 06Sep2000 Georg Kresse                                
   COPYR  = This file is part of the software VASP. Any use, copying, and all ot
   COPYR  = If you do not have a valid VASP license, you may not use, copy or di
   VRHFIN =Br: s2p5                                                             
   LEXCH  = PE                                                                  
   EATOM  =   368.4488 eV,   27.0802 Ry                                         
                                                                                
   TITEL  = PAW_PBE Br 06Sep2000                                                
   LULTRA =        F    use ultrasoft PP ?                                      
   IUNSCR =        1    unscreen: 0-lin 1-nonlin 2-no                           
   RPACOR =    1.900    partial core radius                                     
   POMASS =   79.904; ZVAL   =    7.000    mass and valenz                      
   RCORE  =    2.100    outmost cutoff radius                                   
   RWIGS  =    2.200; RWIGS  =    1.164    wigner-seitz radius (au A)           
   ENMAX  =  216.285; ENMIN  =  162.214 eV                                      
   ICORE  =        3    local potential                                         
   LCOR   =        T    correct aug charges                                     
   LPAW   =        T    paw PP                                                  
   EAUG   =  503.852                                                            
   DEXC   =    0.000                                                            
   RMAX   =    2.139    core radius for proj-oper                               
   RAUG   =    1.300    factor for augmentation sphere                          
   RDEP   =    2.186    radius for radial grids                                 
   RDEPT  =    1.890    core radius for aug-charge                              
                                                                                
   Atomic configuration                                                         
   10 entries                                                                   
     n  l   j            E        occ.                                          
     1  0  0.50    -13316.2796   2.0000                                         
     2  0  0.50     -1732.8239   2.0000                                         
     2  1  1.50     -1528.2193   6.0000                                         
     3  0  0.50      -238.0460   2.0000                                         
     3  1  1.50      -173.4609   6.0000                                         
     3  2  2.50       -66.7132  10.0000                                         
     4  0  0.50       -20.1334   2.0000                                         
     4  1  0.50        -7.8591   5.0000                                         
     4  2  2.50        -8.1635   0.0000                                         
     4  3  2.50        -8.1635   0.0000                                         
   Description                                                                  
     l       E           TYP  RCUT    TYP  RCUT                                 
     0    -20.1333652     23  2.100                                             
     0    -21.4939478     23  2.100                                             
     1     -7.8591052     23  2.100                                             
     1     -3.1608434     23  2.100                                             
     2     -8.1634956     23  2.100                                             
     3     -1.3605826      7  2.100                                             
  local pseudopotential read in
  partial core-charges read in
  partial kinetic energy density read in
  atomic valenz-charges read in
  non local Contribution for L=           0  read in
    real space projection operators read in
  non local Contribution for L=           0  read in
    real space projection operators read in
  non local Contribution for L=           1  read in
    real space projection operators read in
  non local Contribution for L=           1  read in
    real space projection operators read in
  non local Contribution for L=           2  read in
    real space projection operators read in
    PAW grid and wavefunctions read in

   number of l-projection  operators is LMAX  =           5
   number of lm-projection operators is LMMAX =          13

 Optimization of the real space projectors (new method)

 maximal supplied QI-value         = 15.12
 optimisation between [QCUT,QGAM] = [  8.77, 17.69] = [ 21.53, 87.61] Ry 
 Optimized for a Real-space Cutoff    1.85 Angstroem

   l    n(q)    QCUT    max X(q) W(low)/X(q) W(high)/X(q)  e(spline) 
   0     10     8.768    25.322    0.81E-04    0.51E-04    0.48E-06
   0     10     8.768    99.187    0.78E-04    0.50E-04    0.47E-06
   1      9     8.768    11.761    0.21E-03    0.20E-03    0.37E-06
   1      9     8.768     8.275    0.24E-03    0.22E-03    0.41E-06
   2      9     8.768     3.829    0.23E-04    0.15E-03    0.18E-06
 Optimization of the real space projectors (new method)

 maximal supplied QI-value         = 15.12
 optimisation between [QCUT,QGAM] = [  8.77, 17.69] = [ 21.53, 87.61] Ry 
 Optimized for a Real-space Cutoff    1.59 Angstroem

   l    n(q)    QCUT    max X(q) W(low)/X(q) W(high)/X(q)  e(spline) 
   2      7     8.768     3.846    0.48E-04    0.11E-03    0.11E-06
   2      7     8.768     8.593    0.20E-03    0.22E-04    0.24E-06
   0      8     8.768    20.082    0.68E-04    0.88E-04    0.41E-07
   0      8     8.768     8.597    0.89E-04    0.13E-03    0.59E-07
   1      8     8.768    33.223    0.15E-03    0.53E-04    0.87E-07
   1      8     8.768    15.899    0.14E-03    0.44E-04    0.78E-07
 Optimization of the real space projectors (new method)

 maximal supplied QI-value         = 17.95
 optimisation between [QCUT,QGAM] = [  8.80, 17.59] = [ 21.67, 86.68] Ry 
 Optimized for a Real-space Cutoff    1.59 Angstroem

   l    n(q)    QCUT    max X(q) W(low)/X(q) W(high)/X(q)  e(spline) 
   0      8     8.797   175.082    0.82E-04    0.14E-03    0.89E-07
   0      8     8.797   174.004    0.79E-04    0.14E-03    0.86E-07
   1      8     8.797    54.315    0.16E-03    0.14E-04    0.30E-06
   1      8     8.797    42.441    0.16E-03    0.14E-04    0.30E-06
   2      7     8.797     3.596    0.92E-04    0.15E-03    0.85E-07
 Optimization of the real space projectors (new method)

 maximal supplied QI-value         = 15.12
 optimisation between [QCUT,QGAM] = [  8.77, 17.69] = [ 21.53, 87.61] Ry 
 Optimized for a Real-space Cutoff    1.85 Angstroem

   l    n(q)    QCUT    max X(q) W(low)/X(q) W(high)/X(q)  e(spline) 
   0     10     8.768    25.322    0.81E-04    0.51E-04    0.48E-06
   0     10     8.768    99.187    0.78E-04    0.50E-04    0.47E-06
   1      9     8.768    11.761    0.21E-03    0.20E-03    0.37E-06
   1      9     8.768     8.275    0.24E-03    0.22E-03    0.41E-06
   2      9     8.768     3.829    0.23E-04    0.15E-03    0.18E-06
 Optimization of the real space projectors (new method)

 maximal supplied QI-value         = 15.12
 optimisation between [QCUT,QGAM] = [  8.77, 17.69] = [ 21.53, 87.61] Ry 
 Optimized for a Real-space Cutoff    1.59 Angstroem

   l    n(q)    QCUT    max X(q) W(low)/X(q) W(high)/X(q)  e(spline) 
   2      7     8.768     3.846    0.48E-04    0.11E-03    0.11E-06
   2      7     8.768     8.593    0.20E-03    0.22E-04    0.24E-06
   0      8     8.768    20.082    0.68E-04    0.88E-04    0.41E-07
   0      8     8.768     8.597    0.89E-04    0.13E-03    0.59E-07
   1      8     8.768    33.223    0.15E-03    0.53E-04    0.87E-07
   1      8     8.768    15.899    0.14E-03    0.44E-04    0.78E-07
 Optimization of the real space projectors (new method)

 maximal supplied QI-value         = 17.95
 optimisation between [QCUT,QGAM] = [  8.80, 17.59] = [ 21.67, 86.68] Ry 
 Optimized for a Real-space Cutoff    1.59 Angstroem

   l    n(q)    QCUT    max X(q) W(low)/X(q) W(high)/X(q)  e(spline) 
   0      8     8.797   175.082    0.82E-04    0.14E-03    0.89E-07
   0      8     8.797   174.004    0.79E-04    0.14E-03    0.86E-07
   1      8     8.797    54.315    0.16E-03    0.14E-04    0.30E-06
   1      8     8.797    42.441    0.16E-03    0.14E-04    0.30E-06
   2      7     8.797     3.596    0.92E-04    0.15E-03    0.85E-07
  PAW_PBE Cs_sv 08Apr2002               :
 energy of atom  1       EATOM= -555.6835
 kinetic energy error for atom=    0.0069 (will be added to EATOM!!)
  PAW_PBE Pb_d 06Sep2000                :
 energy of atom  2       EATOM=-1661.6185
 kinetic energy error for atom=    0.0498 (will be added to EATOM!!)
  PAW_PBE Br 06Sep2000                  :
 energy of atom  3       EATOM= -368.4488
 kinetic energy error for atom=    0.0072 (will be added to EATOM!!)
  PAW_PBE Cs_sv 08Apr2002               :
 energy of atom  4       EATOM= -555.6835
 kinetic energy error for atom=    0.0069 (will be added to EATOM!!)
  PAW_PBE Pb_d 06Sep2000                :
 energy of atom  5       EATOM=-1661.6185
 kinetic energy error for atom=    0.0498 (will be added to EATOM!!)
  PAW_PBE Br 06Sep2000                  :
 energy of atom  6       EATOM= -368.4488
 kinetic energy error for atom=    0.0072 (will be added to EATOM!!)


 POSCAR: Cs63 Pb64 Br192                         
  positions in direct lattice
  velocities in cartesian coordinates

 METAGGA = SCAN     LMAXTAU =  6    LMIXTAU =  F

 exchange correlation table for  LEXCH =        8
   RHO(1)=    0.500       N(1)  =     2000
   RHO(2)=  100.500       N(2)  =     4000

 VTST: version 3.2, (02/03/18)

 CHAIN: initializing optimizer
 
 OPT: Using VASP Conjugate-Gradient optimizer
 CHAIN: Read ICHAIN            0

 POSCAR: Cs63 Pb64 Br192                         
  positions in direct lattice
  velocities in cartesian coordinates



--------------------------------------------------------------------------------------------------------


 ion  position               nearest neighbor table
   1  0.886  0.875  0.354-
   2  0.137  0.875  0.604-
   3  0.886  0.375  0.354-
   4  0.138  0.376  0.604-
   5  0.887  0.875  0.854-
   6  0.137  0.875  0.104-
   7  0.388  0.875  0.355-
   8  0.636  0.875  0.603-
   9  0.887  0.375  0.854-
  10  0.137  0.376  0.103-
  11  0.386  0.875  0.854-
  12  0.636  0.875  0.104-
  13  0.386  0.376  0.854-
  14  0.636  0.376  0.105-
  15  0.107  0.125  0.387-
  16  0.354  0.125  0.636-
  17  0.111  0.625  0.387-
  18  0.104  0.125  0.886-
  19  0.354  0.126  0.138-
  20  0.604  0.125  0.386-
  21  0.854  0.125  0.636-
  22  0.104  0.625  0.887-
  23  0.353  0.626  0.140-
  24  0.854  0.625  0.636-
  25  0.604  0.125  0.887-
  26  0.854  0.125  0.136-
  27  0.603  0.626  0.887-
  28  0.854  0.625  0.136-
  29  0.897  0.875  0.114-
  30  0.145  0.876  0.364-
  31  0.897  0.375  0.114-
  32  0.145  0.375  0.364-
  33  0.897  0.875  0.614-
  34  0.147  0.875  0.864-
  35  0.397  0.875  0.115-
  36  0.646  0.875  0.364-
  37  0.897  0.376  0.614-
  38  0.147  0.375  0.864-
  39  0.397  0.376  0.114-
  40  0.397  0.876  0.614-
  41  0.647  0.875  0.864-
  42  0.646  0.375  0.864-
  43  0.114  0.125  0.147-
  44  0.364  0.127  0.396-
  45  0.118  0.625  0.149-
  46  0.114  0.125  0.647-
  47  0.364  0.125  0.897-
  48  0.614  0.125  0.147-
  49  0.864  0.125  0.396-
  50  0.115  0.625  0.645-
  51  0.364  0.625  0.897-
  52  0.614  0.625  0.146-
  53  0.865  0.625  0.397-
  54  0.614  0.125  0.646-
  55  0.864  0.125  0.897-
  56  0.864  0.625  0.896-
  57  0.750  0.750  0.250- 143 2.99 310 3.00 203 3.00 132 3.01 225 3.01 252 3.01
  58  0.002  0.750  0.500- 226 2.98 144 2.98 241 3.00 133 3.01 200 3.01 220 3.04
  59  0.750  0.251  0.250- 141 2.99 136 3.00 216 3.00 207 3.01 227 3.01 250 3.01
  60  0.000  0.251  0.500- 142 2.99 137 3.00 228 3.00 239 3.01 217 3.01 204 3.01
  61  0.750  0.751  0.750- 149 2.99 315 3.00 138 3.00 223 3.01 229 3.01 209 3.01
  62  0.000  0.750  0.000- 150 2.99 197 3.00 230 3.00 139 3.01 224 3.01 247 3.01
  63  0.251  0.750  0.253- 300 2.95 198 2.97 231 3.01 213 3.02 127 3.04 248 3.05
  64  0.499  0.749  0.500- 314 2.97 301 2.98 311 2.99 128 3.03 232 3.05 208 3.05
  65  0.750  0.251  0.750- 145 2.99 298 3.00 246 3.00 221 3.01 233 3.01 210 3.01
  66  0.000  0.250  0.000- 146 2.99 140 3.00 199 3.00 234 3.01 243 3.01 222 3.01
  67  0.250  0.750  0.750- 242 2.98 153 2.99 130 3.00 236 3.00 218 3.01 201 3.02
  68  0.500  0.750  0.001- 154 2.99 202 2.99 219 3.01 131 3.01 237 3.02 251 3.02
  69  0.250  0.250  0.750- 134 2.99 151 2.99 240 3.00 312 3.00 205 3.01 214 3.01
  70  0.500  0.251  0.000- 152 2.99 135 3.00 206 3.01 249 3.01 215 3.01 238 3.01
  71  0.000  0.750  0.250- 115 2.99 213 2.99 241 3.00 155 3.01 197 3.01 225 3.01
  72  0.254  0.749  0.500- 116 2.95 311 2.97 198 2.98 156 3.05 242 3.05 226 3.06
  73  0.000  0.250  0.250- 113 2.99 157 2.99 211 3.00 239 3.01 199 3.01 227 3.01
  74  0.000  0.750  0.750- 121 2.99 218 3.00 200 3.00 158 3.01 247 3.01 229 3.01
  75  0.250  0.750  0.001- 122 2.99 248 3.00 219 3.01 159 3.01 201 3.01 230 3.02
  76  0.499  0.750  0.253- 314 2.95 123 2.97 231 3.00 310 3.02 160 3.03 202 3.08
  77  0.750  0.751  0.500- 297 2.98 232 2.99 203 3.01 161 3.01 315 3.01 220 3.02
  78  0.000  0.251  0.750- 117 2.99 162 3.00 214 3.00 204 3.01 233 3.01 243 3.01
  79  0.250  0.250  0.000- 118 2.99 163 2.99 244 3.01 205 3.01 215 3.01 234 3.01
  80  0.750  0.250  0.500- 120 2.99 313 3.00 164 3.00 207 3.01 217 3.01 246 3.01
  81  0.500  0.751  0.750- 296 2.99 208 2.99 236 3.00 165 3.01 251 3.02 223 3.02
  82  0.750  0.750  0.000- 126 2.99 237 3.00 166 3.00 252 3.01 209 3.01 224 3.01
  83  0.500  0.250  0.750- 124 2.99 167 3.00 308 3.00 312 3.01 221 3.01 249 3.01
  84  0.750  0.251  0.000- 125 2.99 168 3.00 238 3.00 250 3.01 222 3.01 210 3.01
  85  0.000  0.001  0.250- 155 2.99 113 3.00 253 3.00 183 3.01 169 3.01 267 3.01
  86  0.251  1.000  0.500- 156 2.96 254 3.01 268 3.01 170 3.01 184 3.02 114 3.02
  87  0.001  0.501  0.250- 255 2.99 115 2.99 157 3.00 185 3.00 269 3.02 171 3.02
  88  0.000  0.000  0.750- 158 2.99 117 3.00 256 3.01 270 3.01 173 3.01 187 3.01
  89  0.250  0.001  0.000- 159 2.99 118 3.00 188 3.00 271 3.01 257 3.01 174 3.01
  90  0.500  0.001  0.250- 160 2.98 175 3.00 189 3.01 119 3.01 272 3.01 258 3.01
  91  0.750  0.000  0.500- 161 2.99 176 3.00 120 3.00 273 3.01 259 3.01 190 3.01
  92  0.000  0.501  0.750- 162 3.00 121 3.00 260 3.00 274 3.01 177 3.01 191 3.01
  93  0.250  0.501  0.001- 192 2.99 163 3.00 122 3.00 261 3.01 178 3.02 275 3.02
  94  0.751  0.501  0.500- 305 2.97 297 2.99 164 3.00 277 3.01 307 3.01 262 3.03
  95  0.500  0.000  0.750- 165 2.99 124 3.00 180 3.00 278 3.00 193 3.01 263 3.01
  96  0.750  0.000  0.000- 166 2.99 125 3.00 181 3.00 194 3.01 264 3.01 279 3.01
  97  0.500  0.501  0.750- 304 3.00 296 3.00 318 3.00 167 3.00 195 3.01 265 3.02
  98  0.750  0.500  0.000- 168 2.99 182 3.00 126 3.00 196 3.01 280 3.01 266 3.01
  99  0.750  0.000  0.250- 132 2.99 258 3.00 141 3.01 273 3.01 169 3.01 194 3.01
 100  0.000  0.001  0.500- 133 2.98 170 3.00 142 3.01 183 3.01 259 3.01 270 3.01
 101  0.750  0.501  0.250- 136 3.00 316 3.00 143 3.00 277 3.01 196 3.01 171 3.01
 102  0.003  0.501  0.500- 172 2.99 144 2.99 137 3.00 185 3.01 274 3.01 262 3.03
 103  0.750  0.001  0.750- 138 2.99 190 3.00 145 3.00 263 3.01 279 3.01 173 3.01
 104  0.000  0.000  0.000- 139 2.99 267 3.00 146 3.00 174 3.01 264 3.01 187 3.01
 105  0.250  1.000  0.250- 127 2.96 268 3.00 175 3.01 253 3.01 188 3.02 147 3.03
 106  0.500  0.000  0.500- 128 2.97 254 3.00 189 3.01 148 3.01 278 3.01 176 3.01
 107  0.750  0.500  0.750- 298 2.99 307 2.99 149 3.00 265 3.01 280 3.01 177 3.01
 108  0.000  0.501  0.000- 269 3.00 150 3.00 140 3.00 178 3.00 266 3.01 191 3.01
 109  0.250  0.000  0.750- 130 2.98 184 3.00 151 3.00 180 3.01 256 3.01 271 3.01
 110  0.500  0.001  0.000- 131 2.99 272 3.00 152 3.01 193 3.01 257 3.01 181 3.01
 111  0.250  0.501  0.750- 186 2.98 134 3.00 153 3.00 304 3.01 260 3.01 275 3.02
 112  0.500  0.501  0.001- 276 2.99 135 3.00 154 3.00 261 3.01 182 3.02 195 3.02
 113  0.984  0.126  0.230-  73 2.99  85 3.00
 114  0.237  0.126  0.483- 291 3.01  86 3.02
 115  0.986  0.626  0.229-  71 2.99  87 2.99
 116  0.235  0.626  0.488-  72 2.95 293 2.96
 117  0.985  0.126  0.731-  78 2.99  88 3.00
 118  0.234  0.126  0.981-  79 2.99  89 3.00
 119  0.485  0.127  0.233- 290 3.00  90 3.01
 120  0.735  0.126  0.481-  80 2.99  91 3.00
 121  0.985  0.626  0.730-  74 2.99  92 3.00
 122  0.234  0.626  0.982-  75 2.99  93 3.00
 123  0.486  0.626  0.228-  76 2.97 292 2.98
 124  0.484  0.126  0.731-  83 2.99  95 3.00
 125  0.735  0.126  0.981-  84 2.99  96 3.00
 126  0.734  0.626  0.981-  82 2.99  98 3.00
 127  0.230  0.876  0.234- 105 2.96  63 3.04
 128  0.484  0.876  0.485- 106 2.97  64 3.03
 129  0.229  0.376  0.233- 288 2.98 294 3.02
 130  0.231  0.876  0.735- 109 2.98  67 3.00
 131  0.481  0.876  0.985- 110 2.99  68 3.01
 132  0.731  0.876  0.235-  99 2.99  57 3.01
 133  0.982  0.876  0.484- 100 2.98  58 3.01
 134  0.232  0.376  0.735-  69 2.99 111 3.00
 135  0.481  0.376  0.985-  70 3.00 112 3.00
 136  0.730  0.376  0.236- 101 3.00  59 3.00
 137  0.982  0.376  0.484-  60 3.00 102 3.00
 138  0.731  0.876  0.735- 103 2.99  61 3.00
 139  0.981  0.875  0.985- 104 2.99  62 3.01
 140  0.981  0.376  0.985-  66 3.00 108 3.00
 141  0.770  0.126  0.266-  59 2.99  99 3.01
 142  0.020  0.126  0.516-  60 2.99 100 3.01
 143  0.772  0.626  0.266-  57 2.99 101 3.00
 144  0.021  0.626  0.515-  58 2.98 102 2.99
 145  0.770  0.126  0.766-  65 2.99 103 3.00
 146  0.020  0.126  0.016-  66 2.99 104 3.00
 147  0.269  0.126  0.267- 288 3.01 105 3.03
 148  0.520  0.126  0.516- 289 3.00 106 3.01
 149  0.769  0.626  0.766-  61 2.99 107 3.00
 150  0.021  0.625  0.018-  62 2.99 108 3.00
 151  0.270  0.126  0.766-  69 2.99 109 3.00
 152  0.520  0.126  0.016-  70 2.99 110 3.01
 153  0.270  0.626  0.766-  67 2.99 111 3.00
 154  0.520  0.626  0.016-  68 2.99 112 3.00
 155  0.015  0.876  0.269-  85 2.99  71 3.01
 156  0.266  0.877  0.521-  86 2.96  72 3.05
 157  0.015  0.375  0.269-  73 2.99  87 3.00
 158  0.016  0.876  0.770-  88 2.99  74 3.01
 159  0.267  0.876  0.019-  89 2.99  75 3.01
 160  0.517  0.876  0.269-  90 2.98  76 3.03
 161  0.767  0.876  0.520-  91 2.99  77 3.01
 162  0.016  0.376  0.770-  92 3.00  78 3.00
 163  0.267  0.375  0.019-  79 2.99  93 3.00
 164  0.767  0.376  0.519-  80 3.00  94 3.00
 165  0.516  0.876  0.771-  95 2.99  81 3.01
 166  0.766  0.876  0.020-  96 2.99  82 3.00
 167  0.516  0.376  0.769-  83 3.00  97 3.00
 168  0.766  0.376  0.020-  98 2.99  84 3.00
 169  0.874  0.982  0.225-  99 3.01  85 3.01
 170  0.124  0.983  0.475- 100 3.00  86 3.01
 171  0.874  0.482  0.225- 101 3.01  87 3.02
 172  0.127  0.482  0.476- 102 2.99 293 3.04
 173  0.874  0.982  0.725-  88 3.01 103 3.01
 174  0.124  0.982  0.975- 104 3.01  89 3.01
 175  0.374  0.982  0.225-  90 3.00 105 3.01
 176  0.624  0.983  0.475-  91 3.00 106 3.01
 177  0.874  0.482  0.725-  92 3.01 107 3.01
 178  0.124  0.482  0.975- 108 3.00  93 3.02
 179  0.375  0.481  0.226- 292 2.99 294 3.00
 180  0.374  0.983  0.725-  95 3.00 109 3.01
 181  0.624  0.982  0.975-  96 3.00 110 3.01
 182  0.624  0.482  0.975-  98 3.00 112 3.02
 183  0.975  0.018  0.374- 100 3.01  85 3.01
 184  0.225  0.018  0.624- 109 3.00  86 3.02
 185  0.976  0.519  0.374-  87 3.00 102 3.01
 186  0.225  0.518  0.625- 111 2.98 293 3.05
 187  0.975  0.018  0.874-  88 3.01 104 3.01
 188  0.225  0.018  0.124-  89 3.00 105 3.02
 189  0.475  0.018  0.374- 106 3.01  90 3.01
 190  0.725  0.018  0.624- 103 3.00  91 3.01
 191  0.975  0.518  0.874-  92 3.01 108 3.01
 192  0.227  0.516  0.125-  93 2.99 294 3.06
 193  0.475  0.018  0.874- 110 3.01  95 3.01
 194  0.725  0.018  0.124-  96 3.01  99 3.01
 195  0.475  0.518  0.874-  97 3.01 112 3.02
 196  0.725  0.518  0.124-  98 3.01 101 3.01
 197  0.026  0.768  0.126-  62 3.00  71 3.01
 198  0.271  0.777  0.377-  63 2.97  72 2.98
 199  0.026  0.268  0.126-  66 3.00  73 3.01
 200  0.026  0.768  0.626-  74 3.00  58 3.01
 201  0.276  0.768  0.877-  75 3.01  67 3.02
 202  0.525  0.768  0.126-  68 2.99  76 3.08
 203  0.776  0.768  0.376-  57 3.00  77 3.01
 204  0.026  0.269  0.626-  78 3.01  60 3.01
 205  0.276  0.268  0.876-  79 3.01  69 3.01
 206  0.526  0.268  0.126-  70 3.01 290 3.01
 207  0.776  0.268  0.376-  80 3.01  59 3.01
 208  0.527  0.769  0.627-  81 2.99  64 3.05
 209  0.776  0.769  0.876-  82 3.01  61 3.01
 210  0.776  0.268  0.876-  84 3.01  65 3.01
 211  0.126  0.232  0.276-  73 3.00 288 3.02
 212  0.377  0.234  0.526- 289 3.01 291 3.01
 213  0.126  0.734  0.276-  71 2.99  63 3.02
 214  0.126  0.232  0.776-  78 3.00  69 3.01
 215  0.376  0.232  0.026-  79 3.01  70 3.01
 216  0.626  0.232  0.276-  59 3.00 290 3.01
 217  0.876  0.232  0.526-  80 3.01  60 3.01
 218  0.126  0.732  0.776-  74 3.00  67 3.01
 219  0.376  0.732  0.026-  75 3.01  68 3.01
 220  0.877  0.733  0.526-  77 3.02  58 3.04
 221  0.626  0.232  0.776-  65 3.01  83 3.01
 222  0.876  0.232  0.026-  84 3.01  66 3.01
 223  0.627  0.733  0.777-  61 3.01  81 3.02
 224  0.876  0.732  0.026-  82 3.01  62 3.01
 225  0.874  0.768  0.225-  57 3.01  71 3.01
 226  0.125  0.768  0.476-  58 2.98  72 3.06
 227  0.874  0.268  0.225-  59 3.01  73 3.01
 228  0.124  0.268  0.475-  60 3.00 291 3.01
 229  0.874  0.768  0.725-  61 3.01  74 3.01
 230  0.124  0.768  0.975-  62 3.00  75 3.02
 231  0.374  0.769  0.225-  76 3.00  63 3.01
 232  0.625  0.769  0.476-  77 2.99  64 3.05
 233  0.874  0.269  0.724-  65 3.01  78 3.01
 234  0.124  0.268  0.975-  66 3.01  79 3.01
 235  0.374  0.270  0.226- 290 3.00 288 3.01
 236  0.374  0.769  0.725-  81 3.00  67 3.00
 237  0.624  0.768  0.975-  82 3.00  68 3.02
 238  0.624  0.268  0.975-  84 3.00  70 3.01
 239  0.975  0.232  0.374-  60 3.01  73 3.01
 240  0.225  0.232  0.624-  69 3.00 291 3.02
 241  0.975  0.732  0.374-  71 3.00  58 3.00
 242  0.224  0.734  0.625-  67 2.98  72 3.05
 243  0.975  0.232  0.874-  66 3.01  78 3.01
 244  0.225  0.232  0.124-  79 3.01 288 3.01
 245  0.475  0.234  0.375- 289 3.00 290 3.01
 246  0.725  0.232  0.624-  65 3.00  80 3.01
 247  0.975  0.732  0.874-  74 3.01  62 3.01
 248  0.226  0.735  0.125-  75 3.00  63 3.05
 249  0.475  0.232  0.874-  70 3.01  83 3.01
 250  0.725  0.232  0.124-  84 3.01  59 3.01
 251  0.475  0.732  0.874-  68 3.02  81 3.02
 252  0.725  0.732  0.124-  82 3.01  57 3.01
 253  0.126  0.018  0.276-  85 3.00 105 3.01
 254  0.376  0.018  0.526- 106 3.00  86 3.01
 255  0.126  0.517  0.276-  87 2.99 294 3.04
 256  0.126  0.018  0.776-  88 3.01 109 3.01
 257  0.376  0.019  0.026- 110 3.01  89 3.01
 258  0.626  0.018  0.276-  99 3.00  90 3.01
 259  0.876  0.018  0.526- 100 3.01  91 3.01
 260  0.126  0.518  0.776-  92 3.00 111 3.01
 261  0.376  0.519  0.027- 112 3.01  93 3.01
 262  0.878  0.518  0.526- 102 3.03  94 3.03
 263  0.626  0.019  0.776- 103 3.01  95 3.01
 264  0.876  0.018  0.026-  96 3.01 104 3.01
 265  0.627  0.518  0.778- 107 3.01  97 3.02
 266  0.876  0.518  0.026- 108 3.01  98 3.01
 267  0.026  0.982  0.126- 104 3.00  85 3.01
 268  0.276  0.983  0.376- 105 3.00  86 3.01
 269  0.026  0.482  0.126- 108 3.00  87 3.02
 270  0.026  0.982  0.626-  88 3.01 100 3.01
 271  0.276  0.982  0.876- 109 3.01  89 3.01
 272  0.526  0.983  0.126- 110 3.00  90 3.01
 273  0.776  0.982  0.376-  99 3.01  91 3.01
 274  0.027  0.482  0.626-  92 3.01 102 3.01
 275  0.276  0.483  0.876-  93 3.02 111 3.02
 276  0.526  0.482  0.126- 112 2.99 292 3.08
 277  0.777  0.483  0.376- 101 3.01  94 3.01
 278  0.527  0.983  0.626-  95 3.00 106 3.01
 279  0.776  0.982  0.876- 103 3.01  96 3.01
 280  0.776  0.482  0.876-  98 3.01 107 3.01
 281  0.390  0.377  0.358-
 282  0.636  0.376  0.602-
 283  0.603  0.626  0.388-
 284  0.354  0.625  0.635-
 285  0.400  0.375  0.615-
 286  0.646  0.378  0.366-
 287  0.617  0.625  0.651-
 288  0.250  0.252  0.250- 129 2.98 235 3.01 309 3.01 147 3.01 244 3.01 211 3.02
 289  0.500  0.251  0.500- 299 2.98 148 3.00 245 3.00 212 3.01 313 3.01 308 3.01
 290  0.500  0.252  0.250- 302 2.98 235 3.00 119 3.00 206 3.01 245 3.01 216 3.01
 291  0.251  0.252  0.500- 303 2.97 309 3.01 114 3.01 212 3.01 228 3.01 240 3.02
 292  0.500  0.502  0.253- 306 2.94 123 2.98 179 2.99 302 3.02 316 3.02 276 3.08
 293  0.254  0.502  0.500- 116 2.96 317 2.98 319 2.99 303 3.03 172 3.04 186 3.05
 294  0.252  0.501  0.253- 300 2.96 319 2.96 179 3.00 129 3.02 255 3.04 192 3.06
 295  0.500  0.504  0.500- 306 2.97 317 2.97 301 2.98 299 3.02 318 3.04 305 3.06
 296  0.484  0.626  0.731-  81 2.99  97 3.00
 297  0.736  0.626  0.481-  77 2.98  94 2.99
 298  0.730  0.376  0.734- 107 2.99  65 3.00
 299  0.487  0.377  0.487- 289 2.98 295 3.02
 300  0.262  0.626  0.264-  63 2.95 294 2.96
 301  0.525  0.627  0.522-  64 2.98 295 2.98
 302  0.518  0.376  0.270- 290 2.98 292 3.02
 303  0.268  0.376  0.523- 291 2.97 293 3.03
 304  0.375  0.482  0.725-  97 3.00 111 3.01
 305  0.626  0.484  0.476-  94 2.97 295 3.06
 306  0.476  0.518  0.375- 292 2.94 295 2.97
 307  0.726  0.519  0.625- 107 2.99  94 3.01
 308  0.527  0.267  0.627-  83 3.00 289 3.01
 309  0.277  0.270  0.376- 291 3.01 288 3.01
 310  0.627  0.732  0.276-  57 3.00  76 3.02
 311  0.377  0.740  0.534-  72 2.97  64 2.99
 312  0.374  0.268  0.725-  69 3.00  83 3.01
 313  0.625  0.268  0.474-  80 3.00 289 3.01
 314  0.476  0.733  0.375-  76 2.95  64 2.97
 315  0.725  0.732  0.624-  61 3.00  77 3.01
 316  0.627  0.520  0.277- 101 3.00 292 3.02
 317  0.379  0.511  0.534- 295 2.97 293 2.98
 318  0.529  0.484  0.627-  97 3.00 295 3.04
 319  0.271  0.473  0.377- 294 2.96 293 2.99


IMPORTANT INFORMATION: All symmetrisations will be switched off!
NOSYMM: (Re-)initialisation of all symmetry stuff for point group C_1.



 KPOINTS: 1x1x1                                   

Automatic generation of k-mesh.
Space group operators:
 irot       det(A)        alpha          n_x          n_y          n_z        tau_x        tau_y        tau_z
    1     1.000000     0.000000     1.000000     0.000000     0.000000     0.000000     0.000000     0.000000
 
 Subroutine IBZKPT returns following result:
 ===========================================
 
 Found      1 irreducible k-points:
 
 Following reciprocal coordinates:
            Coordinates               Weight
  0.000000  0.000000  0.000000      1.000000
 
 Following cartesian coordinates:
            Coordinates               Weight
 -0.000000  0.000000  0.000000      1.000000
 


--------------------------------------------------------------------------------------------------------




 Dimension of arrays:
   k-points           NKPTS =      1   k-points in BZ     NKDIM =      1   number of bands    NBANDS=   1688
   number of dos      NEDOS =    301   number of ions     NIONS =    319
   non local maximal  LDIM  =      6   non local SUM 2l+1 LMDIM =     18
   total plane-waves  NPLWV = ******
   max r-space proj   IRMAX =   5716   max aug-charges    IRDMAX=  91227
   dimension x,y,z NGX =   140 NGY =  140 NGZ =  140
   dimension x,y,z NGXF=   280 NGYF=  280 NGZF=  280
   support grid    NGXF=   560 NGYF=  560 NGZF=  560
   ions per type =              56  56 168   7   8  24
   NGX,Y,Z   is equivalent  to a cutoff of   9.97,  9.89,  9.97 a.u.
   NGXF,Y,Z  is equivalent  to a cutoff of  19.95, 19.78, 19.95 a.u.

 SYSTEM =  CsPbBr3 cubic bulk                      
 POSCAR =  Cs63 Pb64 Br192                         

 Startparameter for this run:
   NWRITE =      2    write-flag & timer
   PREC   = accura    normal or accurate (medium, high low for compatibility)
   ISTART =      0    job   : 0-new  1-cont  2-samecut
   ICHARG =      2    charge: 1-file 2-atom 10-const
   ISPIN  =      1    spin polarized calculation?
   LNONCOLLINEAR =      F non collinear calculations
   LSORBIT =      F    spin-orbit coupling
   INIWAV =      1    electr: 0-lowe 1-rand  2-diag
   LASPH  =      T    aspherical Exc in radial PAW
   METAGGA=      F    non-selfconsistent MetaGGA calc.

 Electronic Relaxation 1
   ENCUT  =  300.0 eV  22.05 Ry    4.70 a.u.  32.96 33.23 32.96*2*pi/ulx,y,z
   ENINI  =  300.0     initial cutoff
   ENAUG  =  503.9 eV  augmentation charge cutoff
   NELM   =    200;   NELMIN=  2; NELMDL=  0     # of ELM steps 
   EDIFF  = 0.1E-05   stopping-criterion for ELM
   LREAL  =      T    real-space projection
   NLSPLINE    = F    spline interpolate recip. space projectors
   LCOMPAT=      F    compatible to vasp.4.4
   GGA_COMPAT  = T    GGA compatible to vasp.4.4-vasp.4.6
   LMAXPAW     = -100 max onsite density
   LMAXMIX     =    2 max onsite mixed and CHGCAR
   VOSKOWN=      0    Vosko Wilk Nusair interpolation
   ROPT   =   -0.00025  -0.00025  -0.00025  -0.00025
   ROPT   =   -0.00025  -0.00025
 Ionic relaxation
   EDIFFG = -.1E-01   stopping-criterion for IOM
   NSW    =     25    number of steps for IOM
   NBLOCK =      1;   KBLOCK =     25    inner block; outer block 
   IBRION =      2    ionic relax: 0-MD 1-quasi-New 2-CG
   NFREE  =      1    steps in history (QN), initial steepest desc. (CG)
   ISIF   =      2    stress and relaxation
   IWAVPR =     11    prediction:  0-non 1-charg 2-wave 3-comb
   ISYM   =      0    0-nonsym 1-usesym 2-fastsym
   LCORR  =      T    Harris-Foulkes like correction to forces

   POTIM  = 0.5000    time-step for ionic-motion
   TEIN   =    0.0    initial temperature
   TEBEG  =    0.0;   TEEND  =   0.0 temperature during run
   SMASS  =  -3.00    Nose mass-parameter (am)
   estimated Nose-frequenzy (Omega)   =  0.10E-29 period in steps =****** mass=  -0.124E-25a.u.
   SCALEE = 1.0000    scale energy and forces
   NPACO  =    256;   APACO  = 16.0  distance and # of slots for P.C.
   PSTRESS=    0.0 pullay stress

  Mass of Ions in am
   POMASS = 132.90207.20 79.90132.90207.20 79.90
  Ionic Valenz
   ZVAL   =   9.00 14.00  7.00  9.00 14.00  7.00
  Atomic Wigner-Seitz radii
   RWIGS  =  -1.00 -1.00 -1.00 -1.00 -1.00 -1.00
  virtual crystal weights 
   VCA    =   1.00  1.00  1.00  1.00  1.00  1.00
   NELECT =    2808.0000    total number of electrons
   NUPDOWN=       0.0000    fix difference up-down

 DOS related values:
   EMIN   =  10.00;   EMAX   =-10.00  energy-range for DOS
   EFERMI =   0.00
   ISMEAR =     0;   SIGMA  =   0.01  broadening in eV -4-tet -1-fermi 0-gaus

 Electronic relaxation 2 (details)
   IALGO  =     38    algorithm
   LDIAG  =      T    sub-space diagonalisation (order eigenvalues)
   LSUBROT=      F    optimize rotation matrix (better conditioning)
   TURBO    =      0    0=normal 1=particle mesh
   IRESTART =      0    0=no restart 2=restart with 2 vectors
   NREBOOT  =      0    no. of reboots
   NMIN     =      0    reboot dimension
   EREF     =   0.00    reference energy to select bands
   IMIX   =      4    mixing-type and parameters
     AMIX     =   0.40;   BMIX     =  1.00
     AMIX_MAG =   1.60;   BMIX_MAG =  1.00
     AMIN     =   0.10
     WC   =   100.;   INIMIX=   1;  MIXPRE=   1;  MAXMIX= -45

 Intra band minimization:
   WEIMIN = 0.0010     energy-eigenvalue tresh-hold
   EBREAK =  0.15E-09  absolut break condition
   DEPER  =   0.30     relativ break condition  

   TIME   =   0.40     timestep for ELM

  volume/ion in A,a.u.               =      40.13       270.83
  Fermi-wavevector in a.u.,A,eV,Ry     =   0.987293  1.865713 13.262239  0.974747
  Thomas-Fermi vector in A             =   2.118736

 Write flags
   LWAVE        =      F    write WAVECAR
   LDOWNSAMPLE  =      F    k-point downsampling of WAVECAR
   LCHARG       =      F    write CHGCAR
   LVTOT        =      F    write LOCPOT, total local potential
   LVHAR        =      T    write LOCPOT, Hartree potential only
   LELF         =      F    write electronic localiz. function (ELF)
   LORBIT       =     10    0 simple, 1 ext, 2 COOP (PROOUT), +10 PAW based schemes


 Dipole corrections
   LMONO  =      F    monopole corrections only (constant potential shift)
   LDIPOL =      F    correct potential (dipole corrections)
   IDIPOL =      0    1-x, 2-y, 3-z, 4-all directions 
   EPSILON=  1.0000000 bulk dielectric constant

 Exchange correlation treatment:
   GGA     =    --    GGA type
   LEXCH   =     8    internal setting for exchange type
   VOSKOWN=      0    Vosko Wilk Nusair interpolation
   LHFCALC =     F    Hartree Fock is set to
   LHFONE  =     F    Hartree Fock one center treatment
   AEXX    =    0.0000 exact exchange contribution

 Linear response parameters
   LEPSILON=     F    determine dielectric tensor
   LRPA    =     F    only Hartree local field effects (RPA)
   LNABLA  =     F    use nabla operator in PAW spheres
   LVEL    =     F    velocity operator in full k-point grid
   LINTERFAST=   F  fast interpolation
   KINTER  =     0    interpolate to denser k-point grid
   CSHIFT  =0.1000    complex shift for real part using Kramers Kronig
   OMEGAMAX=  -1.0    maximum frequency
   DEG_THRESHOLD= 0.2000000E-02 threshold for treating states as degnerate
   RTIME   =   -0.100 relaxation time in fs
  (WPLASMAI=    0.000 imaginary part of plasma frequency in eV, 0.658/RTIME)
   DFIELD  = 0.0000000 0.0000000 0.0000000 field for delta impulse in time

 Orbital magnetization related:
   ORBITALMAG=     F  switch on orbital magnetization
   LCHIMAG   =     F  perturbation theory with respect to B field
   DQ        =  0.001000  dq finite difference perturbation B field
   LLRAUG    =     F  two centre corrections for induced B field



--------------------------------------------------------------------------------------------------------


 conjugate gradient relaxation of ions
 charge density and potential will be updated during run
 non-spin polarized calculation
 Variant of blocked Davidson
 Davidson routine will perform the subspace rotation
 perform sub-space diagonalisation
    after iterative eigenvector-optimisation
 modified Broyden-mixing scheme, WC =      100.0
 initial mixing is a Kerker type mixing with AMIX =  0.4000 and BMIX =      1.0000
 Hartree-type preconditioning will be used
 using additional bands          284
 real space projection scheme for non local part
 use partial core corrections
 calculate Harris-corrections to forces   (improved forces if not selfconsistent)
 use gradient corrections 
 use of overlap-Matrix (Vanderbilt PP)
 Gauss-broadening in eV      SIGMA  =   0.01


--------------------------------------------------------------------------------------------------------


  energy-cutoff  :      300.00
  volume of cell :    12802.17
      direct lattice vectors                 reciprocal lattice vectors
    16.840035000  0.000000000 16.155961000     0.029691150 -0.000000000  0.030948329
     0.000000000 23.527616000  0.000000000     0.000000000  0.042503244 -0.000000000
   -16.840035000  0.000000000 16.155961000    -0.029691150  0.000000000  0.030948329

  length of vectors
    23.336706165 23.527616000 23.336706165     0.042887801  0.042503244  0.042887801



 k-points in units of 2pi/SCALE and weight: 1x1x1                                   
  -0.00000000  0.00000000  0.00000000       1.000

 k-points in reciprocal lattice and weights: 1x1x1                                   
   0.00000000  0.00000000  0.00000000       1.000

 position of ions in fractional coordinates (direct lattice) 
   0.88639419  0.87506137  0.35406714
   0.13680454  0.87489029  0.60382230
   0.88648028  0.37545654  0.35407307
   0.13820304  0.37579352  0.60422704
   0.88666964  0.87520530  0.85390606
   0.13693540  0.87502224  0.10389754
   0.38833635  0.87479822  0.35534203
   0.63636189  0.87530055  0.60334606
   0.88667378  0.37531950  0.85400831
   0.13654863  0.37556407  0.10349288
   0.38618272  0.87489688  0.85431165
   0.63585454  0.87490263  0.10443628
   0.38612261  0.37562905  0.85394714
   0.63603973  0.37576236  0.10454513
   0.10685283  0.12530141  0.38739677
   0.35357535  0.12548104  0.63588495
   0.11095799  0.62516380  0.38719601
   0.10383550  0.12527433  0.88631679
   0.35404896  0.12556420  0.13839734
   0.60375454  0.12547852  0.38625636
   0.85394331  0.12531184  0.63634489
   0.10418477  0.62528888  0.88658928
   0.35324570  0.62554221  0.13954270
   0.85418066  0.62531379  0.63587082
   0.60386781  0.12524465  0.88663884
   0.85368155  0.12530202  0.13631887
   0.60338841  0.62550096  0.88662484
   0.85437993  0.62524246  0.13626283
   0.89687931  0.87503435  0.11438943
   0.14545556  0.87562164  0.36435333
   0.89701319  0.37547157  0.11443427
   0.14523099  0.37534984  0.36400326
   0.89714191  0.87492013  0.61389563
   0.14695364  0.87504416  0.86432775
   0.39661182  0.87470829  0.11464804
   0.64595702  0.87478450  0.36431267
   0.89715457  0.37569007  0.61366458
   0.14709493  0.37547787  0.86432630
   0.39661130  0.37637751  0.11436250
   0.39732807  0.87610288  0.61441903
   0.64664000  0.87516123  0.86424209
   0.64615963  0.37539571  0.86404849
   0.11443019  0.12532219  0.14689425
   0.36434703  0.12655845  0.39631002
   0.11830843  0.62522670  0.14917029
   0.11433645  0.12534574  0.64650026
   0.36406525  0.12531327  0.89666300
   0.61385329  0.12539401  0.14733120
   0.86429807  0.12530085  0.39645554
   0.11535440  0.62538385  0.64542008
   0.36424049  0.62522117  0.89670712
   0.61442055  0.62536781  0.14627072
   0.86523505  0.62523076  0.39714413
   0.61391581  0.12524825  0.64633019
   0.86426429  0.12522933  0.89680214
   0.86397670  0.62525319  0.89636723
   0.75003324  0.75020086  0.25032556
   0.00201552  0.75030907  0.49981161
   0.74998879  0.25072027  0.25023245
   0.00037855  0.25064651  0.50015103
   0.75013071  0.75060781  0.75017202
   0.00044597  0.74990873  0.00049992
   0.25087799  0.75003553  0.25339317
   0.49920660  0.74885161  0.49996548
   0.75008260  0.25052785  0.75008862
   0.00021194  0.25046534  0.00020332
   0.25023442  0.75044239  0.74979442
   0.50018487  0.75028006  0.00093877
   0.25019726  0.25048681  0.75008629
   0.50006861  0.25050589  0.00023005
   0.00032698  0.75009865  0.25023230
   0.25396889  0.74926019  0.49958432
   0.00031046  0.25038594  0.25022448
   0.00040894  0.75028541  0.75016603
   0.25046313  0.75033769  0.00081091
   0.49945236  0.74957155  0.25309193
   0.75033098  0.75052837  0.50018358
   0.00023375  0.25068326  0.75005984
   0.25030776  0.25041219  0.00035694
   0.75023128  0.25049138  0.50011771
   0.50001382  0.75062265  0.74981962
   0.75016748  0.75048097  0.00018815
   0.50024547  0.25036151  0.75014235
   0.75014305  0.25065085  0.00022409
   0.00022513  0.00051718  0.25016045
   0.25056364  0.99983543  0.50018703
   0.00062977  0.50078968  0.25030673
   0.00020461  0.00035711  0.75010456
   0.25034056  0.00051885  0.00029343
   0.50007927  0.00055374  0.25021825
   0.75016421  0.00042431  0.50010005
   0.00036790  0.50052947  0.75006042
   0.25047579  0.50058033  0.00085209
   0.75124942  0.50091816  0.50026298
   0.50020019  0.00034029  0.75015401
   0.75011561  0.00033015  0.00019907
   0.50016427  0.50072841  0.74989443
   0.75009302  0.50042997  0.00018110
   0.75012054  0.00044509  0.25021448
   0.00031430  0.00050759  0.50011769
   0.75014560  0.50092489  0.25040621
   0.00318544  0.50055481  0.49994973
   0.75015630  0.00056789  0.75015468
   0.00028778  0.00021881  0.00029512
   0.25026023  0.99990346  0.25044056
   0.50020488  0.00031266  0.50015300
   0.75015828  0.50025919  0.75031375
   0.00047371  0.50075733  0.00047711
   0.25018383  0.00046204  0.75012469
   0.50003240  0.00053649  0.00028082
   0.25033679  0.50076912  0.74983659
   0.50021857  0.50055193  0.00104744
   0.98413977  0.12566406  0.23043807
   0.23657925  0.12636302  0.48279664
   0.98558710  0.62559966  0.22941896
   0.23492738  0.62587292  0.48843839
   0.98463982  0.12572547  0.73098833
   0.23417153  0.12567459  0.98065408
   0.48462156  0.12650185  0.23285228
   0.73471174  0.12571416  0.48077816
   0.98503261  0.62562332  0.73028558
   0.23424662  0.62562705  0.98180999
   0.48623777  0.62612739  0.22842399
   0.48441808  0.12561824  0.73102586
   0.73471907  0.12568934  0.98112698
   0.73448081  0.62570073  0.98075117
   0.23025679  0.87643080  0.23411203
   0.48376598  0.87595849  0.48544963
   0.22903698  0.37576034  0.23339695
   0.23092116  0.87593699  0.73491304
   0.48100583  0.87587705  0.98487925
   0.73106917  0.87580745  0.23474795
   0.98181700  0.87589007  0.48419468
   0.23177648  0.37550034  0.73534723
   0.48094360  0.37552814  0.98453890
   0.73031635  0.37591988  0.23553061
   0.98204426  0.37570588  0.48390293
   0.73098858  0.87585816  0.73450643
   0.98114125  0.87544555  0.98466360
   0.98125315  0.37561806  0.98465223
   0.76960403  0.12583861  0.26618212
   0.02035632  0.12581098  0.51598065
   0.77153359  0.62582610  0.26617842
   0.02148829  0.62574555  0.51484147
   0.77025887  0.12578278  0.76638284
   0.01970736  0.12555697  0.01617011
   0.26854737  0.12627663  0.26662820
   0.51959378  0.12598505  0.51569547
   0.76920849  0.62571369  0.76581878
   0.02137532  0.62547588  0.01755018
   0.26975357  0.12568332  0.76623058
   0.52034256  0.12576730  0.01648119
   0.26998428  0.62577799  0.76586179
   0.52021467  0.62565957  0.01611257
   0.01521380  0.87576703  0.26901242
   0.26617976  0.87654433  0.52144936
   0.01514854  0.37546485  0.26890397
   0.01640495  0.87571572  0.76991839
   0.26671638  0.87593877  0.01899880
   0.51655790  0.87627446  0.26853690
   0.76689149  0.87602134  0.51990944
   0.01645560  0.37567264  0.77019398
   0.26661255  0.37540098  0.01890881
   0.76672508  0.37563160  0.51912960
   0.51614242  0.87598750  0.77061887
   0.76609975  0.87574240  0.02025190
   0.51573066  0.37553794  0.76909000
   0.76624584  0.37569993  0.02034013
   0.87405827  0.98232535  0.22460399
   0.12413887  0.98273719  0.47480479
   0.87408646  0.48227385  0.22474002
   0.12666313  0.48224263  0.47620661
   0.87416790  0.98209753  0.72455448
   0.12418251  0.98223248  0.97461327
   0.37428881  0.98229205  0.22464121
   0.62448407  0.98252085  0.47450230
   0.87427418  0.48208495  0.72483791
   0.12417704  0.48221640  0.97476356
   0.37542376  0.48123605  0.22616453
   0.37420837  0.98255128  0.72499731
   0.62418209  0.98221936  0.97467602
   0.62434956  0.48215437  0.97479275
   0.97477833  0.01832833  0.37410485
   0.22469843  0.01835807  0.62436136
   0.97621839  0.51853830  0.37417667
   0.22499040  0.51758901  0.62461100
   0.97459052  0.01818005  0.87409915
   0.22476352  0.01834155  0.12405999
   0.47459790  0.01830438  0.37419971
   0.72470287  0.01843788  0.62419804
   0.97468142  0.51844630  0.87408050
   0.22678556  0.51623659  0.12482784
   0.47465388  0.01841781  0.87422712
   0.72452938  0.01832844  0.12408699
   0.47476495  0.51814879  0.87425680
   0.72472780  0.51819771  0.12414309
   0.02584402  0.76841999  0.12614143
   0.27079664  0.77739739  0.37680584
   0.02589430  0.26821497  0.12615646
   0.02583362  0.76827946  0.62638086
   0.27568922  0.76814572  0.87654489
   0.52545634  0.76814030  0.12627995
   0.77589879  0.76826947  0.37621424
   0.02637702  0.26892370  0.62631385
   0.27585485  0.26805696  0.87634449
   0.52580633  0.26829136  0.12621411
   0.77589030  0.26826097  0.37623754
   0.52720065  0.76903548  0.62701701
   0.77617044  0.76854013  0.87633165
   0.77590484  0.26845825  0.87624501
   0.12612173  0.23221108  0.27583509
   0.37657857  0.23373365  0.52640978
   0.12567074  0.73368288  0.27633382
   0.12610464  0.23229096  0.77578862
   0.37627065  0.23181634  0.02613065
   0.62628449  0.23235038  0.27582200
   0.87636403  0.23223877  0.52580380
   0.12611579  0.73219113  0.77585703
   0.37631134  0.73161249  0.02640516
   0.87676571  0.73250730  0.52556141
   0.62633061  0.23213869  0.77610207
   0.87619259  0.23227769  0.02576168
   0.62653575  0.73298850  0.77703210
   0.87623847  0.73207064  0.02568468
   0.87404386  0.76820431  0.22460300
   0.12535553  0.76830682  0.47608236
   0.87406827  0.26821346  0.22459103
   0.12416629  0.26812345  0.47461492
   0.87416975  0.76824958  0.72474251
   0.12412727  0.76818547  0.97466038
   0.37431981  0.76867068  0.22541527
   0.62489048  0.76912434  0.47610455
   0.87407791  0.26851605  0.72444137
   0.12410210  0.26816425  0.97452648
   0.37432042  0.27038775  0.22574092
   0.37425961  0.76897864  0.72538324
   0.62431476  0.76826177  0.97470665
   0.62416862  0.26828290  0.97464478
   0.97483582  0.23216668  0.37420454
   0.22468921  0.23221541  0.62432802
   0.97515094  0.73231683  0.37409120
   0.22442816  0.73431268  0.62482482
   0.97461270  0.23221890  0.87409184
   0.22484762  0.23230638  0.12429482
   0.47506097  0.23416870  0.37450207
   0.72472163  0.23209866  0.62424328
   0.97468336  0.73198914  0.87417187
   0.22574382  0.73539658  0.12490814
   0.47467742  0.23213276  0.87426907
   0.72458442  0.23227478  0.12412435
   0.47472995  0.73225279  0.87432091
   0.72483137  0.73223585  0.12405028
   0.12608396  0.01834442  0.27582545
   0.37646504  0.01826070  0.52583148
   0.12621212  0.51723736  0.27570121
   0.12615689  0.01830450  0.77586079
   0.37632430  0.01933144  0.02647025
   0.62635399  0.01837500  0.27589468
   0.87632028  0.01844342  0.52583567
   0.12620973  0.51824756  0.77591816
   0.37639988  0.51946304  0.02668274
   0.87836312  0.51823797  0.52557601
   0.62637746  0.01855420  0.77604036
   0.87622333  0.01819385  0.02581506
   0.62670502  0.51793895  0.77773570
   0.87630299  0.51836942  0.02571099
   0.02586523  0.98218046  0.12612096
   0.27647430  0.98259591  0.37629801
   0.02577835  0.48207681  0.12602680
   0.02584256  0.98219262  0.62624334
   0.27592115  0.98239970  0.87625472
   0.52597667  0.98271958  0.12616410
   0.77586009  0.98224057  0.37618945
   0.02657965  0.48204221  0.62645076
   0.27574118  0.48251746  0.87639687
   0.52550649  0.48241143  0.12633086
   0.77683810  0.48294356  0.37627517
   0.52653927  0.98296016  0.62645852
   0.77586127  0.98216227  0.87622901
   0.77625268  0.48209840  0.87643009
   0.38974233  0.37733297  0.35754817
   0.63615660  0.37573414  0.60244936
   0.60264774  0.62642689  0.38838583
   0.35361708  0.62544895  0.63477982
   0.39988143  0.37515050  0.61517093
   0.64637044  0.37769290  0.36555480
   0.61656607  0.62525714  0.65059823
   0.25024062  0.25203413  0.25042981
   0.50045432  0.25107818  0.50038838
   0.50025968  0.25214489  0.25038017
   0.25066677  0.25231366  0.50026337
   0.50000966  0.50244997  0.25335176
   0.25443408  0.50182144  0.49965906
   0.25238878  0.50077632  0.25343917
   0.49976879  0.50385494  0.50023068
   0.48402101  0.62585668  0.73135217
   0.73556809  0.62588855  0.48096526
   0.73044538  0.37556718  0.73417771
   0.48724473  0.37657187  0.48705427
   0.26186991  0.62576698  0.26445325
   0.52463523  0.62659471  0.52181227
   0.51792319  0.37642027  0.26959175
   0.26781997  0.37570365  0.52276352
   0.37450113  0.48205432  0.72549266
   0.62618144  0.48438140  0.47619234
   0.47576736  0.51841330  0.37511709
   0.72634349  0.51851694  0.62456677
   0.52743978  0.26731446  0.62668213
   0.27664203  0.27003006  0.37643689
   0.62658533  0.73210321  0.27611220
   0.37746144  0.74001197  0.53411628
   0.37418182  0.26798827  0.72489218
   0.62461244  0.26793045  0.47435288
   0.47567534  0.73285255  0.37497163
   0.72516702  0.73223582  0.62443734
   0.62699835  0.52038747  0.27705383
   0.37862390  0.51074752  0.53435894
   0.52900180  0.48405877  0.62699353
   0.27112041  0.47343526  0.37676585

 position of ions in cartesian coordinates  (Angst):
   8.96440624 20.58810790 20.04084492
  -7.86459542 20.58408286 11.96553839
   8.96575600  8.83359719 20.04233158
  -7.84786051  8.84152553 11.99467135
   0.55173978 20.59149411 28.12067314
   0.55635871 20.58718729  3.89088759
   0.55562552 20.58191651 12.01483900
   0.55598771 20.59373523 20.02867332
   0.55008762  8.83037315 28.12239199
   0.55666001  8.83612733  3.87810128
  -7.88330755 20.58423786 20.04137875
   8.94910206 20.58437305 11.96010953
  -7.87818132  8.83765605 20.03451852
   8.95038780  8.84079258 11.96486014
  -4.72436965  2.94804339  7.98507729
  -4.75410352  2.95226963 15.98568214
  -4.65185787 14.70861373  8.04815667
 -13.17701241  2.94740629 15.99686180
   3.63158083  2.95422625  7.95594316
   3.66267709  2.95221041 15.99457747
   3.66436502  2.94828878 24.07703801
 -13.17571934 14.71155666 16.00690705
   3.59876608 14.71751694  7.96147010
   3.67634532 14.71214263 24.07321364
  -4.76187396  2.94670804 24.08056729
  12.08041274  2.94805782 15.99440823
  -4.76971134 14.71654639 24.07259599
  12.09311708 14.71046458 16.00478584
  13.17715689 20.58747227 16.33801827
  -3.68624606 20.60128962  8.23645245
  13.17865646  8.83395083 16.34090578
  -3.68413274  8.83108696  8.22716878
   4.76987732 20.58478491 24.41226356
 -12.08060518 20.58770296 16.33822275
   4.74827987 20.57980072  8.25989437
   4.74290076 20.58159382 16.32187769
   4.77398135  8.83909161 24.40873525
 -12.07820129  8.83409920 16.34048194
   4.75307957  8.85526549  8.25527280
  -3.65581942 20.61261221 16.34574676
  -3.66442675 20.59045744 24.40975215
  -3.66925612  8.83216614 24.39886342
  -0.54669600  2.94853245  4.22194740
  -0.53825795  2.97761850 12.28914564
  -0.51971479 14.71009380  4.32137578
  -8.96165725  2.94908639 12.29204817
  -8.96896475  2.94832247 20.36827649
   7.85624839  2.95022205 12.29766689
   7.87848453  2.94803037 20.36868624
  -8.92632470 14.71379118 12.29104282
  -8.96675663 14.70996350 20.37182043
   7.88365962 14.71341370 12.28969843
   7.88266751 14.71018920 20.39494889
  -0.54585927  2.94679276 20.36048527
  -0.54793846  2.94634766 28.45172061
  -0.54545769 14.71071694 28.44004776
   8.41509479 17.65043769 16.16175783
  -8.38290349 17.65298361  8.10749949
   8.41591425  5.89885019 16.15953541
  -8.41618598  5.89711476  8.08653630
  -0.00069569 17.66001240 24.23883236
  -0.00090843 17.64356461  0.01528180
  -0.04235568 17.64654798  8.14698511
  -0.01277947 17.61869312 16.14258513
  -0.00010134  5.89432301 24.23670768
   0.00014503  5.89285225  0.00670890
  -8.41260801 17.65612031 16.15642691
   8.40732179 17.65230116  8.09613392
  -8.41814878  5.89335755 16.16054206
   8.41729869  5.89380637  8.08280563
  -4.20841442 17.64803306  4.04802603
  -4.13617245 17.62830615 12.17437629
  -4.20856080  5.89098434  4.04763272
 -12.62593565 17.65242694 12.12625988
   4.20415203 17.65365708  4.05957366
   4.14871834 17.63563148 12.15807625
   4.21249102 17.65814327 20.20326451
 -12.62709761  5.89797940 12.12171400
   4.20918050  5.89160189  4.04972921
   4.21192140  5.89346495 20.20058956
  -4.20673844 17.66036154 20.19226033
  12.62967824 17.65702797 12.12271635
  -4.20827226  5.89040947 20.20121696
  12.62866156  5.89721693 12.12290216
  -4.20891959  0.01216812  4.04521970
  -4.20366671 23.52374409 12.12909855
  -4.20456866 11.78238732  4.05412030
 -12.62834148  0.00840195 12.12196560
   4.21080236  0.01220738  4.04923306
   4.20766843  0.01302819 12.12177748
   4.21108917  0.00998299 20.19922068
 -12.62484834 11.77626513 12.12389061
   4.20367190 11.77746173  4.06044336
   4.22662043 11.78541017 20.21938559
  -4.20923103  0.00800612 20.20067379
  12.62862073  0.00776757 12.12205462
  -4.20546451 11.78094582 20.19589959
  12.62854294 11.77392415 12.12139952
   8.41843559  0.01047180 16.16137365
  -8.41670653  0.01194238  8.08495968
   8.41562878 11.78556848 16.16487601
  -8.36552808 11.77686125  8.12863216
   0.00002723  0.01336105 24.23896564
  -0.00012358  0.00514808  0.00941721
  -0.00303678 23.52534454  8.08930258
   0.00087367  0.00735610 16.16174299
  -0.00261815 11.76990619 24.24156754
  -0.00005720 11.78162610  0.01536139
  -8.41902166  0.01087063 16.16094547
   8.41583405  0.01262225  8.08304091
  -8.41159409 11.78190355 16.15876223
   8.40605939 11.77679370  8.09843405
  12.69236288  2.95657582 19.62267220
  -4.14630951  2.97302060 11.62220872
  12.73389792 14.71886864 19.62959064
  -4.26913434 14.72529776 11.68666912
   4.27149997  2.95802068 27.71762161
 -12.57079225  2.95682350 19.62667513
   4.23980360  2.97628698 11.59147940
   4.27625031  2.95775439 19.63740743
   4.28994885 14.71942531 27.71261385
 -12.58899327 14.71951308 19.64656313
   4.34159316 14.73128487 11.54604756
  -4.15288373  2.95549767 19.63666495
  -4.14951785  2.95717056 27.72114184
  -4.14720152 14.72124654 27.71122088
  -0.06492227 20.62032724  7.50232450
  -0.02835265 20.60921507 15.65860967
  -0.07342191  8.84074506  7.47106452
  -8.48724081 20.60870908 15.60397965
  -8.48524602 20.60729901 23.68278229
   8.35806682 20.60566144 15.60370371
   8.37997730 20.60760515 23.68482749
  -8.48014906  8.83462787 15.62481288
  -8.48056249  8.83528183 23.67627823
   8.33220915  8.84449852 15.60418569
   8.38871747  8.83946363 23.68378555
  -0.05924066 20.60685438 23.67648014
  -0.05931662 20.59714678 31.75946645
  -0.05724065  8.83739758 31.76109073
   8.47764269  2.96068254 16.73412066
  -8.34633106  2.96003232  8.66503925
   8.51019871 14.72419606 16.76523469
  -8.30808475 14.72230095  8.66492275
   0.06527254  2.95936898 24.82592359
   0.05956742  2.95405620  0.57963503
   0.03231886  2.97098816  8.64627559
   0.06564768  2.96412791 16.72609287
   0.05708272 14.72155146 24.79984068
   0.06441562 14.71595629  0.62887887
  -8.36069025  2.95702890 16.73731955
   8.48504313  2.95900481  8.67290349
  -8.35059454 14.72306425 16.73508864
   8.48909703 14.72027816  8.66488198
  -4.27397754 20.60471032  4.59194768
  -4.29874903 20.62299839 12.72490541
  -4.27325027  8.83379276  4.58914118
 -12.68919271 20.60350319 12.70380910
   4.17157259 20.60875100  4.61600334
   4.17668237 20.61664906 12.68396106
   4.15918626 20.61069363 20.78950564
 -12.69298079  8.83868152 12.70907988
   4.17133961  8.83229003  4.61287205
   4.16951659  8.83771611 20.77421815
  -4.28539223 20.60989759 20.78886519
  12.56010393 20.60413091 12.70426665
  -4.26658020  8.83551252 20.75751256
  12.56107817  8.83932359 12.70805226
  10.93683274 23.11177372 17.74994469
  -5.90522641 23.12146333  9.67651032
  10.93501673 11.34675392 17.75259768
  -5.88632457 11.34601934  9.73994001
   2.51949513 23.10641364 25.82889641
 -14.32128387 23.10958851 17.75210173
   2.52007092 23.11099024  9.67629001
   2.52569836 23.11637316 17.75518088
   2.51651193 11.34230952 25.83519249
 -14.32390679 11.34540240 17.75444138
   2.51353078 11.32233705  9.71923697
  -5.90729811 23.11708929 17.75872418
[...]
     -4.73479     14.71533     15.96842        -0.000072      0.000014     -0.001510
     -3.62554      8.82611     16.39908        -0.000629     -0.005580     -0.001317
      4.72904      8.88606     16.34851         0.001766     -0.003304     -0.002570
     -0.57325     14.71076     20.47192        -0.002800     -0.001114     -0.006623
     -0.00339      5.92971      8.08888        -0.002350     -0.000485      0.001038
      0.00112      5.90697     16.16940        -0.000216     -0.004536     -0.002610
      4.20815      5.93245     12.12750         0.002458      0.000934      0.002193
     -4.20326      5.93622     12.13187         0.000220     -0.000816     -0.001702
      4.15395     11.82153     12.17138         0.003384      0.001320      0.001120
     -4.12954     11.80684     12.18319         0.000470      0.002519      0.000724
     -0.01774     11.78242      8.17197        -0.000767      0.005528     -0.002589
     -0.00810     11.85481     16.15571        -0.004743      0.004663     -0.004475
     -4.16490     14.72494     19.63575         0.003229      0.000743      0.004509
      4.28749     14.72579     19.65422        -0.000631      0.002007     -0.000794
     -0.06289      8.83628     23.66234        -0.000710      0.001421     -0.001109
      0.00332      8.85977     15.74055         0.002179     -0.001045     -0.003640
     -0.04359     14.72293      8.50304        -0.001753      0.002512     -0.004318
      0.04749     14.74214     16.90629        -0.001252     -0.002159     -0.001557
      4.18182      8.85624     12.72288        -0.001677     -0.000279     -0.003485
     -4.29336      8.83937     12.77274        -0.002054     -0.001697      0.002097
     -5.91040     11.34165     17.77137         0.005805      0.001369     -0.002205
      2.52565     11.39625     17.80967        -0.003137     -0.001680     -0.004351
      1.69488     12.19709     13.74687        -0.001321      0.001303     -0.000023
      1.71376     12.19947     21.82520        -0.002864      0.000087     -0.001647
     -1.67136      6.28942     18.64604        -0.001923      0.002998      0.001388
     -1.68040      6.35325     10.55116         0.002416      0.001588      0.001390
      5.90214     17.22461     14.58413         0.002281     -0.000707      0.003074
     -2.63789     17.41080     14.72752         0.002775      0.001510      0.001666
     -5.90560      6.30506     17.75663         0.006146     -0.001345     -0.000281
      2.53051      6.30380     17.75491         0.002845      0.000708      0.001501
      1.69576     17.24227     13.74302        -0.002063     -0.000103      0.000041
      1.69635     17.22813     21.80435         0.001096      0.006963      0.003758
      5.89326     12.24334     14.60584         0.003334     -0.002716      0.000264
     -2.62264     12.01684     14.74997        -0.001310      0.003512     -0.002777
     -1.65034     11.38873     18.67613        -0.003325     -0.000411     -0.001964
     -1.77918     11.13901     10.46726        -0.001960      0.004430      0.000482
 -----------------------------------------------------------------------------------
    total drift:                               -0.067169     -0.366129     -1.181111


--------------------------------------------------------------------------------------------------------



  FREE ENERGIE OF THE ION-ELECTRON SYSTEM (eV)
  ---------------------------------------------------
  free  energy   TOTEN  =    -11395.71456770 eV

  energy  without entropy=   -11395.71456770  energy(sigma->0) =   -11395.71456770

 d Force = 0.1787151E-03[ 0.158E-03, 0.199E-03]  d Energy = 0.1736698E-03 0.505E-05
 d Force = 0.4523119E-01[ 0.444E-01, 0.460E-01]  d Ewald  = 0.4522929E-01 0.190E-05


--------------------------------------------------------------------------------------------------------


    POTLOK:  cpu time    8.0457: real time    8.0482


--------------------------------------------------------------------------------------------------------


 stress matrix after NEB project (eV)
     -4.61041     -0.00345     -0.01979
     -0.00345     -5.27337      0.04706
     -0.01982      0.04706     -8.37935
  FORCES: max atom, RMS     0.008884    0.002951
  FORCE total and by dimension    0.052704    0.008066
  Stress total and by dimension   10.921681    8.379353
 Steepest descent step on ions:
 trial-energy change:   -0.000174  1 .order   -0.000179   -0.000199   -0.000158
  (g-gl).g = 0.199E-03      g.g   = 0.199E-03  gl.gl    = 0.000E+00
 g(Force)  = 0.199E-03   g(Stress)= 0.000E+00 ortho     = 0.000E+00
 gamma     =   0.00000
 trial     =   1.00000
 opt step  =   4.00000  (harmonic =   4.90725) maximal distance =0.00149479
 next E    =-11395.714882   (d E  =  -0.00049)


--------------------------------------------------------------------------------------------------------


  
 reached required accuracy - stopping structural energy minimisation
     LOOP+:  cpu time 1440.9295: real time 1448.3402
    4ORBIT:  cpu time    0.0000: real time    0.0000



 total charge     

# of ion       s       p       d       tot
------------------------------------------
    1        1.786   4.719   0.019   6.524
    2        1.786   4.719   0.019   6.525
    3        1.786   4.719   0.019   6.524
    4        1.786   4.719   0.019   6.525
    5        1.786   4.719   0.019   6.524
    6        1.786   4.719   0.019   6.524
    7        1.786   4.719   0.019   6.524
    8        1.786   4.719   0.019   6.525
    9        1.786   4.719   0.019   6.524
   10        1.786   4.719   0.019   6.525
   11        1.786   4.719   0.019   6.524
   12        1.786   4.719   0.019   6.524
   13        1.786   4.719   0.019   6.524
   14        1.786   4.719   0.019   6.524
   15        1.786   4.719   0.019   6.523
   16        1.786   4.719   0.019   6.524
   17        1.785   4.719   0.018   6.523
   18        1.786   4.719   0.019   6.524
   19        1.786   4.719   0.019   6.524
   20        1.786   4.719   0.019   6.524
   21        1.786   4.719   0.019   6.524
   22        1.786   4.719   0.019   6.524
   23        1.786   4.719   0.019   6.524
   24        1.786   4.719   0.019   6.524
   25        1.786   4.719   0.019   6.524
   26        1.786   4.719   0.019   6.524
   27        1.786   4.719   0.019   6.525
   28        1.786   4.719   0.019   6.524
   29        1.786   4.719   0.019   6.524
   30        1.786   4.719   0.020   6.525
   31        1.786   4.719   0.019   6.524
   32        1.786   4.719   0.020   6.525
   33        1.786   4.719   0.019   6.524
   34        1.786   4.719   0.019   6.524
   35        1.786   4.719   0.019   6.524
   36        1.786   4.719   0.019   6.524
   37        1.786   4.719   0.019   6.524
   38        1.786   4.719   0.019   6.524
   39        1.786   4.719   0.019   6.524
   40        1.786   4.719   0.020   6.526
   41        1.786   4.719   0.019   6.525
   42        1.786   4.719   0.019   6.524
   43        1.786   4.719   0.019   6.524
   44        1.786   4.719   0.019   6.524
   45        1.786   4.719   0.019   6.523
   46        1.786   4.719   0.019   6.524
   47        1.786   4.719   0.019   6.524
   48        1.786   4.719   0.019   6.524
   49        1.786   4.719   0.019   6.524
   50        1.786   4.719   0.019   6.524
   51        1.786   4.719   0.019   6.524
   52        1.786   4.719   0.020   6.525
   53        1.786   4.719   0.019   6.524
   54        1.786   4.719   0.019   6.525
   55        1.786   4.719   0.019   6.525
   56        1.786   4.719   0.019   6.524
   57        1.555   0.417   9.833  11.805
   58        1.554   0.417   9.833  11.804
   59        1.555   0.417   9.833  11.805
   60        1.555   0.417   9.833  11.805
   61        1.555   0.418   9.834  11.806
   62        1.555   0.417   9.833  11.805
   63        1.554   0.416   9.833  11.802
   64        1.554   0.413   9.833  11.800
   65        1.555   0.417   9.833  11.805
   66        1.555   0.417   9.833  11.805
   67        1.555   0.418   9.834  11.806
   68        1.555   0.417   9.833  11.805
   69        1.555   0.418   9.834  11.806
   70        1.555   0.417   9.833  11.805
   71        1.555   0.418   9.834  11.806
   72        1.554   0.413   9.833  11.799
   73        1.555   0.417   9.833  11.805
   74        1.555   0.417   9.833  11.805
   75        1.555   0.417   9.833  11.805
   76        1.553   0.417   9.833  11.804
   77        1.555   0.417   9.833  11.805
   78        1.555   0.417   9.833  11.805
   79        1.555   0.417   9.833  11.805
   80        1.555   0.418   9.834  11.806
   81        1.555   0.416   9.833  11.804
   82        1.555   0.417   9.833  11.805
   83        1.555   0.418   9.834  11.806
   84        1.555   0.417   9.833  11.805
   85        1.555   0.417   9.833  11.805
   86        1.555   0.418   9.833  11.805
   87        1.555   0.417   9.833  11.805
   88        1.555   0.417   9.833  11.805
   89        1.555   0.417   9.833  11.805
   90        1.555   0.418   9.833  11.806
   91        1.555   0.418   9.834  11.806
   92        1.555   0.417   9.833  11.805
   93        1.555   0.417   9.833  11.805
   94        1.554   0.418   9.834  11.806
   95        1.555   0.417   9.834  11.806
   96        1.555   0.417   9.833  11.805
   97        1.555   0.417   9.833  11.805
   98        1.555   0.417   9.833  11.805
   99        1.555   0.417   9.833  11.805
  100        1.555   0.417   9.833  11.806
  101        1.555   0.417   9.833  11.805
  102        1.555   0.417   9.833  11.805
  103        1.555   0.417   9.833  11.805
  104        1.555   0.417   9.833  11.805
  105        1.555   0.417   9.833  11.805
  106        1.555   0.418   9.834  11.806
  107        1.555   0.418   9.833  11.806
  108        1.555   0.417   9.833  11.805
  109        1.555   0.418   9.834  11.806
  110        1.555   0.417   9.833  11.805
  111        1.555   0.417   9.833  11.806
  112        1.555   0.417   9.833  11.804
  113        1.614   3.287   0.006   4.907
  114        1.614   3.287   0.006   4.907
  115        1.614   3.287   0.006   4.907
  116        1.615   3.281   0.006   4.902
  117        1.614   3.286   0.006   4.907
  118        1.614   3.287   0.006   4.907
  119        1.614   3.286   0.006   4.906
  120        1.614   3.287   0.006   4.907
  121        1.614   3.286   0.006   4.906
  122        1.614   3.286   0.006   4.907
  123        1.615   3.288   0.006   4.909
  124        1.614   3.286   0.006   4.907
  125        1.614   3.286   0.006   4.907
  126        1.614   3.286   0.006   4.907
  127        1.614   3.286   0.006   4.906
  128        1.614   3.287   0.006   4.907
  129        1.614   3.287   0.006   4.907
  130        1.614   3.287   0.006   4.907
  131        1.614   3.286   0.006   4.907
  132        1.614   3.286   0.006   4.907
  133        1.614   3.286   0.006   4.907
  134        1.614   3.287   0.006   4.908
  135        1.614   3.286   0.006   4.907
  136        1.614   3.286   0.006   4.907
  137        1.614   3.286   0.006   4.907
  138        1.614   3.286   0.006   4.907
  139        1.614   3.286   0.006   4.906
  140        1.614   3.286   0.006   4.907
  141        1.614   3.286   0.006   4.906
  142        1.614   3.286   0.006   4.907
  143        1.614   3.287   0.006   4.907
  144        1.614   3.287   0.006   4.907
  145        1.614   3.286   0.006   4.907
  146        1.614   3.286   0.006   4.906
  147        1.614   3.287   0.006   4.906
  148        1.614   3.287   0.006   4.907
  149        1.614   3.286   0.006   4.906
  150        1.614   3.285   0.006   4.905
  151        1.614   3.286   0.006   4.907
  152        1.614   3.287   0.006   4.907
  153        1.614   3.286   0.006   4.906
  154        1.614   3.287   0.006   4.907
  155        1.614   3.287   0.006   4.907
  156        1.614   3.287   0.006   4.907
  157        1.614   3.287   0.006   4.907
  158        1.614   3.286   0.006   4.906
  159        1.614   3.286   0.006   4.907
  160        1.614   3.286   0.006   4.907
  161        1.614   3.286   0.006   4.907
  162        1.614   3.286   0.006   4.907
  163        1.614   3.286   0.006   4.907
  164        1.614   3.286   0.006   4.907
  165        1.614   3.287   0.006   4.907
  166        1.614   3.286   0.006   4.906
  167        1.614   3.286   0.006   4.907
  168        1.614   3.286   0.006   4.906
  169        1.614   3.285   0.006   4.905
  170        1.614   3.285   0.006   4.905
  171        1.614   3.285   0.006   4.905
  172        1.614   3.284   0.006   4.904
  173        1.614   3.284   0.006   4.904
  174        1.614   3.285   0.006   4.904
  175        1.614   3.285   0.006   4.905
  176        1.614   3.285   0.006   4.905
  177        1.614   3.285   0.006   4.905
  178        1.614   3.285   0.006   4.905
  179        1.614   3.284   0.006   4.905
  180        1.614   3.285   0.006   4.905
  181        1.614   3.285   0.006   4.904
  182        1.614   3.285   0.006   4.905
  183        1.614   3.284   0.006   4.904
  184        1.614   3.285   0.006   4.905
  185        1.614   3.284   0.006   4.904
  186        1.614   3.285   0.006   4.905
  187        1.614   3.285   0.006   4.905
  188        1.614   3.285   0.006   4.905
  189        1.614   3.285   0.006   4.905
  190        1.614   3.285   0.006   4.905
  191        1.614   3.285   0.006   4.905
  192        1.614   3.284   0.006   4.904
  193        1.614   3.285   0.006   4.905
  194        1.614   3.284   0.006   4.904
  195        1.614   3.285   0.006   4.905
  196        1.614   3.285   0.006   4.905
  197        1.614   3.284   0.006   4.904
  198        1.615   3.285   0.006   4.906
  199        1.614   3.284   0.006   4.904
  200        1.614   3.285   0.006   4.905
  201        1.614   3.285   0.006   4.905
  202        1.614   3.284   0.006   4.903
  203        1.614   3.285   0.006   4.904
  204        1.614   3.284   0.006   4.904
  205        1.614   3.285   0.006   4.905
  206        1.614   3.285   0.006   4.905
  207        1.614   3.284   0.006   4.904
  208        1.614   3.284   0.006   4.904
  209        1.614   3.285   0.006   4.905
  210        1.614   3.284   0.006   4.904
  211        1.614   3.284   0.006   4.904
  212        1.614   3.284   0.006   4.904
  213        1.614   3.285   0.006   4.905
  214        1.614   3.285   0.006   4.904
  215        1.614   3.284   0.006   4.904
  216        1.614   3.284   0.006   4.904
  217        1.614   3.285   0.006   4.905
  218        1.614   3.284   0.006   4.904
  219        1.614   3.284   0.006   4.903
  220        1.614   3.284   0.006   4.904
  221        1.614   3.284   0.006   4.904
  222        1.614   3.285   0.006   4.904
  223        1.614   3.285   0.006   4.905
  224        1.614   3.285   0.006   4.905
  225        1.614   3.285   0.006   4.905
  226        1.614   3.284   0.006   4.904
  227        1.614   3.285   0.006   4.905
  228        1.614   3.285   0.006   4.905
  229        1.614   3.285   0.006   4.905
  230        1.614   3.285   0.006   4.905
  231        1.614   3.284   0.006   4.904
  232        1.614   3.285   0.006   4.905
  233        1.614   3.284   0.006   4.904
  234        1.614   3.285   0.006   4.905
  235        1.614   3.284   0.006   4.904
  236        1.614   3.284   0.006   4.904
  237        1.614   3.285   0.006   4.905
  238        1.614   3.285   0.006   4.905
  239        1.614   3.284   0.006   4.904
  240        1.614   3.285   0.006   4.905
  241        1.614   3.284   0.006   4.904
  242        1.614   3.285   0.006   4.904
  243        1.614   3.285   0.006   4.905
  244        1.614   3.285   0.006   4.904
  245        1.614   3.285   0.006   4.905
  246        1.614   3.285   0.006   4.904
  247        1.614   3.285   0.006   4.905
  248        1.614   3.285   0.006   4.904
  249        1.614   3.285   0.006   4.905
  250        1.614   3.285   0.006   4.904
  251        1.614   3.285   0.006   4.905
  252        1.614   3.285   0.006   4.905
  253        1.614   3.285   0.006   4.905
  254        1.614   3.285   0.006   4.905
  255        1.614   3.285   0.006   4.905
  256        1.614   3.285   0.006   4.905
  257        1.614   3.284   0.006   4.903
  258        1.614   3.285   0.006   4.905
  259        1.614   3.285   0.006   4.905
  260        1.614   3.284   0.006   4.904
  261        1.614   3.283   0.006   4.903
  262        1.614   3.284   0.006   4.904
  263        1.614   3.285   0.006   4.904
  264        1.614   3.285   0.006   4.904
  265        1.614   3.285   0.006   4.905
  266        1.614   3.285   0.006   4.905
  267        1.614   3.284   0.006   4.904
  268        1.614   3.283   0.006   4.903
  269        1.614   3.284   0.006   4.904
  270        1.614   3.284   0.006   4.904
  271        1.614   3.285   0.006   4.905
  272        1.614   3.285   0.006   4.904
  273        1.614   3.284   0.006   4.904
  274        1.614   3.284   0.006   4.904
  275        1.614   3.285   0.006   4.905
  276        1.614   3.284   0.006   4.903
  277        1.614   3.285   0.006   4.905
  278        1.614   3.285   0.006   4.904
  279        1.614   3.284   0.006   4.904
  280        1.614   3.285   0.006   4.905
  281        1.786   4.719   0.019   6.524
  282        1.786   4.719   0.019   6.524
  283        1.786   4.719   0.019   6.524
  284        1.786   4.719   0.019   6.524
  285        1.787   4.719   0.020   6.526
  286        1.786   4.719   0.019   6.524
  287        1.786   4.719   0.020   6.526
  288        1.555   0.416   9.833  11.804
  289        1.555   0.419   9.834  11.807
  290        1.555   0.417   9.833  11.805
  291        1.555   0.417   9.833  11.805
  292        1.554   0.418   9.833  11.804
  293        1.554   0.412   9.833  11.798
  294        1.554   0.415   9.833  11.801
  295        1.554   0.414   9.833  11.800
  296        1.614   3.286   0.006   4.906
  297        1.614   3.286   0.006   4.907
  298        1.614   3.286   0.006   4.906
  299        1.614   3.286   0.006   4.907
  300        1.615   3.280   0.007   4.902
  301        1.615   3.286   0.006   4.907
  302        1.614   3.286   0.006   4.907
  303        1.614   3.287   0.006   4.907
  304        1.614   3.284   0.006   4.904
  305        1.614   3.285   0.006   4.905
  306        1.615   3.275   0.007   4.897
  307        1.614   3.285   0.006   4.905
  308        1.614   3.285   0.006   4.905
  309        1.614   3.283   0.006   4.903
  310        1.614   3.284   0.006   4.904
  311        1.615   3.284   0.006   4.905
  312        1.614   3.285   0.006   4.905
  313        1.614   3.285   0.006   4.905
  314        1.615   3.275   0.007   4.897
  315        1.614   3.285   0.006   4.905
  316        1.614   3.284   0.006   4.904
  317        1.615   3.284   0.006   4.905
  318        1.614   3.285   0.006   4.904
  319        1.615   3.285   0.006   4.906
--------------------------------------------------
tot        521.906 954.709 631.6922108.307


 total amount of memory used by VASP MPI-rank0   207288. kBytes
=======================================================================

   base      :      30000. kBytes
   nonlr-proj:      21754. kBytes
   fftplans  :      59112. kBytes
   grid      :      63297. kBytes
   one-center:        311. kBytes
   wavefun   :      32814. kBytes

  
  
 General timing and accounting informations for this job:
 ========================================================
  
                  Total CPU time used (sec):     5614.964
                            User time (sec):     5476.603
                          System time (sec):      138.361
                         Elapsed time (sec):     5625.346
  
                   Maximum memory used (kb):      297624.
                   Average memory used (kb):           0.
  
                          Minor page faults:     25381154
                          Major page faults:            1
                 Voluntary context switches:         2316
