 vasp.5.4.4.18Apr17-6-g9f103f2a35 (build Jun 22 2020 09:27:21) complex           
 executed on tx2_gcc-7.3_libsci-1 date 2021.10.12  05:36:33
 running on   64 total cores
 distrk:  each k-point on   64 cores,    1 groups
 distr:  one band on NCORES_PER_BAND=   8 cores,    8 groups


--------------------------------------------------------------------------------------------------------


 INCAR:
 POTCAR:    PAW_PBE Cs_sv 08Apr2002               
 POTCAR:    PAW_PBE Pb_d 06Sep2000                
 POTCAR:    PAW_PBE Br 06Sep2000                  
 POTCAR:    PAW_PBE Cs_sv 08Apr2002               
   SHA256 =  c1463496f0f6037ed62c6012a8013a89ee9ad6ffb38599dcd6c079e7ed31779b Cs
   COPYR  = (c) Copyright 08Apr2002 Georg Kresse                                
   COPYR  = This file is part of the software VASP. Any use, copying, and all ot
   COPYR  = If you do not have a valid VASP license, you may not use, copy or di
   VRHFIN =Cs: 5s5p6s                                                           
   LEXCH  = PE                                                                  
   EATOM  =   555.6835 eV,   40.8416 Ry                                         
                                                                                
   TITEL  = PAW_PBE Cs_sv 08Apr2002                                             
   LULTRA =        F    use ultrasoft PP ?                                      
   IUNSCR =        1    unscreen: 0-lin 1-nonlin 2-no                           
   RPACOR =    2.200    partial core radius                                     
   POMASS =  132.900; ZVAL   =    9.000    mass and valenz                      
   RCORE  =    2.500    outmost cutoff radius                                   
   RWIGS  =    2.500; RWIGS  =    1.323    wigner-seitz radius (au A)           
   ENMAX  =  220.318; ENMIN  =  165.238 eV                                      
   RCLOC  =    2.207    cutoff for local pot                                    
   LCOR   =        T    correct aug charges                                     
   LPAW   =        T    paw PP                                                  
   EAUG   =  407.933                                                            
   DEXC   =    0.000                                                            
   RMAX   =    2.554    core radius for proj-oper                               
   RAUG   =    1.300    factor for augmentation sphere                          
   RDEP   =    2.590    radius for radial grids                                 
   RDEPT  =    2.117    core radius for aug-charge                              
                                                                                
   Atomic configuration                                                         
   13 entries                                                                   
     n  l   j            E        occ.                                          
     1  0  0.50    -35790.1377   2.0000                                         
     2  0  0.50     -5613.6201   2.0000                                         
     2  1  1.50     -5035.0101   6.0000                                         
     3  0  0.50     -1167.0767   2.0000                                         
     3  1  1.50      -980.9754   6.0000                                         
     3  2  2.50      -708.0703  10.0000                                         
     4  0  0.50      -220.2386   2.0000                                         
     4  1  1.50      -160.7596   6.0000                                         
     4  2  2.50       -74.2354  10.0000                                         
     5  0  0.50       -26.7287   2.0000                                         
     6  0  0.50        -2.0862   1.0000                                         
     5  1  1.50       -13.5159   6.0000                                         
     5  2  2.50        -0.4136   0.0000                                         
   Description                                                                  
     l       E           TYP  RCUT    TYP  RCUT                                 
     0    -26.7287425     23  1.900                                             
     0     -2.0862306     23  1.900                                             
     1    -13.5158719     23  2.500                                             
     1     -2.7211652     23  2.500                                             
     2     -0.4136171     23  2.500                                             
  local pseudopotential read in
  partial core-charges read in
  partial kinetic energy density read in
  atomic valenz-charges read in
  non local Contribution for L=           0  read in
    real space projection operators read in
  non local Contribution for L=           0  read in
    real space projection operators read in
  non local Contribution for L=           1  read in
    real space projection operators read in
  non local Contribution for L=           1  read in
    real space projection operators read in
  non local Contribution for L=           2  read in
    real space projection operators read in
    PAW grid and wavefunctions read in

   number of l-projection  operators is LMAX  =           5
   number of lm-projection operators is LMMAX =          13

 POTCAR:    PAW_PBE Pb_d 06Sep2000                
   SHA256 =  fb885b08f0fba73a15f6a6b0e39bd200c13ec96ef97cf3ecd8e63bade5137abd Pb
   COPYR  = (c) Copyright 06Sep2000 Georg Kresse                                
   COPYR  = This file is part of the software VASP. Any use, copying, and all ot
   COPYR  = If you do not have a valid VASP license, you may not use, copy or di
   VRHFIN =Pb:                                                                  
   LEXCH  = PE                                                                  
   EATOM  =  1661.6185 eV,  122.1255 Ry                                         
                                                                                
   TITEL  = PAW_PBE Pb_d 06Sep2000                                              
   LULTRA =        F    use ultrasoft PP ?                                      
   IUNSCR =        1    unscreen: 0-lin 1-nonlin 2-no                           
   RPACOR =    2.200    partial core radius                                     
   POMASS =  207.200; ZVAL   =   14.000    mass and valenz                      
   RCORE  =    2.500    outmost cutoff radius                                   
   RWIGS  =    3.260; RWIGS  =    1.725    wigner-seitz radius (au A)           
   ENMAX  =  237.835; ENMIN  =  178.376 eV                                      
   ICORE  =        3    local potential                                         
   LCOR   =        T    correct aug charges                                     
   LPAW   =        T    paw PP                                                  
   EAUG   =  391.914                                                            
   DEXC   =    0.000                                                            
   RMAX   =    2.565    core radius for proj-oper                               
   RAUG   =    1.300    factor for augmentation sphere                          
   RDEP   =    2.643    radius for radial grids                                 
   RDEPT  =    2.092    core radius for aug-charge                              
                                                                                
   Atomic configuration                                                         
   16 entries                                                                   
     n  l   j            E        occ.                                          
     1  0  0.50    -88091.8466   2.0000                                         
     2  0  0.50    -15753.4197   2.0000                                         
     2  1  1.50    -13508.1797   6.0000                                         
     3  0  0.50     -3781.7194   2.0000                                         
     3  1  1.50     -3138.2529   6.0000                                         
     3  2  2.50     -2483.2977  10.0000                                         
     4  0  0.50      -856.2895   2.0000                                         
     4  1  1.50      -645.4942   6.0000                                         
     4  2  2.50      -401.8768  10.0000                                         
     4  3  3.50      -132.9059  14.0000                                         
     5  0  0.50      -144.0950   2.0000                                         
     5  1  1.50       -85.7879   6.0000                                         
     5  2  2.50       -21.1769  10.0000                                         
     6  0  0.50       -12.0372   2.0000                                         
     6  1  1.50        -3.4971   2.0000                                         
     5  3  2.50        -2.7212   0.0000                                         
   Description                                                                  
     l       E           TYP  RCUT    TYP  RCUT                                 
     2    -21.1768523     23  2.500                                             
     2      1.3605826     23  2.500                                             
     0    -12.0371562     23  2.500                                             
     0     13.6058260     23  2.500                                             
     1     -3.4971339     23  2.500                                             
     1     13.6058260     23  2.500                                             
     3     -1.3605826      7  2.500                                             
  local pseudopotential read in
  partial core-charges read in
  partial kinetic energy density read in
  atomic valenz-charges read in
  non local Contribution for L=           2  read in
    real space projection operators read in
  non local Contribution for L=           2  read in
    real space projection operators read in
  non local Contribution for L=           0  read in
    real space projection operators read in
  non local Contribution for L=           0  read in
    real space projection operators read in
  non local Contribution for L=           1  read in
    real space projection operators read in
  non local Contribution for L=           1  read in
    real space projection operators read in
    PAW grid and wavefunctions read in

   number of l-projection  operators is LMAX  =           6
   number of lm-projection operators is LMMAX =          18

 POTCAR:    PAW_PBE Br 06Sep2000                  
   SHA256 =  96a73d2954943bbee26f4990d676cc6c3bf44b8dd2c75cd4b3b825d8403f0103 Br
   COPYR  = (c) Copyright 06Sep2000 Georg Kresse                                
   COPYR  = This file is part of the software VASP. Any use, copying, and all ot
   COPYR  = If you do not have a valid VASP license, you may not use, copy or di
   VRHFIN =Br: s2p5                                                             
   LEXCH  = PE                                                                  
   EATOM  =   368.4488 eV,   27.0802 Ry                                         
                                                                                
   TITEL  = PAW_PBE Br 06Sep2000                                                
   LULTRA =        F    use ultrasoft PP ?                                      
   IUNSCR =        1    unscreen: 0-lin 1-nonlin 2-no                           
   RPACOR =    1.900    partial core radius                                     
   POMASS =   79.904; ZVAL   =    7.000    mass and valenz                      
   RCORE  =    2.100    outmost cutoff radius                                   
   RWIGS  =    2.200; RWIGS  =    1.164    wigner-seitz radius (au A)           
   ENMAX  =  216.285; ENMIN  =  162.214 eV                                      
   ICORE  =        3    local potential                                         
   LCOR   =        T    correct aug charges                                     
   LPAW   =        T    paw PP                                                  
   EAUG   =  503.852                                                            
   DEXC   =    0.000                                                            
   RMAX   =    2.139    core radius for proj-oper                               
   RAUG   =    1.300    factor for augmentation sphere                          
   RDEP   =    2.186    radius for radial grids                                 
   RDEPT  =    1.890    core radius for aug-charge                              
                                                                                
   Atomic configuration                                                         
   10 entries                                                                   
     n  l   j            E        occ.                                          
     1  0  0.50    -13316.2796   2.0000                                         
     2  0  0.50     -1732.8239   2.0000                                         
     2  1  1.50     -1528.2193   6.0000                                         
     3  0  0.50      -238.0460   2.0000                                         
     3  1  1.50      -173.4609   6.0000                                         
     3  2  2.50       -66.7132  10.0000                                         
     4  0  0.50       -20.1334   2.0000                                         
     4  1  0.50        -7.8591   5.0000                                         
     4  2  2.50        -8.1635   0.0000                                         
     4  3  2.50        -8.1635   0.0000                                         
   Description                                                                  
     l       E           TYP  RCUT    TYP  RCUT                                 
     0    -20.1333652     23  2.100                                             
     0    -21.4939478     23  2.100                                             
     1     -7.8591052     23  2.100                                             
     1     -3.1608434     23  2.100                                             
     2     -8.1634956     23  2.100                                             
     3     -1.3605826      7  2.100                                             
  local pseudopotential read in
  partial core-charges read in
  partial kinetic energy density read in
  atomic valenz-charges read in
  non local Contribution for L=           0  read in
    real space projection operators read in
  non local Contribution for L=           0  read in
    real space projection operators read in
  non local Contribution for L=           1  read in
    real space projection operators read in
  non local Contribution for L=           1  read in
    real space projection operators read in
  non local Contribution for L=           2  read in
    real space projection operators read in
    PAW grid and wavefunctions read in

   number of l-projection  operators is LMAX  =           5
   number of lm-projection operators is LMMAX =          13

 Optimization of the real space projectors (new method)

 maximal supplied QI-value         = 15.12
 optimisation between [QCUT,QGAM] = [  8.77, 17.69] = [ 21.53, 87.61] Ry 
 Optimized for a Real-space Cutoff    1.85 Angstroem

   l    n(q)    QCUT    max X(q) W(low)/X(q) W(high)/X(q)  e(spline) 
   0     10     8.768    25.322    0.81E-04    0.51E-04    0.48E-06
   0     10     8.768    99.187    0.78E-04    0.50E-04    0.47E-06
   1      9     8.768    11.761    0.21E-03    0.20E-03    0.37E-06
   1      9     8.768     8.275    0.24E-03    0.22E-03    0.41E-06
   2      9     8.768     3.829    0.23E-04    0.15E-03    0.18E-06
 Optimization of the real space projectors (new method)

 maximal supplied QI-value         = 15.12
 optimisation between [QCUT,QGAM] = [  8.77, 17.69] = [ 21.53, 87.61] Ry 
 Optimized for a Real-space Cutoff    1.59 Angstroem

   l    n(q)    QCUT    max X(q) W(low)/X(q) W(high)/X(q)  e(spline) 
   2      7     8.768     3.846    0.48E-04    0.11E-03    0.11E-06
   2      7     8.768     8.593    0.20E-03    0.22E-04    0.24E-06
   0      8     8.768    20.082    0.68E-04    0.88E-04    0.41E-07
   0      8     8.768     8.597    0.89E-04    0.13E-03    0.59E-07
   1      8     8.768    33.223    0.15E-03    0.53E-04    0.87E-07
   1      8     8.768    15.899    0.14E-03    0.44E-04    0.78E-07
 Optimization of the real space projectors (new method)

 maximal supplied QI-value         = 17.95
 optimisation between [QCUT,QGAM] = [  8.80, 17.59] = [ 21.67, 86.68] Ry 
 Optimized for a Real-space Cutoff    1.59 Angstroem

   l    n(q)    QCUT    max X(q) W(low)/X(q) W(high)/X(q)  e(spline) 
   0      8     8.797   175.082    0.82E-04    0.14E-03    0.89E-07
   0      8     8.797   174.004    0.79E-04    0.14E-03    0.86E-07
   1      8     8.797    54.315    0.16E-03    0.14E-04    0.30E-06
   1      8     8.797    42.441    0.16E-03    0.14E-04    0.30E-06
   2      7     8.797     3.596    0.92E-04    0.15E-03    0.85E-07
  PAW_PBE Cs_sv 08Apr2002               :
 energy of atom  1       EATOM= -555.6835
 kinetic energy error for atom=    0.0069 (will be added to EATOM!!)
  PAW_PBE Pb_d 06Sep2000                :
 energy of atom  2       EATOM=-1661.6185
 kinetic energy error for atom=    0.0498 (will be added to EATOM!!)
  PAW_PBE Br 06Sep2000                  :
 energy of atom  3       EATOM= -368.4488
 kinetic energy error for atom=    0.0072 (will be added to EATOM!!)


 POSCAR: Cs8 Pb8 Br23                            
  positions in direct lattice
  No initial velocities read in

 METAGGA = SCAN     LMAXTAU =  6    LMIXTAU =  F

 exchange correlation table for  LEXCH =        8
   RHO(1)=    0.500       N(1)  =     2000
   RHO(2)=  100.500       N(2)  =     4000

 VTST: version 3.2, (02/03/18)

 CHAIN: initializing optimizer
 
 OPT: Using VASP Conjugate-Gradient optimizer
 CHAIN: Read ICHAIN            0

 POSCAR: Cs8 Pb8 Br23                            
  positions in direct lattice
  No initial velocities read in



--------------------------------------------------------------------------------------------------------


 ion  position               nearest neighbor table
   1  0.273  0.250  0.197-
   2  0.771  0.251  0.741-
   3  0.706  0.750  0.254-
   4  0.209  0.749  0.784-
   5  0.284  0.252  0.734-
   6  0.797  0.250  0.220-  39 2.87
   7  0.727  0.750  0.793-
   8  0.232  0.748  0.283-
   9  0.002  0.999  1.000-  21 2.96  19 2.97  30 2.99  32 3.00  34 3.01  29 3.04
  10  0.492  0.008  0.499-  20 2.89  31 2.92  28 2.96  33 2.97  22 3.17
  11  0.501  0.001  0.998-  23 2.97  17 2.97  32 2.98  30 3.00  33 3.02  28 3.02
  12  0.011  0.997  0.501-  31 2.92  29 2.97  18 2.98  24 3.00  34 3.02
  13  0.501  0.499  0.998-  23 2.97  17 2.97  25 2.98  26 3.00  35 3.00  37 3.01
  14  0.004  0.500  0.500-  36 2.91  24 2.99  38 2.99  27 3.00  18 3.02
  15  0.002  0.501  0.000-  21 2.96  19 2.97  35 2.98  25 3.00  27 3.02  38 3.02
  16  0.492  0.498  0.500-  37 2.97  26 2.98  20 2.99  22 2.99  36 3.00
  17  0.475  0.750  0.971-  11 2.97  13 2.97
  18  0.965  0.751  0.454-  12 2.98  14 3.02
  19  0.981  0.250  0.975-  15 2.97   9 2.97
  20  0.444  0.249  0.471-  10 2.89  16 2.99
  21  0.029  0.750  0.036-   9 2.96  15 2.96
  22  0.552  0.745  0.520-  16 2.99  10 3.17
  23  0.534  0.250  0.029-  11 2.97  13 2.97
  24  0.016  0.249  0.544-  14 2.99  12 3.00
  25  0.249  0.471  0.950-  13 2.98  15 3.00
  26  0.455  0.529  0.247-  16 2.98  13 3.00
  27  0.948  0.535  0.746-  14 3.00  15 3.02
  28  0.549  0.032  0.748-  10 2.96  11 3.02
  29  0.052  0.036  0.255-  12 2.97   9 3.04
  30  0.754  0.976  0.049-   9 2.99  11 3.00
  31  0.256  0.954  0.551-  10 2.92  12 2.92
  32  0.249  0.030  0.947-  11 2.98   9 3.00
  33  0.455  0.970  0.248-  10 2.97  11 3.02
  34  0.950  0.964  0.747-   9 3.01  12 3.02
  35  0.754  0.524  0.049-  15 2.98  13 3.00
  36  0.247  0.541  0.553-  14 2.91  16 3.00
  37  0.547  0.469  0.749-  16 2.97  13 3.01
  38  0.052  0.463  0.254-  14 2.99  15 3.02
  39  0.733  0.262  0.455-   6 2.87


IMPORTANT INFORMATION: All symmetrisations will be switched off!
NOSYMM: (Re-)initialisation of all symmetry stuff for point group C_1.



 KPOINTS: 1x1x1                                   

Automatic generation of k-mesh.
Space group operators:
 irot       det(A)        alpha          n_x          n_y          n_z        tau_x        tau_y        tau_z
    1     1.000000     0.000001     1.000000     0.000000     0.000000     0.000000     0.000000     0.000000
 
 Subroutine IBZKPT returns following result:
 ===========================================
 
 Found      8 irreducible k-points:
 
 Following reciprocal coordinates:
            Coordinates               Weight
  0.000000  0.000000  0.000000      1.000000
  0.500000  0.000000  0.000000      1.000000
  0.000000  0.500000  0.000000      1.000000
  0.500000  0.500000  0.000000      1.000000
  0.000000  0.000000  0.500000      1.000000
  0.500000  0.000000  0.500000      1.000000
  0.000000  0.500000  0.500000      1.000000
  0.500000  0.500000  0.500000      1.000000
 
 Following cartesian coordinates:
            Coordinates               Weight
 -0.000000  0.000000  0.000000      1.000000
  0.029563  0.000000  0.031093      1.000000
 -0.000000  0.042626  0.000000      1.000000
  0.029563  0.042626  0.031093      1.000000
 -0.029563  0.000000  0.031093      1.000000
  0.000000  0.000000  0.062187      1.000000
 -0.029563  0.042626  0.031093      1.000000
  0.000000  0.042626  0.062187      1.000000
 


--------------------------------------------------------------------------------------------------------




 Dimension of arrays:
   k-points           NKPTS =      8   k-points in BZ     NKDIM =      8   number of bands    NBANDS=    208
   number of dos      NEDOS =    301   number of ions     NIONS =     39
   non local maximal  LDIM  =      6   non local SUM 2l+1 LMDIM =     18
   total plane-waves  NPLWV = 343000
   max r-space proj   IRMAX =   5734   max aug-charges    IRDMAX=  91523
   dimension x,y,z NGX =    70 NGY =   70 NGZ =   70
   dimension x,y,z NGXF=   140 NGYF=  140 NGZF=  140
   support grid    NGXF=   280 NGYF=  280 NGZF=  280
   ions per type =               8   8  23
   NGX,Y,Z   is equivalent  to a cutoff of   9.97,  9.92,  9.97 a.u.
   NGXF,Y,Z  is equivalent  to a cutoff of  19.95, 19.84, 19.95 a.u.

 SYSTEM =  CsPbBr3 cubic bulk                      
 POSCAR =  Cs8 Pb8 Br23                            

 Startparameter for this run:
   NWRITE =      2    write-flag & timer
   PREC   = accura    normal or accurate (medium, high low for compatibility)
   ISTART =      0    job   : 0-new  1-cont  2-samecut
   ICHARG =      2    charge: 1-file 2-atom 10-const
   ISPIN  =      1    spin polarized calculation?
   LNONCOLLINEAR =      F non collinear calculations
   LSORBIT =      F    spin-orbit coupling
   INIWAV =      1    electr: 0-lowe 1-rand  2-diag
   LASPH  =      T    aspherical Exc in radial PAW
   METAGGA=      F    non-selfconsistent MetaGGA calc.

 Electronic Relaxation 1
   ENCUT  =  300.0 eV  22.05 Ry    4.70 a.u.  16.48 16.57 16.48*2*pi/ulx,y,z
   ENINI  =  300.0     initial cutoff
   ENAUG  =  503.9 eV  augmentation charge cutoff
   NELM   =    200;   NELMIN=  2; NELMDL= -5     # of ELM steps 
   EDIFF  = 0.1E-05   stopping-criterion for ELM
   LREAL  =      T    real-space projection
   NLSPLINE    = F    spline interpolate recip. space projectors
   LCOMPAT=      F    compatible to vasp.4.4
   GGA_COMPAT  = T    GGA compatible to vasp.4.4-vasp.4.6
   LMAXPAW     = -100 max onsite density
   LMAXMIX     =    2 max onsite mixed and CHGCAR
   VOSKOWN=      0    Vosko Wilk Nusair interpolation
   ROPT   =   -0.00025  -0.00025  -0.00025
 Ionic relaxation
   EDIFFG = -.1E-01   stopping-criterion for IOM
   NSW    =      0    number of steps for IOM
   NBLOCK =      1;   KBLOCK =      1    inner block; outer block 
   IBRION =     -1    ionic relax: 0-MD 1-quasi-New 2-CG
   NFREE  =      1    steps in history (QN), initial steepest desc. (CG)
   ISIF   =      2    stress and relaxation
   IWAVPR =     10    prediction:  0-non 1-charg 2-wave 3-comb
   ISYM   =      0    0-nonsym 1-usesym 2-fastsym
   LCORR  =      T    Harris-Foulkes like correction to forces

   POTIM  = 0.5000    time-step for ionic-motion
   TEIN   =    0.0    initial temperature
   TEBEG  =    0.0;   TEEND  =   0.0 temperature during run
   SMASS  =  -3.00    Nose mass-parameter (am)
   estimated Nose-frequenzy (Omega)   =  0.10E-29 period in steps =****** mass=  -0.311E-26a.u.
   SCALEE = 1.0000    scale energy and forces
   NPACO  =    256;   APACO  = 16.0  distance and # of slots for P.C.
   PSTRESS=    0.0 pullay stress

  Mass of Ions in am
   POMASS = 132.90207.20 79.90
  Ionic Valenz
   ZVAL   =   9.00 14.00  7.00
  Atomic Wigner-Seitz radii
   RWIGS  =  -1.00 -1.00 -1.00
  virtual crystal weights 
   VCA    =   1.00  1.00  1.00
   NELECT =     344.0000    total number of electrons
   NUPDOWN=       0.0000    fix difference up-down

 DOS related values:
   EMIN   =  10.00;   EMAX   =-10.00  energy-range for DOS
   EFERMI =   0.00
   ISMEAR =     0;   SIGMA  =   0.01  broadening in eV -4-tet -1-fermi 0-gaus

 Electronic relaxation 2 (details)
   IALGO  =     38    algorithm
   LDIAG  =      T    sub-space diagonalisation (order eigenvalues)
   LSUBROT=      F    optimize rotation matrix (better conditioning)
   TURBO    =      0    0=normal 1=particle mesh
   IRESTART =      0    0=no restart 2=restart with 2 vectors
   NREBOOT  =      0    no. of reboots
   NMIN     =      0    reboot dimension
   EREF     =   0.00    reference energy to select bands
   IMIX   =      4    mixing-type and parameters
     AMIX     =   0.40;   BMIX     =  1.00
     AMIX_MAG =   1.60;   BMIX_MAG =  1.00
     AMIN     =   0.10
     WC   =   100.;   INIMIX=   1;  MIXPRE=   1;  MAXMIX= -45

 Intra band minimization:
   WEIMIN = 0.0000     energy-eigenvalue tresh-hold
   EBREAK =  0.12E-08  absolut break condition
   DEPER  =   0.30     relativ break condition  

   TIME   =   0.40     timestep for ELM

  volume/ion in A,a.u.               =      40.90       276.00
  Fermi-wavevector in a.u.,A,eV,Ry     =   0.981747  1.855232 13.113654  0.963826
  Thomas-Fermi vector in A             =   2.112777

 Write flags
   LWAVE        =      F    write WAVECAR
   LDOWNSAMPLE  =      F    k-point downsampling of WAVECAR
   LCHARG       =      F    write CHGCAR
   LVTOT        =      F    write LOCPOT, total local potential
   LVHAR        =      T    write LOCPOT, Hartree potential only
   LELF         =      F    write electronic localiz. function (ELF)
   LORBIT       =     10    0 simple, 1 ext, 2 COOP (PROOUT), +10 PAW based schemes


 Dipole corrections
   LMONO  =      F    monopole corrections only (constant potential shift)
   LDIPOL =      F    correct potential (dipole corrections)
   IDIPOL =      0    1-x, 2-y, 3-z, 4-all directions 
   EPSILON=  1.0000000 bulk dielectric constant

 Exchange correlation treatment:
   GGA     =    --    GGA type
   LEXCH   =     8    internal setting for exchange type
   VOSKOWN=      0    Vosko Wilk Nusair interpolation
   LHFCALC =     F    Hartree Fock is set to
   LHFONE  =     F    Hartree Fock one center treatment
   AEXX    =    0.0000 exact exchange contribution

 Linear response parameters
   LEPSILON=     F    determine dielectric tensor
   LRPA    =     F    only Hartree local field effects (RPA)
   LNABLA  =     F    use nabla operator in PAW spheres
   LVEL    =     F    velocity operator in full k-point grid
   LINTERFAST=   F  fast interpolation
   KINTER  =     0    interpolate to denser k-point grid
   CSHIFT  =0.1000    complex shift for real part using Kramers Kronig
   OMEGAMAX=  -1.0    maximum frequency
   DEG_THRESHOLD= 0.2000000E-02 threshold for treating states as degnerate
   RTIME   =   -0.100 relaxation time in fs
  (WPLASMAI=    0.000 imaginary part of plasma frequency in eV, 0.658/RTIME)
   DFIELD  = 0.0000000 0.0000000 0.0000000 field for delta impulse in time

 Orbital magnetization related:
   ORBITALMAG=     F  switch on orbital magnetization
   LCHIMAG   =     F  perturbation theory with respect to B field
   DQ        =  0.001000  dq finite difference perturbation B field
   LLRAUG    =     F  two centre corrections for induced B field



--------------------------------------------------------------------------------------------------------


 Static calculation
 charge density and potential will be updated during run
 non-spin polarized calculation
 Variant of blocked Davidson
 Davidson routine will perform the subspace rotation
 perform sub-space diagonalisation
    after iterative eigenvector-optimisation
 modified Broyden-mixing scheme, WC =      100.0
 initial mixing is a Kerker type mixing with AMIX =  0.4000 and BMIX =      1.0000
 Hartree-type preconditioning will be used
 using additional bands           36
 real space projection scheme for non local part
 use partial core corrections
 calculate Harris-corrections to forces   (improved forces if not selfconsistent)
 use gradient corrections 
 use of overlap-Matrix (Vanderbilt PP)
 Gauss-broadening in eV      SIGMA  =   0.01


--------------------------------------------------------------------------------------------------------


  energy-cutoff  :      300.00
  volume of cell :     1595.09
      direct lattice vectors                 reciprocal lattice vectors
     8.456489000  0.000000000  8.040301000     0.059126193 -0.000000000  0.062186727
     0.000000000 11.729847000  0.000000000     0.000000000  0.085252604 -0.000000000
    -8.456489000  0.000000000  8.040301000    -0.059126193  0.000000000  0.062186727

  length of vectors
    11.668703715 11.729847000 11.668703715     0.085808482  0.085252604  0.085808482



 k-points in units of 2pi/SCALE and weight: 1x1x1                                   
  -0.00000000  0.00000000  0.00000000       0.125
   0.02956310  0.00000000  0.03109336       0.125
  -0.00000000  0.04262630  0.00000000       0.125
   0.02956310  0.04262630  0.03109336       0.125
  -0.02956310  0.00000000  0.03109336       0.125
   0.00000000  0.00000000  0.06218673       0.125
  -0.02956310  0.04262630  0.03109336       0.125
   0.00000000  0.04262630  0.06218673       0.125

 k-points in reciprocal lattice and weights: 1x1x1                                   
   0.00000000  0.00000000  0.00000000       0.125
   0.50000000  0.00000000  0.00000000       0.125
   0.00000000  0.50000000  0.00000000       0.125
   0.50000000  0.50000000  0.00000000       0.125
   0.00000000  0.00000000  0.50000000       0.125
   0.50000000  0.00000000  0.50000000       0.125
   0.00000000  0.50000000  0.50000000       0.125
   0.50000000  0.50000000  0.50000000       0.125

 position of ions in fractional coordinates (direct lattice) 
   0.27267800  0.24982100  0.19655200
   0.77103100  0.25149000  0.74054400
   0.70618100  0.74975900  0.25400000
   0.20904600  0.74889000  0.78368300
   0.28435000  0.25190500  0.73432900
   0.79676200  0.25005700  0.22044100
   0.72717200  0.74988600  0.79309100
   0.23249200  0.74772900  0.28340700
   0.00205900  0.99852600  0.99974900
   0.49173600  0.00825900  0.49919500
   0.50066300  0.00110200  0.99800900
   0.01143500  0.99722500  0.50098600
   0.50077800  0.49936400  0.99832400
   0.00400600  0.50019900  0.50020700
   0.00183400  0.50121500  0.00014300
   0.49185700  0.49761300  0.49982100
   0.47529300  0.75031300  0.97106200
   0.96480000  0.75095500  0.45411400
   0.98150000  0.24992700  0.97452000
   0.44385700  0.24862200  0.47098300
   0.02905500  0.74995900  0.03598300
   0.55162300  0.74492900  0.51993100
   0.53418400  0.25010000  0.02925800
   0.01613600  0.24937000  0.54357800
   0.24923900  0.47108500  0.94965100
   0.45481400  0.52864800  0.24730800
   0.94844700  0.53517000  0.74623000
   0.54929300  0.03193000  0.74822800
   0.05224300  0.03638500  0.25509600
   0.75434600  0.97578200  0.04885200
   0.25563400  0.95363800  0.55110100
   0.24937600  0.02972300  0.94730800
   0.45481700  0.97017500  0.24816900
   0.95000700  0.96364400  0.74689200
   0.75427700  0.52422200  0.04895900
   0.24688200  0.54062800  0.55255200
   0.54728200  0.46852800  0.74894900
   0.05215700  0.46292000  0.25392400
   0.73288300  0.26164500  0.45457900

 position of ions in cartesian coordinates  (Angst):
   0.64375868  2.93036211  3.77275044
   0.25781298  2.94993922 12.15351798
   3.82386365  8.79455836  7.72014425
  -4.85941147  8.78436512  7.98183997
  -3.80524246  2.95480711  8.19048578
   4.87365220  2.93313035  8.17861830
  -0.55744330  8.79604805 12.22337212
  -0.43056214  8.77074677  4.14798325
  -8.43695451 11.71255721  8.05483786
  -0.06307695  0.09687681  7.96738351
  -4.20580098  0.01292629 12.04977398
  -4.13988265 11.69729667  4.12001908
  -4.20749228  5.85746332 12.05323131
  -4.19611830  5.86725774  4.05402429
   0.01429992  5.87917526  0.01589568
  -0.06734748  5.83692436  7.97338962
  -4.19246510  8.80105669 11.62912955
   4.31861054  8.80858725 11.40849565
   0.05902629  2.93160547 15.72698956
  -0.22939072  2.91629802  7.35558897
  -0.05858656  8.79690433  0.52292510
   0.26800305  8.73790320  8.61561670
   4.26990116  2.93363473  4.53024328
  -4.46030747  2.92507195  4.50026903
  -5.92302637  5.52575497  9.63943647
   1.75477221  6.20096016  5.64527222
   1.71004584  6.27746222 13.62571318
  -1.68229164  0.37453401 10.43245939
  -1.71542416  0.42679048  2.47109807
   5.96600225 11.44577357  6.45795368
  -2.49861344 11.18602783  6.48639223
  -5.90205428  0.34864624  9.62169956
   1.74751654 11.38000431  5.65221904
   1.71763976 11.30339668 13.64357873
   5.96451391  6.14904385  6.45825921
  -2.58489499  6.34148372  6.42768999
  -1.70539477  5.49576176 10.42208741
  -1.70624042  5.42998077  2.46098337
   2.35347471  3.06905582  9.54755191



--------------------------------------------------------------------------------------------------------


 k-point  1 :   0.0000 0.0000 0.0000  plane waves:   18809
 k-point  2 :   0.5000 0.0000 0.0000  plane waves:   18808
 k-point  3 :   0.0000 0.5000 0.0000  plane waves:   18794
 k-point  4 :   0.5000 0.5000 0.0000  plane waves:   18804
 k-point  5 :   0.0000 0.0000 0.5000  plane waves:   18808
 k-point  6 :   0.5000 0.0000 0.5000  plane waves:   18790
 k-point  7 :   0.0000 0.5000 0.5000  plane waves:   18804
 k-point  8 :   0.5000 0.5000 0.5000  plane waves:   18800

 maximum and minimum number of plane-waves per node :      2389     2304

 maximum number of plane-waves:     18809
 maximum index in each direction: 
   IXMAX=   16   IYMAX=   16   IZMAX=   16
   IXMIN=  -16   IYMIN=  -17   IZMIN=  -16


 real space projection operators:
  total allocation   :      16743.90 KBytes
  max/ min on nodes  :       2191.16       1820.44


 parallel 3D FFT for wavefunctions:
    minimum data exchange during FFTs selected (reduces bandwidth)
 parallel 3D FFT for charge:
    minimum data exchange during FFTs selected (reduces bandwidth)


 total amount of memory used by VASP MPI-rank0    60642. kBytes
=======================================================================

   base      :      30000. kBytes
   nonlr-proj:       6477. kBytes
   fftplans  :       8423. kBytes
   grid      :       7465. kBytes
   one-center:         77. kBytes
   wavefun   :       8200. kBytes

     INWAV:  cpu time    0.0000: real time    0.0000
 Broyden mixing: mesh for mixing (old mesh)
   NGX = 33   NGY = 33   NGZ = 33
  (NGX  =140   NGY  =140   NGZ  =140)
  gives a total of  35937 points

 initial charge density was supplied:
 charge density of overlapping atoms calculated
 number of electron     345.0000000 magnetization 
 keeping initial charge density in first step


--------------------------------------------------------------------------------------------------------


 Maximum index for non-local projection operator          731
 Maximum index for augmentation-charges         2922 (set IRDMAX)


--------------------------------------------------------------------------------------------------------


 First call to EWALD:  gamma=   0.152
 Maximum number of real-space cells 3x 3x 3
 Maximum number of reciprocal cells 3x 3x 3

    FEWALD:  cpu time    0.0042: real time    0.0042


--------------------------------------- Iteration      1(   1)  ---------------------------------------


    POTLOK:  cpu time    0.2626: real time    0.2797
    SETDIJ:  cpu time    1.1970: real time    1.1970
     EDDAV:  cpu time   16.6855: real time   16.6911
       DOS:  cpu time    0.0008: real time    0.0008
    --------------------------------------------
      LOOP:  cpu time   18.1458: real time   18.1686

 eigenvalue-minimisations  :  3496
 total energy-change (2. order) : 0.1336279E+04  (-0.1105132E+05)
 number of electron     345.0000000 magnetization 
 augmentation part      345.0000000 magnetization 

 Free energy of the ion-electron system (eV)
  ---------------------------------------------------
  alpha Z        PSCENC =       872.70583573
  Ewald energy   TEWEN  =    -17960.95207229
  -Hartree energ DENC   =     -7395.01455336
  -exchange      EXHF   =         0.00000000
  -V(xc)+E(xc)   XCENC  =       907.99319339
  PAW double counting   =     21345.28103884   -22405.85761495
  entropy T*S    EENTRO =        -0.00068525
  eigenvalues    EBANDS =      -239.99432282
  atomic energy  EATOM  =     26212.11861568
  Solvation  Ediel_sol  =         0.00000000
  ---------------------------------------------------
  free energy    TOTEN  =      1336.27943497 eV

  energy without entropy =     1336.28012022  energy(sigma->0) =     1336.27977759


--------------------------------------------------------------------------------------------------------




--------------------------------------- Iteration      1(   2)  ---------------------------------------


     EDDAV:  cpu time   18.5137: real time   18.5311
       DOS:  cpu time    0.0004: real time    0.0004
    --------------------------------------------
      LOOP:  cpu time   18.5141: real time   18.5315

 eigenvalue-minimisations  :  4096
 total energy-change (2. order) :-0.2447298E+04  (-0.2359504E+04)
 number of electron     345.0000000 magnetization 
 augmentation part      345.0000000 magnetization 

 Free energy of the ion-electron system (eV)
  ---------------------------------------------------
  alpha Z        PSCENC =       872.70583573
  Ewald energy   TEWEN  =    -17960.95207229
  -Hartree energ DENC   =     -7395.01455336
  -exchange      EXHF   =         0.00000000
  -V(xc)+E(xc)   XCENC  =       907.99319339
  PAW double counting   =     21345.28103884   -22405.85761495
  entropy T*S    EENTRO =        -0.00000000
  eigenvalues    EBANDS =     -2687.29318686
  atomic energy  EATOM  =     26212.11861568
  Solvation  Ediel_sol  =         0.00000000
  ---------------------------------------------------
  free energy    TOTEN  =     -1111.01874382 eV

  energy without entropy =    -1111.01874382  energy(sigma->0) =    -1111.01874382


--------------------------------------------------------------------------------------------------------




--------------------------------------- Iteration      1(   3)  ---------------------------------------


     EDDAV:  cpu time   19.3524: real time   19.3989
       DOS:  cpu time    0.0004: real time    0.0004
    --------------------------------------------
      LOOP:  cpu time   19.3528: real time   19.3992

 eigenvalue-minimisations  :  4408
 total energy-change (2. order) :-0.3628743E+03  (-0.3608336E+03)
 number of electron     345.0000000 magnetization 
 augmentation part      345.0000000 magnetization 

 Free energy of the ion-electron system (eV)
  ---------------------------------------------------
  alpha Z        PSCENC =       872.70583573
  Ewald energy   TEWEN  =    -17960.95207229
  -Hartree energ DENC   =     -7395.01455336
  -exchange      EXHF   =         0.00000000
  -V(xc)+E(xc)   XCENC  =       907.99319339
  PAW double counting   =     21345.28103884   -22405.85761495
  entropy T*S    EENTRO =        -0.00000000
  eigenvalues    EBANDS =     -3050.16746162
  atomic energy  EATOM  =     26212.11861568
  Solvation  Ediel_sol  =         0.00000000
  ---------------------------------------------------
  free energy    TOTEN  =     -1473.89301858 eV

  energy without entropy =    -1473.89301858  energy(sigma->0) =    -1473.89301858


--------------------------------------------------------------------------------------------------------




--------------------------------------- Iteration      1(   4)  ---------------------------------------


     EDDAV:  cpu time   17.9764: real time   17.9976
       DOS:  cpu time    0.0004: real time    0.0004
    --------------------------------------------
      LOOP:  cpu time   17.9768: real time   17.9980

 eigenvalue-minimisations  :  3928
 total energy-change (2. order) :-0.1246304E+02  (-0.1242760E+02)
 number of electron     345.0000000 magnetization 
 augmentation part      345.0000000 magnetization 

 Free energy of the ion-electron system (eV)
  ---------------------------------------------------
  alpha Z        PSCENC =       872.70583573
  Ewald energy   TEWEN  =    -17960.95207229
  -Hartree energ DENC   =     -7395.01455336
  -exchange      EXHF   =         0.00000000
  -V(xc)+E(xc)   XCENC  =       907.99319339
  PAW double counting   =     21345.28103884   -22405.85761495
  entropy T*S    EENTRO =        -0.00000000
  eigenvalues    EBANDS =     -3062.63050475
  atomic energy  EATOM  =     26212.11861568
  Solvation  Ediel_sol  =         0.00000000
  ---------------------------------------------------
  free energy    TOTEN  =     -1486.35606171 eV

  energy without entropy =    -1486.35606171  energy(sigma->0) =    -1486.35606171


--------------------------------------------------------------------------------------------------------




--------------------------------------- Iteration      1(   5)  ---------------------------------------


     EDDAV:  cpu time   19.4272: real time   19.4465
       DOS:  cpu time    0.0005: real time    0.0005
    CHARGE:  cpu time    2.6959: real time    2.6960
    MIXING:  cpu time    0.0016: real time    0.0016
    --------------------------------------------
      LOOP:  cpu time   22.1252: real time   22.1446

 eigenvalue-minimisations  :  4416
 total energy-change (2. order) :-0.5693739E+00  (-0.5691167E+00)
 number of electron     343.9999999 magnetization 
 augmentation part       -5.0512386 magnetization 

 Broyden mixing:
  rms(total) = 0.10265E+01    rms(broyden)= 0.10259E+01
  rms(prec ) = 0.14452E+01
  weight for this iteration     100.00

 Free energy of the ion-electron system (eV)
  ---------------------------------------------------
  alpha Z        PSCENC =       872.70583573
  Ewald energy   TEWEN  =    -17960.95207229
  -Hartree energ DENC   =     -7395.01455336
  -exchange      EXHF   =         0.00000000
  -V(xc)+E(xc)   XCENC  =       907.99319339
  PAW double counting   =     21345.28103884   -22405.85761495
  entropy T*S    EENTRO =        -0.00000000
  eigenvalues    EBANDS =     -3063.19987863
  atomic energy  EATOM  =     26212.11861568
  Solvation  Ediel_sol  =         0.00000000
  ---------------------------------------------------
  free energy    TOTEN  =     -1486.92543559 eV

  energy without entropy =    -1486.92543559  energy(sigma->0) =    -1486.92543559


--------------------------------------------------------------------------------------------------------




--------------------------------------- Iteration      1(   6)  ---------------------------------------


    POTLOK:  cpu time    0.3041: real time    0.3127
    SETDIJ:  cpu time    1.1930: real time    1.1931
     EDDAV:  cpu time   18.9793: real time   18.9801
       DOS:  cpu time    0.0006: real time    0.0006
    CHARGE:  cpu time    2.6935: real time    2.6937
    MIXING:  cpu time    0.0016: real time    0.0016
    --------------------------------------------
      LOOP:  cpu time   23.1721: real time   23.1818

 eigenvalue-minimisations  :  4296
 total energy-change (2. order) : 0.7843971E+02  (-0.2393499E+01)
 number of electron     343.9999999 magnetization 
 augmentation part       -3.6346002 magnetization 

 Broyden mixing:
  rms(total) = 0.72999E+00    rms(broyden)= 0.72991E+00
  rms(prec ) = 0.93186E+00
  weight for this iteration     100.00

 eigenvalues of (default mixing * dielectric matrix)
  average eigenvalue GAMMA=   1.1954
  1.1954

 Free energy of the ion-electron system (eV)
  ---------------------------------------------------
  alpha Z        PSCENC =       872.70583573
  Ewald energy   TEWEN  =    -17960.95207229
  -Hartree energ DENC   =     -7375.27965807
  -exchange      EXHF   =         0.00000000
  -V(xc)+E(xc)   XCENC  =       936.00314050
  PAW double counting   =     21618.22288980   -22676.54528935
  entropy T*S    EENTRO =        -0.00000000
  eigenvalues    EBANDS =     -3034.75918911
  atomic energy  EATOM  =     26212.11861568
  Solvation  Ediel_sol  =         0.00000000
  ---------------------------------------------------
  free energy    TOTEN  =     -1408.48572711 eV

  energy without entropy =    -1408.48572711  energy(sigma->0) =    -1408.48572711


--------------------------------------------------------------------------------------------------------




--------------------------------------- Iteration      1(   7)  ---------------------------------------


    POTLOK:  cpu time    0.3065: real time    0.3160
    SETDIJ:  cpu time    1.1946: real time    1.1946
     EDDAV:  cpu time   18.0805: real time   18.0812
       DOS:  cpu time    0.0004: real time    0.0004
    CHARGE:  cpu time    2.6849: real time    2.6850
    MIXING:  cpu time    0.0017: real time    0.0017
    --------------------------------------------
      LOOP:  cpu time   22.2686: real time   22.2789

 eigenvalue-minimisations  :  3984
 total energy-change (2. order) : 0.6749809E+00  (-0.9631134E+00)
 number of electron     343.9999999 magnetization 
 augmentation part       -3.0573443 magnetization 

 Broyden mixing:
  rms(total) = 0.37355E+00    rms(broyden)= 0.37353E+00
  rms(prec ) = 0.42258E+00
  weight for this iteration     100.00

 eigenvalues of (default mixing * dielectric matrix)
  average eigenvalue GAMMA=   1.2950
  1.2950  1.2950

 Free energy of the ion-electron system (eV)
  ---------------------------------------------------
  alpha Z        PSCENC =       872.70583573
  Ewald energy   TEWEN  =    -17960.95207229
  -Hartree energ DENC   =     -7416.91121617
  -exchange      EXHF   =         0.00000000
  -V(xc)+E(xc)   XCENC  =       941.24817832
  PAW double counting   =     22233.15946566   -23289.03336408
  entropy T*S    EENTRO =        -0.00000000
  eigenvalues    EBANDS =     -3000.14618904
  atomic energy  EATOM  =     26212.11861568
  Solvation  Ediel_sol  =         0.00000000
  ---------------------------------------------------
  free energy    TOTEN  =     -1407.81074618 eV

  energy without entropy =    -1407.81074618  energy(sigma->0) =    -1407.81074618


--------------------------------------------------------------------------------------------------------




--------------------------------------- Iteration      1(   8)  ---------------------------------------


    POTLOK:  cpu time    0.2513: real time    0.3159
    SETDIJ:  cpu time    1.1926: real time    1.1926
     EDDAV:  cpu time   18.1529: real time   18.1538
       DOS:  cpu time    0.0004: real time    0.0004
    CHARGE:  cpu time    2.6823: real time    2.6824
    MIXING:  cpu time    0.0015: real time    0.0015
    --------------------------------------------
      LOOP:  cpu time   22.2811: real time   22.3467

 eigenvalue-minimisations  :  4008
 total energy-change (2. order) :-0.1824396E+00  (-0.6186684E-01)
 number of electron     343.9999999 magnetization 
 augmentation part       -3.1616278 magnetization 

 Broyden mixing:
  rms(total) = 0.22466E+00    rms(broyden)= 0.22466E+00
  rms(prec ) = 0.25978E+00
  weight for this iteration     100.00

 eigenvalues of (default mixing * dielectric matrix)
  average eigenvalue GAMMA=   1.6873
  1.1354  1.3284  2.5982

 Free energy of the ion-electron system (eV)
  ---------------------------------------------------
  alpha Z        PSCENC =       872.70583573
  Ewald energy   TEWEN  =    -17960.95207229
  -Hartree energ DENC   =     -7420.89022879
  -exchange      EXHF   =         0.00000000
  -V(xc)+E(xc)   XCENC  =       941.80250421
  PAW double counting   =     22456.06730205   -23512.16998602
  entropy T*S    EENTRO =        -0.00000000
  eigenvalues    EBANDS =     -2996.67515632
  atomic energy  EATOM  =     26212.11861568
  Solvation  Ediel_sol  =         0.00000000
  ---------------------------------------------------
  free energy    TOTEN  =     -1407.99318575 eV

  energy without entropy =    -1407.99318575  energy(sigma->0) =    -1407.99318575


--------------------------------------------------------------------------------------------------------




--------------------------------------- Iteration      1(   9)  ---------------------------------------


    POTLOK:  cpu time    0.2771: real time    0.3030
    SETDIJ:  cpu time    1.1965: real time    1.1965
     EDDAV:  cpu time   17.3258: real time   17.3265
       DOS:  cpu time    0.0004: real time    0.0004
    CHARGE:  cpu time    2.6907: real time    2.6908
    MIXING:  cpu time    0.0016: real time    0.0016
    --------------------------------------------
      LOOP:  cpu time   21.4921: real time   21.5188

 eigenvalue-minimisations  :  3720
 total energy-change (2. order) :-0.5032508E-01  (-0.2120061E-01)
 number of electron     343.9999999 magnetization 
 augmentation part       -3.2017657 magnetization 

 Broyden mixing:
  rms(total) = 0.49317E-01    rms(broyden)= 0.49314E-01
  rms(prec ) = 0.60406E-01
  weight for this iteration     100.00

 eigenvalues of (default mixing * dielectric matrix)
  average eigenvalue GAMMA=   1.4637
  2.5222  1.2493  1.2493  0.8339

 Free energy of the ion-electron system (eV)
  ---------------------------------------------------
  alpha Z        PSCENC =       872.70583573
  Ewald energy   TEWEN  =    -17960.95207229
  -Hartree energ DENC   =     -7426.57925217
  -exchange      EXHF   =         0.00000000
  -V(xc)+E(xc)   XCENC  =       943.67331360
  PAW double counting   =     22783.31548427   -23840.21821708
  entropy T*S    EENTRO =        -0.00000000
  eigenvalues    EBANDS =     -2992.10721858
  atomic energy  EATOM  =     26212.11861568
  Solvation  Ediel_sol  =         0.00000000
  ---------------------------------------------------
  free energy    TOTEN  =     -1408.04351084 eV

  energy without entropy =    -1408.04351084  energy(sigma->0) =    -1408.04351084


--------------------------------------------------------------------------------------------------------




--------------------------------------- Iteration      1(  10)  ---------------------------------------


    POTLOK:  cpu time    0.2816: real time    0.3190
    SETDIJ:  cpu time    1.1940: real time    1.1941
     EDDAV:  cpu time   18.5386: real time   18.5394
       DOS:  cpu time    0.0004: real time    0.0004
    CHARGE:  cpu time    2.6830: real time    2.6831
    MIXING:  cpu time    0.0016: real time    0.0016
    --------------------------------------------
      LOOP:  cpu time   22.6992: real time   22.7376

 eigenvalue-minimisations  :  4144
 total energy-change (2. order) :-0.4840542E-02  (-0.3432711E-02)
 number of electron     343.9999999 magnetization 
 augmentation part       -3.1900680 magnetization 

 Broyden mixing:
  rms(total) = 0.35036E-01    rms(broyden)= 0.35034E-01
  rms(prec ) = 0.45021E-01
  weight for this iteration     100.00

 eigenvalues of (default mixing * dielectric matrix)
  average eigenvalue GAMMA=   1.3088
  2.4192  1.3151  1.3151  0.7473  0.7473

 Free energy of the ion-electron system (eV)
  ---------------------------------------------------
  alpha Z        PSCENC =       872.70583573
  Ewald energy   TEWEN  =    -17960.95207229
  -Hartree energ DENC   =     -7425.04788455
  -exchange      EXHF   =         0.00000000
  -V(xc)+E(xc)   XCENC  =       943.56319191
  PAW double counting   =     22757.35911776   -23814.36216037
  entropy T*S    EENTRO =        -0.00000000
  eigenvalues    EBANDS =     -2993.43299525
  atomic energy  EATOM  =     26212.11861568
  Solvation  Ediel_sol  =         0.00000000
  ---------------------------------------------------
  free energy    TOTEN  =     -1408.04835138 eV

  energy without entropy =    -1408.04835138  energy(sigma->0) =    -1408.04835138


--------------------------------------------------------------------------------------------------------




--------------------------------------- Iteration      1(  11)  ---------------------------------------


    POTLOK:  cpu time    0.2707: real time    0.3071
    SETDIJ:  cpu time    1.1948: real time    1.1948
     EDDAV:  cpu time   17.1801: real time   17.1809
       DOS:  cpu time    0.0004: real time    0.0004
    CHARGE:  cpu time    2.6938: real time    2.6939
    MIXING:  cpu time    0.0016: real time    0.0017
    --------------------------------------------
      LOOP:  cpu time   21.3414: real time   21.3788

 eigenvalue-minimisations  :  3664
 total energy-change (2. order) :-0.1497154E-02  (-0.3683186E-03)
 number of electron     343.9999999 magnetization 
 augmentation part       -3.1886753 magnetization 

 Broyden mixing:
  rms(total) = 0.16468E-01    rms(broyden)= 0.16468E-01
  rms(prec ) = 0.25871E-01
  weight for this iteration     100.00

 eigenvalues of (default mixing * dielectric matrix)
  average eigenvalue GAMMA=   1.6179
  2.7997  2.7997  1.2099  1.2099  0.8442  0.8442

 Free energy of the ion-electron system (eV)
  ---------------------------------------------------
  alpha Z        PSCENC =       872.70583573
  Ewald energy   TEWEN  =    -17960.95207229
  -Hartree energ DENC   =     -7423.59828725
  -exchange      EXHF   =         0.00000000
  -V(xc)+E(xc)   XCENC  =       943.48135030
  PAW double counting   =     22739.24899979   -23796.48257744
  entropy T*S    EENTRO =        -0.00000000
  eigenvalues    EBANDS =     -2994.57171306
  atomic energy  EATOM  =     26212.11861568
  Solvation  Ediel_sol  =         0.00000000
  ---------------------------------------------------
  free energy    TOTEN  =     -1408.04984853 eV

  energy without entropy =    -1408.04984853  energy(sigma->0) =    -1408.04984853


--------------------------------------------------------------------------------------------------------




--------------------------------------- Iteration      1(  12)  ---------------------------------------


    POTLOK:  cpu time    0.2686: real time    0.2962
    SETDIJ:  cpu time    1.1965: real time    1.1966
     EDDAV:  cpu time   17.0057: real time   17.0068
       DOS:  cpu time    0.0005: real time    0.0005
    CHARGE:  cpu time    2.6949: real time    2.6950
    MIXING:  cpu time    0.0017: real time    0.0017
    --------------------------------------------
      LOOP:  cpu time   21.1679: real time   21.1967

 eigenvalue-minimisations  :  3608
 total energy-change (2. order) :-0.2481903E-02  (-0.7879228E-03)
 number of electron     343.9999999 magnetization 
 augmentation part       -3.1922781 magnetization 

 Broyden mixing:
  rms(total) = 0.12039E-01    rms(broyden)= 0.12038E-01
  rms(prec ) = 0.14942E-01
  weight for this iteration     100.00

 eigenvalues of (default mixing * dielectric matrix)
  average eigenvalue GAMMA=   1.5928
  2.8676  2.8676  1.2915  1.2915  0.8940  0.9687  0.9687

 Free energy of the ion-electron system (eV)
  ---------------------------------------------------
  alpha Z        PSCENC =       872.70583573
  Ewald energy   TEWEN  =    -17960.95207229
  -Hartree energ DENC   =     -7422.38762124
  -exchange      EXHF   =         0.00000000
  -V(xc)+E(xc)   XCENC  =       943.47460180
  PAW double counting   =     22729.51333535   -23787.11249298
  entropy T*S    EENTRO =        -0.00000000
  eigenvalues    EBANDS =     -2995.41253249
  atomic energy  EATOM  =     26212.11861568
  Solvation  Ediel_sol  =         0.00000000
  ---------------------------------------------------
  free energy    TOTEN  =     -1408.05233043 eV

  energy without entropy =    -1408.05233043  energy(sigma->0) =    -1408.05233043


--------------------------------------------------------------------------------------------------------




--------------------------------------- Iteration      1(  13)  ---------------------------------------


    POTLOK:  cpu time    0.2523: real time    0.3133
    SETDIJ:  cpu time    1.1967: real time    1.1968
     EDDAV:  cpu time   19.4018: real time   19.4029
       DOS:  cpu time    0.0010: real time    0.0010
    CHARGE:  cpu time    2.6927: real time    2.6929
    MIXING:  cpu time    0.0020: real time    0.0020
    --------------------------------------------
      LOOP:  cpu time   23.5466: real time   23.6089

 eigenvalue-minimisations  :  4424
 total energy-change (2. order) : 0.5050605E-03  (-0.1961908E-03)
 number of electron     343.9999999 magnetization 
 augmentation part       -3.1932897 magnetization 

 Broyden mixing:
  rms(total) = 0.53009E-02    rms(broyden)= 0.53003E-02
  rms(prec ) = 0.62721E-02
  weight for this iteration     100.00

 eigenvalues of (default mixing * dielectric matrix)
  average eigenvalue GAMMA=   1.5447
  3.1978  2.5518  1.2929  1.2929  1.1444  1.1444  0.8280  0.9058

 Free energy of the ion-electron system (eV)
  ---------------------------------------------------
  alpha Z        PSCENC =       872.70583573
  Ewald energy   TEWEN  =    -17960.95207229
  -Hartree energ DENC   =     -7423.33777495
  -exchange      EXHF   =         0.00000000
  -V(xc)+E(xc)   XCENC  =       943.53742061
  PAW double counting   =     22730.05454261   -23787.58848542
  entropy T*S    EENTRO =        -0.00000000
  eigenvalues    EBANDS =     -2994.58990735
  atomic energy  EATOM  =     26212.11861568
  Solvation  Ediel_sol  =         0.00000000
  ---------------------------------------------------
  free energy    TOTEN  =     -1408.05182537 eV

  energy without entropy =    -1408.05182537  energy(sigma->0) =    -1408.05182537


--------------------------------------------------------------------------------------------------------




--------------------------------------- Iteration      1(  14)  ---------------------------------------


    POTLOK:  cpu time    0.2675: real time    0.2894
    SETDIJ:  cpu time    1.1958: real time    1.1958
     EDDAV:  cpu time   17.9246: real time   17.9254
       DOS:  cpu time    0.0004: real time    0.0004
    CHARGE:  cpu time    2.6950: real time    2.6953
    MIXING:  cpu time    0.0018: real time    0.0018
    --------------------------------------------
      LOOP:  cpu time   22.0850: real time   22.1081

 eigenvalue-minimisations  :  3920
 total energy-change (2. order) : 0.4944334E-04  (-0.4257115E-04)
 number of electron     343.9999999 magnetization 
 augmentation part       -3.1924160 magnetization 

 Broyden mixing:
  rms(total) = 0.23878E-02    rms(broyden)= 0.23867E-02
  rms(prec ) = 0.33024E-02
  weight for this iteration     100.00

 eigenvalues of (default mixing * dielectric matrix)
  average eigenvalue GAMMA=   1.5524
  3.2831  2.1547  2.1547  1.1621  1.1621  1.1488  1.1488  0.8788  0.8788

 Free energy of the ion-electron system (eV)
  ---------------------------------------------------
  alpha Z        PSCENC =       872.70583573
  Ewald energy   TEWEN  =    -17960.95207229
  -Hartree energ DENC   =     -7423.60118064
  -exchange      EXHF   =         0.00000000
  -V(xc)+E(xc)   XCENC  =       943.55524047
  PAW double counting   =     22731.77850813   -23789.28696067
  entropy T*S    EENTRO =        -0.00000000
  eigenvalues    EBANDS =     -2994.36976234
  atomic energy  EATOM  =     26212.11861568
  Solvation  Ediel_sol  =         0.00000000
  ---------------------------------------------------
  free energy    TOTEN  =     -1408.05177593 eV

  energy without entropy =    -1408.05177593  energy(sigma->0) =    -1408.05177593


--------------------------------------------------------------------------------------------------------




--------------------------------------- Iteration      1(  15)  ---------------------------------------


    POTLOK:  cpu time    0.2956: real time    0.3183
    SETDIJ:  cpu time    1.1960: real time    1.1960
     EDDAV:  cpu time   17.8988: real time   17.8998
       DOS:  cpu time    0.0004: real time    0.0004
    CHARGE:  cpu time    2.6951: real time    2.6953
    MIXING:  cpu time    0.0018: real time    0.0018
    --------------------------------------------
      LOOP:  cpu time   22.0878: real time   22.1117

 eigenvalue-minimisations  :  3912
 total energy-change (2. order) : 0.1254347E-04  (-0.5043313E-05)
 number of electron     343.9999999 magnetization 
 augmentation part       -3.1924033 magnetization 

 Broyden mixing:
  rms(total) = 0.12591E-02    rms(broyden)= 0.12578E-02
  rms(prec ) = 0.18606E-02
  weight for this iteration     100.00

 eigenvalues of (default mixing * dielectric matrix)
  average eigenvalue GAMMA=   1.6311
  3.7889  2.4917  2.4917  1.3170  1.3170  1.1309  1.1309  0.8080  0.9176  0.9176

 Free energy of the ion-electron system (eV)
  ---------------------------------------------------
  alpha Z        PSCENC =       872.70583573
  Ewald energy   TEWEN  =    -17960.95207229
  -Hartree energ DENC   =     -7423.79609473
  -exchange      EXHF   =         0.00000000
  -V(xc)+E(xc)   XCENC  =       943.56233884
  PAW double counting   =     22732.41994184   -23789.91433878
  entropy T*S    EENTRO =        -0.00000000
  eigenvalues    EBANDS =     -2994.19598969
  atomic energy  EATOM  =     26212.11861568
  Solvation  Ediel_sol  =         0.00000000
  ---------------------------------------------------
  free energy    TOTEN  =     -1408.05176339 eV

  energy without entropy =    -1408.05176339  energy(sigma->0) =    -1408.05176339


--------------------------------------------------------------------------------------------------------




--------------------------------------- Iteration      1(  16)  ---------------------------------------


    POTLOK:  cpu time    0.3145: real time    0.3175
    SETDIJ:  cpu time    1.1936: real time    1.1936
     EDDAV:  cpu time   17.5310: real time   17.5318
       DOS:  cpu time    0.0005: real time    0.0005
    CHARGE:  cpu time    2.6967: real time    2.6968
    MIXING:  cpu time    0.0022: real time    0.0022
    --------------------------------------------
      LOOP:  cpu time   21.7384: real time   21.7424

 eigenvalue-minimisations  :  3776
 total energy-change (2. order) :-0.5199028E-04  (-0.3230753E-05)
 number of electron     343.9999999 magnetization 
 augmentation part       -3.1920487 magnetization 

 Broyden mixing:
  rms(total) = 0.60262E-03    rms(broyden)= 0.59990E-03
  rms(prec ) = 0.76269E-03
  weight for this iteration     100.00

 eigenvalues of (default mixing * dielectric matrix)
  average eigenvalue GAMMA=   1.7000
  4.0778  2.9372  2.1928  2.1928  1.1339  1.1339  1.1610  1.1610  0.9524  0.9524
  0.8047

 Free energy of the ion-electron system (eV)
  ---------------------------------------------------
  alpha Z        PSCENC =       872.70583573
  Ewald energy   TEWEN  =    -17960.95207229
  -Hartree energ DENC   =     -7423.82506566
  -exchange      EXHF   =         0.00000000
  -V(xc)+E(xc)   XCENC  =       943.55534957
  PAW double counting   =     22731.77806200   -23789.26874529
  entropy T*S    EENTRO =        -0.00000000
  eigenvalues    EBANDS =     -2994.16379512
  atomic energy  EATOM  =     26212.11861568
  Solvation  Ediel_sol  =         0.00000000
  ---------------------------------------------------
  free energy    TOTEN  =     -1408.05181538 eV

  energy without entropy =    -1408.05181538  energy(sigma->0) =    -1408.05181538


--------------------------------------------------------------------------------------------------------




--------------------------------------- Iteration      1(  17)  ---------------------------------------


    POTLOK:  cpu time    0.2523: real time    0.2857
    SETDIJ:  cpu time    1.1954: real time    1.1954
     EDDAV:  cpu time   17.5744: real time   17.5752
       DOS:  cpu time    0.0004: real time    0.0004
    CHARGE:  cpu time    2.6991: real time    2.6992
    MIXING:  cpu time    0.0020: real time    0.0020
    --------------------------------------------
      LOOP:  cpu time   21.7235: real time   21.7578

 eigenvalue-minimisations  :  3776
 total energy-change (2. order) :-0.4786159E-05  (-0.9249335E-06)
 number of electron     343.9999999 magnetization 
 augmentation part       -3.1920475 magnetization 

 Broyden mixing:
  rms(total) = 0.29281E-03    rms(broyden)= 0.28726E-03
  rms(prec ) = 0.33923E-03
  weight for this iteration     100.00

 eigenvalues of (default mixing * dielectric matrix)
  average eigenvalue GAMMA=   1.6670
  4.2693  2.9501  2.3488  1.9022  1.1749  1.1749  1.1694  1.1694  1.0872  1.0872
  0.8354  0.8354

 Free energy of the ion-electron system (eV)
  ---------------------------------------------------
  alpha Z        PSCENC =       872.70583573
  Ewald energy   TEWEN  =    -17960.95207229
  -Hartree energ DENC   =     -7423.79421975
  -exchange      EXHF   =         0.00000000
  -V(xc)+E(xc)   XCENC  =       943.55070452
  PAW double counting   =     22731.87025868   -23789.36044426
  entropy T*S    EENTRO =        -0.00000000
  eigenvalues    EBANDS =     -2994.19049847
  atomic energy  EATOM  =     26212.11861568
  Solvation  Ediel_sol  =         0.00000000
  ---------------------------------------------------
  free energy    TOTEN  =     -1408.05182016 eV

  energy without entropy =    -1408.05182016  energy(sigma->0) =    -1408.05182016


--------------------------------------------------------------------------------------------------------




--------------------------------------- Iteration      1(  18)  ---------------------------------------


    POTLOK:  cpu time    0.2827: real time    0.2913
    SETDIJ:  cpu time    1.1970: real time    1.1971
     EDDAV:  cpu time   13.2841: real time   13.2846
       DOS:  cpu time    0.0004: real time    0.0004
    CHARGE:  cpu time    2.6971: real time    2.6972
    MIXING:  cpu time    0.0025: real time    0.0025
    --------------------------------------------
      LOOP:  cpu time   17.4638: real time   17.4731

 eigenvalue-minimisations  :  2272
 total energy-change (2. order) : 0.7933269E-05  (-0.7462888E-07)
 number of electron     343.9999999 magnetization 
 augmentation part       -3.1920829 magnetization 

 Broyden mixing:
  rms(total) = 0.17033E-03    rms(broyden)= 0.16064E-03
  rms(prec ) = 0.19247E-03
  weight for this iteration     100.00

 eigenvalues of (default mixing * dielectric matrix)
  average eigenvalue GAMMA=   1.6948
  4.4013  2.9729  2.3277  2.3277  1.3637  1.3637  1.1903  1.1903  1.0868  1.0868
  0.8187  0.9512  0.9512

 Free energy of the ion-electron system (eV)
  ---------------------------------------------------
  alpha Z        PSCENC =       872.70583573
  Ewald energy   TEWEN  =    -17960.95207229
  -Hartree energ DENC   =     -7423.81221858
  -exchange      EXHF   =         0.00000000
  -V(xc)+E(xc)   XCENC  =       943.55181110
  PAW double counting   =     22731.93172457   -23789.42069158
  entropy T*S    EENTRO =        -0.00000000
  eigenvalues    EBANDS =     -2994.17481687
  atomic energy  EATOM  =     26212.11861568
  Solvation  Ediel_sol  =         0.00000000
  ---------------------------------------------------
  free energy    TOTEN  =     -1408.05181223 eV

  energy without entropy =    -1408.05181223  energy(sigma->0) =    -1408.05181223


--------------------------------------------------------------------------------------------------------




--------------------------------------- Iteration      1(  19)  ---------------------------------------


    POTLOK:  cpu time    0.3045: real time    0.3149
    SETDIJ:  cpu time    1.1984: real time    1.1985
     EDDAV:  cpu time   13.2726: real time   13.2733
       DOS:  cpu time    0.0005: real time    0.0005
    --------------------------------------------
      LOOP:  cpu time   14.7760: real time   14.7871

 eigenvalue-minimisations  :  2272
 total energy-change (2. order) : 0.4755548E-06  (-0.4575307E-07)
 number of electron     343.9999999 magnetization 
 augmentation part       -3.1920829 magnetization 

 Free energy of the ion-electron system (eV)
  ---------------------------------------------------
  alpha Z        PSCENC =       872.70583573
  Ewald energy   TEWEN  =    -17960.95207229
  -Hartree energ DENC   =     -7423.81014686
  -exchange      EXHF   =         0.00000000
  -V(xc)+E(xc)   XCENC  =       943.55154558
  PAW double counting   =     22731.97312727   -23789.46316686
  entropy T*S    EENTRO =        -0.00000000
  eigenvalues    EBANDS =     -2994.17555001
  atomic energy  EATOM  =     26212.11861568
  Solvation  Ediel_sol  =         0.00000000
  ---------------------------------------------------
  free energy    TOTEN  =     -1408.05181175 eV

  energy without entropy =    -1408.05181175  energy(sigma->0) =    -1408.05181175


--------------------------------------------------------------------------------------------------------




 average (electrostatic) potential at core
  the test charge radii are     1.1312  1.1541  1.0178
  (the norm of the test charge is              1.0000)
       1 -55.1136       2 -54.7996       3 -55.4725       4 -55.3150       5 -55.2191
       6 -54.4944       7 -55.2404       8 -55.3484       9-101.6537      10-102.0808
      11-101.6490      12-102.1051      13-101.6381      14-102.0641      15-101.6435
      16-102.0767      17 -69.0500      18 -69.2265      19 -68.9091      20 -69.0062
      21 -69.0637      22 -69.0697      23 -68.9493      24 -68.8380      25 -69.0227
      26 -69.0988      27 -69.0611      28 -69.0749      29 -69.0485      30 -69.0000
      31 -69.7143      32 -69.0167      33 -69.1022      34 -69.0712      35 -69.0021
      36 -69.6122      37 -69.0727      38 -69.0237      39 -67.6526



 E-fermi :   0.4626     XC(G=0):  -7.9585     alpha+bet : -6.9586


 k-point     1 :       0.0000    0.0000    0.0000
  band No.  band energies     occupation 
      1     -21.0016      2.00000
      2     -20.8737      2.00000
      3     -20.8477      2.00000
      4     -20.7716      2.00000
      5     -20.7480      2.00000
      6     -20.6468      2.00000
      7     -20.3573      2.00000
      8     -20.1411      2.00000
      9     -16.8949      2.00000
     10     -16.8549      2.00000
     11     -16.8414      2.00000
     12     -16.8230      2.00000
     13     -16.8138      2.00000
     14     -16.8049      2.00000
     15     -16.7768      2.00000
     16     -16.7745      2.00000
     17     -16.7712      2.00000
     18     -16.7667      2.00000
     19     -16.7482      2.00000
     20     -16.7437      2.00000
     21     -16.7417      2.00000
     22     -16.7394      2.00000
     23     -16.7286      2.00000
     24     -16.7215      2.00000
     25     -16.7049      2.00000
     26     -16.6807      2.00000
     27     -16.6723      2.00000
     28     -16.6685      2.00000
     29     -16.4746      2.00000
     30     -16.4589      2.00000
     31     -16.4503      2.00000
     32     -16.4407      2.00000
     33     -16.4089      2.00000
     34     -16.3987      2.00000
     35     -16.3959      2.00000
     36     -16.3753      2.00000
     37     -16.3212      2.00000
     38     -16.3185      2.00000
     39     -16.3138      2.00000
     40     -16.3110      2.00000
     41     -16.3101      2.00000
     42     -16.3079      2.00000
     43     -16.3047      2.00000
     44     -16.3037      2.00000
     45     -16.2998      2.00000
     46     -16.2990      2.00000
     47     -16.2957      2.00000
     48     -16.2902      2.00000
     49     -14.7085      2.00000
     50     -14.5991      2.00000
     51     -14.3229      2.00000
     52     -14.2669      2.00000
     53     -14.1603      2.00000
     54     -14.1494      2.00000
     55     -14.1117      2.00000
     56     -14.1104      2.00000
     57     -14.0765      2.00000
     58     -14.0736      2.00000
     59     -14.0696      2.00000
     60     -14.0606      2.00000
     61     -14.0504      2.00000
     62     -14.0477      2.00000
     63     -14.0380      2.00000
     64     -14.0195      2.00000
     65     -14.0029      2.00000
     66     -13.9029      2.00000
     67     -13.8493      2.00000
     68     -13.8035      2.00000
     69     -13.7478      2.00000
     70     -13.7356      2.00000
     71     -12.8432      2.00000
     72      -8.2980      2.00000
     73      -7.9369      2.00000
     74      -7.8095      2.00000
     75      -7.7826      2.00000
     76      -7.4197      2.00000
     77      -7.4103      2.00000
     78      -7.3833      2.00000
     79      -7.3699      2.00000
     80      -7.3127      2.00000
     81      -7.2965      2.00000
     82      -7.2791      2.00000
     83      -7.2684      2.00000
     84      -7.2539      2.00000
     85      -7.2480      2.00000
     86      -7.2437      2.00000
     87      -7.2191      2.00000
     88      -7.1884      2.00000
     89      -7.1752      2.00000
     90      -7.1595      2.00000
     91      -7.1532      2.00000
     92      -7.1437      2.00000
     93      -7.1312      2.00000
     94      -7.0622      2.00000
     95      -7.0570      2.00000
     96      -7.0431      2.00000
     97      -6.8677      2.00000
     98      -6.8178      2.00000
     99      -6.7849      2.00000
    100      -6.6567      2.00000
    101      -6.6413      2.00000
    102      -6.5913      2.00000
    103      -6.5060      2.00000
    104      -3.3765      2.00000
    105      -3.3634      2.00000
    106      -3.3175      2.00000
    107      -3.2968      2.00000
    108      -3.2733      2.00000
    109      -3.2556      2.00000
    110      -3.2378      2.00000
    111      -3.1663      2.00000
    112      -3.1537      2.00000
    113      -3.1102      2.00000
    114      -2.9737      2.00000
    115      -2.9028      2.00000
    116      -2.3675      2.00000
    117      -2.3308      2.00000
    118      -2.1631      2.00000
    119      -2.1156      2.00000
    120      -2.0787      2.00000
    121      -1.9866      2.00000
    122      -1.9183      2.00000
    123      -1.9036      2.00000
    124      -1.8976      2.00000
    125      -1.8759      2.00000
    126      -1.8087      2.00000
    127      -1.7554      2.00000
    128      -1.7221      2.00000
    129      -1.7047      2.00000
    130      -1.6980      2.00000
    131      -1.6844      2.00000
    132      -1.5828      2.00000
    133      -1.5693      2.00000
    134      -1.5513      2.00000
    135      -1.5424      2.00000
    136      -1.5317      2.00000
    137      -1.5231      2.00000
    138      -1.5065      2.00000
    139      -1.4991      2.00000
    140      -1.4941      2.00000
    141      -1.4711      2.00000
    142      -1.4450      2.00000
    143      -1.4367      2.00000
    144      -1.4102      2.00000
    145      -1.3930      2.00000
    146      -1.3762      2.00000
    147      -1.3705      2.00000
    148      -1.3567      2.00000
    149      -1.3472      2.00000
    150      -1.3401      2.00000
    151      -1.3073      2.00000
    152      -1.3030      2.00000
    153      -1.2990      2.00000
    154      -1.2407      2.00000
    155      -1.2288      2.00000
    156      -1.2049      2.00000
    157      -1.1807      2.00000
    158      -1.1729      2.00000
    159      -1.1594      2.00000
    160      -1.1049      2.00000
    161      -0.9910      2.00000
    162      -0.8940      2.00000
    163      -0.8777      2.00000
    164      -0.7974      2.00000
    165      -0.7119      2.00000
    166      -0.6365      2.00000
    167      -0.4913      2.00000
    168      -0.3288      2.00000
    169      -0.1855      2.00000
    170      -0.0396      2.00000
    171       0.3217      2.00000
    172       0.4009      2.00000
    173       2.3682      0.00000
    174       2.4925      0.00000
    175       2.6943      0.00000
    176       2.7036      0.00000
    177       2.9538      0.00000
    178       2.9993      0.00000
    179       3.0333      0.00000
    180       3.0419      0.00000
    181       3.1229      0.00000
    182       3.3937      0.00000
    183       3.4395      0.00000
    184       3.4614      0.00000
    185       3.8924      0.00000
    186       4.4228      0.00000
    187       4.8546      0.00000
    188       5.4141      0.00000
    189       5.4905      0.00000
    190       5.6897      0.00000
    191       5.7227      0.00000
    192       5.8179      0.00000
    193       5.8332      0.00000
    194       5.9131      0.00000
    195       6.0242      0.00000
    196       6.0994      0.00000
    197       6.1047      0.00000
    198       6.1286      0.00000
    199       6.1698      0.00000
    200       6.2700      0.00000
    201       6.2923      0.00000
    202       6.3289      0.00000
    203       6.4146      0.00000
    204       6.4314      0.00000
    205       6.5046      0.00000
    206       6.5138      0.00000
    207       6.5599      0.00000
    208       6.6014      0.00000

 k-point     2 :       0.5000    0.0000    0.0000
  band No.  band energies     occupation 
      1     -21.0016      2.00000
      2     -20.8737      2.00000
      3     -20.8477      2.00000
      4     -20.7716      2.00000
      5     -20.7480      2.00000
      6     -20.6468      2.00000
      7     -20.3573      2.00000
      8     -20.1411      2.00000
      9     -16.8946      2.00000
     10     -16.8546      2.00000
     11     -16.8415      2.00000
     12     -16.8232      2.00000
     13     -16.8137      2.00000
     14     -16.8051      2.00000
     15     -16.7768      2.00000
     16     -16.7745      2.00000
     17     -16.7712      2.00000
     18     -16.7668      2.00000
     19     -16.7482      2.00000
     20     -16.7437      2.00000
     21     -16.7417      2.00000
     22     -16.7394      2.00000
     23     -16.7286      2.00000
     24     -16.7215      2.00000
     25     -16.7049      2.00000
     26     -16.6807      2.00000
     27     -16.6723      2.00000
     28     -16.6685      2.00000
     29     -16.4649      2.00000
     30     -16.4611      2.00000
     31     -16.4273      2.00000
     32     -16.4259      2.00000
     33     -16.4197      2.00000
     34     -16.4183      2.00000
     35     -16.3952      2.00000
     36     -16.3925      2.00000
     37     -16.3212      2.00000
     38     -16.3186      2.00000
     39     -16.3138      2.00000
     40     -16.3110      2.00000
     41     -16.3102      2.00000
     42     -16.3080      2.00000
     43     -16.3047      2.00000
     44     -16.3037      2.00000
     45     -16.2998      2.00000
     46     -16.2991      2.00000
     47     -16.2956      2.00000
     48     -16.2903      2.00000
     49     -14.7076      2.00000
     50     -14.5980      2.00000
     51     -14.3135      2.00000
     52     -14.2796      2.00000
     53     -14.1954      2.00000
     54     -14.1408      2.00000
     55     -14.1193      2.00000
     56     -14.1126      2.00000
     57     -14.1000      2.00000
     58     -14.0793      2.00000
     59     -14.0704      2.00000
     60     -14.0688      2.00000
[...]


--------------------------------------------------------------------------------------------------------


 soft charge-density along one line, spin component           1
         0         1         2         3         4         5         6         7         8         9
 total charge-density along one line

 pseudopotential strength for first ion, spin component:           1
 17.898  -4.685  -0.000  -0.000  -0.000   0.000   0.000  -0.000
 -4.685   1.235   0.000   0.000  -0.000  -0.000  -0.000   0.000
 -0.000   0.000   2.234   0.000  -0.000  -2.666  -0.000   0.000
 -0.000   0.000   0.000   2.234  -0.001  -0.000  -2.665   0.001
 -0.000  -0.000  -0.000  -0.001   2.234   0.000   0.001  -2.665
  0.000  -0.000  -2.666  -0.000   0.000   3.146   0.000  -0.000
  0.000  -0.000  -0.000  -2.665   0.001   0.000   3.146  -0.001
 -0.000   0.000   0.000   0.001  -2.665  -0.000  -0.001   3.146
 -0.000   0.000   0.000  -0.000  -0.000  -0.001   0.000   0.000
  0.000  -0.000   0.001  -0.000  -0.000  -0.001   0.000   0.000
 -0.000   0.000   0.000  -0.001   0.001  -0.000   0.002  -0.001
 -0.001   0.000  -0.000   0.001   0.001   0.000  -0.001  -0.001
 -0.000   0.000   0.000   0.000  -0.001  -0.000  -0.000   0.001
 total augmentation occupancy for first ion, spin component:           1
  1.912  -0.137  -0.000   0.000   0.000  -0.000  -0.000  -0.000  -0.000   0.000  -0.000  -0.001  -0.000
 -0.137   0.119  -0.000  -0.002   0.000   0.000   0.001   0.001   0.000  -0.000  -0.001   0.003   0.001
 -0.000  -0.000   2.019   0.000  -0.000   0.005   0.000  -0.000   0.002   0.001   0.000  -0.000   0.000
  0.000  -0.002   0.000   2.018  -0.002   0.000   0.004  -0.001  -0.000  -0.000  -0.004   0.000  -0.000
  0.000   0.000  -0.000  -0.002   2.018  -0.000  -0.001   0.005  -0.000  -0.000   0.000   0.001  -0.002
 -0.000   0.000   0.005   0.000  -0.000   0.008  -0.000   0.000  -0.001  -0.002  -0.000   0.000  -0.000
 -0.000   0.001   0.000   0.004  -0.001  -0.000   0.008   0.001   0.000   0.000   0.002  -0.001   0.000
 -0.000   0.001  -0.000  -0.001   0.005   0.000   0.001   0.009   0.000   0.000  -0.001  -0.001   0.002
 -0.000   0.000   0.002  -0.000  -0.000  -0.001   0.000   0.000   0.006   0.001   0.000  -0.000  -0.000
  0.000  -0.000   0.001  -0.000  -0.000  -0.002   0.000   0.000   0.001   0.005  -0.000   0.000   0.000
 -0.000  -0.001   0.000  -0.004   0.000  -0.000   0.002  -0.001   0.000  -0.000   0.005  -0.002  -0.001
 -0.001   0.003  -0.000   0.000   0.001   0.000  -0.001  -0.001  -0.000   0.000  -0.002   0.004   0.001
 -0.000   0.001   0.000  -0.000  -0.002  -0.000   0.000   0.002  -0.000   0.000  -0.001   0.001   0.004


------------------------ aborting loop because EDIFF is reached ----------------------------------------





 total charge     

# of ion       s       p       d       tot
------------------------------------------
    1        1.786   4.717   0.019   6.521
    2        1.790   4.717   0.025   6.532
    3        1.786   4.717   0.018   6.520
    4        1.786   4.717   0.018   6.521
    5        1.786   4.716   0.018   6.520
    6        1.800   4.717   0.053   6.570
    7        1.786   4.717   0.018   6.521
    8        1.785   4.716   0.017   6.518
    9        1.554   0.416   9.834  11.804
   10        1.537   0.418   9.830  11.784
   11        1.554   0.418   9.834  11.806
   12        1.539   0.414   9.829  11.782
   13        1.554   0.419   9.835  11.808
   14        1.538   0.413   9.829  11.780
   15        1.554   0.417   9.834  11.805
   16        1.543   0.402   9.829  11.775
   17        1.614   3.285   0.007   4.907
   18        1.614   3.278   0.006   4.898
   19        1.615   3.287   0.007   4.908
   20        1.617   3.279   0.009   4.905
   21        1.615   3.286   0.007   4.908
   22        1.613   3.277   0.005   4.895
   23        1.615   3.282   0.007   4.904
   24        1.617   3.272   0.007   4.896
   25        1.614   3.284   0.006   4.905
   26        1.614   3.280   0.006   4.900
   27        1.614   3.278   0.006   4.897
   28        1.615   3.278   0.006   4.899
   29        1.614   3.277   0.006   4.897
   30        1.614   3.283   0.006   4.903
   31        1.615   3.267   0.007   4.889
   32        1.614   3.283   0.006   4.904
   33        1.614   3.279   0.006   4.899
   34        1.614   3.277   0.006   4.897
   35        1.614   3.283   0.006   4.904
   36        1.615   3.267   0.006   4.888
   37        1.614   3.278   0.006   4.899
   38        1.614   3.278   0.006   4.897
   39        1.616   3.330   0.007   4.953
--------------------------------------------------
tot         63.812 116.519  78.987 259.318

    CHARGE:  cpu time    0.3978: real time    0.3978
    FORLOC:  cpu time    0.0115: real time    0.0115
    FORNL :  cpu time    1.9099: real time    1.9099
    STRESS:  cpu time   49.7629: real time   49.7651
    FORCOR:  cpu time    0.2412: real time    0.2412
    FORHAR:  cpu time    0.0276: real time    0.0276
    MIXING:  cpu time    0.0023: real time    0.0023
    OFIELD:  cpu time    0.0000: real time    0.0000

  FORCE on cell =-STRESS in cart. coord.  units (eV):
  Direction    XX          YY          ZZ          XY          YZ          ZX
  --------------------------------------------------------------------------------------
  Alpha Z   872.70584   872.70584   872.70584
  Ewald   -6114.83961 -5532.05763 -6314.13383    17.87100    21.60319  -443.63151
  Hartree  2368.90295  2816.23973  2238.67328    11.88838    13.71334  -289.53753
  E(xc)   -1449.22772 -1449.32073 -1449.36486    -0.00623     0.01593    -0.46270
  Local   -2643.24379 -3672.32432 -2315.39674   -29.51124   -35.22514   734.47904
  n-local  1745.16137  1749.12195  1744.00233     0.11056     0.12928    -3.70783
  augment   817.76512   819.15777   816.93404     0.01492     0.03829    -1.15010
  Kinetic  4400.74746  4388.69746  4403.24479    -0.55790    -0.11252     1.08412
  Fock        0.00000     0.00000     0.00000     0.00000     0.00000     0.00000
  -------------------------------------------------------------------------------------
  Total      -2.02839    -7.77993    -3.33515    -0.19051     0.16236    -2.92651
  in kB      -2.03741    -7.81450    -3.34998    -0.19135     0.16308    -2.93951
  external pressure =       -4.40 kB  Pullay stress =        0.00 kB


 VOLUME and BASIS-vectors are now :
 -----------------------------------------------------------------------------
  energy-cutoff  :      300.00
  volume of cell :     1595.09
      direct lattice vectors                 reciprocal lattice vectors
     8.456489000  0.000000000  8.040301000     0.059126193 -0.000000000  0.062186727
     0.000000000 11.729847000  0.000000000     0.000000000  0.085252604 -0.000000000
    -8.456489000  0.000000000  8.040301000    -0.059126193  0.000000000  0.062186727

  length of vectors
    11.668703715 11.729847000 11.668703715     0.085808482  0.085252604  0.085808482


 FORCES acting on ions
    electron-ion (+dipol)            ewald-force                    non-local-force                 convergence-correction
 -----------------------------------------------------------------------------------------------
   0.365E+02 0.151E+01 -.273E+02   -.365E+02 -.150E+01 0.274E+02   -.336E-01 -.135E-01 -.549E-01   -.232E-03 -.649E-04 0.321E-03
   0.314E+01 0.626E+01 0.117E+02   -.274E+01 -.620E+01 -.121E+02   -.579E+00 -.667E-01 0.565E+00   0.147E-03 -.933E-04 -.212E-03
   0.120E+02 -.454E+01 -.677E+02   -.119E+02 0.452E+01 0.673E+02   -.744E-01 0.144E-01 0.300E+00   -.173E-03 0.450E-04 -.529E-04
   -.403E+02 -.181E+01 0.580E+01   0.401E+02 0.178E+01 -.556E+01   0.229E+00 0.282E-01 -.208E+00   0.221E-03 0.638E-04 -.353E-03
   0.128E+02 0.307E+01 0.219E+02   -.128E+02 -.303E+01 -.220E+02   0.948E-02 -.447E-01 0.603E-01   0.432E-03 -.618E-04 -.267E-03
   0.330E+02 0.728E+01 0.209E+01   -.325E+02 -.724E+01 -.244E+01   0.153E+01 -.148E+00 -.764E+00   -.284E-03 -.129E-03 0.107E-03
   -.538E+02 -.352E+01 0.365E+02   0.537E+02 0.350E+01 -.366E+02   0.722E-01 0.114E-01 0.820E-01   0.206E-03 0.101E-03 -.223E-03
   -.154E+02 -.257E+01 -.217E+01   0.155E+02 0.254E+01 0.192E+01   -.490E-02 0.299E-01 0.218E+00   -.258E-03 0.646E-04 0.337E-03
   0.151E+02 0.147E+02 0.659E+01   -.152E+02 -.146E+02 -.630E+01   -.153E-01 0.163E-02 -.316E+00   -.692E-03 0.572E-03 -.379E-03
   -.104E+03 0.382E+02 -.720E+02   0.108E+03 -.397E+02 0.750E+02   -.404E+01 0.168E+01 -.299E+01   0.180E-03 0.420E-03 -.320E-04
   -.501E+01 0.119E+02 -.151E+02   0.509E+01 -.121E+02 0.153E+02   -.971E-01 0.231E+00 -.103E+00   0.327E-03 0.327E-03 0.724E-03
   0.727E+02 0.668E+01 0.946E+02   -.755E+02 -.591E+01 -.978E+02   0.293E+01 -.455E+00 0.322E+01   -.168E-03 0.455E-03 -.407E-03
   -.567E+01 -.122E+02 -.147E+02   0.580E+01 0.124E+02 0.147E+02   -.138E+00 -.226E+00 -.647E-01   0.301E-03 -.324E-03 0.685E-03
   0.676E+02 -.156E+02 0.978E+02   -.705E+02 0.153E+02 -.102E+03   0.286E+01 0.326E-02 0.402E+01   -.914E-05 -.482E-03 -.124E-03
   0.134E+02 -.157E+02 0.849E+01   -.133E+02 0.157E+02 -.854E+01   -.205E+00 -.989E-01 0.135E-01   -.632E-03 -.585E-03 -.367E-03
   -.879E+02 -.249E+02 -.570E+02   0.909E+02 0.240E+02 0.589E+02   -.302E+01 0.814E+00 -.182E+01   0.416E-03 -.388E-03 0.139E-03
   0.429E+01 -.129E+01 0.265E+02   -.441E+01 0.129E+01 -.268E+02   0.101E+00 -.890E-03 0.214E+00   0.278E-03 0.335E-04 0.414E-03
   0.400E+02 0.312E+00 0.695E+02   -.400E+02 -.372E+00 -.698E+02   0.499E-02 0.420E-01 0.270E+00   -.280E-03 0.117E-03 -.190E-03
   -.132E+02 0.182E+01 0.295E+02   0.133E+02 -.182E+01 -.296E+02   0.156E-02 0.125E-02 0.225E+00   -.406E-03 -.409E-04 -.229E-03
   -.388E+01 -.839E+01 0.392E+02   0.412E+01 0.863E+01 -.395E+02   -.763E+00 -.299E+00 -.163E+00   0.255E-03 -.420E-04 0.167E-03
   0.277E+02 -.139E+01 -.306E+02   -.279E+02 0.139E+01 0.309E+02   0.190E+00 0.302E-02 -.235E+00   -.391E-03 0.445E-04 -.213E-03
   -.359E+02 -.201E+02 -.542E+02   0.359E+02 0.203E+02 0.544E+02   -.205E-02 -.142E+00 -.265E+00   0.258E-03 0.620E-04 0.164E-03
   -.893E+01 0.146E+01 -.432E+02   0.908E+01 -.146E+01 0.436E+02   -.150E+00 -.155E-02 -.428E+00   0.147E-03 -.407E-04 0.445E-03
   0.432E+01 0.569E+01 -.191E+02   -.467E+01 -.574E+01 0.190E+02   0.655E+00 0.111E-01 0.619E+00   -.104E-03 -.575E-04 -.347E-03
   -.208E+02 0.899E+01 0.254E+02   0.209E+02 -.918E+01 -.256E+02   -.148E+00 0.202E+00 0.235E+00   -.550E-04 -.261E-03 0.787E-04
   0.158E+02 -.195E+02 -.997E+01   -.160E+02 0.196E+02 0.976E+01   0.939E-01 -.100E+00 0.248E+00   0.101E-03 -.210E-03 0.415E-03
   0.150E+02 -.254E+02 0.600E+02   -.152E+02 0.256E+02 -.603E+02   0.238E+00 -.908E-01 0.207E+00   -.117E-03 -.249E-03 -.368E-03
   -.490E+02 -.901E+00 -.211E+02   0.492E+02 0.109E+01 0.214E+02   -.209E+00 -.209E+00 -.325E+00   0.384E-03 0.199E-03 0.990E-04
   0.620E+01 -.125E+02 -.203E+02   -.597E+01 0.128E+02 0.204E+02   -.248E+00 -.327E+00 -.655E-01   -.391E-03 0.317E-03 -.129E-03
   0.334E+02 0.185E+02 -.343E+02   -.336E+02 -.186E+02 0.346E+02   0.197E+00 -.310E-02 -.217E+00   -.164E-03 0.310E-03 0.127E-03
   0.198E+02 0.362E+02 -.256E+02   -.202E+02 -.368E+02 0.261E+02   0.351E+00 0.540E+00 -.531E+00   0.216E-03 0.243E-03 -.124E-03
   -.214E+02 -.883E+01 0.264E+02   0.216E+02 0.903E+01 -.267E+02   -.166E+00 -.210E+00 0.262E+00   -.501E-04 0.247E-03 0.666E-04
   0.131E+02 0.220E+02 -.103E+02   -.133E+02 -.222E+02 0.101E+02   0.116E+00 0.150E+00 0.220E+00   0.993E-04 0.231E-03 0.430E-03
   0.132E+02 0.225E+02 0.662E+02   -.134E+02 -.227E+02 -.665E+02   0.219E+00 0.998E-01 0.233E+00   -.122E-03 0.260E-03 -.443E-03
   0.325E+02 -.193E+02 -.335E+02   -.327E+02 0.194E+02 0.337E+02   0.195E+00 0.794E-04 -.223E+00   -.146E-03 -.279E-03 0.843E-04
   0.111E+02 -.307E+02 -.304E+02   -.113E+02 0.311E+02 0.310E+02   0.363E+00 -.398E+00 -.536E+00   0.191E-03 -.224E-03 -.145E-03
   -.463E+02 0.360E+01 -.190E+02   0.465E+02 -.382E+01 0.193E+02   -.182E+00 0.241E+00 -.331E+00   0.355E-03 -.227E-03 0.821E-04
   0.592E+01 0.125E+02 -.254E+02   -.571E+01 -.128E+02 0.256E+02   -.237E+00 0.326E+00 -.126E+00   -.335E-03 -.355E-03 -.112E-03
   0.465E+01 0.415E+01 0.267E+01   -.500E+01 -.412E+01 -.251E+01   -.139E+01 0.261E+00 0.572E+00   0.122E-03 -.153E-03 -.103E-03
 -----------------------------------------------------------------------------------------------
   0.120E+01 -.180E+01 -.213E+01   -.249E-13 -.178E-13 0.488E-13   -.135E+01 0.186E+01 0.202E+01   -.374E-03 -.156E-03 0.660E-04


 POSITION                                       TOTAL-FORCE (eV/Angst)
 -----------------------------------------------------------------------------------
      0.64376      2.93036      3.77275        -0.009539     -0.000431     -0.013149
      0.25781      2.94994     12.15352        -0.160840     -0.020768      0.214071
      3.82386      8.79456      7.72014         0.060684     -0.003365     -0.088496
     -4.85941      8.78437      7.98184        -0.046158      0.001596      0.034253
     -3.80524      2.95481      8.19049        -0.010512     -0.013184     -0.008168
      4.87365      2.93313      8.17862         1.862310     -0.101065     -1.015903
     -0.55744      8.79605     12.22337        -0.025641     -0.001451      0.038556
     -0.43056      8.77075      4.14798         0.018106      0.010178     -0.016194
     -8.43695     11.71256      8.05484        -0.038321      0.098799     -0.015884
     -0.06308      0.09688      7.96738         0.031967      0.133472      0.066765
     -4.20580      0.01293     12.04977         0.005810      0.070835      0.014594
     -4.13988     11.69730      4.12002         0.063606      0.316367      0.039965
     -4.20749      5.85746     12.05323         0.009232     -0.071517      0.013236
     -4.19612      5.86726      4.05402         0.019959     -0.337830     -0.001811
      0.01430      5.87918      0.01590        -0.047420     -0.102644     -0.018238
     -0.06735      5.83692      7.97339        -0.004333     -0.162944      0.055594
     -4.19247      8.80106     11.62913         0.000717     -0.004306     -0.001701
      4.31861      8.80859     11.40850        -0.008275     -0.003073     -0.023640
      0.05903      2.93161     15.72699         0.108321     -0.004064      0.069546
     -0.22939      2.91630      7.35559        -0.553597     -0.103082     -0.460469
     -0.05859      8.79690      0.52293         0.008457     -0.000351      0.016318
      0.26800      8.73790      8.61562         0.006116      0.054763     -0.028767
      4.26990      2.93363      4.53024        -0.008538      0.000056     -0.058952
     -4.46031      2.92507      4.50027         0.330445     -0.043532      0.576445
     -5.92303      5.52575      9.63944         0.016909      0.021566     -0.003613
      1.75477      6.20096      5.64527        -0.049485      0.031547      0.065130
      1.71005      6.27746     13.62571         0.055996      0.033828     -0.028016
     -1.68229      0.37453     10.43246         0.004752     -0.036374     -0.043347
     -1.71542      0.42679      2.47110        -0.024665     -0.058363      0.047973
      5.96600     11.44577      6.45795        -0.002719     -0.064246     -0.027471
     -2.49861     11.18603      6.48639        -0.020992      0.036092     -0.079539
     -5.90205      0.34865      9.62170         0.006783     -0.028745      0.003168
      1.74752     11.38000      5.65222        -0.009922     -0.029062      0.022490
      1.71764     11.30340     13.64358         0.064424     -0.025336     -0.045390
      5.96451      6.14904      6.45826        -0.005577      0.058324     -0.029087
     -2.58489      6.34148      6.42769         0.092150     -0.025976     -0.001586
     -1.70539      5.49576     10.42209         0.035470      0.034884     -0.065022
     -1.70624      5.42998      2.46098        -0.032329      0.057895      0.051608
      2.35347      3.06906      9.54755        -1.743353      0.281510      0.744731
 -----------------------------------------------------------------------------------
    total drift:                               -0.153878      0.058399     -0.109891


--------------------------------------------------------------------------------------------------------



  FREE ENERGIE OF THE ION-ELECTRON SYSTEM (eV)
  ---------------------------------------------------
  free  energy   TOTEN  =     -1408.05181175 eV

  energy  without entropy=    -1408.05181175  energy(sigma->0) =    -1408.05181175



--------------------------------------------------------------------------------------------------------


    POTLOK:  cpu time    1.4276: real time    1.4277


--------------------------------------------------------------------------------------------------------


 stress matrix after NEB project (eV)
     -2.02839     -0.19048     -2.92651
     -0.19051     -7.77993      0.16233
     -2.92653      0.16236     -3.33515
  FORCES: max atom, RMS     2.123787    0.497491
  FORCE total and by dimension    3.106831    1.862310
  Stress total and by dimension    9.644648    7.779929
     LOOP+:  cpu time  449.0403: real time  449.6046
    4ORBIT:  cpu time    0.0000: real time    0.0000



 total charge     

# of ion       s       p       d       tot
------------------------------------------
    1        1.786   4.717   0.019   6.521
    2        1.790   4.717   0.025   6.532
    3        1.786   4.717   0.018   6.520
    4        1.786   4.717   0.018   6.521
    5        1.786   4.716   0.018   6.520
    6        1.800   4.717   0.053   6.570
    7        1.786   4.717   0.018   6.521
    8        1.785   4.716   0.017   6.518
    9        1.554   0.416   9.834  11.804
   10        1.537   0.418   9.830  11.784
   11        1.554   0.418   9.834  11.806
   12        1.539   0.414   9.829  11.782
   13        1.554   0.419   9.835  11.808
   14        1.538   0.413   9.829  11.780
   15        1.554   0.417   9.834  11.805
   16        1.543   0.402   9.829  11.775
   17        1.614   3.285   0.007   4.907
   18        1.614   3.278   0.006   4.898
   19        1.615   3.287   0.007   4.908
   20        1.617   3.279   0.009   4.905
   21        1.615   3.286   0.007   4.908
   22        1.613   3.277   0.005   4.895
   23        1.615   3.282   0.007   4.904
   24        1.617   3.272   0.007   4.896
   25        1.614   3.284   0.006   4.905
   26        1.614   3.280   0.006   4.900
   27        1.614   3.278   0.006   4.897
   28        1.615   3.278   0.006   4.899
   29        1.614   3.277   0.006   4.897
   30        1.614   3.283   0.006   4.903
   31        1.615   3.267   0.007   4.889
   32        1.614   3.283   0.006   4.904
   33        1.614   3.279   0.006   4.899
   34        1.614   3.277   0.006   4.897
   35        1.614   3.283   0.006   4.904
   36        1.615   3.267   0.006   4.888
   37        1.614   3.278   0.006   4.899
   38        1.614   3.278   0.006   4.897
   39        1.616   3.330   0.007   4.953
--------------------------------------------------
tot         63.812 116.519  78.987 259.318


 total amount of memory used by VASP MPI-rank0    60642. kBytes
=======================================================================

   base      :      30000. kBytes
   nonlr-proj:       6477. kBytes
   fftplans  :       8423. kBytes
   grid      :       7465. kBytes
   one-center:         77. kBytes
   wavefun   :       8200. kBytes

  
  
 General timing and accounting informations for this job:
 ========================================================
  
                  Total CPU time used (sec):      461.364
                            User time (sec):      459.880
                          System time (sec):        1.484
                         Elapsed time (sec):      462.862
  
                   Maximum memory used (kb):       77884.
                   Average memory used (kb):           0.
  
                          Minor page faults:        20749
                          Major page faults:            2
                 Voluntary context switches:         1619
