<?xml version="1.0" encoding="ISO-8859-1"?>
<modeling>
 <generator>
  <i name="program" type="string">vasp </i>
  <i name="version" type="string">5.4.4.18Apr17-6-g9f103f2a35  </i>
  <i name="subversion" type="string">(build Jun 22 2020 09:27:21) complex            parallel </i>
  <i name="platform" type="string">tx2_gcc-7.3_libsci-18.07_cray-fftw-3.3.8 </i>
  <i name="date" type="string">2021 10 12 </i>
  <i name="time" type="string">05:36:33 </i>
 </generator>
 <incar>
  <i type="string" name="SYSTEM"> CsPbBr3 cubic bulk</i>
  <i type="string" name="PREC">accurate</i>
  <i type="string" name="ALGO"> NORMAL   ! Electronic minimisation algo</i>
  <i type="logical" name="ADDGRID"> T  </i>
  <i type="int" name="ISPIN">     1</i>
  <i type="int" name="NELM">   200</i>
  <i type="int" name="IBRION">     2</i>
  <i name="EDIFF">      0.00000100</i>
  <i name="EDIFFG">     -0.01000000</i>
  <i type="int" name="NSW">     0</i>
  <i type="int" name="ISIF">     2</i>
  <i type="int" name="ISYM">     0</i>
  <i name="ENCUT">    300.00000000</i>
  <i name="POTIM">      0.50000000</i>
  <i name="NUPDOWN">      0.00000000</i>
  <i name="NELECT">    344.00000000</i>
  <i type="string" name="LREAL"> AUTO</i>
  <i type="int" name="ISMEAR">     0</i>
  <i name="SIGMA">      0.01000000</i>
  <i type="logical" name="LWAVE"> F  </i>
  <i type="logical" name="LCHARG"> F  </i>
  <i type="logical" name="LVHAR"> T  </i>
  <i type="int" name="LORBIT">    10</i>
  <i type="logical" name="LASPH"> T  </i>
  <v type="int" name="KPOINT_BSE">    -1     0     0     0</v>
  <i type="int" name="NELM">   200</i>
  <i type="string" name="METAGGA"> SCAN       ! PBE exchange-correlation</i>
  <i type="logical" name="LASPH"> T  </i>
 </incar>
 <structure name="primitive_cell" >
  <crystal>
   <varray name="basis" >
    <v>       8.45648900       0.00000000       8.04030100 </v>
    <v>       0.00000000      11.72984700       0.00000000 </v>
    <v>      -8.45648900       0.00000000       8.04030100 </v>
   </varray>
   <i name="volume">   1595.08833419 </i>
   <varray name="rec_basis" >
    <v>       0.05912619      -0.00000000       0.06218673 </v>
    <v>       0.00000000       0.08525260      -0.00000000 </v>
    <v>      -0.05912619       0.00000000       0.06218673 </v>
   </varray>
  </crystal>
  <varray name="positions" >
   <v>       0.27267800       0.24982100       0.19655200 </v>
   <v>       0.05215700       0.46292000       0.25392400 </v>
   <v>       0.05224300       0.03638500       0.25509600 </v>
   <v>       0.44385700       0.24862200       0.47098300 </v>
   <v>      -0.46581600       0.25010000       0.02925800 </v>
   <v>       0.24923900       0.47108500      -0.05034900 </v>
   <v>       0.24937600       0.02972300      -0.05269200 </v>
   <v>       0.45481400      -0.47135200       0.24730800 </v>
   <v>       0.45481700      -0.02982500       0.24816900 </v>
   <v>      -0.01850000       0.24992700      -0.02548000 </v>
   <v>      -0.49933700       0.00110200      -0.00199100 </v>
   <v>      -0.49922200       0.49936400      -0.00167600 </v>
   <v>       0.00205900      -0.00147400      -0.00025100 </v>
   <v>       0.00183400      -0.49878500       0.00014300 </v>
   <v>       0.49173600       0.00825900       0.49919500 </v>
   <v>       0.01613600       0.24937000      -0.45642200 </v>
   <v>       0.49185700       0.49761300       0.49982100 </v>
   <v>       0.24688200      -0.45937200      -0.44744800 </v>
   <v>       0.28435000       0.25190500      -0.26567100 </v>
   <v>       0.25563400      -0.04636200      -0.44889900 </v>
   <v>      -0.20323800       0.25005700       0.22044100 </v>
   <v>       0.01143500      -0.00277500      -0.49901400 </v>
   <v>       0.00400600      -0.49980100      -0.49979300 </v>
   <v>       0.23249200      -0.25227100       0.28340700 </v>
   <v>      -0.26711700       0.26164500       0.45457900 </v>
   <v>       0.02905500      -0.25004100       0.03598300 </v>
   <v>      -0.45271800       0.46852800      -0.25105100 </v>
   <v>      -0.24565400      -0.02421800       0.04885200 </v>
   <v>      -0.24572300      -0.47577800       0.04895900 </v>
   <v>      -0.45070700       0.03193000      -0.25177200 </v>
   <v>       0.47529300      -0.24968700      -0.02893800 </v>
   <v>      -0.04999300      -0.03635600      -0.25310800 </v>
   <v>      -0.05155300      -0.46483000      -0.25377000 </v>
   <v>      -0.03520000      -0.24904500       0.45411400 </v>
   <v>      -0.44837700      -0.25507100      -0.48006900 </v>
   <v>       0.20904600      -0.25111000      -0.21631700 </v>
   <v>      -0.22896900       0.25149000      -0.25945600 </v>
   <v>      -0.29381900      -0.25024100       0.25400000 </v>
   <v>      -0.27282800      -0.25011400      -0.20690900 </v>
  </varray>
 </structure>
 <varray name="primitive_index" >
  <v type="int" >        1 </v>
  <v type="int" >       38 </v>
  <v type="int" >       29 </v>
  <v type="int" >       20 </v>
  <v type="int" >       23 </v>
  <v type="int" >       25 </v>
  <v type="int" >       32 </v>
  <v type="int" >       26 </v>
  <v type="int" >       33 </v>
  <v type="int" >       19 </v>
  <v type="int" >       11 </v>
  <v type="int" >       13 </v>
  <v type="int" >        9 </v>
  <v type="int" >       15 </v>
  <v type="int" >       10 </v>
  <v type="int" >       24 </v>
  <v type="int" >       16 </v>
  <v type="int" >       36 </v>
  <v type="int" >        5 </v>
  <v type="int" >       31 </v>
  <v type="int" >        6 </v>
  <v type="int" >       12 </v>
  <v type="int" >       14 </v>
  <v type="int" >        8 </v>
  <v type="int" >       39 </v>
  <v type="int" >       21 </v>
  <v type="int" >       37 </v>
  <v type="int" >       30 </v>
  <v type="int" >       35 </v>
  <v type="int" >       28 </v>
  <v type="int" >       17 </v>
  <v type="int" >       34 </v>
  <v type="int" >       27 </v>
  <v type="int" >       18 </v>
  <v type="int" >       22 </v>
  <v type="int" >        4 </v>
  <v type="int" >        2 </v>
  <v type="int" >        3 </v>
  <v type="int" >        7 </v>
 </varray>
 <kpoints>
  <generation param="Gamma">
   <v type="int" name="divisions">       2        2        2 </v>
   <v name="usershift">      0.00000000       0.00000000       0.00000000 </v>
   <v name="genvec1">      0.50000000       0.00000000       0.00000000 </v>
   <v name="genvec2">      0.00000000       0.50000000       0.00000000 </v>
   <v name="genvec3">      0.00000000       0.00000000       0.50000000 </v>
   <v name="shift">      0.00000000       0.00000000       0.00000000 </v>
  </generation>
  <varray name="kpointlist" >
   <v>       0.00000000       0.00000000       0.00000000 </v>
   <v>       0.50000000       0.00000000       0.00000000 </v>
   <v>       0.00000000       0.50000000       0.00000000 </v>
   <v>       0.50000000       0.50000000       0.00000000 </v>
   <v>       0.00000000       0.00000000       0.50000000 </v>
   <v>       0.50000000       0.00000000       0.50000000 </v>
   <v>       0.00000000       0.50000000       0.50000000 </v>
   <v>       0.50000000       0.50000000       0.50000000 </v>
  </varray>
  <varray name="weights" >
   <v>       0.12500000 </v>
   <v>       0.12500000 </v>
   <v>       0.12500000 </v>
   <v>       0.12500000 </v>
   <v>       0.12500000 </v>
   <v>       0.12500000 </v>
   <v>       0.12500000 </v>
   <v>       0.12500000 </v>
  </varray>
 </kpoints>
 <parameters>
  <separator name="general" >
   <i type="string" name="SYSTEM">CsPbBr3 cubic bulk</i>
   <i type="logical" name="LCOMPAT"> F  </i>
  </separator>
  <separator name="electronic" >
   <i type="string" name="PREC">accura</i>
   <i name="ENMAX">    300.00000000</i>
   <i name="ENAUG">    503.85200000</i>
   <i name="EDIFF">      0.00000100</i>
   <i type="int" name="IALGO">    38</i>
   <i type="int" name="IWAVPR">    10</i>
   <i type="int" name="NBANDS">   208</i>
   <i name="NELECT">    344.00000000</i>
   <i type="int" name="TURBO">     0</i>
   <i type="int" name="IRESTART">     0</i>
   <i type="int" name="NREBOOT">     0</i>
   <i type="int" name="NMIN">     0</i>
   <i name="EREF">      0.00000000</i>
   <separator name="electronic smearing" >
    <i type="int" name="ISMEAR">     0</i>
    <i name="SIGMA">      0.01000000</i>
    <i name="KSPACING">      0.50000000</i>
    <i type="logical" name="KGAMMA"> T  </i>
   </separator>
   <separator name="electronic projectors" >
    <i type="logical" name="LREAL"> T  </i>
    <v name="ROPT">     -0.00025000     -0.00025000     -0.00025000</v>
    <i type="int" name="LMAXPAW">  -100</i>
    <i type="int" name="LMAXMIX">     2</i>
    <i type="logical" name="NLSPLINE"> F  </i>
   </separator>
   <separator name="electronic startup" >
    <i type="int" name="ISTART">     0</i>
    <i type="int" name="ICHARG">     2</i>
    <i type="int" name="INIWAV">     1</i>
   </separator>
   <separator name="electronic spin" >
    <i type="int" name="ISPIN">     1</i>
    <i type="logical" name="LNONCOLLINEAR"> F  </i>
    <v name="MAGMOM">      0.00000000      0.00000000      0.00000000      0.00000000      0.00000000      0.00000000      0.00000000      0.00000000      0.00000000      0.00000000      0.00000000      0.00000000      0.00000000      0.00000000      0.00000000      0.00000000      0.00000000      0.00000000      0.00000000      0.00000000
      0.00000000      0.00000000      0.00000000      0.00000000      0.00000000      0.00000000      0.00000000      0.00000000      0.00000000      0.00000000      0.00000000      0.00000000      0.00000000      0.00000000      0.00000000      0.00000000      0.00000000      0.00000000      0.00000000</v>
    <i name="NUPDOWN">      0.00000000</i>
    <i type="logical" name="LSORBIT"> F  </i>
    <v name="SAXIS">      0.00000000      0.00000000      1.00000000</v>
    <i type="logical" name="LSPIRAL"> F  </i>
    <v name="QSPIRAL">      0.00000000      0.00000000      0.00000000</v>
    <i type="logical" name="LZEROZ"> F  </i>
   </separator>
   <separator name="electronic exchange-correlation" >
    <i type="logical" name="LASPH"> T  </i>
    <i type="logical" name="LMETAGGA"> F  </i>
   </separator>
   <separator name="electronic convergence" >
    <i type="int" name="NELM">   200</i>
    <i type="int" name="NELMDL">    -5</i>
    <i type="int" name="NELMIN">     2</i>
    <i name="ENINI">    300.00000000</i>
    <separator name="electronic convergence detail" >
     <i type="logical" name="LDIAG"> T  </i>
     <i type="logical" name="LSUBROT"> F  </i>
     <i name="WEIMIN">      0.00000000</i>
     <i name="EBREAK">      0.00000000</i>
     <i name="DEPER">      0.30000000</i>
     <i type="int" name="NRMM">     4</i>
     <i name="TIME">      0.40000000</i>
    </separator>
   </separator>
   <separator name="electronic mixer" >
    <i name="AMIX">      0.40000000</i>
    <i name="BMIX">      1.00000000</i>
    <i name="AMIN">      0.10000000</i>
    <i name="AMIX_MAG">      1.60000000</i>
    <i name="BMIX_MAG">      1.00000000</i>
    <separator name="electronic mixer details" >
     <i type="int" name="IMIX">     4</i>
     <i type="logical" name="MIXFIRST"> F  </i>
     <i type="int" name="MAXMIX">   -45</i>
     <i name="WC">    100.00000000</i>
     <i type="int" name="INIMIX">     1</i>
     <i type="int" name="MIXPRE">     1</i>
     <i type="int" name="MREMOVE">     5</i>
    </separator>
   </separator>
   <separator name="electronic dipolcorrection" >
    <i type="logical" name="LDIPOL"> F  </i>
    <i type="logical" name="LMONO"> F  </i>
    <i type="int" name="IDIPOL">     0</i>
    <i name="EPSILON">      1.00000000</i>
    <v name="DIPOL">   -100.00000000   -100.00000000   -100.00000000</v>
    <i name="EFIELD">      0.00000000</i>
   </separator>
  </separator>
  <separator name="grids" >
   <i type="int" name="NGX">    70</i>
   <i type="int" name="NGY">    70</i>
   <i type="int" name="NGZ">    70</i>
   <i type="int" name="NGXF">   140</i>
   <i type="int" name="NGYF">   140</i>
   <i type="int" name="NGZF">   140</i>
   <i type="logical" name="ADDGRID"> T  </i>
  </separator>
  <separator name="ionic" >
   <i type="int" name="NSW">     0</i>
   <i type="int" name="IBRION">    -1</i>
   <i type="int" name="MDALGO">     0</i>
   <i type="int" name="ISIF">     2</i>
   <i name="PSTRESS">      0.00000000</i>
   <i name="EDIFFG">     -0.01000000</i>
   <i type="int" name="NFREE">     1</i>
   <i name="POTIM">      0.50000000</i>
   <i name="SMASS">     -3.00000000</i>
   <i name="SCALEE">      1.00000000</i>
  </separator>
  <separator name="ionic md" >
   <i name="TEBEG">      0.00010000</i>
   <i name="TEEND">      0.00010000</i>
   <i type="int" name="NBLOCK">     1</i>
   <i type="int" name="KBLOCK">     1</i>
   <i type="int" name="NPACO">   256</i>
   <i name="APACO">     16.00000000</i>
  </separator>
  <separator name="symmetry" >
   <i type="int" name="ISYM">     0</i>
   <i name="SYMPREC">      0.00001000</i>
  </separator>
  <separator name="dos" >
   <i type="int" name="LORBIT">    10</i>
   <v name="RWIGS">     -1.00000000     -1.00000000     -1.00000000</v>
   <i type="int" name="NEDOS">   301</i>
   <i name="EMIN">     10.00000000</i>
   <i name="EMAX">    -10.00000000</i>
   <i name="EFERMI">      0.00000000</i>
  </separator>
  <separator name="writing" >
   <i type="int" name="NWRITE">     2</i>
   <i type="logical" name="LWAVE"> F  </i>
   <i type="logical" name="LDOWNSAMPLE"> F  </i>
   <i type="logical" name="LCHARG"> F  </i>
   <i type="logical" name="LPARD"> F  </i>
   <i type="logical" name="LVTOT"> F  </i>
   <i type="logical" name="LVHAR"> T  </i>
   <i type="logical" name="LELF"> F  </i>
   <i type="logical" name="LOPTICS"> F  </i>
   <v name="STM">      0.00000000      0.00000000      0.00000000      0.00000000      0.00000000      0.00000000      0.00000000</v>
  </separator>
  <separator name="performance" >
   <i type="int" name="NPAR">     8</i>
   <i type="int" name="NSIM">     4</i>
   <i type="int" name="NBLK">    -1</i>
   <i type="logical" name="LPLANE"> T  </i>
   <i type="logical" name="LSCALAPACK"> T  </i>
   <i type="logical" name="LSCAAWARE"> F  </i>
   <i type="logical" name="LSCALU"> F  </i>
   <i type="logical" name="LASYNC"> F  </i>
   <i type="logical" name="LORBITALREAL"> F  </i>
  </separator>
  <separator name="miscellaneous" >
   <i type="int" name="IDIOT">     3</i>
   <i type="int" name="ISPECIAL">     0</i>
   <i type="logical" name="LMUSIC"> F  </i>
   <v name="POMASS">    132.90000000    207.20000000     79.90400000</v>
   <v name="DARWINR">      0.00000000      0.00000000      0.00000000</v>
   <v name="DARWINV">      1.00000000      1.00000000      1.00000000</v>
   <i type="logical" name="LCORR"> T  </i>
  </separator>
  <i type="logical" name="GGA_COMPAT"> T  </i>
  <i type="logical" name="LBERRY"> F  </i>
  <i type="int" name="ICORELEVEL">     0</i>
  <i type="logical" name="LDAU"> F  </i>
  <i type="int" name="I_CONSTRAINED_M">     0</i>
  <separator name="electronic exchange-correlation" >
   <i type="string" name="GGA">--</i>
   <i type="int" name="VOSKOWN">     0</i>
   <i type="logical" name="LHFCALC"> F  </i>
   <i type="string" name="PRECFOCK"></i>
   <i type="logical" name="LSYMGRAD"> F  </i>
   <i type="logical" name="LHFONE"> F  </i>
   <i type="logical" name="LRHFCALC"> F  </i>
   <i type="logical" name="LTHOMAS"> F  </i>
   <i type="logical" name="LMODELHF"> F  </i>
   <i name="ENCUT4O">     -1.00000000</i>
   <i type="int" name="EXXOEP">     0</i>
   <i type="int" name="FOURORBIT">     0</i>
   <i name="AEXX">      0.00000000</i>
   <i name="HFALPHA">      0.00000000</i>
   <i name="MCALPHA">      0.00000000</i>
   <i name="ALDAX">      1.00000000</i>
   <i name="AGGAX">      1.00000000</i>
   <i name="ALDAC">      1.00000000</i>
   <i name="AGGAC">      1.00000000</i>
   <i type="int" name="NKREDX">     1</i>
   <i type="int" name="NKREDY">     1</i>
   <i type="int" name="NKREDZ">     1</i>
   <i type="logical" name="SHIFTRED"> F  </i>
   <i type="logical" name="ODDONLY"> F  </i>
   <i type="logical" name="EVENONLY"> F  </i>
   <i type="int" name="LMAXFOCK">     0</i>
   <i type="int" name="NMAXFOCKAE">     0</i>
   <i type="logical" name="LFOCKAEDFT"> F  </i>
   <i name="HFSCREEN">      0.00000000</i>
   <i name="HFSCREENC">      0.00000000</i>
   <i type="int" name="NBANDSGWLOW">     0</i>
  </separator>
  <separator name="vdW DFT" >
   <i type="logical" name="LUSE_VDW"> F  </i>
   <i name="Zab_VDW">     -0.84910000</i>
   <i name="PARAM1">      0.12340000</i>
   <i name="PARAM2">      1.00000000</i>
   <i name="PARAM3">      0.00000000</i>
  </separator>
  <separator name="model GW" >
   <i type="int" name="MODEL_GW">     0</i>
   <i name="MODEL_EPS0">     24.53982053</i>
   <i name="MODEL_ALPHA">      1.00000000</i>
  </separator>
  <separator name="linear response parameters" >
   <i type="logical" name="LEPSILON"> F  </i>
   <i type="logical" name="LRPA"> F  </i>
   <i type="logical" name="LNABLA"> F  </i>
   <i type="logical" name="LVEL"> F  </i>
   <i type="int" name="KINTER">     0</i>
   <i name="CSHIFT">      0.10000000</i>
   <i name="OMEGAMAX">     -1.00000000</i>
   <i name="DEG_THRESHOLD">      0.00200000</i>
   <i name="RTIME">     -0.10000000</i>
   <i name="WPLASMAI">      0.00000000</i>
   <v name="DFIELD">      0.00000000      0.00000000      0.00000000</v>
   <v name="WPLASMA">      0.00000000      0.00000000      0.00000000      0.00000000      0.00000000      0.00000000      0.00000000      0.00000000      0.00000000</v>
  </separator>
  <separator name="orbital magnetization" >
   <i type="logical" name="NUCIND"> F  </i>
   <v name="MAGPOS">      0.00000000      0.00000000      0.00000000</v>
   <i type="logical" name="LNICSALL"> T  </i>
   <i type="logical" name="ORBITALMAG"> F  </i>
   <i type="logical" name="LMAGBLOCH"> F  </i>
   <i type="logical" name="LCHIMAG"> F  </i>
   <i type="logical" name="LGAUGE"> T  </i>
   <i type="int" name="MAGATOM">     0</i>
   <v name="MAGDIPOL">      0.00000000      0.00000000      0.00000000</v>
   <v name="AVECCONST">      0.00000000      0.00000000      0.00000000</v>
  </separator>
  <separator name="response functions" >
   <i type="logical" name="LADDER"> F  </i>
   <i type="logical" name="LRPAFORCE"> F  </i>
   <i type="logical" name="LFXC"> F  </i>
   <i type="logical" name="LHARTREE"> T  </i>
   <i type="int" name="IBSE">     0</i>
   <v type="int" name="KPOINT">    -1     0     0     0</v>
   <i type="logical" name="LTCTE"> F  </i>
   <i type="logical" name="LTETE"> F  </i>
   <i type="logical" name="LTRIPLET"> F  </i>
   <i type="logical" name="LFXCEPS"> F  </i>
   <i type="logical" name="LFXHEG"> F  </i>
   <i type="int" name="NATURALO">     2</i>
   <i type="logical" name="L2ORDER"> F  </i>
   <i type="logical" name="LMP2LT"> F  </i>
   <i type="logical" name="LUSEW"> F  </i>
   <i name="ENCUTGW">     -2.00000000</i>
   <i name="ENCUTGWSOFT">     -2.00000000</i>
   <i name="ENCUTLF">     -1.00000000</i>
   <i type="int" name="LMAXMP2">    -1</i>
   <i name="SCISSOR">      0.00000000</i>
   <i type="int" name="NOMEGA">     0</i>
   <i type="int" name="NOMEGAR">     0</i>
   <i type="int" name="NBANDSGW">    -1</i>
   <i type="int" name="NBANDSO">    -1</i>
   <i type="int" name="NBANDSV">    -1</i>
   <i type="int" name="NELM">   200</i>
   <i type="int" name="NELMHF">     1</i>
   <i type="int" name="DIM">     3</i>
   <i type="int" name="ANTIRES">     0</i>
   <i name="OMEGAMAX">    -30.00000000</i>
   <i name="OMEGAMIN">    -30.00000000</i>
   <i name="OMEGATL">   -200.00000000</i>
   <i type="int" name="OMEGAGRID">   140</i>
   <i name="CSHIFT">     -0.10000000</i>
   <i type="logical" name="SELFENERGY"> F  </i>
   <i type="logical" name="LSPECTRAL"> F  </i>
   <i type="logical" name="LSPECTRALGW"> F  </i>
   <i type="logical" name="LSINGLES"> F  </i>
   <i type="logical" name="LFERMIGW"> F  </i>
   <i type="logical" name="ODDONLYGW"> F  </i>
   <i type="logical" name="EVENONLYGW"> F  </i>
   <i type="int" name="NKREDLFX">     1</i>
   <i type="int" name="NKREDLFY">     1</i>
   <i type="int" name="NKREDLFZ">     1</i>
   <i type="int" name="MAXMEM">  2800</i>
   <i type="int" name="TELESCOPE">     0</i>
   <i type="int" name="TAUPAR">     1</i>
   <i type="int" name="OMEGAPAR">    -1</i>
   <i name="LAMBDA">      1.00000000</i>
  </separator>
  <separator name="External order field" >
   <i name="OFIELD_KAPPA">      0.00000000</i>
   <v name="OFIELD_K">      0.00000000      0.00000000      0.00000000</v>
   <i name="OFIELD_Q6_NEAR">      0.00000000</i>
   <i name="OFIELD_Q6_FAR">      0.00000000</i>
   <i name="OFIELD_A">      0.00000000</i>
  </separator>
 </parameters>
 <atominfo>
  <atoms>      39 </atoms>
  <types>       3 </types>
  <array name="atoms" >
   <dimension dim="1">ion</dimension>
   <field type="string">element</field>
   <field type="int">atomtype</field>
   <set>
    <rc><c>Cs</c><c>   1</c></rc>
    <rc><c>Cs</c><c>   1</c></rc>
    <rc><c>Cs</c><c>   1</c></rc>
    <rc><c>Cs</c><c>   1</c></rc>
    <rc><c>Cs</c><c>   1</c></rc>
    <rc><c>Cs</c><c>   1</c></rc>
    <rc><c>Cs</c><c>   1</c></rc>
    <rc><c>Cs</c><c>   1</c></rc>
    <rc><c>Pb</c><c>   2</c></rc>
    <rc><c>Pb</c><c>   2</c></rc>
    <rc><c>Pb</c><c>   2</c></rc>
    <rc><c>Pb</c><c>   2</c></rc>
    <rc><c>Pb</c><c>   2</c></rc>
    <rc><c>Pb</c><c>   2</c></rc>
    <rc><c>Pb</c><c>   2</c></rc>
    <rc><c>Pb</c><c>   2</c></rc>
    <rc><c>Br</c><c>   3</c></rc>
    <rc><c>Br</c><c>   3</c></rc>
    <rc><c>Br</c><c>   3</c></rc>
    <rc><c>Br</c><c>   3</c></rc>
    <rc><c>Br</c><c>   3</c></rc>
    <rc><c>Br</c><c>   3</c></rc>
    <rc><c>Br</c><c>   3</c></rc>
    <rc><c>Br</c><c>   3</c></rc>
    <rc><c>Br</c><c>   3</c></rc>
    <rc><c>Br</c><c>   3</c></rc>
    <rc><c>Br</c><c>   3</c></rc>
    <rc><c>Br</c><c>   3</c></rc>
    <rc><c>Br</c><c>   3</c></rc>
    <rc><c>Br</c><c>   3</c></rc>
    <rc><c>Br</c><c>   3</c></rc>
    <rc><c>Br</c><c>   3</c></rc>
    <rc><c>Br</c><c>   3</c></rc>
    <rc><c>Br</c><c>   3</c></rc>
    <rc><c>Br</c><c>   3</c></rc>
    <rc><c>Br</c><c>   3</c></rc>
    <rc><c>Br</c><c>   3</c></rc>
    <rc><c>Br</c><c>   3</c></rc>
    <rc><c>Br</c><c>   3</c></rc>
   </set>
  </array>
  <array name="atomtypes" >
   <dimension dim="1">type</dimension>
   <field type="int">atomspertype</field>
   <field type="string">element</field>
   <field>mass</field>
   <field>valence</field>
   <field type="string">pseudopotential</field>
   <set>
    <rc><c>   8</c><c>Cs</c><c>    132.90000000</c><c>      9.00000000</c><c>  PAW_PBE Cs_sv 08Apr2002               </c></rc>
    <rc><c>   8</c><c>Pb</c><c>    207.20000000</c><c>     14.00000000</c><c>  PAW_PBE Pb_d 06Sep2000                </c></rc>
    <rc><c>  23</c><c>Br</c><c>     79.90400000</c><c>      7.00000000</c><c>  PAW_PBE Br 06Sep2000                  </c></rc>
   </set>
  </array>
 </atominfo>
 <structure name="initialpos" >
  <crystal>
   <varray name="basis" >
    <v>       8.45648900       0.00000000       8.04030100 </v>
    <v>       0.00000000      11.72984700       0.00000000 </v>
    <v>      -8.45648900       0.00000000       8.04030100 </v>
   </varray>
   <i name="volume">   1595.08833419 </i>
   <varray name="rec_basis" >
    <v>       0.05912619      -0.00000000       0.06218673 </v>
    <v>       0.00000000       0.08525260      -0.00000000 </v>
    <v>      -0.05912619       0.00000000       0.06218673 </v>
   </varray>
  </crystal>
  <varray name="positions" >
   <v>       0.27267800       0.24982100       0.19655200 </v>
   <v>       0.77103100       0.25149000       0.74054400 </v>
   <v>       0.70618100       0.74975900       0.25400000 </v>
   <v>       0.20904600       0.74889000       0.78368300 </v>
   <v>       0.28435000       0.25190500       0.73432900 </v>
   <v>       0.79676200       0.25005700       0.22044100 </v>
   <v>       0.72717200       0.74988600       0.79309100 </v>
   <v>       0.23249200       0.74772900       0.28340700 </v>
   <v>       0.00205900       0.99852600       0.99974900 </v>
   <v>       0.49173600       0.00825900       0.49919500 </v>
   <v>       0.50066300       0.00110200       0.99800900 </v>
   <v>       0.01143500       0.99722500       0.50098600 </v>
   <v>       0.50077800       0.49936400       0.99832400 </v>
   <v>       0.00400600       0.50019900       0.50020700 </v>
   <v>       0.00183400       0.50121500       0.00014300 </v>
   <v>       0.49185700       0.49761300       0.49982100 </v>
   <v>       0.47529300       0.75031300       0.97106200 </v>
   <v>       0.96480000       0.75095500       0.45411400 </v>
   <v>       0.98150000       0.24992700       0.97452000 </v>
   <v>       0.44385700       0.24862200       0.47098300 </v>
   <v>       0.02905500       0.74995900       0.03598300 </v>
   <v>       0.55162300       0.74492900       0.51993100 </v>
   <v>       0.53418400       0.25010000       0.02925800 </v>
   <v>       0.01613600       0.24937000       0.54357800 </v>
   <v>       0.24923900       0.47108500       0.94965100 </v>
   <v>       0.45481400       0.52864800       0.24730800 </v>
   <v>       0.94844700       0.53517000       0.74623000 </v>
   <v>       0.54929300       0.03193000       0.74822800 </v>
   <v>       0.05224300       0.03638500       0.25509600 </v>
   <v>       0.75434600       0.97578200       0.04885200 </v>
   <v>       0.25563400       0.95363800       0.55110100 </v>
   <v>       0.24937600       0.02972300       0.94730800 </v>
   <v>       0.45481700       0.97017500       0.24816900 </v>
   <v>       0.95000700       0.96364400       0.74689200 </v>
   <v>       0.75427700       0.52422200       0.04895900 </v>
   <v>       0.24688200       0.54062800       0.55255200 </v>
   <v>       0.54728200       0.46852800       0.74894900 </v>
   <v>       0.05215700       0.46292000       0.25392400 </v>
   <v>       0.73288300       0.26164500       0.45457900 </v>
  </varray>
 </structure>
 <calculation>
  <scstep>
   <time name="dav">   16.69   16.69</time>
   <time name="total">   18.15   18.17</time>
   <energy>
    <i name="alphaZ">    872.70583573 </i>
    <i name="ewald"> -17960.95207229 </i>
    <i name="hartreedc">  -7395.01455336 </i>
    <i name="XCdc">    907.99319339 </i>
    <i name="pawpsdc">  21345.28103884 </i>
    <i name="pawaedc"> -22405.85761495 </i>
    <i name="eentropy">     -0.00068525 </i>
    <i name="bandstr">   -239.99432282 </i>
    <i name="atom">  26212.11861568 </i>
    <i name="e_fr_energy">   1336.27943497 </i>
    <i name="e_wo_entrp">   1336.28012022 </i>
    <i name="e_0_energy">   1336.27977759 </i>
   </energy>
  </scstep>
  <scstep>
   <time name="dav">   18.51   18.53</time>
   <time name="total">   18.51   18.53</time>
   <energy>
    <i name="e_fr_energy">  -1111.01874382 </i>
    <i name="e_wo_entrp">  -1111.01874382 </i>
    <i name="e_0_energy">  -1111.01874382 </i>
   </energy>
  </scstep>
  <scstep>
   <time name="dav">   19.35   19.40</time>
   <time name="total">   19.35   19.40</time>
   <energy>
    <i name="e_fr_energy">  -1473.89301858 </i>
    <i name="e_wo_entrp">  -1473.89301858 </i>
    <i name="e_0_energy">  -1473.89301858 </i>
   </energy>
  </scstep>
  <scstep>
   <time name="dav">   17.98   18.00</time>
   <time name="total">   17.98   18.00</time>
   <energy>
    <i name="e_fr_energy">  -1486.35606171 </i>
    <i name="e_wo_entrp">  -1486.35606171 </i>
    <i name="e_0_energy">  -1486.35606171 </i>
   </energy>
  </scstep>
  <scstep>
   <time name="dav">   19.43   19.45</time>
   <time name="total">   22.13   22.14</time>
   <energy>
    <i name="e_fr_energy">  -1486.92543559 </i>
    <i name="e_wo_entrp">  -1486.92543559 </i>
    <i name="e_0_energy">  -1486.92543559 </i>
   </energy>
  </scstep>
  <scstep>
   <time name="dav">   18.98   18.98</time>
   <time name="total">   23.17   23.18</time>
   <energy>
    <i name="e_fr_energy">  -1408.48572711 </i>
    <i name="e_wo_entrp">  -1408.48572711 </i>
    <i name="e_0_energy">  -1408.48572711 </i>
   </energy>
  </scstep>
  <scstep>
   <time name="dav">   18.08   18.08</time>
   <time name="total">   22.27   22.28</time>
   <energy>
    <i name="e_fr_energy">  -1407.81074618 </i>
    <i name="e_wo_entrp">  -1407.81074618 </i>
    <i name="e_0_energy">  -1407.81074618 </i>
   </energy>
  </scstep>
  <scstep>
   <time name="dav">   18.15   18.15</time>
   <time name="total">   22.28   22.35</time>
   <energy>
    <i name="e_fr_energy">  -1407.99318575 </i>
    <i name="e_wo_entrp">  -1407.99318575 </i>
    <i name="e_0_energy">  -1407.99318575 </i>
   </energy>
  </scstep>
  <scstep>
   <time name="dav">   17.33   17.33</time>
   <time name="total">   21.49   21.52</time>
   <energy>
    <i name="e_fr_energy">  -1408.04351084 </i>
    <i name="e_wo_entrp">  -1408.04351084 </i>
    <i name="e_0_energy">  -1408.04351084 </i>
   </energy>
  </scstep>
  <scstep>
   <time name="dav">   18.54   18.54</time>
   <time name="total">   22.70   22.74</time>
   <energy>
    <i name="e_fr_energy">  -1408.04835138 </i>
    <i name="e_wo_entrp">  -1408.04835138 </i>
    <i name="e_0_energy">  -1408.04835138 </i>
   </energy>
  </scstep>
  <scstep>
   <time name="dav">   17.18   17.18</time>
   <time name="total">   21.34   21.38</time>
   <energy>
    <i name="e_fr_energy">  -1408.04984853 </i>
    <i name="e_wo_entrp">  -1408.04984853 </i>
    <i name="e_0_energy">  -1408.04984853 </i>
   </energy>
  </scstep>
  <scstep>
   <time name="dav">   17.01   17.01</time>
   <time name="total">   21.17   21.20</time>
   <energy>
    <i name="e_fr_energy">  -1408.05233043 </i>
    <i name="e_wo_entrp">  -1408.05233043 </i>
    <i name="e_0_energy">  -1408.05233043 </i>
   </energy>
  </scstep>
  <scstep>
   <time name="dav">   19.40   19.40</time>
   <time name="total">   23.55   23.61</time>
   <energy>
    <i name="e_fr_energy">  -1408.05182537 </i>
    <i name="e_wo_entrp">  -1408.05182537 </i>
    <i name="e_0_energy">  -1408.05182537 </i>
   </energy>
  </scstep>
  <scstep>
   <time name="dav">   17.92   17.93</time>
   <time name="total">   22.09   22.11</time>
   <energy>
    <i name="e_fr_energy">  -1408.05177593 </i>
    <i name="e_wo_entrp">  -1408.05177593 </i>
    <i name="e_0_energy">  -1408.05177593 </i>
   </energy>
  </scstep>
  <scstep>
   <time name="dav">   17.90   17.90</time>
   <time name="total">   22.09   22.11</time>
   <energy>
    <i name="e_fr_energy">  -1408.05176339 </i>
    <i name="e_wo_entrp">  -1408.05176339 </i>
    <i name="e_0_energy">  -1408.05176339 </i>
   </energy>
  </scstep>
  <scstep>
   <time name="dav">   17.53   17.53</time>
   <time name="total">   21.74   21.74</time>
   <energy>
    <i name="e_fr_energy">  -1408.05181538 </i>
    <i name="e_wo_entrp">  -1408.05181538 </i>
    <i name="e_0_energy">  -1408.05181538 </i>
   </energy>
  </scstep>
  <scstep>
   <time name="dav">   17.57   17.58</time>
   <time name="total">   21.72   21.76</time>
   <energy>
    <i name="e_fr_energy">  -1408.05182016 </i>
    <i name="e_wo_entrp">  -1408.05182016 </i>
    <i name="e_0_energy">  -1408.05182016 </i>
   </energy>
  </scstep>
  <scstep>
   <time name="dav">   13.28   13.28</time>
   <time name="total">   17.46   17.47</time>
   <energy>
    <i name="e_fr_energy">  -1408.05181223 </i>
    <i name="e_wo_entrp">  -1408.05181223 </i>
    <i name="e_0_energy">  -1408.05181223 </i>
   </energy>
  </scstep>
  <scstep>
   <time name="dav">   13.27   13.27</time>
   <time name="total">   14.78   14.79</time>
   <energy>
    <i name="alphaZ">    872.70583573 </i>
    <i name="ewald"> -17960.95207229 </i>
    <i name="hartreedc">  -7423.81014686 </i>
    <i name="XCdc">    943.55154558 </i>
    <i name="pawpsdc">  22731.97312727 </i>
    <i name="pawaedc"> -23789.46316686 </i>
    <i name="eentropy">     -0.00000000 </i>
    <i name="bandstr">  -2994.17555001 </i>
    <i name="atom">  26212.11861568 </i>
    <i name="e_fr_energy">  -1408.05181175 </i>
    <i name="e_wo_entrp">  -1408.05181175 </i>
    <i name="e_0_energy">  -1408.05181175 </i>
   </energy>
  </scstep>
  <structure>
   <crystal>
    <varray name="basis" >
     <v>       8.45648900       0.00000000       8.04030100 </v>
     <v>       0.00000000      11.72984700       0.00000000 </v>
     <v>      -8.45648900       0.00000000       8.04030100 </v>
    </varray>
    <i name="volume">   1595.08833419 </i>
    <varray name="rec_basis" >
     <v>       0.05912619      -0.00000000       0.06218673 </v>
     <v>       0.00000000       0.08525260      -0.00000000 </v>
     <v>      -0.05912619       0.00000000       0.06218673 </v>
    </varray>
   </crystal>
   <varray name="positions" >
    <v>       0.27267800       0.24982100       0.19655200 </v>
    <v>       0.77103100       0.25149000       0.74054400 </v>
    <v>       0.70618100       0.74975900       0.25400000 </v>
    <v>       0.20904600       0.74889000       0.78368300 </v>
    <v>       0.28435000       0.25190500       0.73432900 </v>
    <v>       0.79676200       0.25005700       0.22044100 </v>
    <v>       0.72717200       0.74988600       0.79309100 </v>
    <v>       0.23249200       0.74772900       0.28340700 </v>
    <v>       0.00205900       0.99852600       0.99974900 </v>
    <v>       0.49173600       0.00825900       0.49919500 </v>
    <v>       0.50066300       0.00110200       0.99800900 </v>
    <v>       0.01143500       0.99722500       0.50098600 </v>
    <v>       0.50077800       0.49936400       0.99832400 </v>
    <v>       0.00400600       0.50019900       0.50020700 </v>
    <v>       0.00183400       0.50121500       0.00014300 </v>
    <v>       0.49185700       0.49761300       0.49982100 </v>
    <v>       0.47529300       0.75031300       0.97106200 </v>
    <v>       0.96480000       0.75095500       0.45411400 </v>
    <v>       0.98150000       0.24992700       0.97452000 </v>
    <v>       0.44385700       0.24862200       0.47098300 </v>
    <v>       0.02905500       0.74995900       0.03598300 </v>
    <v>       0.55162300       0.74492900       0.51993100 </v>
    <v>       0.53418400       0.25010000       0.02925800 </v>
    <v>       0.01613600       0.24937000       0.54357800 </v>
    <v>       0.24923900       0.47108500       0.94965100 </v>
    <v>       0.45481400       0.52864800       0.24730800 </v>
    <v>       0.94844700       0.53517000       0.74623000 </v>
    <v>       0.54929300       0.03193000       0.74822800 </v>
    <v>       0.05224300       0.03638500       0.25509600 </v>
    <v>       0.75434600       0.97578200       0.04885200 </v>
    <v>       0.25563400       0.95363800       0.55110100 </v>
    <v>       0.24937600       0.02972300       0.94730800 </v>
    <v>       0.45481700       0.97017500       0.24816900 </v>
    <v>       0.95000700       0.96364400       0.74689200 </v>
    <v>       0.75427700       0.52422200       0.04895900 </v>
    <v>       0.24688200       0.54062800       0.55255200 </v>
    <v>       0.54728200       0.46852800       0.74894900 </v>
    <v>       0.05215700       0.46292000       0.25392400 </v>
    <v>       0.73288300       0.26164500       0.45457900 </v>
   </varray>
  </structure>
  <varray name="forces" >
   <v>      -0.00953885      -0.00043126      -0.01314875 </v>
   <v>      -0.16083983      -0.02076802       0.21407076 </v>
   <v>       0.06068398      -0.00336520      -0.08849649 </v>
   <v>      -0.04615823       0.00159585       0.03425326 </v>
   <v>      -0.01051199      -0.01318414      -0.00816843 </v>
   <v>       1.86231021      -0.10106532      -1.01590291 </v>
   <v>      -0.02564111      -0.00145125       0.03855592 </v>
   <v>       0.01810618       0.01017799      -0.01619438 </v>
   <v>      -0.03832123       0.09879870      -0.01588399 </v>
   <v>       0.03196743       0.13347203       0.06676455 </v>
   <v>       0.00580998       0.07083470       0.01459431 </v>
   <v>       0.06360595       0.31636708       0.03996509 </v>
   <v>       0.00923181      -0.07151747       0.01323584 </v>
   <v>       0.01995948      -0.33783017      -0.00181089 </v>
   <v>      -0.04742048      -0.10264364      -0.01823791 </v>
   <v>      -0.00433333      -0.16294406       0.05559429 </v>
   <v>       0.00071716      -0.00430559      -0.00170060 </v>
   <v>      -0.00827481      -0.00307304      -0.02364007 </v>
   <v>       0.10832106      -0.00406424       0.06954576 </v>
   <v>      -0.55359696      -0.10308190      -0.46046883 </v>
   <v>       0.00845739      -0.00035124       0.01631846 </v>
   <v>       0.00611635       0.05476295      -0.02876711 </v>
   <v>      -0.00853767       0.00005611      -0.05895218 </v>
   <v>       0.33044457      -0.04353219       0.57644512 </v>
   <v>       0.01690870       0.02156635      -0.00361276 </v>
   <v>      -0.04948474       0.03154666       0.06513042 </v>
   <v>       0.05599606       0.03382820      -0.02801640 </v>
   <v>       0.00475239      -0.03637394      -0.04334706 </v>
   <v>      -0.02466489      -0.05836315       0.04797311 </v>
   <v>      -0.00271938      -0.06424574      -0.02747062 </v>
   <v>      -0.02099231       0.03609172      -0.07953882 </v>
   <v>       0.00678288      -0.02874520       0.00316819 </v>
   <v>      -0.00992182      -0.02906214       0.02248968 </v>
   <v>       0.06442425      -0.02533599      -0.04538956 </v>
   <v>      -0.00557694       0.05832351      -0.02908715 </v>
   <v>       0.09214980      -0.02597594      -0.00158629 </v>
   <v>       0.03547048       0.03488439      -0.06502226 </v>
   <v>      -0.03232887       0.05789496       0.05160815 </v>
   <v>      -1.74335267       0.28150967       0.74473057 </v>
  </varray>
  <varray name="stress" >
   <v>      -2.03740646      -0.19132437      -2.93951453 </v>
   <v>      -0.19135484      -7.81450494       0.16305008 </v>
   <v>      -2.93953887       0.16308115      -3.34997561 </v>
  </varray>
  <energy>
   <i name="e_fr_energy">  -1408.05181175 </i>
   <i name="e_wo_entrp">  -1408.05181175 </i>
   <i name="e_0_energy">     -0.00000000 </i>
  </energy>
  <time name="totalsc">  449.04  449.60</time>
  <eigenvalues>
   <array>
    <dimension dim="1">band</dimension>
    <dimension dim="2">kpoint</dimension>
    <dimension dim="3">spin</dimension>
    <field>eigene</field>
    <field>occ</field>
    <set>
     <set comment="spin 1">
      <set comment="kpoint 1">
       <r>  -21.0016    1.0000 </r>
       <r>  -20.8737    1.0000 </r>
       <r>  -20.8477    1.0000 </r>
       <r>  -20.7716    1.0000 </r>
       <r>  -20.7480    1.0000 </r>
       <r>  -20.6468    1.0000 </r>
       <r>  -20.3573    1.0000 </r>
       <r>  -20.1411    1.0000 </r>
       <r>  -16.8949    1.0000 </r>
       <r>  -16.8549    1.0000 </r>
       <r>  -16.8414    1.0000 </r>
       <r>  -16.8230    1.0000 </r>
       <r>  -16.8138    1.0000 </r>
       <r>  -16.8049    1.0000 </r>
       <r>  -16.7768    1.0000 </r>
       <r>  -16.7745    1.0000 </r>
       <r>  -16.7712    1.0000 </r>
       <r>  -16.7667    1.0000 </r>
       <r>  -16.7482    1.0000 </r>
       <r>  -16.7437    1.0000 </r>
       <r>  -16.7417    1.0000 </r>
       <r>  -16.7394    1.0000 </r>
       <r>  -16.7286    1.0000 </r>
       <r>  -16.7215    1.0000 </r>
       <r>  -16.7049    1.0000 </r>
       <r>  -16.6807    1.0000 </r>
       <r>  -16.6723    1.0000 </r>
       <r>  -16.6685    1.0000 </r>
       <r>  -16.4746    1.0000 </r>
       <r>  -16.4589    1.0000 </r>
       <r>  -16.4503    1.0000 </r>
       <r>  -16.4407    1.0000 </r>
       <r>  -16.4089    1.0000 </r>
       <r>  -16.3987    1.0000 </r>
       <r>  -16.3959    1.0000 </r>
       <r>  -16.3753    1.0000 </r>
       <r>  -16.3212    1.0000 </r>
       <r>  -16.3185    1.0000 </r>
       <r>  -16.3138    1.0000 </r>
       <r>  -16.3110    1.0000 </r>
       <r>  -16.3101    1.0000 </r>
       <r>  -16.3079    1.0000 </r>
       <r>  -16.3047    1.0000 </r>
       <r>  -16.3037    1.0000 </r>
       <r>  -16.2998    1.0000 </r>
       <r>  -16.2990    1.0000 </r>
       <r>  -16.2957    1.0000 </r>
       <r>  -16.2902    1.0000 </r>
       <r>  -14.7085    1.0000 </r>
       <r>  -14.5991    1.0000 </r>
       <r>  -14.3229    1.0000 </r>
       <r>  -14.2669    1.0000 </r>
       <r>  -14.1603    1.0000 </r>
       <r>  -14.1494    1.0000 </r>
       <r>  -14.1117    1.0000 </r>
       <r>  -14.1104    1.0000 </r>
       <r>  -14.0765    1.0000 </r>
       <r>  -14.0736    1.0000 </r>
       <r>  -14.0696    1.0000 </r>
       <r>  -14.0606    1.0000 </r>
       <r>  -14.0504    1.0000 </r>
       <r>  -14.0477    1.0000 </r>
       <r>  -14.0380    1.0000 </r>
       <r>  -14.0195    1.0000 </r>
       <r>  -14.0029    1.0000 </r>
       <r>  -13.9029    1.0000 </r>
       <r>  -13.8493    1.0000 </r>
       <r>  -13.8035    1.0000 </r>
       <r>  -13.7478    1.0000 </r>
       <r>  -13.7356    1.0000 </r>
       <r>  -12.8432    1.0000 </r>
       <r>   -8.2980    1.0000 </r>
       <r>   -7.9369    1.0000 </r>
       <r>   -7.8095    1.0000 </r>
       <r>   -7.7826    1.0000 </r>
       <r>   -7.4197    1.0000 </r>
       <r>   -7.4103    1.0000 </r>
       <r>   -7.3833    1.0000 </r>
       <r>   -7.3699    1.0000 </r>
       <r>   -7.3127    1.0000 </r>
       <r>   -7.2965    1.0000 </r>
       <r>   -7.2791    1.0000 </r>
       <r>   -7.2684    1.0000 </r>
       <r>   -7.2539    1.0000 </r>
       <r>   -7.2480    1.0000 </r>
       <r>   -7.2437    1.0000 </r>
       <r>   -7.2191    1.0000 </r>
       <r>   -7.1884    1.0000 </r>
       <r>   -7.1752    1.0000 </r>
       <r>   -7.1595    1.0000 </r>
       <r>   -7.1532    1.0000 </r>
       <r>   -7.1437    1.0000 </r>
       <r>   -7.1312    1.0000 </r>
       <r>   -7.0622    1.0000 </r>
       <r>   -7.0570    1.0000 </r>
       <r>   -7.0431    1.0000 </r>
       <r>   -6.8677    1.0000 </r>
       <r>   -6.8178    1.0000 </r>
       <r>   -6.7849    1.0000 </r>
       <r>   -6.6567    1.0000 </r>
       <r>   -6.6413    1.0000 </r>
       <r>   -6.5913    1.0000 </r>
       <r>   -6.5060    1.0000 </r>
       <r>   -3.3765    1.0000 </r>
       <r>   -3.3634    1.0000 </r>
       <r>   -3.3175    1.0000 </r>
       <r>   -3.2968    1.0000 </r>
       <r>   -3.2733    1.0000 </r>
       <r>   -3.2556    1.0000 </r>
       <r>   -3.2378    1.0000 </r>
       <r>   -3.1663    1.0000 </r>
       <r>   -3.1537    1.0000 </r>
       <r>   -3.1102    1.0000 </r>
       <r>   -2.9737    1.0000 </r>
       <r>   -2.9028    1.0000 </r>
       <r>   -2.3675    1.0000 </r>
       <r>   -2.3308    1.0000 </r>
       <r>   -2.1631    1.0000 </r>
       <r>   -2.1156    1.0000 </r>
       <r>   -2.0787    1.0000 </r>
       <r>   -1.9866    1.0000 </r>
       <r>   -1.9183    1.0000 </r>
       <r>   -1.9036    1.0000 </r>
       <r>   -1.8976    1.0000 </r>
       <r>   -1.8759    1.0000 </r>
       <r>   -1.8087    1.0000 </r>
       <r>   -1.7554    1.0000 </r>
       <r>   -1.7221    1.0000 </r>
       <r>   -1.7047    1.0000 </r>
       <r>   -1.6980    1.0000 </r>
       <r>   -1.6844    1.0000 </r>
       <r>   -1.5828    1.0000 </r>
       <r>   -1.5693    1.0000 </r>
       <r>   -1.5513    1.0000 </r>
       <r>   -1.5424    1.0000 </r>
       <r>   -1.5317    1.0000 </r>
       <r>   -1.5231    1.0000 </r>
       <r>   -1.5065    1.0000 </r>
       <r>   -1.4991    1.0000 </r>
       <r>   -1.4941    1.0000 </r>
       <r>   -1.4711    1.0000 </r>
       <r>   -1.4450    1.0000 </r>
       <r>   -1.4367    1.0000 </r>
       <r>   -1.4102    1.0000 </r>
       <r>   -1.3930    1.0000 </r>
       <r>   -1.3762    1.0000 </r>
       <r>   -1.3705    1.0000 </r>
       <r>   -1.3567    1.0000 </r>
       <r>   -1.3472    1.0000 </r>
       <r>   -1.3401    1.0000 </r>
       <r>   -1.3073    1.0000 </r>
       <r>   -1.3030    1.0000 </r>
       <r>   -1.2990    1.0000 </r>
       <r>   -1.2407    1.0000 </r>
       <r>   -1.2288    1.0000 </r>
       <r>   -1.2049    1.0000 </r>
       <r>   -1.1807    1.0000 </r>
       <r>   -1.1729    1.0000 </r>
       <r>   -1.1594    1.0000 </r>
       <r>   -1.1049    1.0000 </r>
       <r>   -0.9910    1.0000 </r>
       <r>   -0.8940    1.0000 </r>
       <r>   -0.8777    1.0000 </r>
       <r>   -0.7974    1.0000 </r>
       <r>   -0.7119    1.0000 </r>
       <r>   -0.6365    1.0000 </r>
       <r>   -0.4913    1.0000 </r>
       <r>   -0.3288    1.0000 </r>
       <r>   -0.1855    1.0000 </r>
       <r>   -0.0396    1.0000 </r>
       <r>    0.3217    1.0000 </r>
       <r>    0.4009    1.0000 </r>
       <r>    2.3682    0.0000 </r>
       <r>    2.4925    0.0000 </r>
       <r>    2.6943    0.0000 </r>
       <r>    2.7036    0.0000 </r>
       <r>    2.9538    0.0000 </r>
       <r>    2.9993    0.0000 </r>
       <r>    3.0333    0.0000 </r>
       <r>    3.0419    0.0000 </r>
       <r>    3.1229    0.0000 </r>
       <r>    3.3937    0.0000 </r>
       <r>    3.4395    0.0000 </r>
       <r>    3.4614    0.0000 </r>
       <r>    3.8924    0.0000 </r>
       <r>    4.4228    0.0000 </r>
       <r>    4.8546    0.0000 </r>
       <r>    5.4141    0.0000 </r>
       <r>    5.4905    0.0000 </r>
       <r>    5.6897    0.0000 </r>
       <r>    5.7227    0.0000 </r>
       <r>    5.8179    0.0000 </r>
       <r>    5.8332    0.0000 </r>
       <r>    5.9131    0.0000 </r>
       <r>    6.0242    0.0000 </r>
       <r>    6.0994    0.0000 </r>
       <r>    6.1047    0.0000 </r>
       <r>    6.1286    0.0000 </r>
       <r>    6.1698    0.0000 </r>
       <r>    6.2700    0.0000 </r>
       <r>    6.2923    0.0000 </r>
       <r>    6.3289    0.0000 </r>
       <r>    6.4146    0.0000 </r>
       <r>    6.4314    0.0000 </r>
       <r>    6.5046    0.0000 </r>
       <r>    6.5138    0.0000 </r>
       <r>    6.5599    0.0000 </r>
       <r>    6.6014    0.0000 </r>
      </set>
      <set comment="kpoint 2">
       <r>  -21.0016    1.0000 </r>
       <r>  -20.8737    1.0000 </r>
       <r>  -20.8477    1.0000 </r>
       <r>  -20.7716    1.0000 </r>
       <r>  -20.7480    1.0000 </r>
       <r>  -20.6468    1.0000 </r>
       <r>  -20.3573    1.0000 </r>
       <r>  -20.1411    1.0000 </r>
       <r>  -16.8946    1.0000 </r>
       <r>  -16.8546    1.0000 </r>
       <r>  -16.8415    1.0000 </r>
       <r>  -16.8232    1.0000 </r>
       <r>  -16.8137    1.0000 </r>
       <r>  -16.8051    1.0000 </r>
       <r>  -16.7768    1.0000 </r>
       <r>  -16.7745    1.0000 </r>
       <r>  -16.7712    1.0000 </r>
       <r>  -16.7668    1.0000 </r>
       <r>  -16.7482    1.0000 </r>
       <r>  -16.7437    1.0000 </r>
       <r>  -16.7417    1.0000 </r>
       <r>  -16.7394    1.0000 </r>
       <r>  -16.7286    1.0000 </r>
       <r>  -16.7215    1.0000 </r>
       <r>  -16.7049    1.0000 </r>
       <r>  -16.6807    1.0000 </r>
       <r>  -16.6723    1.0000 </r>
       <r>  -16.6685    1.0000 </r>
       <r>  -16.4649    1.0000 </r>
       <r>  -16.4611    1.0000 </r>
       <r>  -16.4273    1.0000 </r>
       <r>  -16.4259    1.0000 </r>
       <r>  -16.4197    1.0000 </r>
       <r>  -16.4183    1.0000 </r>
       <r>  -16.3952    1.0000 </r>
       <r>  -16.3925    1.0000 </r>
       <r>  -16.3212    1.0000 </r>
       <r>  -16.3186    1.0000 </r>
       <r>  -16.3138    1.0000 </r>
       <r>  -16.3110    1.0000 </r>
       <r>  -16.3102    1.0000 </r>
       <r>  -16.3080    1.0000 </r>
       <r>  -16.3047    1.0000 </r>
       <r>  -16.3037    1.0000 </r>
       <r>  -16.2998    1.0000 </r>
       <r>  -16.2991    1.0000 </r>
       <r>  -16.2956    1.0000 </r>
       <r>  -16.2903    1.0000 </r>
       <r>  -14.7076    1.0000 </r>
       <r>  -14.5980    1.0000 </r>
       <r>  -14.3135    1.0000 </r>
       <r>  -14.2796    1.0000 </r>
       <r>  -14.1954    1.0000 </r>
       <r>  -14.1408    1.0000 </r>
       <r>  -14.1193    1.0000 </r>
       <r>  -14.1126    1.0000 </r>
       <r>  -14.1000    1.0000 </r>
       <r>  -14.0793    1.0000 </r>
       <r>  -14.0704    1.0000 </r>
       <r>  -14.0688    1.0000 </r>
       <r>  -14.0559    1.0000 </r>
       <r>  -14.0518    1.0000 </r>
       <r>  -14.0389    1.0000 </r>
       <r>  -13.9483    1.0000 </r>
       <r>  -13.9190    1.0000 </r>
       <r>  -13.9015    1.0000 </r>
       <r>  -13.8538    1.0000 </r>
       <r>  -13.8198    1.0000 </r>
       <r>  -13.7857    1.0000 </r>
       <r>  -13.7445    1.0000 </r>
       <r>  -12.8433    1.0000 </r>
       <r>   -8.2418    1.0000 </r>
       <r>   -8.0189    1.0000 </r>
       <r>   -7.7379    1.0000 </r>
       <r>   -7.6292    1.0000 </r>
       <r>   -7.5114    1.0000 </r>
       <r>   -7.4954    1.0000 </r>
       <r>   -7.4150    1.0000 </r>
       <r>   -7.3834    1.0000 </r>
       <r>   -7.3703    1.0000 </r>
       <r>   -7.2973    1.0000 </r>
       <r>   -7.2770    1.0000 </r>
       <r>   -7.2684    1.0000 </r>
       <r>   -7.2539    1.0000 </r>
       <r>   -7.2487    1.0000 </r>
       <r>   -7.2428    1.0000 </r>
       <r>   -7.1918    1.0000 </r>
       <r>   -7.1720    1.0000 </r>
       <r>   -7.1652    1.0000 </r>
       <r>   -7.1559    1.0000 </r>
       <r>   -7.1501    1.0000 </r>
       <r>   -7.1386    1.0000 </r>
       <r>   -7.0646    1.0000 </r>
       <r>   -7.0575    1.0000 </r>
       <r>   -7.0432    1.0000 </r>
       <r>   -7.0042    1.0000 </r>
       <r>   -6.8938    1.0000 </r>
       <r>   -6.8654    1.0000 </r>
       <r>   -6.8175    1.0000 </r>
       <r>   -6.7751    1.0000 </r>
       <r>   -6.6416    1.0000 </r>
       <r>   -6.5997    1.0000 </r>
       <r>   -6.5052    1.0000 </r>
       <r>   -3.3488    1.0000 </r>
       <r>   -3.3451    1.0000 </r>
       <r>   -3.3295    1.0000 </r>
       <r>   -3.2686    1.0000 </r>
       <r>   -3.2615    1.0000 </r>
       <r>   -3.2147    1.0000 </r>
       <r>   -3.2035    1.0000 </r>
       <r>   -3.1450    1.0000 </r>
       <r>   -3.0045    1.0000 </r>
       <r>   -2.9240    1.0000 </r>
       <r>   -2.5377    1.0000 </r>
       <r>   -2.5183    1.0000 </r>
       <r>   -2.4197    1.0000 </r>
       <r>   -2.4040    1.0000 </r>
       <r>   -2.3691    1.0000 </r>
       <r>   -2.3118    1.0000 </r>
       <r>   -2.0959    1.0000 </r>
       <r>   -2.0706    1.0000 </r>
       <r>   -2.0520    1.0000 </r>
       <r>   -2.0214    1.0000 </r>
       <r>   -1.9433    1.0000 </r>
       <r>   -1.9011    1.0000 </r>
       <r>   -1.8748    1.0000 </r>
       <r>   -1.8611    1.0000 </r>
       <r>   -1.7650    1.0000 </r>
       <r>   -1.6887    1.0000 </r>
       <r>   -1.6776    1.0000 </r>
       <r>   -1.6564    1.0000 </r>
       <r>   -1.6190    1.0000 </r>
       <r>   -1.6120    1.0000 </r>
       <r>   -1.5868    1.0000 </r>
       <r>   -1.5625    1.0000 </r>
       <r>   -1.5460    1.0000 </r>
       <r>   -1.5360    1.0000 </r>
       <r>   -1.5175    1.0000 </r>
       <r>   -1.4946    1.0000 </r>
       <r>   -1.4846    1.0000 </r>
       <r>   -1.4700    1.0000 </r>
       <r>   -1.4506    1.0000 </r>
       <r>   -1.4447    1.0000 </r>
       <r>   -1.4336    1.0000 </r>
       <r>   -1.4113    1.0000 </r>
       <r>   -1.4060    1.0000 </r>
       <r>   -1.3829    1.0000 </r>
       <r>   -1.3753    1.0000 </r>
       <r>   -1.3372    1.0000 </r>
       <r>   -1.3135    1.0000 </r>
       <r>   -1.2822    1.0000 </r>
       <r>   -1.2798    1.0000 </r>
       <r>   -1.2668    1.0000 </r>
       <r>   -1.2497    1.0000 </r>
       <r>   -1.2280    1.0000 </r>
       <r>   -1.2068    1.0000 </r>
       <r>   -1.1739    1.0000 </r>
       <r>   -1.1309    1.0000 </r>
       <r>   -1.1122    1.0000 </r>
       <r>   -1.0976    1.0000 </r>
       <r>   -1.0714    1.0000 </r>
       <r>   -0.9127    1.0000 </r>
       <r>   -0.8940    1.0000 </r>
       <r>   -0.7189    1.0000 </r>
       <r>   -0.6920    1.0000 </r>
       <r>   -0.6493    1.0000 </r>
       <r>   -0.6085    1.0000 </r>
       <r>   -0.5394    1.0000 </r>
       <r>   -0.0690    1.0000 </r>
       <r>   -0.0347    1.0000 </r>
       <r>   -0.0050    1.0000 </r>
       <r>    0.3582    1.0000 </r>
       <r>    2.4598    0.0000 </r>
       <r>    2.6395    0.0000 </r>
       <r>    2.7633    0.0000 </r>
       <r>    2.7923    0.0000 </r>
       <r>    2.9075    0.0000 </r>
       <r>    2.9587    0.0000 </r>
       <r>    3.1403    0.0000 </r>
       <r>    3.2130    0.0000 </r>
       <r>    3.3049    0.0000 </r>
       <r>    3.3371    0.0000 </r>
       <r>    3.6985    0.0000 </r>
       <r>    3.9423    0.0000 </r>
       <r>    4.4272    0.0000 </r>
       <r>    4.4387    0.0000 </r>
       <r>    4.7596    0.0000 </r>
       <r>    4.7985    0.0000 </r>
       <r>    5.4666    0.0000 </r>
       <r>    5.5348    0.0000 </r>
       <r>    5.5466    0.0000 </r>
       <r>    5.6718    0.0000 </r>
       <r>    5.6785    0.0000 </r>
       <r>    5.7854    0.0000 </r>
       <r>    5.8453    0.0000 </r>
       <r>    6.0950    0.0000 </r>
       <r>    6.1215    0.0000 </r>
       <r>    6.1380    0.0000 </r>
       <r>    6.1745    0.0000 </r>
       <r>    6.2259    0.0000 </r>
       <r>    6.2457    0.0000 </r>
       <r>    6.3116    0.0000 </r>
       <r>    6.3776    0.0000 </r>
       <r>    6.4015    0.0000 </r>
       <r>    6.4943    0.0000 </r>
       <r>    6.5309    0.0000 </r>
       <r>    6.5628    0.0000 </r>
       <r>    6.6076    0.0000 </r>
      </set>
      <set comment="kpoint 3">
       <r>  -21.0016    1.0000 </r>
       <r>  -20.8737    1.0000 </r>
       <r>  -20.8477    1.0000 </r>
       <r>  -20.7715    1.0000 </r>
       <r>  -20.7480    1.0000 </r>
       <r>  -20.6468    1.0000 </r>
       <r>  -20.3573    1.0000 </r>
       <r>  -20.1411    1.0000 </r>
       <r>  -16.8933    1.0000 </r>
       <r>  -16.8537    1.0000 </r>
       <r>  -16.8375    1.0000 </r>
       <r>  -16.8136    1.0000 </r>
       <r>  -16.8099    1.0000 </r>
       <r>  -16.8027    1.0000 </r>
       <r>  -16.7881    1.0000 </r>
       <r>  -16.7798    1.0000 </r>
       <r>  -16.7742    1.0000 </r>
       <r>  -16.7698    1.0000 </r>
       <r>  -16.7481    1.0000 </r>
       <r>  -16.7437    1.0000 </r>
       <r>  -16.7420    1.0000 </r>
       <r>  -16.7394    1.0000 </r>
       <r>  -16.7285    1.0000 </r>
       <r>  -16.7215    1.0000 </r>
       <r>  -16.7049    1.0000 </r>
       <r>  -16.6806    1.0000 </r>
       <r>  -16.6722    1.0000 </r>
       <r>  -16.6685    1.0000 </r>
       <r>  -16.4579    1.0000 </r>
       <r>  -16.4513    1.0000 </r>
       <r>  -16.4334    1.0000 </r>
       <r>  -16.4311    1.0000 </r>
       <r>  -16.4238    1.0000 </r>
       <r>  -16.4234    1.0000 </r>
       <r>  -16.3963    1.0000 </r>
       <r>  -16.3882    1.0000 </r>
       <r>  -16.3212    1.0000 </r>
       <r>  -16.3185    1.0000 </r>
       <r>  -16.3137    1.0000 </r>
       <r>  -16.3110    1.0000 </r>
       <r>  -16.3101    1.0000 </r>
       <r>  -16.3080    1.0000 </r>
       <r>  -16.3047    1.0000 </r>
       <r>  -16.3037    1.0000 </r>
       <r>  -16.2998    1.0000 </r>
       <r>  -16.2990    1.0000 </r>
       <r>  -16.2957    1.0000 </r>
       <r>  -16.2902    1.0000 </r>
       <r>  -14.7040    1.0000 </r>
       <r>  -14.6080    1.0000 </r>
       <r>  -14.2894    1.0000 </r>
       <r>  -14.2552    1.0000 </r>
       <r>  -14.2448    1.0000 </r>
       <r>  -14.1600    1.0000 </r>
       <r>  -14.1461    1.0000 </r>
       <r>  -14.1116    1.0000 </r>
       <r>  -14.1078    1.0000 </r>
       <r>  -14.0726    1.0000 </r>
       <r>  -14.0607    1.0000 </r>
       <r>  -14.0589    1.0000 </r>
       <r>  -14.0494    1.0000 </r>
       <r>  -14.0426    1.0000 </r>
       <r>  -14.0223    1.0000 </r>
       <r>  -13.9167    1.0000 </r>
       <r>  -13.9110    1.0000 </r>
       <r>  -13.8976    1.0000 </r>
       <r>  -13.8543    1.0000 </r>
       <r>  -13.8240    1.0000 </r>
       <r>  -13.7942    1.0000 </r>
       <r>  -13.7713    1.0000 </r>
       <r>  -12.8433    1.0000 </r>
       <r>   -8.0911    1.0000 </r>
       <r>   -8.0427    1.0000 </r>
       <r>   -7.7125    1.0000 </r>
       <r>   -7.6715    1.0000 </r>
       <r>   -7.5600    1.0000 </r>
       <r>   -7.5385    1.0000 </r>
       <r>   -7.4108    1.0000 </r>
       <r>   -7.4011    1.0000 </r>
       <r>   -7.3707    1.0000 </r>
       <r>   -7.2957    1.0000 </r>
       <r>   -7.2711    1.0000 </r>
       <r>   -7.2668    1.0000 </r>
       <r>   -7.2516    1.0000 </r>
       <r>   -7.2503    1.0000 </r>
       <r>   -7.2386    1.0000 </r>
       <r>   -7.1900    1.0000 </r>
       <r>   -7.1706    1.0000 </r>
       <r>   -7.1672    1.0000 </r>
       <r>   -7.1582    1.0000 </r>
       <r>   -7.1478    1.0000 </r>
       <r>   -7.1396    1.0000 </r>
       <r>   -7.0738    1.0000 </r>
       <r>   -7.0617    1.0000 </r>
       <r>   -7.0466    1.0000 </r>
       <r>   -7.0208    1.0000 </r>
       <r>   -7.0047    1.0000 </r>
       <r>   -6.8686    1.0000 </r>
       <r>   -6.8170    1.0000 </r>
       <r>   -6.7867    1.0000 </r>
       <r>   -6.6388    1.0000 </r>
       <r>   -6.6003    1.0000 </r>
       <r>   -6.5061    1.0000 </r>
       <r>   -3.3216    1.0000 </r>
       <r>   -3.3182    1.0000 </r>
       <r>   -3.2328    1.0000 </r>
       <r>   -3.2254    1.0000 </r>
       <r>   -3.1987    1.0000 </r>
       <r>   -3.1873    1.0000 </r>
       <r>   -3.0861    1.0000 </r>
       <r>   -2.9770    1.0000 </r>
       <r>   -2.6528    1.0000 </r>
       <r>   -2.5919    1.0000 </r>
       <r>   -2.5033    1.0000 </r>
       <r>   -2.4790    1.0000 </r>
       <r>   -2.4543    1.0000 </r>
       <r>   -2.3804    1.0000 </r>
       <r>   -2.3582    1.0000 </r>
       <r>   -2.3416    1.0000 </r>
       <r>   -2.2275    1.0000 </r>
       <r>   -2.1885    1.0000 </r>
       <r>   -2.0530    1.0000 </r>
       <r>   -2.0333    1.0000 </r>
       <r>   -2.0093    1.0000 </r>
       <r>   -1.9513    1.0000 </r>
       <r>   -1.9397    1.0000 </r>
       <r>   -1.8842    1.0000 </r>
       <r>   -1.8654    1.0000 </r>
       <r>   -1.7941    1.0000 </r>
       <r>   -1.7856    1.0000 </r>
       <r>   -1.7504    1.0000 </r>
       <r>   -1.7123    1.0000 </r>
       <r>   -1.6965    1.0000 </r>
       <r>   -1.6918    1.0000 </r>
       <r>   -1.5996    1.0000 </r>
       <r>   -1.5528    1.0000 </r>
       <r>   -1.5408    1.0000 </r>
       <r>   -1.5104    1.0000 </r>
       <r>   -1.4705    1.0000 </r>
       <r>   -1.4607    1.0000 </r>
       <r>   -1.4406    1.0000 </r>
       <r>   -1.4214    1.0000 </r>
       <r>   -1.4147    1.0000 </r>
       <r>   -1.3978    1.0000 </r>
       <r>   -1.3949    1.0000 </r>
       <r>   -1.3638    1.0000 </r>
       <r>   -1.3596    1.0000 </r>
       <r>   -1.3515    1.0000 </r>
       <r>   -1.3355    1.0000 </r>
       <r>   -1.3218    1.0000 </r>
       <r>   -1.3127    1.0000 </r>
       <r>   -1.2658    1.0000 </r>
       <r>   -1.2508    1.0000 </r>
       <r>   -1.2097    1.0000 </r>
       <r>   -1.2063    1.0000 </r>
       <r>   -1.1763    1.0000 </r>
       <r>   -1.1740    1.0000 </r>
       <r>   -1.1497    1.0000 </r>
       <r>   -1.1285    1.0000 </r>
       <r>   -1.1049    1.0000 </r>
       <r>   -1.0799    1.0000 </r>
       <r>   -0.9769    1.0000 </r>
       <r>   -0.9561    1.0000 </r>
       <r>   -0.9399    1.0000 </r>
       <r>   -0.9193    1.0000 </r>
       <r>   -0.6862    1.0000 </r>
       <r>   -0.6740    1.0000 </r>
       <r>   -0.6122    1.0000 </r>
       <r>   -0.1941    1.0000 </r>
       <r>   -0.1770    1.0000 </r>
       <r>   -0.0372    1.0000 </r>
       <r>    0.4013    1.0000 </r>
       <r>    2.3294    0.0000 </r>
       <r>    2.5845    0.0000 </r>
       <r>    2.8863    0.0000 </r>
       <r>    2.9141    0.0000 </r>
       <r>    3.1792    0.0000 </r>
       <r>    3.2002    0.0000 </r>
       <r>    3.2228    0.0000 </r>
       <r>    3.2364    0.0000 </r>
       <r>    3.9320    0.0000 </r>
       <r>    4.0185    0.0000 </r>
       <r>    4.2465    0.0000 </r>
       <r>    4.3331    0.0000 </r>
       <r>    4.3391    0.0000 </r>
       <r>    4.4522    0.0000 </r>
       <r>    4.6277    0.0000 </r>
       <r>    4.6981    0.0000 </r>
       <r>    4.8448    0.0000 </r>
       <r>    4.9050    0.0000 </r>
       <r>    5.4281    0.0000 </r>
       <r>    5.6087    0.0000 </r>
       <r>    5.6281    0.0000 </r>
       <r>    5.6426    0.0000 </r>
       <r>    5.8285    0.0000 </r>
       <r>    5.8736    0.0000 </r>
       <r>    5.9473    0.0000 </r>
       <r>    6.0208    0.0000 </r>
       <r>    6.0734    0.0000 </r>
       <r>    6.1756    0.0000 </r>
       <r>    6.1963    0.0000 </r>
       <r>    6.3763    0.0000 </r>
       <r>    6.3989    0.0000 </r>
       <r>    6.4490    0.0000 </r>
       <r>    6.5016    0.0000 </r>
       <r>    6.5871    0.0000 </r>
       <r>    6.6132    0.0000 </r>
       <r>    6.6529    0.0000 </r>
      </set>
      <set comment="kpoint 4">
       <r>  -21.0016    1.0000 </r>
       <r>  -20.8737    1.0000 </r>
       <r>  -20.8477    1.0000 </r>
       <r>  -20.7716    1.0000 </r>
       <r>  -20.7480    1.0000 </r>
       <r>  -20.6468    1.0000 </r>
       <r>  -20.3573    1.0000 </r>
       <r>  -20.1411    1.0000 </r>
       <r>  -16.8930    1.0000 </r>
       <r>  -16.8533    1.0000 </r>
       <r>  -16.8377    1.0000 </r>
       <r>  -16.8136    1.0000 </r>
       <r>  -16.8102    1.0000 </r>
       <r>  -16.8028    1.0000 </r>
       <r>  -16.7881    1.0000 </r>
       <r>  -16.7799    1.0000 </r>
       <r>  -16.7743    1.0000 </r>
       <r>  -16.7698    1.0000 </r>
       <r>  -16.7482    1.0000 </r>
       <r>  -16.7437    1.0000 </r>
       <r>  -16.7420    1.0000 </r>
       <r>  -16.7394    1.0000 </r>
       <r>  -16.7286    1.0000 </r>
       <r>  -16.7216    1.0000 </r>
       <r>  -16.7049    1.0000 </r>
       <r>  -16.6806    1.0000 </r>
       <r>  -16.6723    1.0000 </r>
       <r>  -16.6685    1.0000 </r>
       <r>  -16.4353    1.0000 </r>
       <r>  -16.4316    1.0000 </r>
       <r>  -16.4273    1.0000 </r>
       <r>  -16.4260    1.0000 </r>
       <r>  -16.4257    1.0000 </r>
       <r>  -16.4240    1.0000 </r>
       <r>  -16.4192    1.0000 </r>
       <r>  -16.4180    1.0000 </r>
       <r>  -16.3211    1.0000 </r>
       <r>  -16.3186    1.0000 </r>
       <r>  -16.3138    1.0000 </r>
       <r>  -16.3110    1.0000 </r>
       <r>  -16.3101    1.0000 </r>
       <r>  -16.3081    1.0000 </r>
       <r>  -16.3047    1.0000 </r>
       <r>  -16.3037    1.0000 </r>
       <r>  -16.2998    1.0000 </r>
       <r>  -16.2991    1.0000 </r>
       <r>  -16.2957    1.0000 </r>
       <r>  -16.2903    1.0000 </r>
       <r>  -14.7032    1.0000 </r>
       <r>  -14.6066    1.0000 </r>
       <r>  -14.2827    1.0000 </r>
       <r>  -14.2548    1.0000 </r>
       <r>  -14.2407    1.0000 </r>
       <r>  -14.2037    1.0000 </r>
       <r>  -14.1855    1.0000 </r>
       <r>  -14.1115    1.0000 </r>
       <r>  -14.1100    1.0000 </r>
       <r>  -14.0727    1.0000 </r>
       <r>  -14.0690    1.0000 </r>
       <r>  -14.0640    1.0000 </r>
       <r>  -14.0566    1.0000 </r>
       <r>  -13.9541    1.0000 </r>
       <r>  -13.9371    1.0000 </r>
       <r>  -13.9236    1.0000 </r>
       <r>  -13.8869    1.0000 </r>
       <r>  -13.8836    1.0000 </r>
       <r>  -13.8788    1.0000 </r>
       <r>  -13.8514    1.0000 </r>
       <r>  -13.8487    1.0000 </r>
       <r>  -13.7744    1.0000 </r>
       <r>  -12.8434    1.0000 </r>
       <r>   -8.0415    1.0000 </r>
       <r>   -7.9837    1.0000 </r>
       <r>   -7.7909    1.0000 </r>
       <r>   -7.7579    1.0000 </r>
       <r>   -7.4233    1.0000 </r>
       <r>   -7.4038    1.0000 </r>
       <r>   -7.3932    1.0000 </r>
       <r>   -7.3761    1.0000 </r>
       <r>   -7.3598    1.0000 </r>
       <r>   -7.3044    1.0000 </r>
       <r>   -7.2746    1.0000 </r>
       <r>   -7.2662    1.0000 </r>
       <r>   -7.2538    1.0000 </r>
       <r>   -7.2520    1.0000 </r>
       <r>   -7.2436    1.0000 </r>
       <r>   -7.2277    1.0000 </r>
       <r>   -7.2264    1.0000 </r>
       <r>   -7.1854    1.0000 </r>
       <r>   -7.1685    1.0000 </r>
       <r>   -7.1621    1.0000 </r>
       <r>   -7.1541    1.0000 </r>
       <r>   -7.1386    1.0000 </r>
       <r>   -7.1259    1.0000 </r>
       <r>   -7.0556    1.0000 </r>
       <r>   -7.0547    1.0000 </r>
       <r>   -7.0447    1.0000 </r>
       <r>   -6.8693    1.0000 </r>
       <r>   -6.8152    1.0000 </r>
       <r>   -6.7864    1.0000 </r>
       <r>   -6.6400    1.0000 </r>
       <r>   -6.6002    1.0000 </r>
       <r>   -6.5055    1.0000 </r>
       <r>   -3.3008    1.0000 </r>
       <r>   -3.2981    1.0000 </r>
       <r>   -3.2212    1.0000 </r>
       <r>   -3.2055    1.0000 </r>
       <r>   -3.1226    1.0000 </r>
       <r>   -2.9989    1.0000 </r>
       <r>   -2.6764    1.0000 </r>
       <r>   -2.6457    1.0000 </r>
       <r>   -2.6126    1.0000 </r>
       <r>   -2.5934    1.0000 </r>
       <r>   -2.5552    1.0000 </r>
       <r>   -2.5541    1.0000 </r>
       <r>   -2.3776    1.0000 </r>
       <r>   -2.3671    1.0000 </r>
       <r>   -2.3446    1.0000 </r>
       <r>   -2.3400    1.0000 </r>
       <r>   -2.3189    1.0000 </r>
       <r>   -2.3049    1.0000 </r>
       <r>   -2.2092    1.0000 </r>
       <r>   -2.1677    1.0000 </r>
       <r>   -2.1370    1.0000 </r>
       <r>   -1.9943    1.0000 </r>
       <r>   -1.9604    1.0000 </r>
       <r>   -1.9136    1.0000 </r>
       <r>   -1.8704    1.0000 </r>
       <r>   -1.8284    1.0000 </r>
       <r>   -1.7487    1.0000 </r>
       <r>   -1.7066    1.0000 </r>
       <r>   -1.6769    1.0000 </r>
       <r>   -1.6590    1.0000 </r>
       <r>   -1.6525    1.0000 </r>
       <r>   -1.6254    1.0000 </r>
       <r>   -1.6179    1.0000 </r>
       <r>   -1.6075    1.0000 </r>
       <r>   -1.5619    1.0000 </r>
       <r>   -1.5332    1.0000 </r>
       <r>   -1.5207    1.0000 </r>
       <r>   -1.5046    1.0000 </r>
       <r>   -1.4793    1.0000 </r>
       <r>   -1.4673    1.0000 </r>
       <r>   -1.4218    1.0000 </r>
       <r>   -1.4030    1.0000 </r>
       <r>   -1.3753    1.0000 </r>
       <r>   -1.3664    1.0000 </r>
       <r>   -1.3577    1.0000 </r>
       <r>   -1.3326    1.0000 </r>
       <r>   -1.3239    1.0000 </r>
       <r>   -1.2845    1.0000 </r>
       <r>   -1.2457    1.0000 </r>
       <r>   -1.2087    1.0000 </r>
       <r>   -1.1889    1.0000 </r>
       <r>   -1.1821    1.0000 </r>
       <r>   -1.1637    1.0000 </r>
       <r>   -1.1560    1.0000 </r>
       <r>   -1.1498    1.0000 </r>
       <r>   -1.1317    1.0000 </r>
       <r>   -1.1006    1.0000 </r>
       <r>   -1.0541    1.0000 </r>
       <r>   -1.0113    1.0000 </r>
       <r>   -0.9643    1.0000 </r>
       <r>   -0.9506    1.0000 </r>
       <r>   -0.9436    1.0000 </r>
       <r>   -0.6274    1.0000 </r>
       <r>   -0.5957    1.0000 </r>
       <r>   -0.5786    1.0000 </r>
       <r>   -0.5244    1.0000 </r>
       <r>   -0.4943    1.0000 </r>
       <r>   -0.0338    1.0000 </r>
       <r>    0.3608    1.0000 </r>
       <r>    2.6302    0.0000 </r>
       <r>    2.6996    0.0000 </r>
       <r>    2.9275    0.0000 </r>
       <r>    2.9591    0.0000 </r>
       <r>    3.0904    0.0000 </r>
       <r>    3.1115    0.0000 </r>
       <r>    3.5766    0.0000 </r>
       <r>    3.7649    0.0000 </r>
       <r>    4.1520    0.0000 </r>
       <r>    4.3050    0.0000 </r>
       <r>    4.3750    0.0000 </r>
       <r>    4.3980    0.0000 </r>
       <r>    4.5196    0.0000 </r>
       <r>    4.5964    0.0000 </r>
       <r>    4.6030    0.0000 </r>
       <r>    4.6530    0.0000 </r>
       <r>    4.7577    0.0000 </r>
       <r>    4.8171    0.0000 </r>
       <r>    4.8213    0.0000 </r>
       <r>    4.8744    0.0000 </r>
       <r>    5.6224    0.0000 </r>
       <r>    5.6545    0.0000 </r>
       <r>    5.8444    0.0000 </r>
       <r>    5.8743    0.0000 </r>
       <r>    5.8939    0.0000 </r>
       <r>    5.9120    0.0000 </r>
       <r>    6.0861    0.0000 </r>
       <r>    6.1071    0.0000 </r>
       <r>    6.1683    0.0000 </r>
       <r>    6.2027    0.0000 </r>
       <r>    6.3397    0.0000 </r>
       <r>    6.3621    0.0000 </r>
       <r>    6.3930    0.0000 </r>
       <r>    6.5034    0.0000 </r>
       <r>    6.5686    0.0000 </r>
       <r>    6.6500    0.0000 </r>
      </set>
      <set comment="kpoint 5">
       <r>  -21.0016    1.0000 </r>
       <r>  -20.8736    1.0000 </r>
       <r>  -20.8477    1.0000 </r>
       <r>  -20.7716    1.0000 </r>
       <r>  -20.7480    1.0000 </r>
       <r>  -20.6468    1.0000 </r>
       <r>  -20.3573    1.0000 </r>
       <r>  -20.1412    1.0000 </r>
       <r>  -16.8946    1.0000 </r>
       <r>  -16.8545    1.0000 </r>
       <r>  -16.8412    1.0000 </r>
       <r>  -16.8220    1.0000 </r>
       <r>  -16.8124    1.0000 </r>
       <r>  -16.8036    1.0000 </r>
       <r>  -16.7767    1.0000 </r>
       <r>  -16.7734    1.0000 </r>
       <r>  -16.7710    1.0000 </r>
       <r>  -16.7659    1.0000 </r>
       <r>  -16.7482    1.0000 </r>
       <r>  -16.7437    1.0000 </r>
       <r>  -16.7416    1.0000 </r>
       <r>  -16.7394    1.0000 </r>
       <r>  -16.7286    1.0000 </r>
       <r>  -16.7215    1.0000 </r>
       <r>  -16.7049    1.0000 </r>
       <r>  -16.6807    1.0000 </r>
       <r>  -16.6722    1.0000 </r>
       <r>  -16.6685    1.0000 </r>
       <r>  -16.4747    1.0000 </r>
       <r>  -16.4599    1.0000 </r>
       <r>  -16.4516    1.0000 </r>
       <r>  -16.4426    1.0000 </r>
       <r>  -16.4114    1.0000 </r>
       <r>  -16.4001    1.0000 </r>
       <r>  -16.3972    1.0000 </r>
       <r>  -16.3753    1.0000 </r>
       <r>  -16.3212    1.0000 </r>
       <r>  -16.3185    1.0000 </r>
       <r>  -16.3138    1.0000 </r>
       <r>  -16.3110    1.0000 </r>
       <r>  -16.3101    1.0000 </r>
       <r>  -16.3080    1.0000 </r>
       <r>  -16.3047    1.0000 </r>
       <r>  -16.3037    1.0000 </r>
       <r>  -16.2998    1.0000 </r>
       <r>  -16.2991    1.0000 </r>
       <r>  -16.2956    1.0000 </r>
       <r>  -16.2903    1.0000 </r>
       <r>  -14.7080    1.0000 </r>
       <r>  -14.5983    1.0000 </r>
       <r>  -14.3394    1.0000 </r>
       <r>  -14.2506    1.0000 </r>
       <r>  -14.1886    1.0000 </r>
       <r>  -14.1808    1.0000 </r>
       <r>  -14.1602    1.0000 </r>
       <r>  -14.0888    1.0000 </r>
       <r>  -14.0613    1.0000 </r>
       <r>  -14.0589    1.0000 </r>
       <r>  -14.0534    1.0000 </r>
       <r>  -14.0512    1.0000 </r>
       <r>  -14.0447    1.0000 </r>
       <r>  -14.0391    1.0000 </r>
       <r>  -14.0332    1.0000 </r>
       <r>  -14.0161    1.0000 </r>
       <r>  -13.9111    1.0000 </r>
       <r>  -13.8905    1.0000 </r>
       <r>  -13.8663    1.0000 </r>
       <r>  -13.8364    1.0000 </r>
       <r>  -13.7888    1.0000 </r>
       <r>  -13.7370    1.0000 </r>
       <r>  -12.8436    1.0000 </r>
       <r>   -8.1311    1.0000 </r>
       <r>   -8.0037    1.0000 </r>
       <r>   -7.8145    1.0000 </r>
       <r>   -7.6429    1.0000 </r>
       <r>   -7.5018    1.0000 </r>
       <r>   -7.4637    1.0000 </r>
       <r>   -7.4107    1.0000 </r>
       <r>   -7.3860    1.0000 </r>
       <r>   -7.3713    1.0000 </r>
       <r>   -7.3087    1.0000 </r>
       <r>   -7.2783    1.0000 </r>
       <r>   -7.2688    1.0000 </r>
       <r>   -7.2560    1.0000 </r>
       <r>   -7.2464    1.0000 </r>
       <r>   -7.2429    1.0000 </r>
       <r>   -7.2264    1.0000 </r>
       <r>   -7.1861    1.0000 </r>
       <r>   -7.1733    1.0000 </r>
       <r>   -7.1669    1.0000 </r>
       <r>   -7.1542    1.0000 </r>
       <r>   -7.1469    1.0000 </r>
       <r>   -7.1344    1.0000 </r>
       <r>   -7.0606    1.0000 </r>
       <r>   -7.0570    1.0000 </r>
       <r>   -7.0400    1.0000 </r>
       <r>   -6.8729    1.0000 </r>
       <r>   -6.8471    1.0000 </r>
       <r>   -6.8182    1.0000 </r>
       <r>   -6.7868    1.0000 </r>
       <r>   -6.6418    1.0000 </r>
       <r>   -6.5993    1.0000 </r>
       <r>   -6.4983    1.0000 </r>
       <r>   -3.3398    1.0000 </r>
       <r>   -3.3152    1.0000 </r>
       <r>   -3.2711    1.0000 </r>
       <r>   -3.2442    1.0000 </r>
       <r>   -3.2360    1.0000 </r>
       <r>   -3.1402    1.0000 </r>
       <r>   -3.0689    1.0000 </r>
       <r>   -2.9789    1.0000 </r>
       <r>   -2.6726    1.0000 </r>
       <r>   -2.5856    1.0000 </r>
       <r>   -2.5811    1.0000 </r>
       <r>   -2.5403    1.0000 </r>
       <r>   -2.4706    1.0000 </r>
       <r>   -2.4393    1.0000 </r>
       <r>   -2.3572    1.0000 </r>
       <r>   -2.3117    1.0000 </r>
       <r>   -2.2642    1.0000 </r>
       <r>   -2.1893    1.0000 </r>
       <r>   -2.0678    1.0000 </r>
       <r>   -2.0413    1.0000 </r>
       <r>   -2.0000    1.0000 </r>
       <r>   -1.9928    1.0000 </r>
       <r>   -1.9453    1.0000 </r>
       <r>   -1.8572    1.0000 </r>
       <r>   -1.8380    1.0000 </r>
       <r>   -1.8179    1.0000 </r>
       <r>   -1.7753    1.0000 </r>
       <r>   -1.7598    1.0000 </r>
       <r>   -1.7143    1.0000 </r>
       <r>   -1.6531    1.0000 </r>
       <r>   -1.6031    1.0000 </r>
       <r>   -1.5968    1.0000 </r>
       <r>   -1.5246    1.0000 </r>
       <r>   -1.5204    1.0000 </r>
       <r>   -1.4688    1.0000 </r>
       <r>   -1.4539    1.0000 </r>
       <r>   -1.4355    1.0000 </r>
       <r>   -1.4277    1.0000 </r>
       <r>   -1.4193    1.0000 </r>
       <r>   -1.4137    1.0000 </r>
       <r>   -1.4057    1.0000 </r>
       <r>   -1.3808    1.0000 </r>
       <r>   -1.3731    1.0000 </r>
       <r>   -1.3612    1.0000 </r>
       <r>   -1.3577    1.0000 </r>
       <r>   -1.3506    1.0000 </r>
       <r>   -1.3273    1.0000 </r>
       <r>   -1.3150    1.0000 </r>
       <r>   -1.3098    1.0000 </r>
       <r>   -1.3027    1.0000 </r>
       <r>   -1.2319    1.0000 </r>
       <r>   -1.2207    1.0000 </r>
       <r>   -1.2057    1.0000 </r>
       <r>   -1.1961    1.0000 </r>
       <r>   -1.1613    1.0000 </r>
       <r>   -1.1344    1.0000 </r>
       <r>   -1.1136    1.0000 </r>
       <r>   -1.0804    1.0000 </r>
       <r>   -1.0303    1.0000 </r>
       <r>   -0.9645    1.0000 </r>
       <r>   -0.8896    1.0000 </r>
       <r>   -0.6798    1.0000 </r>
       <r>   -0.6411    1.0000 </r>
       <r>   -0.5747    1.0000 </r>
       <r>   -0.5243    1.0000 </r>
       <r>   -0.4770    1.0000 </r>
       <r>   -0.0344    1.0000 </r>
       <r>    0.0594    1.0000 </r>
       <r>    0.4018    1.0000 </r>
       <r>    2.4504    0.0000 </r>
       <r>    2.5418    0.0000 </r>
       <r>    2.8036    0.0000 </r>
       <r>    2.9497    0.0000 </r>
       <r>    2.9567    0.0000 </r>
       <r>    3.0584    0.0000 </r>
       <r>    3.3287    0.0000 </r>
       <r>    3.3848    0.0000 </r>
       <r>    3.8308    0.0000 </r>
       <r>    4.1234    0.0000 </r>
       <r>    4.1933    0.0000 </r>
       <r>    4.2857    0.0000 </r>
       <r>    4.3358    0.0000 </r>
       <r>    4.4820    0.0000 </r>
       <r>    4.5318    0.0000 </r>
       <r>    4.5518    0.0000 </r>
       <r>    4.6520    0.0000 </r>
       <r>    4.8251    0.0000 </r>
       <r>    5.3883    0.0000 </r>
       <r>    5.5586    0.0000 </r>
       <r>    5.6023    0.0000 </r>
       <r>    5.6714    0.0000 </r>
       <r>    5.7777    0.0000 </r>
       <r>    5.9585    0.0000 </r>
       <r>    6.0537    0.0000 </r>
       <r>    6.0940    0.0000 </r>
       <r>    6.1347    0.0000 </r>
       <r>    6.2080    0.0000 </r>
       <r>    6.2309    0.0000 </r>
       <r>    6.3624    0.0000 </r>
       <r>    6.3775    0.0000 </r>
       <r>    6.4356    0.0000 </r>
       <r>    6.4678    0.0000 </r>
       <r>    6.5276    0.0000 </r>
       <r>    6.6039    0.0000 </r>
       <r>    6.6614    0.0000 </r>
      </set>
      <set comment="kpoint 6">
       <r>  -21.0016    1.0000 </r>
       <r>  -20.8736    1.0000 </r>
       <r>  -20.8477    1.0000 </r>
       <r>  -20.7716    1.0000 </r>
       <r>  -20.7480    1.0000 </r>
       <r>  -20.6468    1.0000 </r>
       <r>  -20.3573    1.0000 </r>
       <r>  -20.1412    1.0000 </r>
       <r>  -16.8943    1.0000 </r>
       <r>  -16.8542    1.0000 </r>
       <r>  -16.8413    1.0000 </r>
       <r>  -16.8221    1.0000 </r>
       <r>  -16.8123    1.0000 </r>
       <r>  -16.8039    1.0000 </r>
       <r>  -16.7766    1.0000 </r>
       <r>  -16.7734    1.0000 </r>
       <r>  -16.7710    1.0000 </r>
       <r>  -16.7660    1.0000 </r>
       <r>  -16.7482    1.0000 </r>
       <r>  -16.7437    1.0000 </r>
       <r>  -16.7416    1.0000 </r>
       <r>  -16.7394    1.0000 </r>
       <r>  -16.7286    1.0000 </r>
       <r>  -16.7215    1.0000 </r>
       <r>  -16.7049    1.0000 </r>
       <r>  -16.6807    1.0000 </r>
       <r>  -16.6722    1.0000 </r>
       <r>  -16.6685    1.0000 </r>
       <r>  -16.4654    1.0000 </r>
       <r>  -16.4618    1.0000 </r>
       <r>  -16.4288    1.0000 </r>
       <r>  -16.4278    1.0000 </r>
       <r>  -16.4216    1.0000 </r>
       <r>  -16.4200    1.0000 </r>
       <r>  -16.3958    1.0000 </r>
       <r>  -16.3930    1.0000 </r>
       <r>  -16.3212    1.0000 </r>
       <r>  -16.3186    1.0000 </r>
       <r>  -16.3138    1.0000 </r>
       <r>  -16.3110    1.0000 </r>
       <r>  -16.3101    1.0000 </r>
       <r>  -16.3080    1.0000 </r>
       <r>  -16.3047    1.0000 </r>
       <r>  -16.3036    1.0000 </r>
       <r>  -16.2998    1.0000 </r>
       <r>  -16.2991    1.0000 </r>
       <r>  -16.2957    1.0000 </r>
       <r>  -16.2903    1.0000 </r>
       <r>  -14.7077    1.0000 </r>
       <r>  -14.5979    1.0000 </r>
       <r>  -14.2980    1.0000 </r>
       <r>  -14.2794    1.0000 </r>
       <r>  -14.2514    1.0000 </r>
       <r>  -14.1626    1.0000 </r>
       <r>  -14.1618    1.0000 </r>
       <r>  -14.1319    1.0000 </r>
       <r>  -14.0879    1.0000 </r>
       <r>  -14.0543    1.0000 </r>
       <r>  -14.0532    1.0000 </r>
       <r>  -14.0521    1.0000 </r>
       <r>  -14.0399    1.0000 </r>
       <r>  -14.0193    1.0000 </r>
       <r>  -13.9459    1.0000 </r>
       <r>  -13.9358    1.0000 </r>
       <r>  -13.9247    1.0000 </r>
       <r>  -13.9136    1.0000 </r>
       <r>  -13.8906    1.0000 </r>
       <r>  -13.8074    1.0000 </r>
       <r>  -13.7992    1.0000 </r>
       <r>  -13.7854    1.0000 </r>
       <r>  -12.8437    1.0000 </r>
       <r>   -8.1391    1.0000 </r>
       <r>   -7.8041    1.0000 </r>
       <r>   -7.7729    1.0000 </r>
       <r>   -7.7719    1.0000 </r>
       <r>   -7.6396    1.0000 </r>
       <r>   -7.4184    1.0000 </r>
       <r>   -7.4169    1.0000 </r>
       <r>   -7.3738    1.0000 </r>
       <r>   -7.3135    1.0000 </r>
       <r>   -7.3091    1.0000 </r>
       <r>   -7.2697    1.0000 </r>
       <r>   -7.2666    1.0000 </r>
       <r>   -7.2575    1.0000 </r>
       <r>   -7.2439    1.0000 </r>
       <r>   -7.2308    1.0000 </r>
       <r>   -7.1917    1.0000 </r>
       <r>   -7.1808    1.0000 </r>
       <r>   -7.1732    1.0000 </r>
       <r>   -7.1666    1.0000 </r>
       <r>   -7.1571    1.0000 </r>
       <r>   -7.1488    1.0000 </r>
       <r>   -7.1340    1.0000 </r>
       <r>   -7.1119    1.0000 </r>
       <r>   -7.0575    1.0000 </r>
       <r>   -7.0512    1.0000 </r>
       <r>   -7.0355    1.0000 </r>
       <r>   -6.8708    1.0000 </r>
       <r>   -6.8182    1.0000 </r>
       <r>   -6.7858    1.0000 </r>
       <r>   -6.6420    1.0000 </r>
       <r>   -6.6003    1.0000 </r>
       <r>   -6.4976    1.0000 </r>
       <r>   -3.3094    1.0000 </r>
       <r>   -3.2831    1.0000 </r>
       <r>   -3.2788    1.0000 </r>
       <r>   -3.2491    1.0000 </r>
[...]
        <r>  0.0004  0.0090  0.0015 </r>
        <r>  0.0001  0.0010  0.0003 </r>
        <r>  0.0014  0.0019  0.0016 </r>
        <r>  0.0012  0.0016  0.0008 </r>
        <r>  0.0003  0.0058  0.0010 </r>
        <r>  0.0002  0.0041  0.0010 </r>
        <r>  0.0000  0.0014  0.0006 </r>
        <r>  0.0000  0.0007  0.0005 </r>
        <r>  0.0000  0.0014  0.0013 </r>
       </set>
       <set comment="band 199">
        <r>  0.0003  0.0001  0.0090 </r>
        <r>  0.0002  0.0002  0.0036 </r>
        <r>  0.0006  0.0016  0.0106 </r>
        <r>  0.0071  0.0012  0.0044 </r>
        <r>  0.0000  0.0009  0.0029 </r>
        <r>  0.0005  0.0009  0.0029 </r>
        <r>  0.0091  0.0005  0.0071 </r>
        <r>  0.0000  0.0013  0.0152 </r>
        <r>  0.0000  0.0004  0.0001 </r>
        <r>  0.0002  0.0055  0.0006 </r>
        <r>  0.0000  0.0049  0.0004 </r>
        <r>  0.0000  0.0065  0.0006 </r>
        <r>  0.0000  0.0056  0.0002 </r>
        <r>  0.0001  0.0042  0.0004 </r>
        <r>  0.0000  0.0008  0.0002 </r>
        <r>  0.0002  0.0063  0.0008 </r>
        <r>  0.0032  0.0001  0.0032 </r>
        <r>  0.0000  0.0018  0.0039 </r>
        <r>  0.0000  0.0002  0.0002 </r>
        <r>  0.0000  0.0058  0.0007 </r>
        <r>  0.0000  0.0036  0.0003 </r>
        <r>  0.0018  0.0045  0.0029 </r>
        <r>  0.0000  0.0046  0.0008 </r>
        <r>  0.0000  0.0001  0.0003 </r>
        <r>  0.0002  0.0014  0.0003 </r>
        <r>  0.0006  0.0045  0.0010 </r>
        <r>  0.0001  0.0024  0.0014 </r>
        <r>  0.0008  0.0003  0.0007 </r>
        <r>  0.0001  0.0001  0.0004 </r>
        <r>  0.0005  0.0019  0.0003 </r>
        <r>  0.0018  0.0045  0.0019 </r>
        <r>  0.0005  0.0004  0.0007 </r>
        <r>  0.0001  0.0037  0.0009 </r>
        <r>  0.0002  0.0034  0.0007 </r>
        <r>  0.0005  0.0014  0.0008 </r>
        <r>  0.0026  0.0013  0.0020 </r>
        <r>  0.0003  0.0006  0.0009 </r>
        <r>  0.0012  0.0002  0.0014 </r>
        <r>  0.0001  0.0005  0.0007 </r>
       </set>
       <set comment="band 200">
        <r>  0.0037  0.0011  0.0144 </r>
        <r>  0.0004  0.0002  0.0069 </r>
        <r>  0.0003  0.0016  0.0111 </r>
        <r>  0.0002  0.0001  0.0050 </r>
        <r>  0.0001  0.0003  0.0045 </r>
        <r>  0.0048  0.0005  0.0195 </r>
        <r>  0.0014  0.0002  0.0016 </r>
        <r>  0.0000  0.0004  0.0088 </r>
        <r>  0.0000  0.0011  0.0004 </r>
        <r>  0.0000  0.0055  0.0006 </r>
        <r>  0.0000  0.0049  0.0001 </r>
        <r>  0.0002  0.0103  0.0000 </r>
        <r>  0.0000  0.0022  0.0002 </r>
        <r>  0.0001  0.0107  0.0003 </r>
        <r>  0.0000  0.0026  0.0002 </r>
        <r>  0.0001  0.0114  0.0003 </r>
        <r>  0.0003  0.0000  0.0004 </r>
        <r>  0.0001  0.0045  0.0006 </r>
        <r>  0.0003  0.0009  0.0006 </r>
        <r>  0.0000  0.0028  0.0025 </r>
        <r>  0.0000  0.0003  0.0002 </r>
        <r>  0.0002  0.0013  0.0004 </r>
        <r>  0.0001  0.0038  0.0024 </r>
        <r>  0.0007  0.0024  0.0016 </r>
        <r>  0.0003  0.0007  0.0009 </r>
        <r>  0.0004  0.0012  0.0009 </r>
        <r>  0.0003  0.0023  0.0002 </r>
        <r>  0.0000  0.0006  0.0008 </r>
        <r>  0.0025  0.0009  0.0029 </r>
        <r>  0.0001  0.0025  0.0013 </r>
        <r>  0.0015  0.0022  0.0009 </r>
        <r>  0.0001  0.0010  0.0004 </r>
        <r>  0.0003  0.0027  0.0013 </r>
        <r>  0.0000  0.0014  0.0007 </r>
        <r>  0.0000  0.0062  0.0010 </r>
        <r>  0.0006  0.0076  0.0006 </r>
        <r>  0.0002  0.0001  0.0005 </r>
        <r>  0.0014  0.0011  0.0018 </r>
        <r>  0.0006  0.0006  0.0026 </r>
       </set>
       <set comment="band 201">
        <r>  0.0000  0.0003  0.0003 </r>
        <r>  0.0001  0.0002  0.0026 </r>
        <r>  0.0042  0.0016  0.0118 </r>
        <r>  0.0053  0.0008  0.0118 </r>
        <r>  0.0008  0.0002  0.0060 </r>
        <r>  0.0000  0.0008  0.0035 </r>
        <r>  0.0006  0.0023  0.0164 </r>
        <r>  0.0121  0.0002  0.0035 </r>
        <r>  0.0000  0.0082  0.0003 </r>
        <r>  0.0001  0.0030  0.0001 </r>
        <r>  0.0000  0.0064  0.0002 </r>
        <r>  0.0000  0.0017  0.0002 </r>
        <r>  0.0000  0.0072  0.0001 </r>
        <r>  0.0000  0.0024  0.0001 </r>
        <r>  0.0000  0.0064  0.0003 </r>
        <r>  0.0000  0.0042  0.0001 </r>
        <r>  0.0008  0.0063  0.0027 </r>
        <r>  0.0005  0.0032  0.0006 </r>
        <r>  0.0000  0.0089  0.0004 </r>
        <r>  0.0000  0.0003  0.0002 </r>
        <r>  0.0040  0.0011  0.0050 </r>
        <r>  0.0002  0.0001  0.0043 </r>
        <r>  0.0000  0.0018  0.0000 </r>
        <r>  0.0000  0.0018  0.0002 </r>
        <r>  0.0007  0.0006  0.0009 </r>
        <r>  0.0002  0.0032  0.0008 </r>
        <r>  0.0003  0.0007  0.0003 </r>
        <r>  0.0000  0.0023  0.0007 </r>
        <r>  0.0009  0.0007  0.0004 </r>
        <r>  0.0018  0.0035  0.0021 </r>
        <r>  0.0005  0.0015  0.0024 </r>
        <r>  0.0001  0.0009  0.0006 </r>
        <r>  0.0004  0.0017  0.0009 </r>
        <r>  0.0001  0.0011  0.0008 </r>
        <r>  0.0011  0.0050  0.0019 </r>
        <r>  0.0000  0.0028  0.0012 </r>
        <r>  0.0006  0.0022  0.0009 </r>
        <r>  0.0006  0.0009  0.0003 </r>
        <r>  0.0000  0.0002  0.0001 </r>
       </set>
       <set comment="band 202">
        <r>  0.0002  0.0004  0.0032 </r>
        <r>  0.0017  0.0012  0.0020 </r>
        <r>  0.0002  0.0001  0.0012 </r>
        <r>  0.0001  0.0009  0.0034 </r>
        <r>  0.0213  0.0002  0.0172 </r>
        <r>  0.0001  0.0001  0.0038 </r>
        <r>  0.0002  0.0006  0.0101 </r>
        <r>  0.0005  0.0003  0.0191 </r>
        <r>  0.0000  0.0031  0.0001 </r>
        <r>  0.0001  0.0049  0.0001 </r>
        <r>  0.0000  0.0066  0.0001 </r>
        <r>  0.0003  0.0030  0.0001 </r>
        <r>  0.0000  0.0053  0.0001 </r>
        <r>  0.0003  0.0037  0.0002 </r>
        <r>  0.0000  0.0054  0.0001 </r>
        <r>  0.0002  0.0031  0.0002 </r>
        <r>  0.0000  0.0019  0.0001 </r>
        <r>  0.0000  0.0018  0.0001 </r>
        <r>  0.0003  0.0038  0.0015 </r>
        <r>  0.0004  0.0009  0.0011 </r>
        <r>  0.0002  0.0010  0.0003 </r>
        <r>  0.0000  0.0018  0.0002 </r>
        <r>  0.0009  0.0009  0.0002 </r>
        <r>  0.0007  0.0046  0.0021 </r>
        <r>  0.0014  0.0031  0.0024 </r>
        <r>  0.0000  0.0050  0.0001 </r>
        <r>  0.0004  0.0018  0.0014 </r>
        <r>  0.0024  0.0013  0.0025 </r>
        <r>  0.0000  0.0011  0.0001 </r>
        <r>  0.0000  0.0042  0.0002 </r>
        <r>  0.0016  0.0017  0.0025 </r>
        <r>  0.0020  0.0029  0.0028 </r>
        <r>  0.0000  0.0054  0.0002 </r>
        <r>  0.0006  0.0010  0.0012 </r>
        <r>  0.0006  0.0019  0.0004 </r>
        <r>  0.0027  0.0010  0.0038 </r>
        <r>  0.0023  0.0010  0.0026 </r>
        <r>  0.0001  0.0004  0.0002 </r>
        <r>  0.0001  0.0013  0.0005 </r>
       </set>
       <set comment="band 203">
        <r>  0.0000  0.0000  0.0068 </r>
        <r>  0.0000  0.0007  0.0021 </r>
        <r>  0.0002  0.0000  0.0285 </r>
        <r>  0.0020  0.0004  0.0175 </r>
        <r>  0.0000  0.0000  0.0051 </r>
        <r>  0.0001  0.0005  0.0090 </r>
        <r>  0.0060  0.0010  0.0058 </r>
        <r>  0.0004  0.0019  0.0222 </r>
        <r>  0.0001  0.0076  0.0006 </r>
        <r>  0.0000  0.0065  0.0002 </r>
        <r>  0.0000  0.0033  0.0003 </r>
        <r>  0.0000  0.0066  0.0001 </r>
        <r>  0.0000  0.0023  0.0004 </r>
        <r>  0.0000  0.0057  0.0002 </r>
        <r>  0.0001  0.0079  0.0005 </r>
        <r>  0.0000  0.0058  0.0003 </r>
        <r>  0.0010  0.0034  0.0015 </r>
        <r>  0.0007  0.0006  0.0010 </r>
        <r>  0.0000  0.0004  0.0005 </r>
        <r>  0.0000  0.0015  0.0004 </r>
        <r>  0.0001  0.0016  0.0024 </r>
        <r>  0.0036  0.0001  0.0032 </r>
        <r>  0.0000  0.0001  0.0002 </r>
        <r>  0.0000  0.0019  0.0002 </r>
        <r>  0.0008  0.0004  0.0009 </r>
        <r>  0.0000  0.0022  0.0021 </r>
        <r>  0.0005  0.0016  0.0018 </r>
        <r>  0.0004  0.0005  0.0014 </r>
        <r>  0.0006  0.0054  0.0004 </r>
        <r>  0.0003  0.0005  0.0019 </r>
        <r>  0.0000  0.0016  0.0013 </r>
        <r>  0.0008  0.0007  0.0010 </r>
        <r>  0.0000  0.0027  0.0023 </r>
        <r>  0.0003  0.0019  0.0015 </r>
        <r>  0.0001  0.0005  0.0016 </r>
        <r>  0.0001  0.0022  0.0013 </r>
        <r>  0.0003  0.0008  0.0011 </r>
        <r>  0.0007  0.0053  0.0005 </r>
        <r>  0.0000  0.0000  0.0009 </r>
       </set>
       <set comment="band 204">
        <r>  0.0092  0.0001  0.0120 </r>
        <r>  0.0055  0.0013  0.0097 </r>
        <r>  0.0001  0.0002  0.0211 </r>
        <r>  0.0000  0.0007  0.0101 </r>
        <r>  0.0009  0.0014  0.0024 </r>
        <r>  0.0000  0.0014  0.0049 </r>
        <r>  0.0001  0.0005  0.0032 </r>
        <r>  0.0000  0.0008  0.0090 </r>
        <r>  0.0000  0.0048  0.0002 </r>
        <r>  0.0004  0.0065  0.0004 </r>
        <r>  0.0000  0.0051  0.0001 </r>
        <r>  0.0000  0.0050  0.0004 </r>
        <r>  0.0000  0.0057  0.0001 </r>
        <r>  0.0000  0.0054  0.0003 </r>
        <r>  0.0000  0.0026  0.0002 </r>
        <r>  0.0002  0.0049  0.0002 </r>
        <r>  0.0000  0.0003  0.0001 </r>
        <r>  0.0000  0.0002  0.0004 </r>
        <r>  0.0009  0.0012  0.0018 </r>
        <r>  0.0003  0.0055  0.0004 </r>
        <r>  0.0001  0.0030  0.0001 </r>
        <r>  0.0000  0.0033  0.0002 </r>
        <r>  0.0000  0.0047  0.0007 </r>
        <r>  0.0000  0.0010  0.0001 </r>
        <r>  0.0018  0.0018  0.0022 </r>
        <r>  0.0015  0.0011  0.0023 </r>
        <r>  0.0007  0.0026  0.0009 </r>
        <r>  0.0005  0.0022  0.0011 </r>
        <r>  0.0006  0.0016  0.0021 </r>
        <r>  0.0007  0.0040  0.0010 </r>
        <r>  0.0004  0.0018  0.0011 </r>
        <r>  0.0018  0.0015  0.0023 </r>
        <r>  0.0020  0.0010  0.0024 </r>
        <r>  0.0007  0.0026  0.0011 </r>
        <r>  0.0015  0.0040  0.0014 </r>
        <r>  0.0002  0.0026  0.0008 </r>
        <r>  0.0006  0.0021  0.0012 </r>
        <r>  0.0008  0.0020  0.0020 </r>
        <r>  0.0006  0.0013  0.0007 </r>
       </set>
       <set comment="band 205">
        <r>  0.0017  0.0004  0.0056 </r>
        <r>  0.0009  0.0003  0.0032 </r>
        <r>  0.0004  0.0002  0.0343 </r>
        <r>  0.0009  0.0002  0.0267 </r>
        <r>  0.0000  0.0009  0.0059 </r>
        <r>  0.0027  0.0001  0.0030 </r>
        <r>  0.0003  0.0007  0.0061 </r>
        <r>  0.0002  0.0015  0.0256 </r>
        <r>  0.0000  0.0002  0.0004 </r>
        <r>  0.0001  0.0059  0.0003 </r>
        <r>  0.0001  0.0089  0.0003 </r>
        <r>  0.0000  0.0022  0.0002 </r>
        <r>  0.0000  0.0005  0.0007 </r>
        <r>  0.0000  0.0006  0.0006 </r>
        <r>  0.0000  0.0014  0.0001 </r>
        <r>  0.0000  0.0022  0.0001 </r>
        <r>  0.0003  0.0034  0.0024 </r>
        <r>  0.0008  0.0017  0.0014 </r>
        <r>  0.0000  0.0013  0.0002 </r>
        <r>  0.0006  0.0009  0.0009 </r>
        <r>  0.0002  0.0023  0.0028 </r>
        <r>  0.0007  0.0029  0.0026 </r>
        <r>  0.0017  0.0006  0.0026 </r>
        <r>  0.0000  0.0006  0.0008 </r>
        <r>  0.0001  0.0007  0.0010 </r>
        <r>  0.0002  0.0021  0.0018 </r>
        <r>  0.0002  0.0000  0.0007 </r>
        <r>  0.0005  0.0022  0.0008 </r>
        <r>  0.0003  0.0009  0.0008 </r>
        <r>  0.0005  0.0013  0.0004 </r>
        <r>  0.0006  0.0014  0.0011 </r>
        <r>  0.0001  0.0020  0.0010 </r>
        <r>  0.0015  0.0028  0.0034 </r>
        <r>  0.0002  0.0009  0.0010 </r>
        <r>  0.0001  0.0019  0.0010 </r>
        <r>  0.0001  0.0014  0.0016 </r>
        <r>  0.0001  0.0008  0.0008 </r>
        <r>  0.0000  0.0008  0.0012 </r>
        <r>  0.0005  0.0011  0.0002 </r>
       </set>
       <set comment="band 206">
        <r>  0.0015  0.0002  0.0142 </r>
        <r>  0.0004  0.0004  0.0045 </r>
        <r>  0.0002  0.0007  0.0150 </r>
        <r>  0.0006  0.0001  0.0148 </r>
        <r>  0.0002  0.0016  0.0163 </r>
        <r>  0.0059  0.0002  0.0090 </r>
        <r>  0.0003  0.0004  0.0074 </r>
        <r>  0.0001  0.0004  0.0208 </r>
        <r>  0.0000  0.0015  0.0003 </r>
        <r>  0.0000  0.0029  0.0001 </r>
        <r>  0.0000  0.0025  0.0002 </r>
        <r>  0.0000  0.0061  0.0009 </r>
        <r>  0.0001  0.0094  0.0004 </r>
        <r>  0.0000  0.0095  0.0006 </r>
        <r>  0.0001  0.0016  0.0005 </r>
        <r>  0.0000  0.0039  0.0002 </r>
        <r>  0.0003  0.0032  0.0014 </r>
        <r>  0.0003  0.0006  0.0007 </r>
        <r>  0.0002  0.0021  0.0003 </r>
        <r>  0.0003  0.0023  0.0008 </r>
        <r>  0.0000  0.0012  0.0011 </r>
        <r>  0.0002  0.0010  0.0011 </r>
        <r>  0.0026  0.0004  0.0036 </r>
        <r>  0.0001  0.0004  0.0018 </r>
        <r>  0.0000  0.0026  0.0017 </r>
        <r>  0.0004  0.0011  0.0016 </r>
        <r>  0.0001  0.0014  0.0006 </r>
        <r>  0.0000  0.0013  0.0006 </r>
        <r>  0.0001  0.0010  0.0016 </r>
        <r>  0.0011  0.0006  0.0013 </r>
        <r>  0.0007  0.0047  0.0018 </r>
        <r>  0.0002  0.0008  0.0023 </r>
        <r>  0.0002  0.0007  0.0012 </r>
        <r>  0.0001  0.0006  0.0007 </r>
        <r>  0.0012  0.0018  0.0011 </r>
        <r>  0.0011  0.0020  0.0015 </r>
        <r>  0.0001  0.0026  0.0008 </r>
        <r>  0.0004  0.0015  0.0018 </r>
        <r>  0.0004  0.0010  0.0007 </r>
       </set>
       <set comment="band 207">
        <r>  0.0002  0.0002  0.0077 </r>
        <r>  0.0000  0.0000  0.0076 </r>
        <r>  0.0048  0.0011  0.0212 </r>
        <r>  0.0006  0.0001  0.0283 </r>
        <r>  0.0000  0.0005  0.0159 </r>
        <r>  0.0003  0.0001  0.0070 </r>
        <r>  0.0012  0.0012  0.0102 </r>
        <r>  0.0015  0.0007  0.0095 </r>
        <r>  0.0000  0.0017  0.0001 </r>
        <r>  0.0000  0.0068  0.0006 </r>
        <r>  0.0001  0.0045  0.0009 </r>
        <r>  0.0001  0.0027  0.0011 </r>
        <r>  0.0001  0.0078  0.0003 </r>
        <r>  0.0001  0.0042  0.0006 </r>
        <r>  0.0000  0.0022  0.0001 </r>
        <r>  0.0000  0.0042  0.0007 </r>
        <r>  0.0016  0.0005  0.0036 </r>
        <r>  0.0007  0.0008  0.0029 </r>
        <r>  0.0000  0.0002  0.0001 </r>
        <r>  0.0001  0.0008  0.0002 </r>
        <r>  0.0000  0.0002  0.0015 </r>
        <r>  0.0005  0.0020  0.0009 </r>
        <r>  0.0002  0.0023  0.0006 </r>
        <r>  0.0001  0.0005  0.0011 </r>
        <r>  0.0003  0.0050  0.0008 </r>
        <r>  0.0002  0.0016  0.0012 </r>
        <r>  0.0001  0.0021  0.0021 </r>
        <r>  0.0006  0.0022  0.0017 </r>
        <r>  0.0003  0.0003  0.0008 </r>
        <r>  0.0005  0.0021  0.0021 </r>
        <r>  0.0006  0.0004  0.0019 </r>
        <r>  0.0004  0.0047  0.0012 </r>
        <r>  0.0004  0.0012  0.0017 </r>
        <r>  0.0000  0.0018  0.0025 </r>
        <r>  0.0009  0.0020  0.0025 </r>
        <r>  0.0007  0.0007  0.0020 </r>
        <r>  0.0002  0.0020  0.0008 </r>
        <r>  0.0004  0.0003  0.0007 </r>
        <r>  0.0001  0.0001  0.0010 </r>
       </set>
       <set comment="band 208">
        <r>  0.0021  0.0003  0.0034 </r>
        <r>  0.0023  0.0004  0.0061 </r>
        <r>  0.0003  0.0027  0.0167 </r>
        <r>  0.0001  0.0010  0.0293 </r>
        <r>  0.0012  0.0001  0.0119 </r>
        <r>  0.0001  0.0003  0.0118 </r>
        <r>  0.0016  0.0008  0.0162 </r>
        <r>  0.0003  0.0002  0.0056 </r>
        <r>  0.0000  0.0039  0.0002 </r>
        <r>  0.0001  0.0037  0.0006 </r>
        <r>  0.0000  0.0027  0.0006 </r>
        <r>  0.0000  0.0072  0.0004 </r>
        <r>  0.0000  0.0017  0.0006 </r>
        <r>  0.0000  0.0058  0.0006 </r>
        <r>  0.0000  0.0069  0.0001 </r>
        <r>  0.0002  0.0049  0.0006 </r>
        <r>  0.0007  0.0015  0.0017 </r>
        <r>  0.0004  0.0013  0.0016 </r>
        <r>  0.0001  0.0006  0.0002 </r>
        <r>  0.0001  0.0031  0.0010 </r>
        <r>  0.0007  0.0009  0.0007 </r>
        <r>  0.0000  0.0037  0.0012 </r>
        <r>  0.0000  0.0024  0.0014 </r>
        <r>  0.0020  0.0004  0.0016 </r>
        <r>  0.0006  0.0014  0.0014 </r>
        <r>  0.0002  0.0012  0.0004 </r>
        <r>  0.0004  0.0006  0.0014 </r>
        <r>  0.0000  0.0011  0.0019 </r>
        <r>  0.0002  0.0032  0.0008 </r>
        <r>  0.0010  0.0017  0.0024 </r>
        <r>  0.0002  0.0006  0.0022 </r>
        <r>  0.0002  0.0014  0.0011 </r>
        <r>  0.0000  0.0006  0.0003 </r>
        <r>  0.0007  0.0007  0.0019 </r>
        <r>  0.0011  0.0015  0.0022 </r>
        <r>  0.0003  0.0011  0.0020 </r>
        <r>  0.0000  0.0012  0.0018 </r>
        <r>  0.0003  0.0031  0.0009 </r>
        <r>  0.0001  0.0009  0.0005 </r>
       </set>
      </set>
     </set>
    </set>
   </array>
  </projected>
 </calculation>
 <structure name="finalpos" >
  <crystal>
   <varray name="basis" >
    <v>       8.45648900       0.00000000       8.04030100 </v>
    <v>       0.00000000      11.72984700       0.00000000 </v>
    <v>      -8.45648900       0.00000000       8.04030100 </v>
   </varray>
   <i name="volume">   1595.08833419 </i>
   <varray name="rec_basis" >
    <v>       0.05912619      -0.00000000       0.06218673 </v>
    <v>       0.00000000       0.08525260      -0.00000000 </v>
    <v>      -0.05912619       0.00000000       0.06218673 </v>
   </varray>
  </crystal>
  <varray name="positions" >
   <v>       0.27267800       0.24982100       0.19655200 </v>
   <v>       0.77103100       0.25149000       0.74054400 </v>
   <v>       0.70618100       0.74975900       0.25400000 </v>
   <v>       0.20904600       0.74889000       0.78368300 </v>
   <v>       0.28435000       0.25190500       0.73432900 </v>
   <v>       0.79676200       0.25005700       0.22044100 </v>
   <v>       0.72717200       0.74988600       0.79309100 </v>
   <v>       0.23249200       0.74772900       0.28340700 </v>
   <v>       0.00205900       0.99852600       0.99974900 </v>
   <v>       0.49173600       0.00825900       0.49919500 </v>
   <v>       0.50066300       0.00110200       0.99800900 </v>
   <v>       0.01143500       0.99722500       0.50098600 </v>
   <v>       0.50077800       0.49936400       0.99832400 </v>
   <v>       0.00400600       0.50019900       0.50020700 </v>
   <v>       0.00183400       0.50121500       0.00014300 </v>
   <v>       0.49185700       0.49761300       0.49982100 </v>
   <v>       0.47529300       0.75031300       0.97106200 </v>
   <v>       0.96480000       0.75095500       0.45411400 </v>
   <v>       0.98150000       0.24992700       0.97452000 </v>
   <v>       0.44385700       0.24862200       0.47098300 </v>
   <v>       0.02905500       0.74995900       0.03598300 </v>
   <v>       0.55162300       0.74492900       0.51993100 </v>
   <v>       0.53418400       0.25010000       0.02925800 </v>
   <v>       0.01613600       0.24937000       0.54357800 </v>
   <v>       0.24923900       0.47108500       0.94965100 </v>
   <v>       0.45481400       0.52864800       0.24730800 </v>
   <v>       0.94844700       0.53517000       0.74623000 </v>
   <v>       0.54929300       0.03193000       0.74822800 </v>
   <v>       0.05224300       0.03638500       0.25509600 </v>
   <v>       0.75434600       0.97578200       0.04885200 </v>
   <v>       0.25563400       0.95363800       0.55110100 </v>
   <v>       0.24937600       0.02972300       0.94730800 </v>
   <v>       0.45481700       0.97017500       0.24816900 </v>
   <v>       0.95000700       0.96364400       0.74689200 </v>
   <v>       0.75427700       0.52422200       0.04895900 </v>
   <v>       0.24688200       0.54062800       0.55255200 </v>
   <v>       0.54728200       0.46852800       0.74894900 </v>
   <v>       0.05215700       0.46292000       0.25392400 </v>
   <v>       0.73288300       0.26164500       0.45457900 </v>
  </varray>
 </structure>
</modeling>
