 running on   64 total cores
 distrk:  each k-point on   64 cores,    1 groups
 distr:  one band on    8 cores,    8 groups
 using from now: INCAR     
 vasp.5.4.4.18Apr17-6-g9f103f2a35 (build Jun 22 2020 09:27:21) complex           
 POSCAR found type information on POSCAR  Cs Pb Br
 POSCAR found :  3 types and      39 ions
 scaLAPACK will be used
 LDA part: xc-table for Pade appr. of Perdew
 POSCAR found type information on POSCAR  Cs Pb Br
 POSCAR found :  3 types and      39 ions
 POSCAR, INCAR and KPOINTS ok, starting setup
 FFT: planning ...
 WAVECAR not read
 entering main loop
       N       E                     dE             d eps       ncg     rms          rms(c)
DAV:   1     0.133627943497E+04    0.13363E+04   -0.11051E+05  3496   0.973E+02
DAV:   2    -0.111101874382E+04   -0.24473E+04   -0.23595E+04  4096   0.300E+02
DAV:   3    -0.147389301858E+04   -0.36287E+03   -0.36083E+03  4408   0.137E+02
DAV:   4    -0.148635606171E+04   -0.12463E+02   -0.12428E+02  3928   0.333E+01
DAV:   5    -0.148692543559E+04   -0.56937E+00   -0.56912E+00  4416   0.558E+00BRMIX: very serious problems
 the old and the new charge density differ
 old charge density:   345.00000 new  344.00000
    0.103E+01
DAV:   6    -0.140848572711E+04    0.78440E+02   -0.23935E+01  4296   0.313E+01    0.730E+00
DAV:   7    -0.140781074618E+04    0.67498E+00   -0.96311E+00  3984   0.599E+00    0.374E+00
DAV:   8    -0.140799318575E+04   -0.18244E+00   -0.61867E-01  4008   0.226E+00    0.225E+00
DAV:   9    -0.140804351084E+04   -0.50325E-01   -0.21201E-01  3720   0.145E+00    0.493E-01
DAV:  10    -0.140804835138E+04   -0.48405E-02   -0.34327E-02  4144   0.472E-01    0.350E-01
DAV:  11    -0.140804984853E+04   -0.14972E-02   -0.36832E-03  3664   0.166E-01    0.165E-01
DAV:  12    -0.140805233043E+04   -0.24819E-02   -0.78792E-03  3608   0.213E-01    0.120E-01
DAV:  13    -0.140805182537E+04    0.50506E-03   -0.19619E-03  4424   0.119E-01    0.530E-02
DAV:  14    -0.140805177593E+04    0.49443E-04   -0.42571E-04  3920   0.403E-02    0.239E-02
DAV:  15    -0.140805176339E+04    0.12543E-04   -0.50433E-05  3912   0.182E-02    0.126E-02
DAV:  16    -0.140805181538E+04   -0.51990E-04   -0.32308E-05  3776   0.142E-02    0.603E-03
DAV:  17    -0.140805182016E+04   -0.47862E-05   -0.92493E-06  3776   0.729E-03    0.293E-03
DAV:  18    -0.140805181223E+04    0.79333E-05   -0.74629E-07  2272   0.255E-03    0.170E-03
DAV:  19    -0.140805181175E+04    0.47555E-06   -0.45753E-07  2272   0.192E-03
   1 F= -.14080518E+04 E0= -.14080518E+04  d E =-.240673E-18
Application 1923392 resources: utime ~29473s, stime ~123s, Rss ~77884, inblocks ~1328, outblocks ~111432
