CsPbBr3 cubic bulk                      
           1
     8.456489    0.000000    8.040301
     0.000000   11.729847    0.000000
    -8.456489    0.000000    8.040301
   Cs   Pb   Br
   8   8  23
Direct configuration=     1
   0.27267800  0.24982100  0.19655200
   0.77103100  0.25149000  0.74054400
   0.70618100  0.74975900  0.25400000
   0.20904600  0.74889000  0.78368300
   0.28435000  0.25190500  0.73432900
   0.79676200  0.25005700  0.22044100
   0.72717200  0.74988600  0.79309100
   0.23249200  0.74772900  0.28340700
   0.00205900  0.99852600  0.99974900
   0.49173600  0.00825900  0.49919500
   0.50066300  0.00110200  0.99800900
   0.01143500  0.99722500  0.50098600
   0.50077800  0.49936400  0.99832400
   0.00400600  0.50019900  0.50020700
   0.00183400  0.50121500  0.00014300
   0.49185700  0.49761300  0.49982100
   0.47529300  0.75031300  0.97106200
   0.96480000  0.75095500  0.45411400
   0.98150000  0.24992700  0.97452000
   0.44385700  0.24862200  0.47098300
   0.02905500  0.74995900  0.03598300
   0.55162300  0.74492900  0.51993100
   0.53418400  0.25010000  0.02925800
   0.01613600  0.24937000  0.54357800
   0.24923900  0.47108500  0.94965100
   0.45481400  0.52864800  0.24730800
   0.94844700  0.53517000  0.74623000
   0.54929300  0.03193000  0.74822800
   0.05224300  0.03638500  0.25509600
   0.75434600  0.97578200  0.04885200
   0.25563400  0.95363800  0.55110100
   0.24937600  0.02972300  0.94730800
   0.45481700  0.97017500  0.24816900
   0.95000700  0.96364400  0.74689200
   0.75427700  0.52422200  0.04895900
   0.24688200  0.54062800  0.55255200
   0.54728200  0.46852800  0.74894900
   0.05215700  0.46292000  0.25392400
   0.73288300  0.26164500  0.45457900
