  10  10   1   0
  0.4046510E+02  0.8173910E-09  0.8437136E-09  0.8437136E-09  0.5000000E-15
   1.0000000000000000E-004
  CAR 
 CsPbBr3 cubic bulk                      
      8.50475306    -22.32766224  301      0.61679348      1.00000000
    -22.328  0.0000E+00  0.0000E+00
    -22.225  0.0000E+00  0.0000E+00
    -22.122  0.0000E+00  0.0000E+00
    -22.019  0.0000E+00  0.0000E+00
    -21.917  0.0000E+00  0.0000E+00
    -21.814  0.0000E+00  0.0000E+00
    -21.711  0.0000E+00  0.0000E+00
    -21.608  0.0000E+00  0.0000E+00
    -21.505  0.0000E+00  0.0000E+00
    -21.403  0.0000E+00  0.0000E+00
    -21.300  0.0000E+00  0.0000E+00
    -21.197  0.0000E+00  0.0000E+00
    -21.094  0.0000E+00  0.0000E+00
    -20.992  0.0000E+00  0.0000E+00
    -20.889  0.3892E+02  0.4000E+01
    -20.786  0.0000E+00  0.4000E+01
    -20.683  0.0000E+00  0.4000E+01
    -20.580  0.0000E+00  0.4000E+01
    -20.478  0.0000E+00  0.4000E+01
    -20.375  0.0000E+00  0.4000E+01
    -20.272  0.0000E+00  0.4000E+01
    -20.169  0.0000E+00  0.4000E+01
    -20.067  0.0000E+00  0.4000E+01
    -19.964  0.0000E+00  0.4000E+01
    -19.861  0.0000E+00  0.4000E+01
    -19.758  0.0000E+00  0.4000E+01
    -19.656  0.0000E+00  0.4000E+01
    -19.553  0.0000E+00  0.4000E+01
    -19.450  0.0000E+00  0.4000E+01
    -19.347  0.0000E+00  0.4000E+01
    -19.244  0.0000E+00  0.4000E+01
    -19.142  0.0000E+00  0.4000E+01
    -19.039  0.0000E+00  0.4000E+01
    -18.936  0.0000E+00  0.4000E+01
    -18.833  0.0000E+00  0.4000E+01
    -18.731  0.0000E+00  0.4000E+01
    -18.628  0.0000E+00  0.4000E+01
    -18.525  0.0000E+00  0.4000E+01
    -18.422  0.0000E+00  0.4000E+01
    -18.319  0.0000E+00  0.4000E+01
    -18.217  0.0000E+00  0.4000E+01
    -18.114  0.0000E+00  0.4000E+01
    -18.011  0.0000E+00  0.4000E+01
    -17.908  0.0000E+00  0.4000E+01
    -17.806  0.0000E+00  0.4000E+01
    -17.703  0.0000E+00  0.4000E+01
    -17.600  0.0000E+00  0.4000E+01
    -17.497  0.0000E+00  0.4000E+01
    -17.394  0.0000E+00  0.4000E+01
    -17.292  0.0000E+00  0.4000E+01
    -17.189  0.0000E+00  0.4000E+01
    -17.086  0.0000E+00  0.4000E+01
    -16.983  0.0000E+00  0.4000E+01
    -16.881  0.0000E+00  0.4000E+01
    -16.778  0.0000E+00  0.4000E+01
    -16.675  0.0000E+00  0.4000E+01
    -16.572  0.0000E+00  0.4000E+01
    -16.470  0.1847E-09  0.4000E+01
    -16.367  0.4359E+02  0.8480E+01
    -16.264  0.2398E+02  0.1387E+02
    -16.161  0.0000E+00  0.2400E+02
    -16.058  0.0000E+00  0.2400E+02
    -15.956  0.0000E+00  0.2400E+02
    -15.853  0.0000E+00  0.2400E+02
    -15.750  0.0000E+00  0.2400E+02
    -15.647  0.0000E+00  0.2400E+02
    -15.545  0.0000E+00  0.2400E+02
    -15.442  0.0000E+00  0.2400E+02
    -15.339  0.0000E+00  0.2400E+02
    -15.236  0.0000E+00  0.2400E+02
    -15.133  0.0000E+00  0.2400E+02
    -15.031  0.0000E+00  0.2400E+02
    -14.928  0.0000E+00  0.2400E+02
    -14.825  0.0000E+00  0.2400E+02
    -14.722  0.0000E+00  0.2400E+02
    -14.620  0.0000E+00  0.2400E+02
    -14.517  0.0000E+00  0.2400E+02
    -14.414  0.3101E-13  0.2400E+02
    -14.311  0.7220E+00  0.2407E+02
    -14.208  0.1009E+02  0.2511E+02
    -14.106  0.2149E+02  0.2732E+02
    -14.003  0.1671E+02  0.2905E+02
    -13.900  0.2831E+02  0.3232E+02
    -13.797  0.1333E+02  0.3381E+02
    -13.695  0.5754E+01  0.3600E+02
    -13.592  0.0000E+00  0.3600E+02
    -13.489  0.0000E+00  0.3600E+02
    -13.386  0.0000E+00  0.3600E+02
    -13.283  0.0000E+00  0.3600E+02
    -13.181  0.0000E+00  0.3600E+02
    -13.078  0.0000E+00  0.3600E+02
    -12.975  0.0000E+00  0.3600E+02
    -12.872  0.0000E+00  0.3600E+02
    -12.770  0.0000E+00  0.3600E+02
    -12.667  0.0000E+00  0.3600E+02
    -12.564  0.0000E+00  0.3600E+02
    -12.461  0.0000E+00  0.3600E+02
    -12.359  0.0000E+00  0.3600E+02
    -12.256  0.0000E+00  0.3600E+02
    -12.153  0.0000E+00  0.3600E+02
    -12.050  0.0000E+00  0.3600E+02
    -11.947  0.0000E+00  0.3600E+02
    -11.845  0.0000E+00  0.3600E+02
    -11.742  0.0000E+00  0.3600E+02
    -11.639  0.0000E+00  0.3600E+02
    -11.536  0.0000E+00  0.3600E+02
    -11.434  0.0000E+00  0.3600E+02
    -11.331  0.0000E+00  0.3600E+02
    -11.228  0.0000E+00  0.3600E+02
    -11.125  0.0000E+00  0.3600E+02
    -11.022  0.0000E+00  0.3600E+02
    -10.920  0.0000E+00  0.3600E+02
    -10.817  0.0000E+00  0.3600E+02
    -10.714  0.0000E+00  0.3600E+02
    -10.611  0.0000E+00  0.3600E+02
    -10.509  0.0000E+00  0.3600E+02
    -10.406  0.0000E+00  0.3600E+02
    -10.303  0.0000E+00  0.3600E+02
    -10.200  0.0000E+00  0.3600E+02
    -10.097  0.0000E+00  0.3600E+02
     -9.995  0.0000E+00  0.3600E+02
     -9.892  0.0000E+00  0.3600E+02
     -9.789  0.0000E+00  0.3600E+02
     -9.686  0.0000E+00  0.3600E+02
     -9.584  0.0000E+00  0.3600E+02
     -9.481  0.0000E+00  0.3600E+02
     -9.378  0.0000E+00  0.3600E+02
     -9.275  0.0000E+00  0.3600E+02
     -9.172  0.0000E+00  0.3600E+02
     -9.070  0.0000E+00  0.3600E+02
     -8.967  0.0000E+00  0.3600E+02
     -8.864  0.0000E+00  0.3600E+02
     -8.761  0.0000E+00  0.3600E+02
     -8.659  0.0000E+00  0.3600E+02
     -8.556  0.0000E+00  0.3600E+02
     -8.453  0.0000E+00  0.3600E+02
     -8.350  0.0000E+00  0.3600E+02
     -8.248  0.1092E-11  0.3600E+02
     -8.145  0.7207E+00  0.3607E+02
     -8.042  0.0000E+00  0.3607E+02
     -7.939  0.0000E+00  0.3607E+02
     -7.836  0.5954E+01  0.3669E+02
     -7.734  0.0000E+00  0.3711E+02
     -7.631  0.0000E+00  0.3711E+02
     -7.528  0.0000E+00  0.3711E+02
     -7.425  0.1729E+02  0.3889E+02
     -7.323  0.1347E+02  0.4027E+02
     -7.220  0.6198E+02  0.5089E+02
     -7.117  0.0000E+00  0.5089E+02
     -7.014  0.4398E+01  0.5134E+02
     -6.911  0.4324E+01  0.5193E+02
     -6.809  0.0000E+00  0.5193E+02
     -6.706  0.0000E+00  0.5193E+02
     -6.603  0.0000E+00  0.5193E+02
     -6.500  0.1437E-08  0.5193E+02
     -6.398  0.7207E+00  0.5200E+02
     -6.295  0.0000E+00  0.5200E+02
     -6.192  0.0000E+00  0.5200E+02
     -6.089  0.0000E+00  0.5200E+02
     -5.986  0.0000E+00  0.5200E+02
     -5.884  0.0000E+00  0.5200E+02
     -5.781  0.0000E+00  0.5200E+02
     -5.678  0.0000E+00  0.5200E+02
     -5.575  0.0000E+00  0.5200E+02
     -5.473  0.0000E+00  0.5200E+02
     -5.370  0.0000E+00  0.5200E+02
     -5.267  0.0000E+00  0.5200E+02
     -5.164  0.0000E+00  0.5200E+02
     -5.062  0.0000E+00  0.5200E+02
     -4.959  0.0000E+00  0.5200E+02
     -4.856  0.0000E+00  0.5200E+02
     -4.753  0.0000E+00  0.5200E+02
     -4.650  0.0000E+00  0.5200E+02
     -4.548  0.0000E+00  0.5200E+02
     -4.445  0.0000E+00  0.5200E+02
     -4.342  0.0000E+00  0.5200E+02
     -4.239  0.0000E+00  0.5200E+02
     -4.137  0.0000E+00  0.5200E+02
     -4.034  0.0000E+00  0.5200E+02
     -3.931  0.0000E+00  0.5200E+02
     -3.828  0.0000E+00  0.5200E+02
     -3.725  0.0000E+00  0.5200E+02
     -3.623  0.0000E+00  0.5200E+02
     -3.520  0.0000E+00  0.5200E+02
     -3.417  0.8030E-06  0.5200E+02
     -3.314  0.4822E+01  0.5250E+02
     -3.212  0.1384E-01  0.5259E+02
     -3.109  0.9370E+01  0.5400E+02
     -3.006  0.6206E+01  0.5464E+02
     -2.903  0.5805E+01  0.5534E+02
     -2.800  0.4324E+01  0.5607E+02
     -2.698  0.8285E+01  0.5693E+02
     -2.595  0.4324E+01  0.5785E+02
     -2.492  0.1441E+01  0.5800E+02
     -2.389  0.0000E+00  0.5800E+02
     -2.287  0.0000E+00  0.5800E+02
     -2.184  0.8648E+01  0.5889E+02
     -2.081  0.2759E+02  0.6172E+02
     -1.978  0.8650E+01  0.6274E+02
     -1.875  0.7923E+01  0.6356E+02
     -1.773  0.5297E+00  0.6361E+02
     -1.670  0.1296E+02  0.6652E+02
     -1.567  0.8652E+01  0.6741E+02
     -1.464  0.1981E+02  0.6952E+02
     -1.362  0.1589E+02  0.7193E+02
     -1.259  0.3279E+02  0.7678E+02
     -1.156  0.2011E+02  0.7933E+02
     -1.053  0.1833E+02  0.8181E+02
     -0.951  0.1169E+02  0.8372E+02
     -0.848  0.7572E+01  0.8463E+02
     -0.745  0.4324E+01  0.8511E+02
     -0.642  0.4592E+01  0.8558E+02
     -0.539  0.5032E+00  0.8605E+02
     -0.437  0.2423E+00  0.8691E+02
     -0.334  0.1441E+01  0.8748E+02
     -0.231  0.0000E+00  0.8748E+02
     -0.128  0.0000E+00  0.8748E+02
     -0.026  0.1227E-04  0.8748E+02
      0.077  0.4324E+01  0.8793E+02
      0.180  0.0000E+00  0.8793E+02
      0.283  0.0000E+00  0.8793E+02
      0.386  0.0000E+00  0.8793E+02
      0.488  0.0000E+00  0.8793E+02
      0.591  0.7145E+00  0.8800E+02
      0.694  0.0000E+00  0.8800E+02
      0.797  0.0000E+00  0.8800E+02
      0.899  0.0000E+00  0.8800E+02
      1.002  0.0000E+00  0.8800E+02
      1.105  0.0000E+00  0.8800E+02
      1.208  0.0000E+00  0.8800E+02
      1.311  0.0000E+00  0.8800E+02
      1.413  0.0000E+00  0.8800E+02
      1.516  0.0000E+00  0.8800E+02
      1.619  0.0000E+00  0.8800E+02
      1.722  0.0000E+00  0.8800E+02
      1.824  0.0000E+00  0.8800E+02
      1.927  0.0000E+00  0.8800E+02
      2.030  0.0000E+00  0.8800E+02
      2.133  0.0000E+00  0.8800E+02
      2.235  0.0000E+00  0.8800E+02
      2.338  0.0000E+00  0.8800E+02
      2.441  0.0000E+00  0.8800E+02
      2.544  0.0000E+00  0.8800E+02
      2.647  0.0000E+00  0.8800E+02
      2.749  0.7207E+00  0.8807E+02
      2.852  0.1438E+01  0.8822E+02
      2.955  0.0000E+00  0.8822E+02
      3.058  0.5559E-01  0.8823E+02
      3.160  0.4324E+01  0.8911E+02
      3.263  0.0000E+00  0.8911E+02
      3.366  0.3724E+01  0.8949E+02
      3.469  0.0000E+00  0.9000E+02
      3.572  0.2194E+00  0.9002E+02
      3.674  0.0000E+00  0.9044E+02
      3.777  0.1659E+00  0.9046E+02
      3.880  0.7207E+01  0.9133E+02
      3.983  0.8520E+01  0.9221E+02
      4.085  0.4737E+01  0.9271E+02
      4.188  0.1831E+01  0.9330E+02
      4.291  0.3843E-07  0.9356E+02
      4.394  0.4324E+01  0.9400E+02
      4.497  0.0000E+00  0.9400E+02
      4.599  0.0000E+00  0.9400E+02
      4.702  0.5366E-01  0.9401E+02
      4.805  0.0000E+00  0.9407E+02
      4.908  0.0000E+00  0.9407E+02
      5.010  0.2518E+00  0.9410E+02
      5.113  0.6483E+01  0.9518E+02
      5.216  0.4321E+01  0.9600E+02
      5.319  0.0000E+00  0.9600E+02
      5.422  0.6083E+01  0.9663E+02
      5.524  0.0000E+00  0.9733E+02
      5.627  0.2708E+01  0.9761E+02
      5.730  0.7207E+01  0.9852E+02
      5.833  0.4819E+00  0.9857E+02
      5.935  0.6861E+01  0.9937E+02
      6.038  0.1441E+01  0.1001E+03
      6.141  0.4324E+01  0.1006E+03
      6.244  0.1169E+02  0.1018E+03
      6.346  0.1297E+02  0.1032E+03
      6.449  0.4216E+01  0.1036E+03
      6.552  0.1356E+02  0.1055E+03
      6.655  0.2065E+01  0.1058E+03
      6.758  0.1443E+02  0.1082E+03
      6.860  0.1272E+02  0.1102E+03
      6.963  0.7864E-05  0.1107E+03
      7.066  0.6843E+01  0.1114E+03
      7.169  0.4324E+01  0.1120E+03
      7.271  0.0000E+00  0.1120E+03
      7.374  0.0000E+00  0.1120E+03
      7.477  0.0000E+00  0.1120E+03
      7.580  0.0000E+00  0.1120E+03
      7.683  0.0000E+00  0.1120E+03
      7.785  0.0000E+00  0.1120E+03
      7.888  0.0000E+00  0.1120E+03
      7.991  0.0000E+00  0.1120E+03
      8.094  0.0000E+00  0.1120E+03
      8.196  0.0000E+00  0.1120E+03
      8.299  0.0000E+00  0.1120E+03
      8.402  0.0000E+00  0.1120E+03
      8.505  0.0000E+00  0.1120E+03
      8.50475306    -22.32766224  301      0.61679348      1.00000000
    -22.328  0.0000E+00  0.0000E+00  0.0000E+00
    -22.225  0.0000E+00  0.0000E+00  0.0000E+00
    -22.122  0.0000E+00  0.0000E+00  0.0000E+00
    -22.019  0.0000E+00  0.0000E+00  0.0000E+00
    -21.917  0.0000E+00  0.0000E+00  0.0000E+00
    -21.814  0.0000E+00  0.0000E+00  0.0000E+00
    -21.711  0.0000E+00  0.0000E+00  0.0000E+00
    -21.608  0.0000E+00  0.0000E+00  0.0000E+00
    -21.505  0.0000E+00  0.0000E+00  0.0000E+00
    -21.403  0.0000E+00  0.0000E+00  0.0000E+00
    -21.300  0.0000E+00  0.0000E+00  0.0000E+00
    -21.197  0.0000E+00  0.0000E+00  0.0000E+00
    -21.094  0.0000E+00  0.0000E+00  0.0000E+00
    -20.992  0.0000E+00  0.0000E+00  0.0000E+00
    -20.889  0.1727E+02  0.9183E-07  0.2685E-05
    -20.786  0.0000E+00  0.0000E+00  0.0000E+00
    -20.683  0.0000E+00  0.0000E+00  0.0000E+00
    -20.580  0.0000E+00  0.0000E+00  0.0000E+00
    -20.478  0.0000E+00  0.0000E+00  0.0000E+00
    -20.375  0.0000E+00  0.0000E+00  0.0000E+00
    -20.272  0.0000E+00  0.0000E+00  0.0000E+00
    -20.169  0.0000E+00  0.0000E+00  0.0000E+00
    -20.067  0.0000E+00  0.0000E+00  0.0000E+00
    -19.964  0.0000E+00  0.0000E+00  0.0000E+00
    -19.861  0.0000E+00  0.0000E+00  0.0000E+00
    -19.758  0.0000E+00  0.0000E+00  0.0000E+00
    -19.656  0.0000E+00  0.0000E+00  0.0000E+00
    -19.553  0.0000E+00  0.0000E+00  0.0000E+00
    -19.450  0.0000E+00  0.0000E+00  0.0000E+00
    -19.347  0.0000E+00  0.0000E+00  0.0000E+00
    -19.244  0.0000E+00  0.0000E+00  0.0000E+00
    -19.142  0.0000E+00  0.0000E+00  0.0000E+00
    -19.039  0.0000E+00  0.0000E+00  0.0000E+00
    -18.936  0.0000E+00  0.0000E+00  0.0000E+00
    -18.833  0.0000E+00  0.0000E+00  0.0000E+00
    -18.731  0.0000E+00  0.0000E+00  0.0000E+00
    -18.628  0.0000E+00  0.0000E+00  0.0000E+00
    -18.525  0.0000E+00  0.0000E+00  0.0000E+00
    -18.422  0.0000E+00  0.0000E+00  0.0000E+00
    -18.319  0.0000E+00  0.0000E+00  0.0000E+00
    -18.217  0.0000E+00  0.0000E+00  0.0000E+00
    -18.114  0.0000E+00  0.0000E+00  0.0000E+00
    -18.011  0.0000E+00  0.0000E+00  0.0000E+00
    -17.908  0.0000E+00  0.0000E+00  0.0000E+00
    -17.806  0.0000E+00  0.0000E+00  0.0000E+00
    -17.703  0.0000E+00  0.0000E+00  0.0000E+00
    -17.600  0.0000E+00  0.0000E+00  0.0000E+00
    -17.497  0.0000E+00  0.0000E+00  0.0000E+00
    -17.394  0.0000E+00  0.0000E+00  0.0000E+00
    -17.292  0.0000E+00  0.0000E+00  0.0000E+00
    -17.189  0.0000E+00  0.0000E+00  0.0000E+00
    -17.086  0.0000E+00  0.0000E+00  0.0000E+00
    -16.983  0.0000E+00  0.0000E+00  0.0000E+00
    -16.881  0.0000E+00  0.0000E+00  0.0000E+00
    -16.778  0.0000E+00  0.0000E+00  0.0000E+00
    -16.675  0.0000E+00  0.0000E+00  0.0000E+00
    -16.572  0.0000E+00  0.0000E+00  0.0000E+00
    -16.470  0.6425E-15  0.3123E-15  0.5833E-16
    -16.367  0.9300E-04  0.6609E-04  0.1297E-04
    -16.264  0.7927E-05  0.5290E-05  0.6315E-06
    -16.161  0.0000E+00  0.0000E+00  0.0000E+00
    -16.058  0.0000E+00  0.0000E+00  0.0000E+00
    -15.956  0.0000E+00  0.0000E+00  0.0000E+00
    -15.853  0.0000E+00  0.0000E+00  0.0000E+00
    -15.750  0.0000E+00  0.0000E+00  0.0000E+00
    -15.647  0.0000E+00  0.0000E+00  0.0000E+00
    -15.545  0.0000E+00  0.0000E+00  0.0000E+00
    -15.442  0.0000E+00  0.0000E+00  0.0000E+00
    -15.339  0.0000E+00  0.0000E+00  0.0000E+00
    -15.236  0.0000E+00  0.0000E+00  0.0000E+00
    -15.133  0.0000E+00  0.0000E+00  0.0000E+00
    -15.031  0.0000E+00  0.0000E+00  0.0000E+00
    -14.928  0.0000E+00  0.0000E+00  0.0000E+00
    -14.825  0.0000E+00  0.0000E+00  0.0000E+00
    -14.722  0.0000E+00  0.0000E+00  0.0000E+00
    -14.620  0.0000E+00  0.0000E+00  0.0000E+00
    -14.517  0.0000E+00  0.0000E+00  0.0000E+00
    -14.414  0.1871E-16  0.5921E-28  0.3240E-19
    -14.311  0.4352E-03  0.2124E-06  0.7594E-06
    -14.208  0.3075E-02  0.1878E-02  0.4867E-04
    -14.106  0.1127E-02  0.6317E-02  0.2599E-03
    -14.003  0.1571E-02  0.2936E-02  0.2160E-03
    -13.900  0.9329E-03  0.4464E-02  0.4670E-03
    -13.797  0.7065E-03  0.1253E-02  0.2046E-03
    -13.695  0.3048E-03  0.5972E-03  0.6828E-04
    -13.592  0.0000E+00  0.0000E+00  0.0000E+00
    -13.489  0.0000E+00  0.0000E+00  0.0000E+00
    -13.386  0.0000E+00  0.0000E+00  0.0000E+00
    -13.283  0.0000E+00  0.0000E+00  0.0000E+00
    -13.181  0.0000E+00  0.0000E+00  0.0000E+00
    -13.078  0.0000E+00  0.0000E+00  0.0000E+00
    -12.975  0.0000E+00  0.0000E+00  0.0000E+00
    -12.872  0.0000E+00  0.0000E+00  0.0000E+00
    -12.770  0.0000E+00  0.0000E+00  0.0000E+00
    -12.667  0.0000E+00  0.0000E+00  0.0000E+00
    -12.564  0.0000E+00  0.0000E+00  0.0000E+00
    -12.461  0.0000E+00  0.0000E+00  0.0000E+00
    -12.359  0.0000E+00  0.0000E+00  0.0000E+00
    -12.256  0.0000E+00  0.0000E+00  0.0000E+00
    -12.153  0.0000E+00  0.0000E+00  0.0000E+00
    -12.050  0.0000E+00  0.0000E+00  0.0000E+00
    -11.947  0.0000E+00  0.0000E+00  0.0000E+00
    -11.845  0.0000E+00  0.0000E+00  0.0000E+00
    -11.742  0.0000E+00  0.0000E+00  0.0000E+00
    -11.639  0.0000E+00  0.0000E+00  0.0000E+00
    -11.536  0.0000E+00  0.0000E+00  0.0000E+00
    -11.434  0.0000E+00  0.0000E+00  0.0000E+00
    -11.331  0.0000E+00  0.0000E+00  0.0000E+00
    -11.228  0.0000E+00  0.0000E+00  0.0000E+00
    -11.125  0.0000E+00  0.0000E+00  0.0000E+00
    -11.022  0.0000E+00  0.0000E+00  0.0000E+00
    -10.920  0.0000E+00  0.0000E+00  0.0000E+00
    -10.817  0.0000E+00  0.0000E+00  0.0000E+00
    -10.714  0.0000E+00  0.0000E+00  0.0000E+00
    -10.611  0.0000E+00  0.0000E+00  0.0000E+00
    -10.509  0.0000E+00  0.0000E+00  0.0000E+00
    -10.406  0.0000E+00  0.0000E+00  0.0000E+00
    -10.303  0.0000E+00  0.0000E+00  0.0000E+00
    -10.200  0.0000E+00  0.0000E+00  0.0000E+00
    -10.097  0.0000E+00  0.0000E+00  0.0000E+00
     -9.995  0.0000E+00  0.0000E+00  0.0000E+00
     -9.892  0.0000E+00  0.0000E+00  0.0000E+00
     -9.789  0.0000E+00  0.0000E+00  0.0000E+00
     -9.686  0.0000E+00  0.0000E+00  0.0000E+00
     -9.584  0.0000E+00  0.0000E+00  0.0000E+00
     -9.481  0.0000E+00  0.0000E+00  0.0000E+00
     -9.378  0.0000E+00  0.0000E+00  0.0000E+00
     -9.275  0.0000E+00  0.0000E+00  0.0000E+00
     -9.172  0.0000E+00  0.0000E+00  0.0000E+00
     -9.070  0.0000E+00  0.0000E+00  0.0000E+00
     -8.967  0.0000E+00  0.0000E+00  0.0000E+00
     -8.864  0.0000E+00  0.0000E+00  0.0000E+00
     -8.761  0.0000E+00  0.0000E+00  0.0000E+00
     -8.659  0.0000E+00  0.0000E+00  0.0000E+00
     -8.556  0.0000E+00  0.0000E+00  0.0000E+00
     -8.453  0.0000E+00  0.0000E+00  0.0000E+00
     -8.350  0.0000E+00  0.0000E+00  0.0000E+00
     -8.248  0.8323E-27  0.3092E-15  0.6085E-27
     -8.145  0.5492E-15  0.2040E-03  0.4015E-15
     -8.042  0.0000E+00  0.0000E+00  0.0000E+00
     -7.939  0.0000E+00  0.0000E+00  0.0000E+00
     -7.836  0.1146E-04  0.1663E-01  0.1416E-04
     -7.734  0.0000E+00  0.0000E+00  0.0000E+00
     -7.631  0.0000E+00  0.0000E+00  0.0000E+00
     -7.528  0.0000E+00  0.0000E+00  0.0000E+00
     -7.425  0.4869E-04  0.7666E+00  0.1081E-03
     -7.323  0.1549E-05  0.5130E+01  0.6212E-05
     -7.220  0.1463E-04  0.2315E+02  0.2459E-04
     -7.117  0.0000E+00  0.0000E+00  0.0000E+00
     -7.014  0.4882E-04  0.3553E-01  0.4759E-04
     -6.911  0.3346E-04  0.3508E-01  0.4587E-04
     -6.809  0.0000E+00  0.0000E+00  0.0000E+00
     -6.706  0.0000E+00  0.0000E+00  0.0000E+00
     -6.603  0.0000E+00  0.0000E+00  0.0000E+00
     -6.500  0.3343E-13  0.3295E-20  0.1014E-13
     -6.398  0.1676E-04  0.1652E-11  0.5086E-05
     -6.295  0.0000E+00  0.0000E+00  0.0000E+00
     -6.192  0.0000E+00  0.0000E+00  0.0000E+00
     -6.089  0.0000E+00  0.0000E+00  0.0000E+00
     -5.986  0.0000E+00  0.0000E+00  0.0000E+00
     -5.884  0.0000E+00  0.0000E+00  0.0000E+00
     -5.781  0.0000E+00  0.0000E+00  0.0000E+00
     -5.678  0.0000E+00  0.0000E+00  0.0000E+00
     -5.575  0.0000E+00  0.0000E+00  0.0000E+00
     -5.473  0.0000E+00  0.0000E+00  0.0000E+00
     -5.370  0.0000E+00  0.0000E+00  0.0000E+00
     -5.267  0.0000E+00  0.0000E+00  0.0000E+00
     -5.164  0.0000E+00  0.0000E+00  0.0000E+00
     -5.062  0.0000E+00  0.0000E+00  0.0000E+00
     -4.959  0.0000E+00  0.0000E+00  0.0000E+00
     -4.856  0.0000E+00  0.0000E+00  0.0000E+00
     -4.753  0.0000E+00  0.0000E+00  0.0000E+00
     -4.650  0.0000E+00  0.0000E+00  0.0000E+00
     -4.548  0.0000E+00  0.0000E+00  0.0000E+00
     -4.445  0.0000E+00  0.0000E+00  0.0000E+00
     -4.342  0.0000E+00  0.0000E+00  0.0000E+00
     -4.239  0.0000E+00  0.0000E+00  0.0000E+00
     -4.137  0.0000E+00  0.0000E+00  0.0000E+00
     -4.034  0.0000E+00  0.0000E+00  0.0000E+00
     -3.931  0.0000E+00  0.0000E+00  0.0000E+00
     -3.828  0.0000E+00  0.0000E+00  0.0000E+00
     -3.725  0.0000E+00  0.0000E+00  0.0000E+00
     -3.623  0.0000E+00  0.0000E+00  0.0000E+00
     -3.520  0.0000E+00  0.0000E+00  0.0000E+00
     -3.417  0.4477E-18  0.3171E-08  0.1526E-10
     -3.314  0.1393E-06  0.1008E-01  0.5600E-03
     -3.212  0.4602E-08  0.1784E-04  0.2937E-05
     -3.109  0.4472E-07  0.7437E-02  0.1120E-02
     -3.006  0.8897E-04  0.1682E-01  0.3884E-03
     -2.903  0.8511E-04  0.6990E-02  0.8013E-03
     -2.800  0.1384E-03  0.9769E-03  0.1245E-02
     -2.698  0.4273E-04  0.5324E-02  0.1035E-02
     -2.595  0.1105E-02  0.8235E-02  0.1026E-02
     -2.492  0.3035E-03  0.1092E-02  0.4690E-03
     -2.389  0.0000E+00  0.0000E+00  0.0000E+00
     -2.287  0.0000E+00  0.0000E+00  0.0000E+00
     -2.184  0.8239E-03  0.2838E-01  0.8782E-03
     -2.081  0.2272E-01  0.5884E-01  0.7081E-02
     -1.978  0.1208E-01  0.1963E-01  0.2819E-02
     -1.875  0.7693E-02  0.4909E-01  0.1559E-02
     -1.773  0.1673E-05  0.4159E-02  0.2585E-03
     -1.670  0.3189E-02  0.7356E-01  0.1045E-01
     -1.567  0.2796E-04  0.4999E-01  0.5467E-02
     -1.464  0.2612E-02  0.6684E-01  0.1136E-01
     -1.362  0.5027E-03  0.2847E-01  0.1071E-01
     -1.259  0.4579E-02  0.7826E-01  0.1814E-01
     -1.156  0.2557E-02  0.6311E-01  0.8693E-02
     -1.053  0.1127E-02  0.2877E-01  0.1062E-01
     -0.951  0.1082E-03  0.2864E-01  0.4872E-02
     -0.848  0.6594E-03  0.8818E-02  0.5275E-02
     -0.745  0.1014E-05  0.8911E-02  0.2234E-02
     -0.642  0.9728E-03  0.5941E-02  0.7880E-03
     -0.539  0.1544E-04  0.1797E-03  0.4070E-04
     -0.437  0.1100E-04  0.1442E-03  0.1561E-04
     -0.334  0.6659E-04  0.2237E-03  0.1681E-04
     -0.231  0.0000E+00  0.0000E+00  0.0000E+00
     -0.128  0.0000E+00  0.0000E+00  0.0000E+00
     -0.026  0.1247E-09  0.1847E-08  0.2290E-08
      0.077  0.4392E-04  0.6508E-03  0.8070E-03
      0.180  0.0000E+00  0.0000E+00  0.0000E+00
      0.283  0.0000E+00  0.0000E+00  0.0000E+00
      0.386  0.0000E+00  0.0000E+00  0.0000E+00
      0.488  0.0000E+00  0.0000E+00  0.0000E+00
      0.591  0.1946E-17  0.1037E-04  0.1195E-12
      0.694  0.0000E+00  0.0000E+00  0.0000E+00
      0.797  0.0000E+00  0.0000E+00  0.0000E+00
      0.899  0.0000E+00  0.0000E+00  0.0000E+00
      1.002  0.0000E+00  0.0000E+00  0.0000E+00
      1.105  0.0000E+00  0.0000E+00  0.0000E+00
      1.208  0.0000E+00  0.0000E+00  0.0000E+00
      1.311  0.0000E+00  0.0000E+00  0.0000E+00
      1.413  0.0000E+00  0.0000E+00  0.0000E+00
      1.516  0.0000E+00  0.0000E+00  0.0000E+00
      1.619  0.0000E+00  0.0000E+00  0.0000E+00
      1.722  0.0000E+00  0.0000E+00  0.0000E+00
      1.824  0.0000E+00  0.0000E+00  0.0000E+00
      1.927  0.0000E+00  0.0000E+00  0.0000E+00
      2.030  0.0000E+00  0.0000E+00  0.0000E+00
      2.133  0.0000E+00  0.0000E+00  0.0000E+00
      2.235  0.0000E+00  0.0000E+00  0.0000E+00
      2.338  0.0000E+00  0.0000E+00  0.0000E+00
      2.441  0.0000E+00  0.0000E+00  0.0000E+00
      2.544  0.0000E+00  0.0000E+00  0.0000E+00
      2.647  0.0000E+00  0.0000E+00  0.0000E+00
      2.749  0.1525E-04  0.3669E-13  0.1866E-02
      2.852  0.9479E-11  0.3226E-06  0.1579E-02
      2.955  0.0000E+00  0.0000E+00  0.0000E+00
      3.058  0.2219E-09  0.1458E-04  0.4944E-04
      3.160  0.1012E-02  0.1851E-03  0.3335E-02
      3.263  0.0000E+00  0.0000E+00  0.0000E+00
      3.366  0.3399E-03  0.3067E-02  0.1587E-02
      3.469  0.0000E+00  0.0000E+00  0.0000E+00
      3.572  0.3973E-05  0.4910E-04  0.5076E-03
      3.674  0.0000E+00  0.0000E+00  0.0000E+00
      3.777  0.1861E-04  0.1506E-03  0.4175E-03
      3.880  0.1642E-02  0.1117E-02  0.7408E-02
      3.983  0.1197E-03  0.5160E-02  0.9981E-02
      4.085  0.7082E-03  0.3434E-02  0.2200E-02
      4.188  0.2582E-03  0.7643E-03  0.1262E-02
      4.291  0.6984E-11  0.2941E-10  0.9838E-11
      4.394  0.7859E-03  0.3310E-02  0.1107E-02
      4.497  0.0000E+00  0.0000E+00  0.0000E+00
      4.599  0.0000E+00  0.0000E+00  0.0000E+00
      4.702  0.1210E-02  0.1289E-11  0.3023E-04
      4.805  0.0000E+00  0.0000E+00  0.0000E+00
      4.908  0.0000E+00  0.0000E+00  0.0000E+00
      5.010  0.1235E-05  0.2321E-04  0.1225E-02
      5.113  0.1931E-01  0.7142E-02  0.1566E-01
      5.216  0.5352E-03  0.7777E-02  0.7232E-02
      5.319  0.0000E+00  0.0000E+00  0.0000E+00
      5.422  0.2890E-01  0.1290E-01  0.8571E-02
      5.524  0.0000E+00  0.0000E+00  0.0000E+00
      5.627  0.2511E-02  0.1245E-02  0.1413E-01
      5.730  0.7272E-01  0.1945E-01  0.3808E-01
      5.833  0.8496E-11  0.3561E-05  0.2904E-01
      5.935  0.2453E-01  0.1953E-02  0.2102E-01
      6.038  0.1667E-01  0.2557E-02  0.7724E-02
      6.141  0.6789E-02  0.7541E-02  0.1407E-01
      6.244  0.8332E-01  0.2985E-01  0.4528E+00
      6.346  0.8773E-02  0.4550E-01  0.6390E+00
      6.449  0.3695E-01  0.1956E-01  0.1481E+00
      6.552  0.9676E-01  0.1626E-01  0.5435E+00
      6.655  0.1686E-01  0.1003E-02  0.1002E+00
      6.758  0.1030E-01  0.3777E-01  0.9385E+00
      6.860  0.3306E-02  0.7687E-01  0.7890E+00
      6.963  0.1512E-07  0.8378E-07  0.3532E-06
      7.066  0.1113E-01  0.5330E-01  0.3696E+00
      7.169  0.4527E-01  0.4092E-02  0.2727E+00
      7.271  0.0000E+00  0.0000E+00  0.0000E+00
      7.374  0.0000E+00  0.0000E+00  0.0000E+00
      7.477  0.0000E+00  0.0000E+00  0.0000E+00
      7.580  0.0000E+00  0.0000E+00  0.0000E+00
      7.683  0.0000E+00  0.0000E+00  0.0000E+00
      7.785  0.0000E+00  0.0000E+00  0.0000E+00
      7.888  0.0000E+00  0.0000E+00  0.0000E+00
      7.991  0.0000E+00  0.0000E+00  0.0000E+00
      8.094  0.0000E+00  0.0000E+00  0.0000E+00
      8.196  0.0000E+00  0.0000E+00  0.0000E+00
      8.299  0.0000E+00  0.0000E+00  0.0000E+00
      8.402  0.0000E+00  0.0000E+00  0.0000E+00
      8.505  0.0000E+00  0.0000E+00  0.0000E+00
      8.50475306    -22.32766224  301      0.61679348      1.00000000
    -22.328  0.0000E+00  0.0000E+00  0.0000E+00
    -22.225  0.0000E+00  0.0000E+00  0.0000E+00
    -22.122  0.0000E+00  0.0000E+00  0.0000E+00
    -22.019  0.0000E+00  0.0000E+00  0.0000E+00
    -21.917  0.0000E+00  0.0000E+00  0.0000E+00
    -21.814  0.0000E+00  0.0000E+00  0.0000E+00
    -21.711  0.0000E+00  0.0000E+00  0.0000E+00
    -21.608  0.0000E+00  0.0000E+00  0.0000E+00
    -21.505  0.0000E+00  0.0000E+00  0.0000E+00
    -21.403  0.0000E+00  0.0000E+00  0.0000E+00
    -21.300  0.0000E+00  0.0000E+00  0.0000E+00
    -21.197  0.0000E+00  0.0000E+00  0.0000E+00
    -21.094  0.0000E+00  0.0000E+00  0.0000E+00
    -20.992  0.0000E+00  0.0000E+00  0.0000E+00
    -20.889  0.1727E+02  0.9183E-07  0.2685E-05
    -20.786  0.0000E+00  0.0000E+00  0.0000E+00
    -20.683  0.0000E+00  0.0000E+00  0.0000E+00
    -20.580  0.0000E+00  0.0000E+00  0.0000E+00
    -20.478  0.0000E+00  0.0000E+00  0.0000E+00
    -20.375  0.0000E+00  0.0000E+00  0.0000E+00
    -20.272  0.0000E+00  0.0000E+00  0.0000E+00
    -20.169  0.0000E+00  0.0000E+00  0.0000E+00
    -20.067  0.0000E+00  0.0000E+00  0.0000E+00
    -19.964  0.0000E+00  0.0000E+00  0.0000E+00
    -19.861  0.0000E+00  0.0000E+00  0.0000E+00
    -19.758  0.0000E+00  0.0000E+00  0.0000E+00
    -19.656  0.0000E+00  0.0000E+00  0.0000E+00
    -19.553  0.0000E+00  0.0000E+00  0.0000E+00
    -19.450  0.0000E+00  0.0000E+00  0.0000E+00
    -19.347  0.0000E+00  0.0000E+00  0.0000E+00
    -19.244  0.0000E+00  0.0000E+00  0.0000E+00
    -19.142  0.0000E+00  0.0000E+00  0.0000E+00
    -19.039  0.0000E+00  0.0000E+00  0.0000E+00
    -18.936  0.0000E+00  0.0000E+00  0.0000E+00
    -18.833  0.0000E+00  0.0000E+00  0.0000E+00
    -18.731  0.0000E+00  0.0000E+00  0.0000E+00
    -18.628  0.0000E+00  0.0000E+00  0.0000E+00
    -18.525  0.0000E+00  0.0000E+00  0.0000E+00
    -18.422  0.0000E+00  0.0000E+00  0.0000E+00
    -18.319  0.0000E+00  0.0000E+00  0.0000E+00
    -18.217  0.0000E+00  0.0000E+00  0.0000E+00
    -18.114  0.0000E+00  0.0000E+00  0.0000E+00
    -18.011  0.0000E+00  0.0000E+00  0.0000E+00
    -17.908  0.0000E+00  0.0000E+00  0.0000E+00
    -17.806  0.0000E+00  0.0000E+00  0.0000E+00
    -17.703  0.0000E+00  0.0000E+00  0.0000E+00
    -17.600  0.0000E+00  0.0000E+00  0.0000E+00
    -17.497  0.0000E+00  0.0000E+00  0.0000E+00
    -17.394  0.0000E+00  0.0000E+00  0.0000E+00
    -17.292  0.0000E+00  0.0000E+00  0.0000E+00
    -17.189  0.0000E+00  0.0000E+00  0.0000E+00
    -17.086  0.0000E+00  0.0000E+00  0.0000E+00
    -16.983  0.0000E+00  0.0000E+00  0.0000E+00
    -16.881  0.0000E+00  0.0000E+00  0.0000E+00
    -16.778  0.0000E+00  0.0000E+00  0.0000E+00
    -16.675  0.0000E+00  0.0000E+00  0.0000E+00
    -16.572  0.0000E+00  0.0000E+00  0.0000E+00
    -16.470  0.6426E-15  0.3123E-15  0.5833E-16
    -16.367  0.9301E-04  0.6609E-04  0.1297E-04
    -16.264  0.7925E-05  0.5290E-05  0.6315E-06
    -16.161  0.0000E+00  0.0000E+00  0.0000E+00
    -16.058  0.0000E+00  0.0000E+00  0.0000E+00
    -15.956  0.0000E+00  0.0000E+00  0.0000E+00
    -15.853  0.0000E+00  0.0000E+00  0.0000E+00
    -15.750  0.0000E+00  0.0000E+00  0.0000E+00
    -15.647  0.0000E+00  0.0000E+00  0.0000E+00
    -15.545  0.0000E+00  0.0000E+00  0.0000E+00
    -15.442  0.0000E+00  0.0000E+00  0.0000E+00
    -15.339  0.0000E+00  0.0000E+00  0.0000E+00
    -15.236  0.0000E+00  0.0000E+00  0.0000E+00
    -15.133  0.0000E+00  0.0000E+00  0.0000E+00
    -15.031  0.0000E+00  0.0000E+00  0.0000E+00
    -14.928  0.0000E+00  0.0000E+00  0.0000E+00
    -14.825  0.0000E+00  0.0000E+00  0.0000E+00
    -14.722  0.0000E+00  0.0000E+00  0.0000E+00
    -14.620  0.0000E+00  0.0000E+00  0.0000E+00
    -14.517  0.0000E+00  0.0000E+00  0.0000E+00
    -14.414  0.1871E-16  0.6176E-28  0.3240E-19
    -14.311  0.4352E-03  0.2124E-06  0.7594E-06
    -14.208  0.3075E-02  0.1878E-02  0.4867E-04
    -14.106  0.1127E-02  0.6317E-02  0.2599E-03
    -14.003  0.1571E-02  0.2936E-02  0.2160E-03
    -13.900  0.9329E-03  0.4464E-02  0.4670E-03
    -13.797  0.7065E-03  0.1253E-02  0.2046E-03
    -13.695  0.3048E-03  0.5972E-03  0.6828E-04
    -13.592  0.0000E+00  0.0000E+00  0.0000E+00
    -13.489  0.0000E+00  0.0000E+00  0.0000E+00
    -13.386  0.0000E+00  0.0000E+00  0.0000E+00
    -13.283  0.0000E+00  0.0000E+00  0.0000E+00
    -13.181  0.0000E+00  0.0000E+00  0.0000E+00