PROCAR new format
# of k-points:    6         # of bands:   56         # of ions:   10

 k-point     1 :    0.00000000 0.00000000 0.00000000     weight = 0.03703704

band     1 # energy  -20.92618881 # occ.  2.00000000

ion      s      p      d    tot
    1  0.444  0.000  0.000  0.444
    2  0.444  0.000  0.000  0.444
    3  0.000  0.000  0.000  0.000
    4  0.000  0.000  0.000  0.000
    5  0.000  0.000  0.000  0.000
    6  0.000  0.000  0.000  0.000
    7  0.000  0.000  0.000  0.000
    8  0.000  0.000  0.000  0.000
    9  0.000  0.000  0.000  0.000
   10  0.000  0.000  0.000  0.000
tot    0.887  0.000  0.000  0.887

band     2 # energy  -20.92231298 # occ.  2.00000000

ion      s      p      d    tot
    1  0.444  0.000  0.000  0.444
    2  0.444  0.000  0.000  0.444
    3  0.000  0.000  0.000  0.000
    4  0.000  0.000  0.000  0.000
    5  0.000  0.000  0.000  0.000
    6  0.000  0.000  0.000  0.000
    7  0.000  0.000  0.000  0.000
    8  0.000  0.000  0.000  0.000
    9  0.000  0.000  0.000  0.000
   10  0.000  0.000  0.000  0.000
tot    0.888  0.000  0.000  0.888

band     3 # energy  -16.42355173 # occ.  2.00000000

ion      s      p      d    tot
    1  0.000  0.000  0.000  0.000
    2  0.000  0.000  0.000  0.000
    3  0.000  0.000  0.460  0.460
    4  0.000  0.000  0.460  0.460
    5  0.010  0.000  0.000  0.010
    6  0.010  0.000  0.000  0.010
    7  0.000  0.000  0.000  0.000
    8  0.000  0.000  0.000  0.000
    9  0.010  0.000  0.000  0.010
   10  0.010  0.000  0.000  0.010
tot    0.040  0.000  0.920  0.960

band     4 # energy  -16.42351175 # occ.  2.00000000

ion      s      p      d    tot
    1  0.000  0.000  0.000  0.000
    2  0.000  0.000  0.000  0.000
    3  0.000  0.000  0.460  0.460
    4  0.000  0.000  0.460  0.460
    5  0.003  0.000  0.000  0.003
    6  0.003  0.000  0.000  0.003
    7  0.013  0.000  0.000  0.013
    8  0.013  0.000  0.000  0.013
    9  0.003  0.000  0.000  0.003
   10  0.003  0.000  0.000  0.003
tot    0.040  0.000  0.920  0.960

band     5 # energy  -16.32715507 # occ.  2.00000000

ion      s      p      d    tot
    1  0.000  0.000  0.000  0.000
    2  0.000  0.000  0.000  0.000
    3  0.000  0.000  0.486  0.486
    4  0.000  0.000  0.486  0.486
    5  0.000  0.001  0.000  0.001
    6  0.000  0.001  0.000  0.001
    7  0.000  0.000  0.000  0.000
    8  0.000  0.000  0.000  0.000
    9  0.000  0.001  0.000  0.001
   10  0.000  0.001  0.000  0.001
tot    0.000  0.003  0.972  0.974

band     6 # energy  -16.32707631 # occ.  2.00000000

ion      s      p      d    tot
    1  0.000  0.000  0.000  0.000
    2  0.000  0.000  0.000  0.000
    3  0.000  0.000  0.486  0.486
    4  0.000  0.000  0.486  0.486
    5  0.000  0.000  0.000  0.000
    6  0.000  0.000  0.000  0.000
    7  0.000  0.001  0.000  0.001
    8  0.000  0.001  0.000  0.001
    9  0.000  0.000  0.000  0.000
   10  0.000  0.000  0.000  0.000
tot    0.000  0.003  0.972  0.974

band     7 # energy  -16.26391689 # occ.  2.00000000

ion      s      p      d    tot
    1  0.000  0.000  0.000  0.000
    2  0.000  0.000  0.000  0.000
    3  0.000  0.000  0.489  0.489
    4  0.000  0.000  0.489  0.489
    5  0.000  0.000  0.000  0.000
    6  0.000  0.000  0.000  0.000
    7  0.000  0.000  0.000  0.000
    8  0.000  0.000  0.000  0.000
    9  0.000  0.000  0.000  0.000
   10  0.000  0.000  0.000  0.000
tot    0.000  0.000  0.977  0.978

band     8 # energy  -16.26268139 # occ.  2.00000000

ion      s      p      d    tot
    1  0.000  0.000  0.000  0.000
    2  0.000  0.000  0.000  0.000
    3  0.000  0.000  0.489  0.489
    4  0.000  0.000  0.489  0.489
    5  0.000  0.000  0.000  0.000
    6  0.000  0.000  0.000  0.000
    7  0.000  0.000  0.000  0.000
    8  0.000  0.000  0.000  0.000
    9  0.000  0.000  0.000  0.000
   10  0.000  0.000  0.000  0.000
tot    0.000  0.000  0.977  0.978

band     9 # energy  -16.24706435 # occ.  2.00000000

ion      s      p      d    tot
    1  0.000  0.000  0.000  0.000
    2  0.000  0.000  0.000  0.000
    3  0.000  0.000  0.489  0.489
    4  0.000  0.000  0.489  0.489
    5  0.000  0.000  0.000  0.000
    6  0.000  0.000  0.000  0.000
    7  0.000  0.000  0.000  0.000
    8  0.000  0.000  0.000  0.000
    9  0.000  0.000  0.000  0.000
   10  0.000  0.000  0.000  0.000
tot    0.000  0.000  0.977  0.977

band    10 # energy  -16.24692796 # occ.  2.00000000

ion      s      p      d    tot
    1  0.000  0.000  0.000  0.000
    2  0.000  0.000  0.000  0.000
    3  0.000  0.000  0.489  0.489
    4  0.000  0.000  0.489  0.489
    5  0.000  0.000  0.000  0.000
    6  0.000  0.000  0.000  0.000
    7  0.000  0.000  0.000  0.000
    8  0.000  0.000  0.000  0.000
    9  0.000  0.000  0.000  0.000
   10  0.000  0.000  0.000  0.000
tot    0.000  0.000  0.977  0.977

band    11 # energy  -16.24557836 # occ.  2.00000000

ion      s      p      d    tot
    1  0.000  0.000  0.000  0.000
    2  0.000  0.000  0.000  0.000
    3  0.000  0.000  0.489  0.489
    4  0.000  0.000  0.489  0.489
    5  0.000  0.000  0.000  0.000
    6  0.000  0.000  0.000  0.000
    7  0.000  0.000  0.000  0.000
    8  0.000  0.000  0.000  0.000
    9  0.000  0.000  0.000  0.000
   10  0.000  0.000  0.000  0.000
tot    0.000  0.000  0.978  0.978

band    12 # energy  -16.24548174 # occ.  2.00000000

ion      s      p      d    tot
    1  0.000  0.000  0.000  0.000
    2  0.000  0.000  0.000  0.000
    3  0.000  0.000  0.489  0.489
    4  0.000  0.000  0.489  0.489
    5  0.000  0.000  0.000  0.000
    6  0.000  0.000  0.000  0.000
    7  0.000  0.000  0.000  0.000
    8  0.000  0.000  0.000  0.000
    9  0.000  0.000  0.000  0.000
   10  0.000  0.000  0.000  0.000
tot    0.000  0.000  0.978  0.978

band    13 # energy  -14.36125349 # occ.  2.00000000

ion      s      p      d    tot
    1  0.001  0.000  0.000  0.001
    2  0.001  0.000  0.000  0.001
    3  0.016  0.000  0.000  0.016
    4  0.016  0.000  0.000  0.016
    5  0.123  0.000  0.000  0.123
    6  0.123  0.000  0.000  0.123
    7  0.123  0.000  0.000  0.123
    8  0.123  0.000  0.000  0.123
    9  0.123  0.000  0.000  0.123
   10  0.123  0.000  0.000  0.123
tot    0.770  0.000  0.001  0.770

band    14 # energy  -14.02852302 # occ.  2.00000000

ion      s      p      d    tot
    1  0.000  0.000  0.000  0.000
    2  0.000  0.000  0.000  0.000
    3  0.000  0.002  0.000  0.002
    4  0.000  0.002  0.000  0.002
    5  0.167  0.000  0.000  0.167
    6  0.167  0.000  0.000  0.167
    7  0.004  0.000  0.000  0.004
    8  0.004  0.000  0.000  0.004
    9  0.225  0.000  0.000  0.225
   10  0.225  0.000  0.000  0.225
tot    0.793  0.005  0.000  0.798

band    15 # energy  -14.02852254 # occ.  2.00000000

ion      s      p      d    tot
    1  0.000  0.000  0.000  0.000
    2  0.000  0.000  0.000  0.000
    3  0.000  0.002  0.000  0.002
    4  0.000  0.002  0.000  0.002
    5  0.097  0.000  0.000  0.097
    6  0.097  0.000  0.000  0.097
    7  0.260  0.000  0.000  0.260
    8  0.260  0.000  0.000  0.260
    9  0.039  0.000  0.000  0.039
   10  0.039  0.000  0.000  0.039
tot    0.793  0.005  0.000  0.798

band    16 # energy  -13.96756091 # occ.  2.00000000

ion      s      p      d    tot
    1  0.000  0.000  0.000  0.000
    2  0.000  0.000  0.000  0.000
    3  0.000  0.002  0.000  0.002
    4  0.000  0.002  0.000  0.002
    5  0.133  0.000  0.000  0.133
    6  0.133  0.000  0.000  0.133
    7  0.133  0.000  0.000  0.133
    8  0.133  0.000  0.000  0.133
    9  0.133  0.000  0.000  0.133
   10  0.133  0.000  0.000  0.133
tot    0.798  0.004  0.000  0.803

band    17 # energy  -13.72089742 # occ.  2.00000000

ion      s      p      d    tot
    1  0.000  0.000  0.000  0.000
    2  0.000  0.000  0.000  0.000
    3  0.000  0.000  0.030  0.030
    4  0.000  0.000  0.030  0.030
    5  0.051  0.000  0.000  0.051
    6  0.051  0.000  0.000  0.051
    7  0.256  0.000  0.000  0.256
    8  0.256  0.000  0.000  0.256
    9  0.078  0.000  0.000  0.078
   10  0.078  0.000  0.000  0.078
tot    0.770  0.000  0.060  0.830

band    18 # energy  -13.72089634 # occ.  2.00000000

ion      s      p      d    tot
    1  0.000  0.000  0.000  0.000
    2  0.000  0.000  0.000  0.000
    3  0.000  0.000  0.030  0.030
    4  0.000  0.000  0.030  0.030
    5  0.206  0.000  0.000  0.206
    6  0.206  0.000  0.000  0.206
    7  0.001  0.000  0.000  0.001
    8  0.001  0.000  0.000  0.001
    9  0.178  0.000  0.000  0.178
   10  0.178  0.000  0.000  0.178
tot    0.770  0.000  0.060  0.830

band    19 # energy   -8.19819618 # occ.  2.00000000

ion      s      p      d    tot
    1  0.000  0.000  0.000  0.000
    2  0.000  0.000  0.000  0.000
    3  0.283  0.000  0.000  0.283
    4  0.283  0.000  0.000  0.283
    5  0.000  0.017  0.000  0.017
    6  0.000  0.017  0.000  0.017
    7  0.000  0.017  0.000  0.017
    8  0.000  0.017  0.000  0.017
    9  0.000  0.017  0.000  0.017
   10  0.000  0.017  0.000  0.017
tot    0.566  0.101  0.000  0.668

band    20 # energy   -7.35003897 # occ.  2.00000000

ion      s      p      d    tot
    1  0.000  0.381  0.000  0.381
    2  0.000  0.381  0.000  0.381
    3  0.000  0.000  0.000  0.000
    4  0.000  0.000  0.000  0.000
    5  0.000  0.001  0.000  0.001
    6  0.000  0.001  0.000  0.001
    7  0.000  0.001  0.000  0.001
    8  0.000  0.001  0.000  0.001
    9  0.000  0.001  0.000  0.001
   10  0.000  0.001  0.000  0.001
tot    0.001  0.766  0.000  0.767

band    21 # energy   -7.32817150 # occ.  2.00000000

ion      s      p      d    tot
    1  0.000  0.380  0.000  0.380
    2  0.000  0.380  0.000  0.380
    3  0.000  0.000  0.000  0.000
    4  0.000  0.000  0.000  0.000
    5  0.000  0.001  0.000  0.001
    6  0.000  0.001  0.000  0.001
    7  0.001  0.002  0.000  0.002
    8  0.001  0.002  0.000  0.002
    9  0.000  0.001  0.000  0.001
   10  0.000  0.001  0.000  0.001
tot    0.002  0.765  0.000  0.767

band    22 # energy   -7.32807235 # occ.  2.00000000

ion      s      p      d    tot
    1  0.000  0.380  0.000  0.380
    2  0.000  0.380  0.000  0.380
    3  0.000  0.000  0.000  0.000
    4  0.000  0.000  0.000  0.000
    5  0.000  0.001  0.000  0.002
    6  0.000  0.001  0.000  0.002
    7  0.000  0.000  0.000  0.000
    8  0.000  0.000  0.000  0.000
    9  0.000  0.001  0.000  0.002
   10  0.000  0.001  0.000  0.002
tot    0.002  0.765  0.000  0.767

band    23 # energy   -7.31339629 # occ.  2.00000000

ion      s      p      d    tot
    1  0.000  0.386  0.000  0.386
    2  0.000  0.386  0.000  0.386
    3  0.000  0.000  0.000  0.000
    4  0.000  0.000  0.000  0.000
    5  0.000  0.000  0.000  0.000
    6  0.000  0.000  0.000  0.000
    7  0.000  0.000  0.000  0.000
    8  0.000  0.000  0.000  0.000
    9  0.000  0.000  0.000  0.000
   10  0.000  0.000  0.000  0.000
tot    0.000  0.774  0.000  0.774

band    24 # energy   -7.29505032 # occ.  2.00000000

ion      s      p      d    tot
    1  0.000  0.384  0.000  0.384
    2  0.000  0.384  0.000  0.384
    3  0.000  0.000  0.000  0.000
    4  0.000  0.000  0.000  0.000
    5  0.000  0.001  0.000  0.001
    6  0.000  0.001  0.000  0.001
    7  0.000  0.001  0.000  0.001
    8  0.000  0.001  0.000  0.001
    9  0.000  0.001  0.000  0.001
   10  0.000  0.001  0.000  0.001
tot    0.001  0.773  0.000  0.774

band    25 # energy   -7.29495091 # occ.  2.00000000

ion      s      p      d    tot
    1  0.000  0.384  0.000  0.384
    2  0.000  0.384  0.000  0.384
    3  0.000  0.000  0.000  0.000
    4  0.000  0.000  0.000  0.000
    5  0.000  0.001  0.000  0.001
    6  0.000  0.001  0.000  0.001
    7  0.000  0.000  0.000  0.000
    8  0.000  0.000  0.000  0.000
    9  0.000  0.001  0.000  0.001
   10  0.000  0.001  0.000  0.001
tot    0.001  0.773  0.000  0.774

band    26 # energy   -6.45874492 # occ.  2.00000000

ion      s      p      d    tot
    1  0.000  0.000  0.000  0.000
    2  0.000  0.000  0.000  0.000
    3  0.356  0.000  0.000  0.356
    4  0.356  0.000  0.000  0.356
    5  0.012  0.001  0.001  0.014
    6  0.012  0.001  0.001  0.014
    7  0.012  0.001  0.001  0.014
    8  0.012  0.001  0.001  0.014
    9  0.012  0.001  0.001  0.014
   10  0.012  0.001  0.001  0.014
tot    0.785  0.007  0.006  0.797

band    27 # energy   -3.38268215 # occ.  2.00000000

ion      s      p      d    tot
    1  0.000  0.004  0.000  0.004
    2  0.000  0.004  0.000  0.004
    3  0.000  0.047  0.000  0.047
    4  0.000  0.047  0.000  0.047
    5  0.000  0.099  0.000  0.099
    6  0.000  0.099  0.000  0.099
    7  0.000  0.015  0.000  0.015
    8  0.000  0.015  0.000  0.015
    9  0.000  0.098  0.000  0.098
   10  0.000  0.098  0.000  0.098
tot    0.000  0.527  0.000  0.527

band    28 # energy   -3.38266934 # occ.  2.00000000

ion      s      p      d    tot
    1  0.000  0.004  0.000  0.004
    2  0.000  0.004  0.000  0.004
    3  0.000  0.047  0.000  0.047
    4  0.000  0.047  0.000  0.047
    5  0.000  0.042  0.000  0.042
    6  0.000  0.042  0.000  0.042
    7  0.000  0.127  0.000  0.127
    8  0.000  0.127  0.000  0.127
    9  0.000  0.043  0.000  0.043
   10  0.000  0.043  0.000  0.043
tot    0.000  0.527  0.000  0.527

band    29 # energy   -3.18023256 # occ.  2.00000000

ion      s      p      d    tot
    1  0.000  0.005  0.000  0.005
    2  0.000  0.005  0.000  0.005
    3  0.000  0.046  0.000  0.046
    4  0.000  0.046  0.000  0.046
    5  0.000  0.072  0.000  0.072
    6  0.000  0.072  0.000  0.072
    7  0.000  0.072  0.000  0.072
    8  0.000  0.072  0.000  0.072
    9  0.000  0.072  0.000  0.072
   10  0.000  0.072  0.000  0.072
tot    0.000  0.532  0.000  0.532

band    30 # energy   -1.92997413 # occ.  2.00000000

ion      s      p      d    tot
    1  0.000  0.016  0.000  0.016
    2  0.000  0.016  0.000  0.016
    3  0.000  0.000  0.003  0.003
    4  0.000  0.000  0.003  0.003
    5  0.000  0.067  0.000  0.067
    6  0.000  0.067  0.000  0.067
    7  0.000  0.121  0.000  0.121
    8  0.000  0.121  0.000  0.121
    9  0.000  0.067  0.000  0.067
   10  0.000  0.067  0.000  0.067
tot    0.000  0.542  0.006  0.548

band    31 # energy   -1.92992358 # occ.  2.00000000

ion      s      p      d    tot
    1  0.000  0.016  0.000  0.016
    2  0.000  0.016  0.000  0.016
    3  0.000  0.000  0.003  0.003
    4  0.000  0.000  0.003  0.003
    5  0.000  0.103  0.000  0.103
    6  0.000  0.103  0.000  0.103
    7  0.000  0.049  0.000  0.049
    8  0.000  0.049  0.000  0.049
    9  0.000  0.103  0.000  0.103
   10  0.000  0.103  0.000  0.103
tot    0.000  0.542  0.006  0.548

band    32 # energy   -1.89392271 # occ.  2.00000000

ion      s      p      d    tot
    1  0.000  0.014  0.000  0.014
    2  0.000  0.014  0.000  0.014
    3  0.000  0.000  0.002  0.002
    4  0.000  0.000  0.002  0.002
    5  0.000  0.086  0.000  0.086
    6  0.000  0.086  0.000  0.086
    7  0.000  0.086  0.000  0.086
    8  0.000  0.086  0.000  0.086
    9  0.000  0.086  0.000  0.086
   10  0.000  0.086  0.000  0.086
tot    0.000  0.543  0.005  0.548

band    33 # energy   -1.54856062 # occ.  2.00000000

ion      s      p      d    tot
    1  0.001  0.000  0.000  0.001
    2  0.001  0.000  0.000  0.001
    3  0.000  0.006  0.000  0.006
    4  0.000  0.006  0.000  0.006
    5  0.000  0.093  0.000  0.094
    6  0.000  0.093  0.000  0.094
    7  0.000  0.093  0.000  0.094
    8  0.000  0.093  0.000  0.094
    9  0.000  0.093  0.000  0.094
   10  0.000  0.093  0.000  0.094
tot    0.003  0.572  0.001  0.576

band    34 # energy   -1.43805498 # occ.  2.00000000

ion      s      p      d    tot
    1  0.000  0.000  0.000  0.000
    2  0.000  0.000  0.000  0.000
    3  0.000  0.000  0.013  0.013
    4  0.000  0.000  0.013  0.013
    5  0.000  0.155  0.000  0.155
    6  0.000  0.155  0.000  0.155
    7  0.000  0.001  0.000  0.001
    8  0.000  0.001  0.000  0.001
    9  0.000  0.152  0.000  0.152
   10  0.000  0.152  0.000  0.152
tot    0.000  0.615  0.026  0.642

band    35 # energy   -1.43802949 # occ.  2.00000000

ion      s      p      d    tot
    1  0.000  0.000  0.000  0.000
    2  0.000  0.000  0.000  0.000
    3  0.000  0.000  0.013  0.013
    4  0.000  0.000  0.013  0.013
    5  0.000  0.050  0.000  0.050
    6  0.000  0.050  0.000  0.050
    7  0.000  0.204  0.000  0.204
    8  0.000  0.204  0.000  0.204
    9  0.000  0.053  0.000  0.053
   10  0.000  0.053  0.000  0.053
tot    0.000  0.615  0.026  0.642

band    36 # energy   -1.28722796 # occ.  2.00000000

ion      s      p      d    tot
    1  0.000  0.002  0.000  0.002
    2  0.000  0.002  0.000  0.002
    3  0.000  0.001  0.000  0.001
    4  0.000  0.001  0.000  0.001
    5  0.000  0.148  0.000  0.148
    6  0.000  0.148  0.000  0.148
    7  0.000  0.001  0.000  0.001
    8  0.000  0.001  0.000  0.001
    9  0.000  0.148  0.000  0.148
   10  0.000  0.148  0.000  0.148
tot    0.000  0.600  0.000  0.600

band    37 # energy   -1.28712419 # occ.  2.00000000

ion      s      p      d    tot
    1  0.000  0.002  0.000  0.002
    2  0.000  0.002  0.000  0.002
    3  0.000  0.001  0.000  0.001
    4  0.000  0.001  0.000  0.001
    5  0.000  0.050  0.000  0.050
    6  0.000  0.050  0.000  0.050
    7  0.000  0.197  0.000  0.197
    8  0.000  0.197  0.000  0.197
    9  0.000  0.050  0.000  0.050
   10  0.000  0.050  0.000  0.050
tot    0.000  0.600  0.000  0.600

band    38 # energy   -1.17346058 # occ.  2.00000000

ion      s      p      d    tot
    1  0.000  0.005  0.000  0.005
    2  0.000  0.005  0.000  0.005
    3  0.000  0.005  0.000  0.005
    4  0.000  0.005  0.000  0.005
    5  0.000  0.063  0.000  0.063
    6  0.000  0.063  0.000  0.063
    7  0.000  0.173  0.000  0.173
    8  0.000  0.173  0.000  0.173
    9  0.000  0.063  0.000  0.064
   10  0.000  0.063  0.000  0.064
tot    0.000  0.617  0.001  0.618

band    39 # energy   -1.17337729 # occ.  2.00000000

ion      s      p      d    tot
    1  0.000  0.005  0.000  0.005
    2  0.000  0.005  0.000  0.005
    3  0.000  0.005  0.000  0.005
    4  0.000  0.005  0.000  0.005
    5  0.000  0.137  0.000  0.137
    6  0.000  0.137  0.000  0.137
    7  0.000  0.026  0.000  0.026
    8  0.000  0.026  0.000  0.026
    9  0.000  0.136  0.000  0.136
   10  0.000  0.136  0.000  0.136
tot    0.000  0.617  0.001  0.618

band    40 # energy   -1.03502270 # occ.  2.00000000

ion      s      p      d    tot
    1  0.000  0.004  0.000  0.004
    2  0.000  0.004  0.000  0.004
    3  0.000  0.002  0.000  0.002
    4  0.000  0.002  0.000  0.002
    5  0.000  0.103  0.000  0.103
    6  0.000  0.103  0.000  0.103
    7  0.000  0.103  0.000  0.103
    8  0.000  0.103  0.000  0.103
    9  0.000  0.103  0.000  0.103
   10  0.000  0.103  0.000  0.103
tot    0.000  0.630  0.000  0.630

band    41 # energy   -0.89953422 # occ.  2.00000000

ion      s      p      d    tot
    1  0.000  0.000  0.001  0.001
    2  0.000  0.000  0.001  0.001
    3  0.000  0.000  0.001  0.001
    4  0.000  0.000  0.001  0.001
    5  0.000  0.127  0.000  0.127
    6  0.000  0.127  0.000  0.127
    7  0.000  0.060  0.000  0.060
    8  0.000  0.060  0.000  0.060
    9  0.000  0.127  0.000  0.127
   10  0.000  0.127  0.000  0.127
tot    0.000  0.627  0.003  0.630

band    42 # energy   -0.89947215 # occ.  2.00000000

ion      s      p      d    tot
    1  0.000  0.000  0.001  0.001
    2  0.000  0.000  0.001  0.001
    3  0.000  0.000  0.001  0.001
    4  0.000  0.000  0.001  0.001
    5  0.000  0.082  0.000  0.082
    6  0.000  0.082  0.000  0.082
    7  0.000  0.149  0.000  0.149
    8  0.000  0.149  0.000  0.149
    9  0.000  0.082  0.000  0.082
   10  0.000  0.082  0.000  0.082
tot    0.000  0.627  0.003  0.630

band    43 # energy   -0.84881855 # occ.  2.00000000

ion      s      p      d    tot
    1  0.001  0.000  0.001  0.001
    2  0.001  0.000  0.001  0.001
    3  0.007  0.000  0.000  0.007
    4  0.007  0.000  0.000  0.007
    5  0.000  0.103  0.000  0.104
    6  0.000  0.103  0.000  0.104
    7  0.000  0.103  0.000  0.103
    8  0.000  0.103  0.000  0.103
    9  0.000  0.103  0.000  0.104
   10  0.000  0.103  0.000  0.104
tot    0.016  0.620  0.002  0.638

band    44 # energy    0.57428110 # occ.  2.00000000

ion      s      p      d    tot
    1  0.000  0.000  0.000  0.000
    2  0.000  0.000  0.000  0.000
    3  0.130  0.000  0.000  0.130
    4  0.130  0.000  0.000  0.130
    5  0.000  0.086  0.000  0.087
    6  0.000  0.086  0.000  0.087
    7  0.000  0.086  0.000  0.087
    8  0.000  0.086  0.000  0.087
    9  0.000  0.086  0.000  0.087
   10  0.000  0.086  0.000  0.087
tot    0.260  0.519  0.001  0.779

band    45 # energy    2.71511165 # occ.  0.00000000

ion      s      p      d    tot
    1  0.000  0.000  0.003  0.003
    2  0.000  0.000  0.003  0.003
    3  0.000  0.174  0.000  0.174
    4  0.000  0.174  0.000  0.174
    5  0.007  0.004  0.004  0.015
    6  0.007  0.004  0.004  0.015
    7  0.007  0.004  0.004  0.015
    8  0.007  0.004  0.004  0.015
    9  0.007  0.004  0.004  0.015
   10  0.007  0.004  0.004  0.015
tot    0.043  0.373  0.030  0.445

band    46 # energy    2.83214130 # occ.  0.00000000

ion      s      p      d    tot
    1  0.000  0.000  0.001  0.001
    2  0.000  0.000  0.001  0.001
    3  0.000  0.188  0.000  0.188
    4  0.000  0.188  0.000  0.188
    5  0.012  0.002  0.006  0.020
    6  0.012  0.002  0.006  0.020
    7  0.000  0.001  0.003  0.004
    8  0.000  0.001  0.003  0.004
    9  0.012  0.002  0.006  0.020
   10  0.012  0.002  0.006  0.020
tot    0.047  0.387  0.032  0.466

band    47 # energy    2.83234079 # occ.  0.00000000

ion      s      p      d    tot
    1  0.000  0.000  0.001  0.001
    2  0.000  0.000  0.001  0.001
    3  0.000  0.188  0.000  0.188
    4  0.000  0.188  0.000  0.188
    5  0.004  0.002  0.004  0.009
    6  0.004  0.002  0.004  0.009
    7  0.016  0.003  0.007  0.025
    8  0.016  0.003  0.007  0.025
    9  0.004  0.002  0.004  0.009
   10  0.004  0.002  0.004  0.009
tot    0.047  0.387  0.032  0.466

band    48 # energy    4.71229499 # occ.  0.00000000

ion      s      p      d    tot
    1  0.023  0.000  0.001  0.023
    2  0.023  0.000  0.001  0.023
    3  0.004  0.000  0.000  0.004
    4  0.004  0.000  0.000  0.004
    5  0.010  0.000  0.002  0.012
    6  0.010  0.000  0.002  0.012
    7  0.010  0.000  0.002  0.012
    8  0.010  0.000  0.002  0.012
    9  0.010  0.000  0.002  0.012
   10  0.010  0.000  0.002  0.012
tot    0.111  0.003  0.012  0.126

band    49 # energy    5.83558685 # occ.  0.00000000

ion      s      p      d    tot
    1  0.000  0.000  0.060  0.060
    2  0.000  0.000  0.060  0.060
    3  0.000  0.000  0.000  0.000
    4  0.000  0.000  0.000  0.000
    5  0.001  0.005  0.006  0.012
    6  0.001  0.005  0.006  0.012
    7  0.005  0.000  0.001  0.006
    8  0.005  0.000  0.001  0.006
    9  0.001  0.005  0.006  0.012
   10  0.001  0.005  0.006  0.012
tot    0.015  0.020  0.148  0.182

band    50 # energy    5.83568717 # occ.  0.00000000

ion      s      p      d    tot
    1  0.000  0.000  0.060  0.060
    2  0.000  0.000  0.060  0.060
    3  0.000  0.000  0.000  0.000
    4  0.000  0.000  0.000  0.000
    5  0.004  0.002  0.003  0.008
    6  0.004  0.002  0.003  0.008
    7  0.000  0.006  0.008  0.014
    8  0.000  0.006  0.008  0.014
    9  0.004  0.002  0.003  0.008
   10  0.004  0.002  0.003  0.008
tot    0.015  0.020  0.148  0.182

band    51 # energy    6.20234533 # occ.  0.00000000

ion      s      p      d    tot
    1  0.000  0.000  0.000  0.000
    2  0.000  0.000  0.000  0.000
    3  0.000  0.190  0.000  0.190
    4  0.000  0.190  0.000  0.190
    5  0.000  0.041  0.002  0.043
    6  0.000  0.041  0.002  0.043
    7  0.000  0.041  0.002  0.043
    8  0.000  0.041  0.002  0.043
    9  0.000  0.041  0.002  0.043
   10  0.000  0.041  0.002  0.043
tot    0.000  0.626  0.010  0.636

band    52 # energy    6.46982232 # occ.  0.00000000

ion      s      p      d    tot
    1  0.032  0.000  0.000  0.032
    2  0.032  0.000  0.000  0.032
    3  0.000  0.000  0.000  0.000
    4  0.000  0.000  0.000  0.000
    5  0.000  0.002  0.008  0.009
    6  0.000  0.002  0.008  0.009
    7  0.000  0.002  0.008  0.009
    8  0.000  0.002  0.008  0.009
    9  0.000  0.002  0.008  0.009
   10  0.000  0.002  0.008  0.009
tot    0.063  0.009  0.047  0.119

band    53 # energy    6.54894033 # occ.  0.00000000

ion      s      p      d    tot
    1  0.000  0.002  0.066  0.067
    2  0.000  0.002  0.065  0.067
    3  0.000  0.000  0.008  0.008
    4  0.000  0.000  0.008  0.008
    5  0.000  0.002  0.008  0.010
    6  0.000  0.002  0.008  0.010
    7  0.000  0.000  0.009  0.009
    8  0.000  0.000  0.009  0.009
    9  0.000  0.002  0.008  0.010
   10  0.000  0.002  0.008  0.010
tot    0.001  0.012  0.196  0.209

band    54 # energy    6.54901053 # occ.  0.00000000

ion      s      p      d    tot
    1  0.000  0.002  0.065  0.067
    2  0.000  0.002  0.066  0.067
    3  0.000  0.000  0.008  0.008
    4  0.000  0.000  0.008  0.008
    5  0.000  0.001  0.009  0.010
    6  0.000  0.001  0.009  0.010
    7  0.000  0.003  0.007  0.010
    8  0.000  0.003  0.007  0.010
    9  0.000  0.001  0.009  0.010
   10  0.000  0.001  0.009  0.010
tot    0.001  0.012  0.196  0.209

band    55 # energy    6.63773989 # occ.  0.00000000

ion      s      p      d    tot
    1  0.000  0.000  0.068  0.068
    2  0.000  0.000  0.067  0.067
    3  0.000  0.001  0.010  0.011
    4  0.000  0.001  0.010  0.011
    5  0.000  0.002  0.008  0.010
    6  0.000  0.001  0.008  0.010
    7  0.000  0.002  0.008  0.010
    8  0.000  0.002  0.007  0.010
    9  0.000  0.002  0.008  0.010
   10  0.000  0.002  0.008  0.010
tot    0.002  0.013  0.201  0.215

band    56 # energy    6.68904427 # occ.  0.00000000

ion      s      p      d    tot
    1  0.000  0.000  0.059  0.059
    2  0.000  0.000  0.059  0.059
    3  0.000  0.049  0.000  0.049
    4  0.000  0.050  0.000  0.050
    5  0.000  0.031  0.001  0.032
    6  0.000  0.031  0.001  0.032
    7  0.002  0.017  0.005  0.023
    8  0.002  0.017  0.005  0.023
    9  0.003  0.007  0.007  0.017
   10  0.003  0.007  0.007  0.017
tot    0.010  0.207  0.143  0.360


 k-point     2 :    0.33333333 0.00000000 0.00000000     weight = 0.07407407

band     1 # energy  -20.92480990 # occ.  2.00000000

ion      s      p      d    tot
    1  0.444  0.000  0.000  0.444
    2  0.444  0.000  0.000  0.444
    3  0.000  0.000  0.000  0.000
    4  0.000  0.000  0.000  0.000
    5  0.000  0.000  0.000  0.000
    6  0.000  0.000  0.000  0.000
    7  0.000  0.000  0.000  0.000
    8  0.000  0.000  0.000  0.000
    9  0.000  0.000  0.000  0.000
   10  0.000  0.000  0.000  0.000
tot    0.888  0.000  0.000  0.888

band     2 # energy  -20.92307637 # occ.  2.00000000

ion      s      p      d    tot
    1  0.444  0.000  0.000  0.444
    2  0.444  0.000  0.000  0.444
    3  0.000  0.000  0.000  0.000
    4  0.000  0.000  0.000  0.000
    5  0.000  0.000  0.000  0.000
    6  0.000  0.000  0.000  0.000
    7  0.000  0.000  0.000  0.000
    8  0.000  0.000  0.000  0.000
    9  0.000  0.000  0.000  0.000
   10  0.000  0.000  0.000  0.000
tot    0.888  0.000  0.000  0.888

band     3 # energy  -16.40072829 # occ.  2.00000000

ion      s      p      d    tot
    1  0.000  0.000  0.000  0.000
    2  0.000  0.000  0.000  0.000
    3  0.000  0.000  0.465  0.465
    4  0.000  0.000  0.465  0.465
    5  0.008  0.000  0.000  0.008
    6  0.008  0.000  0.000  0.008
    7  0.000  0.000  0.000  0.000
    8  0.000  0.000  0.000  0.000
    9  0.008  0.000  0.000  0.008
   10  0.008  0.000  0.000  0.008
tot    0.031  0.001  0.931  0.963

band     4 # energy  -16.40068419 # occ.  2.00000000

ion      s      p      d    tot
    1  0.000  0.000  0.000  0.000
    2  0.000  0.000  0.000  0.000
    3  0.000  0.000  0.465  0.465
    4  0.000  0.000  0.465  0.465
    5  0.003  0.000  0.000  0.003
    6  0.003  0.000  0.000  0.003
    7  0.010  0.000  0.000  0.011
    8  0.010  0.000  0.000  0.011
    9  0.003  0.000  0.000  0.003
   10  0.003  0.000  0.000  0.003
tot    0.031  0.001  0.931  0.963

band     5 # energy  -16.35280177 # occ.  2.00000000

ion      s      p      d    tot
    1  0.000  0.000  0.000  0.000
    2  0.000  0.000  0.000  0.000
    3  0.000  0.000  0.478  0.478
    4  0.000  0.000  0.478  0.478
    5  0.003  0.000  0.000  0.003
    6  0.003  0.000  0.000  0.003
    7  0.000  0.000  0.000  0.000
    8  0.000  0.000  0.000  0.000
    9  0.003  0.000  0.000  0.003
   10  0.003  0.000  0.000  0.003
tot    0.012  0.002  0.957  0.970

band     6 # energy  -16.35274066 # occ.  2.00000000

ion      s      p      d    tot
    1  0.000  0.000  0.000  0.000
    2  0.000  0.000  0.000  0.000
    3  0.000  0.000  0.478  0.478
    4  0.000  0.000  0.478  0.478
    5  0.001  0.000  0.000  0.001
    6  0.001  0.000  0.000  0.001
    7  0.004  0.001  0.000  0.005
    8  0.004  0.001  0.000  0.005
    9  0.001  0.000  0.000  0.001
   10  0.001  0.000  0.000  0.001
tot    0.012  0.002  0.957  0.970

band     7 # energy  -16.26345067 # occ.  2.00000000

ion      s      p      d    tot
    1  0.000  0.000  0.000  0.000
    2  0.000  0.000  0.000  0.000
    3  0.000  0.000  0.489  0.489
    4  0.000  0.000  0.489  0.489
    5  0.000  0.000  0.000  0.000
    6  0.000  0.000  0.000  0.000
    7  0.000  0.000  0.000  0.000
    8  0.000  0.000  0.000  0.000
    9  0.000  0.000  0.000  0.000
   10  0.000  0.000  0.000  0.000
tot    0.000  0.000  0.977  0.978

band     8 # energy  -16.26271522 # occ.  2.00000000

ion      s      p      d    tot
    1  0.000  0.000  0.000  0.000
    2  0.000  0.000  0.000  0.000
    3  0.000  0.000  0.489  0.489
    4  0.000  0.000  0.489  0.489
    5  0.000  0.000  0.000  0.000
    6  0.000  0.000  0.000  0.000
    7  0.000  0.000  0.000  0.000
    8  0.000  0.000  0.000  0.000
    9  0.000  0.000  0.000  0.000
   10  0.000  0.000  0.000  0.000
tot    0.000  0.000  0.977  0.978

band     9 # energy  -16.24670475 # occ.  2.00000000

ion      s      p      d    tot
    1  0.000  0.000  0.000  0.000
    2  0.000  0.000  0.000  0.000
    3  0.000  0.000  0.489  0.489
    4  0.000  0.000  0.489  0.489