<?xml version="1.0" encoding="ISO-8859-1"?>
<modeling>
 <generator>
  <i name="program" type="string">vasp </i>
  <i name="version" type="string">5.4.4.18Apr17-6-g9f103f2a35  </i>
  <i name="subversion" type="string">(build Jun 22 2020 09:27:21) complex            parallel </i>
  <i name="platform" type="string">tx2_gcc-7.3_libsci-18.07_cray-fftw-3.3.8 </i>
  <i name="date" type="string">2021 09 20 </i>
  <i name="time" type="string">15:17:00 </i>
 </generator>
 <incar>
  <i type="string" name="SYSTEM"> CsPbBr3 cubic bulk</i>
  <i type="string" name="PREC">accurate</i>
  <i type="string" name="ALGO"> NORMAL   ! Electronic minimisation algo</i>
  <i type="logical" name="ADDGRID"> T  </i>
  <i type="int" name="NELM">   200</i>
  <i type="int" name="IBRION">     2</i>
  <i name="EDIFF">      0.00000100</i>
  <i name="EDIFFG">     -0.01000000</i>
  <i type="int" name="NSW">     0</i>
  <i type="int" name="ISIF">     3</i>
  <i type="int" name="ISYM">     2</i>
  <i name="ENCUT">    300.00000000</i>
  <i name="POTIM">      0.50000000</i>
  <i type="string" name="LREAL"> AUTO</i>
  <i type="int" name="ISMEAR">     0</i>
  <i name="SIGMA">      0.01000000</i>
  <i type="logical" name="LWAVE"> F  </i>
  <i type="logical" name="LCHARG"> F  </i>
  <i type="logical" name="LVHAR"> T  </i>
  <i type="int" name="LORBIT">    10</i>
  <i type="logical" name="LASPH"> T  </i>
  <v type="int" name="KPOINT_BSE">    -1     0     0     0</v>
  <i type="int" name="NELM">   200</i>
  <i type="string" name="METAGGA"> SCAN       ! PBE exchange-correlation</i>
  <i type="logical" name="LASPH"> T  </i>
 </incar>
 <structure name="primitive_cell" >
  <crystal>
   <varray name="basis" >
    <v>       5.77830353       5.77830353      -0.18765243 </v>
    <v>       5.96595596       0.00000000      -5.96595596 </v>
    <v>      -0.00000000       5.96595596      -5.96595596 </v>
   </varray>
   <i name="volume">    404.65100183 </i>
   <varray name="rec_basis" >
    <v>       0.08795883       0.08795883       0.08795883 </v>
    <v>       0.08242554      -0.08519219      -0.08519219 </v>
    <v>      -0.08519219       0.08242554      -0.08519219 </v>
   </varray>
  </crystal>
  <varray name="positions" >
   <v>      -0.25000000      -0.25000000      -0.25000000 </v>
   <v>      -0.25000000       0.31286683      -0.25000000 </v>
   <v>      -0.25000000       0.18713317       0.31286683 </v>
   <v>      -0.25000000      -0.25000000       0.18713317 </v>
   <v>       0.25000000      -0.31286683       0.25000000 </v>
   <v>       0.25000000      -0.18713317      -0.31286683 </v>
   <v>       0.25000000       0.25000000      -0.18713317 </v>
   <v>       0.00000000       0.00000000       0.00000000 </v>
   <v>      -0.50000000      -0.50000000      -0.50000000 </v>
   <v>       0.25000000       0.25000000       0.25000000 </v>
  </varray>
 </structure>
 <varray name="primitive_index" >
  <v type="int" >        1 </v>
  <v type="int" >        6 </v>
  <v type="int" >        8 </v>
  <v type="int" >       10 </v>
  <v type="int" >        5 </v>
  <v type="int" >        7 </v>
  <v type="int" >        9 </v>
  <v type="int" >        3 </v>
  <v type="int" >        4 </v>
  <v type="int" >        2 </v>
 </varray>
 <kpoints>
  <generation param="Gamma">
   <v type="int" name="divisions">       3        3        3 </v>
   <v name="usershift">      0.00000000       0.00000000       0.00000000 </v>
   <v name="genvec1">      0.33333333       0.00000000       0.00000000 </v>
   <v name="genvec2">      0.00000000       0.33333333      -0.00000000 </v>
   <v name="genvec3">      0.00000000      -0.00000000       0.33333333 </v>
   <v name="shift">      0.00000000       0.00000000       0.00000000 </v>
  </generation>
  <varray name="kpointlist" >
   <v>       0.00000000       0.00000000       0.00000000 </v>
   <v>       0.33333333       0.00000000       0.00000000 </v>
   <v>       0.00000000       0.33333333       0.00000000 </v>
   <v>       0.33333333       0.33333333       0.00000000 </v>
   <v>      -0.33333333       0.33333333       0.00000000 </v>
   <v>       0.00000000      -0.33333333       0.33333333 </v>
  </varray>
  <varray name="weights" >
   <v>       0.03703704 </v>
   <v>       0.07407407 </v>
   <v>       0.22222222 </v>
   <v>       0.22222222 </v>
   <v>       0.22222222 </v>
   <v>       0.22222222 </v>
  </varray>
 </kpoints>
 <parameters>
  <separator name="general" >
   <i type="string" name="SYSTEM">CsPbBr3 cubic bulk</i>
   <i type="logical" name="LCOMPAT"> F  </i>
  </separator>
  <separator name="electronic" >
   <i type="string" name="PREC">accura</i>
   <i name="ENMAX">    300.00000000</i>
   <i name="ENAUG">    503.85200000</i>
   <i name="EDIFF">      0.00000100</i>
   <i type="int" name="IALGO">    38</i>
   <i type="int" name="IWAVPR">    10</i>
   <i type="int" name="NBANDS">    56</i>
   <i name="NELECT">     88.00000000</i>
   <i type="int" name="TURBO">     0</i>
   <i type="int" name="IRESTART">     0</i>
   <i type="int" name="NREBOOT">     0</i>
   <i type="int" name="NMIN">     0</i>
   <i name="EREF">      0.00000000</i>
   <separator name="electronic smearing" >
    <i type="int" name="ISMEAR">     0</i>
    <i name="SIGMA">      0.01000000</i>
    <i name="KSPACING">      0.50000000</i>
    <i type="logical" name="KGAMMA"> T  </i>
   </separator>
   <separator name="electronic projectors" >
    <i type="logical" name="LREAL"> T  </i>
    <v name="ROPT">     -0.00025000     -0.00025000     -0.00025000</v>
    <i type="int" name="LMAXPAW">  -100</i>
    <i type="int" name="LMAXMIX">     2</i>
    <i type="logical" name="NLSPLINE"> F  </i>
   </separator>
   <separator name="electronic startup" >
    <i type="int" name="ISTART">     0</i>
    <i type="int" name="ICHARG">     2</i>
    <i type="int" name="INIWAV">     1</i>
   </separator>
   <separator name="electronic spin" >
    <i type="int" name="ISPIN">     1</i>
    <i type="logical" name="LNONCOLLINEAR"> F  </i>
    <v name="MAGMOM">      1.00000000      1.00000000      1.00000000      1.00000000      1.00000000      1.00000000      1.00000000      1.00000000      1.00000000      1.00000000</v>
    <i name="NUPDOWN">     -1.00000000</i>
    <i type="logical" name="LSORBIT"> F  </i>
    <v name="SAXIS">      0.00000000      0.00000000      1.00000000</v>
    <i type="logical" name="LSPIRAL"> F  </i>
    <v name="QSPIRAL">      0.00000000      0.00000000      0.00000000</v>
    <i type="logical" name="LZEROZ"> F  </i>
   </separator>
   <separator name="electronic exchange-correlation" >
    <i type="logical" name="LASPH"> T  </i>
    <i type="logical" name="LMETAGGA"> F  </i>
   </separator>
   <separator name="electronic convergence" >
    <i type="int" name="NELM">   200</i>
    <i type="int" name="NELMDL">     0</i>
    <i type="int" name="NELMIN">     2</i>
    <i name="ENINI">    300.00000000</i>
    <separator name="electronic convergence detail" >
     <i type="logical" name="LDIAG"> T  </i>
     <i type="logical" name="LSUBROT"> F  </i>
     <i name="WEIMIN">      0.00000000</i>
     <i name="EBREAK">      0.00000000</i>
     <i name="DEPER">      0.30000000</i>
     <i type="int" name="NRMM">     4</i>
     <i name="TIME">      0.40000000</i>
    </separator>
   </separator>
   <separator name="electronic mixer" >
    <i name="AMIX">      0.40000000</i>
    <i name="BMIX">      1.00000000</i>
    <i name="AMIN">      0.10000000</i>
    <i name="AMIX_MAG">      1.60000000</i>
    <i name="BMIX_MAG">      1.00000000</i>
    <separator name="electronic mixer details" >
     <i type="int" name="IMIX">     4</i>
     <i type="logical" name="MIXFIRST"> F  </i>
     <i type="int" name="MAXMIX">   -45</i>
     <i name="WC">    100.00000000</i>
     <i type="int" name="INIMIX">     1</i>
     <i type="int" name="MIXPRE">     1</i>
     <i type="int" name="MREMOVE">     5</i>
    </separator>
   </separator>
   <separator name="electronic dipolcorrection" >
    <i type="logical" name="LDIPOL"> F  </i>
    <i type="logical" name="LMONO"> F  </i>
    <i type="int" name="IDIPOL">     0</i>
    <i name="EPSILON">      1.00000000</i>
    <v name="DIPOL">   -100.00000000   -100.00000000   -100.00000000</v>
    <i name="EFIELD">      0.00000000</i>
   </separator>
  </separator>
  <separator name="grids" >
   <i type="int" name="NGX">    48</i>
   <i type="int" name="NGY">    48</i>
   <i type="int" name="NGZ">    48</i>
   <i type="int" name="NGXF">    96</i>
   <i type="int" name="NGYF">    96</i>
   <i type="int" name="NGZF">    96</i>
   <i type="logical" name="ADDGRID"> T  </i>
  </separator>
  <separator name="ionic" >
   <i type="int" name="NSW">     0</i>
   <i type="int" name="IBRION">    -1</i>
   <i type="int" name="MDALGO">     0</i>
   <i type="int" name="ISIF">     3</i>
   <i name="PSTRESS">      0.00000000</i>
   <i name="EDIFFG">     -0.01000000</i>
   <i type="int" name="NFREE">     1</i>
   <i name="POTIM">      0.50000000</i>
   <i name="SMASS">     -3.00000000</i>
   <i name="SCALEE">      1.00000000</i>
  </separator>
  <separator name="ionic md" >
   <i name="TEBEG">      0.00010000</i>
   <i name="TEEND">      0.00010000</i>
   <i type="int" name="NBLOCK">     1</i>
   <i type="int" name="KBLOCK">     1</i>
   <i type="int" name="NPACO">   256</i>
   <i name="APACO">     16.00000000</i>
  </separator>
  <separator name="symmetry" >
   <i type="int" name="ISYM">     2</i>
   <i name="SYMPREC">      0.00001000</i>
  </separator>
  <separator name="dos" >
   <i type="int" name="LORBIT">    10</i>
   <v name="RWIGS">     -1.00000000     -1.00000000     -1.00000000</v>
   <i type="int" name="NEDOS">   301</i>
   <i name="EMIN">     10.00000000</i>
   <i name="EMAX">    -10.00000000</i>
   <i name="EFERMI">      0.00000000</i>
  </separator>
  <separator name="writing" >
   <i type="int" name="NWRITE">     2</i>
   <i type="logical" name="LWAVE"> F  </i>
   <i type="logical" name="LDOWNSAMPLE"> F  </i>
   <i type="logical" name="LCHARG"> F  </i>
   <i type="logical" name="LPARD"> F  </i>
   <i type="logical" name="LVTOT"> F  </i>
   <i type="logical" name="LVHAR"> T  </i>
   <i type="logical" name="LELF"> F  </i>
   <i type="logical" name="LOPTICS"> F  </i>
   <v name="STM">      0.00000000      0.00000000      0.00000000      0.00000000      0.00000000      0.00000000      0.00000000</v>
  </separator>
  <separator name="performance" >
   <i type="int" name="NPAR">     8</i>
   <i type="int" name="NSIM">     4</i>
   <i type="int" name="NBLK">    -1</i>
   <i type="logical" name="LPLANE"> T  </i>
   <i type="logical" name="LSCALAPACK"> T  </i>
   <i type="logical" name="LSCAAWARE"> F  </i>
   <i type="logical" name="LSCALU"> F  </i>
   <i type="logical" name="LASYNC"> F  </i>
   <i type="logical" name="LORBITALREAL"> F  </i>
  </separator>
  <separator name="miscellaneous" >
   <i type="int" name="IDIOT">     3</i>
   <i type="int" name="ISPECIAL">     0</i>
   <i type="logical" name="LMUSIC"> F  </i>
   <v name="POMASS">    132.90000000    207.20000000     79.90400000</v>
   <v name="DARWINR">      0.00000000      0.00000000      0.00000000</v>
   <v name="DARWINV">      1.00000000      1.00000000      1.00000000</v>
   <i type="logical" name="LCORR"> T  </i>
  </separator>
  <i type="logical" name="GGA_COMPAT"> T  </i>
  <i type="logical" name="LBERRY"> F  </i>
  <i type="int" name="ICORELEVEL">     0</i>
  <i type="logical" name="LDAU"> F  </i>
  <i type="int" name="I_CONSTRAINED_M">     0</i>
  <separator name="electronic exchange-correlation" >
   <i type="string" name="GGA">--</i>
   <i type="int" name="VOSKOWN">     0</i>
   <i type="logical" name="LHFCALC"> F  </i>
   <i type="string" name="PRECFOCK"></i>
   <i type="logical" name="LSYMGRAD"> F  </i>
   <i type="logical" name="LHFONE"> F  </i>
   <i type="logical" name="LRHFCALC"> F  </i>
   <i type="logical" name="LTHOMAS"> F  </i>
   <i type="logical" name="LMODELHF"> F  </i>
   <i name="ENCUT4O">     -1.00000000</i>
   <i type="int" name="EXXOEP">     0</i>
   <i type="int" name="FOURORBIT">     0</i>
   <i name="AEXX">      0.00000000</i>
   <i name="HFALPHA">      0.00000000</i>
   <i name="MCALPHA">      0.00000000</i>
   <i name="ALDAX">      1.00000000</i>
   <i name="AGGAX">      1.00000000</i>
   <i name="ALDAC">      1.00000000</i>
   <i name="AGGAC">      1.00000000</i>
   <i type="int" name="NKREDX">     1</i>
   <i type="int" name="NKREDY">     1</i>
   <i type="int" name="NKREDZ">     1</i>
   <i type="logical" name="SHIFTRED"> F  </i>
   <i type="logical" name="ODDONLY"> F  </i>
   <i type="logical" name="EVENONLY"> F  </i>
   <i type="int" name="LMAXFOCK">     0</i>
   <i type="int" name="NMAXFOCKAE">     0</i>
   <i type="logical" name="LFOCKAEDFT"> F  </i>
   <i name="HFSCREEN">      0.00000000</i>
   <i name="HFSCREENC">      0.00000000</i>
   <i type="int" name="NBANDSGWLOW">     0</i>
  </separator>
  <separator name="vdW DFT" >
   <i type="logical" name="LUSE_VDW"> F  </i>
   <i name="Zab_VDW">     -0.84910000</i>
   <i name="PARAM1">      0.12340000</i>
   <i name="PARAM2">      1.00000000</i>
   <i name="PARAM3">      0.00000000</i>
  </separator>
  <separator name="model GW" >
   <i type="int" name="MODEL_GW">     0</i>
   <i name="MODEL_EPS0">     24.27906011</i>
   <i name="MODEL_ALPHA">      1.00000000</i>
  </separator>
  <separator name="linear response parameters" >
   <i type="logical" name="LEPSILON"> F  </i>
   <i type="logical" name="LRPA"> F  </i>
   <i type="logical" name="LNABLA"> F  </i>
   <i type="logical" name="LVEL"> F  </i>
   <i type="int" name="KINTER">     0</i>
   <i name="CSHIFT">      0.10000000</i>
   <i name="OMEGAMAX">     -1.00000000</i>
   <i name="DEG_THRESHOLD">      0.00200000</i>
   <i name="RTIME">     -0.10000000</i>
   <i name="WPLASMAI">      0.00000000</i>
   <v name="DFIELD">      0.00000000      0.00000000      0.00000000</v>
   <v name="WPLASMA">      0.00000000      0.00000000      0.00000000      0.00000000      0.00000000      0.00000000      0.00000000      0.00000000      0.00000000</v>
  </separator>
  <separator name="orbital magnetization" >
   <i type="logical" name="NUCIND"> F  </i>
   <v name="MAGPOS">      0.00000000      0.00000000      0.00000000</v>
   <i type="logical" name="LNICSALL"> T  </i>
   <i type="logical" name="ORBITALMAG"> F  </i>
   <i type="logical" name="LMAGBLOCH"> F  </i>
   <i type="logical" name="LCHIMAG"> F  </i>
   <i type="logical" name="LGAUGE"> T  </i>
   <i type="int" name="MAGATOM">     0</i>
   <v name="MAGDIPOL">      0.00000000      0.00000000      0.00000000</v>
   <v name="AVECCONST">      0.00000000      0.00000000      0.00000000</v>
  </separator>
  <separator name="response functions" >
   <i type="logical" name="LADDER"> F  </i>
   <i type="logical" name="LRPAFORCE"> F  </i>
   <i type="logical" name="LFXC"> F  </i>
   <i type="logical" name="LHARTREE"> T  </i>
   <i type="int" name="IBSE">     0</i>
   <v type="int" name="KPOINT">    -1     0     0     0</v>
   <i type="logical" name="LTCTE"> F  </i>
   <i type="logical" name="LTETE"> F  </i>
   <i type="logical" name="LTRIPLET"> F  </i>
   <i type="logical" name="LFXCEPS"> F  </i>
   <i type="logical" name="LFXHEG"> F  </i>
   <i type="int" name="NATURALO">     2</i>
   <i type="logical" name="L2ORDER"> F  </i>
   <i type="logical" name="LMP2LT"> F  </i>
   <i type="logical" name="LUSEW"> F  </i>
   <i name="ENCUTGW">     -2.00000000</i>
   <i name="ENCUTGWSOFT">     -2.00000000</i>
   <i name="ENCUTLF">     -1.00000000</i>
   <i type="int" name="LMAXMP2">    -1</i>
   <i name="SCISSOR">      0.00000000</i>
   <i type="int" name="NOMEGA">     0</i>
   <i type="int" name="NOMEGAR">     0</i>
   <i type="int" name="NBANDSGW">    -1</i>
   <i type="int" name="NBANDSO">    -1</i>
   <i type="int" name="NBANDSV">    -1</i>
   <i type="int" name="NELM">   200</i>
   <i type="int" name="NELMHF">     1</i>
   <i type="int" name="DIM">     3</i>
   <i type="int" name="ANTIRES">     0</i>
   <i name="OMEGAMAX">    -30.00000000</i>
   <i name="OMEGAMIN">    -30.00000000</i>
   <i name="OMEGATL">   -200.00000000</i>
   <i type="int" name="OMEGAGRID">   140</i>
   <i name="CSHIFT">     -0.10000000</i>
   <i type="logical" name="SELFENERGY"> F  </i>
   <i type="logical" name="LSPECTRAL"> F  </i>
   <i type="logical" name="LSPECTRALGW"> F  </i>
   <i type="logical" name="LSINGLES"> F  </i>
   <i type="logical" name="LFERMIGW"> F  </i>
   <i type="logical" name="ODDONLYGW"> F  </i>
   <i type="logical" name="EVENONLYGW"> F  </i>
   <i type="int" name="NKREDLFX">     1</i>
   <i type="int" name="NKREDLFY">     1</i>
   <i type="int" name="NKREDLFZ">     1</i>
   <i type="int" name="MAXMEM">  2800</i>
   <i type="int" name="TELESCOPE">     0</i>
   <i type="int" name="TAUPAR">     1</i>
   <i type="int" name="OMEGAPAR">    -1</i>
   <i name="LAMBDA">      1.00000000</i>
  </separator>
  <separator name="External order field" >
   <i name="OFIELD_KAPPA">      0.00000000</i>
   <v name="OFIELD_K">      0.00000000      0.00000000      0.00000000</v>
   <i name="OFIELD_Q6_NEAR">      0.00000000</i>
   <i name="OFIELD_Q6_FAR">      0.00000000</i>
   <i name="OFIELD_A">      0.00000000</i>
  </separator>
 </parameters>
 <atominfo>
  <atoms>      10 </atoms>
  <types>       3 </types>
  <array name="atoms" >
   <dimension dim="1">ion</dimension>
   <field type="string">element</field>
   <field type="int">atomtype</field>
   <set>
    <rc><c>Cs</c><c>   1</c></rc>
    <rc><c>Cs</c><c>   1</c></rc>
    <rc><c>Pb</c><c>   2</c></rc>
    <rc><c>Pb</c><c>   2</c></rc>
    <rc><c>Br</c><c>   3</c></rc>
    <rc><c>Br</c><c>   3</c></rc>
    <rc><c>Br</c><c>   3</c></rc>
    <rc><c>Br</c><c>   3</c></rc>
    <rc><c>Br</c><c>   3</c></rc>
    <rc><c>Br</c><c>   3</c></rc>
   </set>
  </array>
  <array name="atomtypes" >
   <dimension dim="1">type</dimension>
   <field type="int">atomspertype</field>
   <field type="string">element</field>
   <field>mass</field>
   <field>valence</field>
   <field type="string">pseudopotential</field>
   <set>
    <rc><c>   2</c><c>Cs</c><c>    132.90000000</c><c>      9.00000000</c><c>  PAW_PBE Cs_sv 08Apr2002               </c></rc>
    <rc><c>   2</c><c>Pb</c><c>    207.20000000</c><c>     14.00000000</c><c>  PAW_PBE Pb_d 06Sep2000                </c></rc>
    <rc><c>   6</c><c>Br</c><c>     79.90400000</c><c>      7.00000000</c><c>  PAW_PBE Br 06Sep2000                  </c></rc>
   </set>
  </array>
 </atominfo>
 <structure name="initialpos" >
  <crystal>
   <varray name="basis" >
    <v>       5.77830353       5.77830353      -0.18765243 </v>
    <v>       5.96595596       0.00000000      -5.96595596 </v>
    <v>      -0.00000000       5.96595596      -5.96595596 </v>
   </varray>
   <i name="volume">    404.65100183 </i>
   <varray name="rec_basis" >
    <v>       0.08795883       0.08795883       0.08795883 </v>
    <v>       0.08242554      -0.08519219      -0.08519219 </v>
    <v>      -0.08519219       0.08242554      -0.08519219 </v>
   </varray>
  </crystal>
  <varray name="positions" >
   <v>       0.75000000       0.75000000       0.75000000 </v>
   <v>       0.25000000       0.25000000       0.25000000 </v>
   <v>       0.00000000       0.00000000       0.00000000 </v>
   <v>       0.50000000       0.50000000       0.50000000 </v>
   <v>       0.25000000       0.68713317       0.25000000 </v>
   <v>       0.75000000       0.31286683       0.75000000 </v>
   <v>       0.25000000       0.81286683       0.68713317 </v>
   <v>       0.75000000       0.18713317       0.31286683 </v>
   <v>       0.25000000       0.25000000       0.81286683 </v>
   <v>       0.75000000       0.75000000       0.18713317 </v>
  </varray>
 </structure>
 <calculation>
  <scstep>
   <time name="dav">    0.98    0.99</time>
   <time name="total">    2.21    2.24</time>
   <energy>
    <i name="alphaZ">    222.91365407 </i>
    <i name="ewald">  -4592.34199623 </i>
    <i name="hartreedc">  -1844.17015134 </i>
    <i name="XCdc">    231.00236428 </i>
    <i name="pawpsdc">   5408.49043633 </i>
    <i name="pawaedc">  -5676.98046350 </i>
    <i name="eentropy">     -0.00000000 </i>
    <i name="bandstr">    -64.07291649 </i>
    <i name="atom">   6645.14004964 </i>
    <i name="e_fr_energy">    329.98097675 </i>
    <i name="e_wo_entrp">    329.98097675 </i>
    <i name="e_0_energy">    329.98097675 </i>
   </energy>
  </scstep>
  <scstep>
   <time name="dav">    1.17    1.18</time>
   <time name="total">    1.17    1.18</time>
   <energy>
    <i name="e_fr_energy">   -299.06179809 </i>
    <i name="e_wo_entrp">   -299.06179809 </i>
    <i name="e_0_energy">   -299.06179809 </i>
   </energy>
  </scstep>
  <scstep>
   <time name="dav">    1.10    1.12</time>
   <time name="total">    1.10    1.12</time>
   <energy>
    <i name="e_fr_energy">   -373.97606686 </i>
    <i name="e_wo_entrp">   -373.97606686 </i>
    <i name="e_0_energy">   -373.97606686 </i>
   </energy>
  </scstep>
  <scstep>
   <time name="dav">    1.20    1.21</time>
   <time name="total">    1.20    1.21</time>
   <energy>
    <i name="e_fr_energy">   -377.13436173 </i>
    <i name="e_wo_entrp">   -377.13436173 </i>
    <i name="e_0_energy">   -377.13436173 </i>
   </energy>
  </scstep>
  <scstep>
   <time name="dav">    1.12    1.13</time>
   <time name="total">    1.44    1.46</time>
   <energy>
    <i name="e_fr_energy">   -377.24431561 </i>
    <i name="e_wo_entrp">   -377.24431561 </i>
    <i name="e_0_energy">   -377.24431561 </i>
   </energy>
  </scstep>
  <scstep>
   <time name="dav">    1.09    1.09</time>
   <time name="total">    2.63    2.66</time>
   <energy>
    <i name="e_fr_energy">   -357.45624659 </i>
    <i name="e_wo_entrp">   -357.45624659 </i>
    <i name="e_0_energy">   -357.45624659 </i>
   </energy>
  </scstep>
  <scstep>
   <time name="dav">    1.11    1.11</time>
   <time name="total">    2.66    2.68</time>
   <energy>
    <i name="e_fr_energy">   -357.33756761 </i>
    <i name="e_wo_entrp">   -357.33756761 </i>
    <i name="e_0_energy">   -357.33756761 </i>
   </energy>
  </scstep>
  <scstep>
   <time name="dav">    1.07    1.07</time>
   <time name="total">    2.60    2.63</time>
   <energy>
    <i name="e_fr_energy">   -357.38040330 </i>
    <i name="e_wo_entrp">   -357.38040330 </i>
    <i name="e_0_energy">   -357.38040330 </i>
   </energy>
  </scstep>
  <scstep>
   <time name="dav">    0.99    0.99</time>
   <time name="total">    2.57    2.57</time>
   <energy>
    <i name="e_fr_energy">   -357.40116729 </i>
    <i name="e_wo_entrp">   -357.40116729 </i>
    <i name="e_0_energy">   -357.40116729 </i>
   </energy>
  </scstep>
  <scstep>
   <time name="dav">    1.20    1.20</time>
   <time name="total">    2.75    2.78</time>
   <energy>
    <i name="e_fr_energy">   -357.40147829 </i>
    <i name="e_wo_entrp">   -357.40147829 </i>
    <i name="e_0_energy">   -357.40147829 </i>
   </energy>
  </scstep>
  <scstep>
   <time name="dav">    1.03    1.03</time>
   <time name="total">    2.61    2.62</time>
   <energy>
    <i name="e_fr_energy">   -357.40246562 </i>
    <i name="e_wo_entrp">   -357.40246562 </i>
    <i name="e_0_energy">   -357.40246562 </i>
   </energy>
  </scstep>
  <scstep>
   <time name="dav">    1.12    1.12</time>
   <time name="total">    2.70    2.72</time>
   <energy>
    <i name="e_fr_energy">   -357.40226856 </i>
    <i name="e_wo_entrp">   -357.40226856 </i>
    <i name="e_0_energy">   -357.40226856 </i>
   </energy>
  </scstep>
  <scstep>
   <time name="dav">    1.08    1.08</time>
   <time name="total">    2.63    2.65</time>
   <energy>
    <i name="e_fr_energy">   -357.40225216 </i>
    <i name="e_wo_entrp">   -357.40225216 </i>
    <i name="e_0_energy">   -357.40225216 </i>
   </energy>
  </scstep>
  <scstep>
   <time name="dav">    0.83    0.83</time>
   <time name="total">    2.36    2.41</time>
   <energy>
    <i name="e_fr_energy">   -357.40226185 </i>
    <i name="e_wo_entrp">   -357.40226185 </i>
    <i name="e_0_energy">   -357.40226185 </i>
   </energy>
  </scstep>
  <scstep>
   <time name="dav">    0.76    0.76</time>
   <time name="total">    2.30    2.36</time>
   <energy>
    <i name="e_fr_energy">   -357.40226674 </i>
    <i name="e_wo_entrp">   -357.40226674 </i>
    <i name="e_0_energy">   -357.40226674 </i>
   </energy>
  </scstep>
  <scstep>
   <time name="dav">    0.77    0.77</time>
   <time name="total">    2.01    2.06</time>
   <energy>
    <i name="alphaZ">    222.91365407 </i>
    <i name="ewald">  -4592.34199623 </i>
    <i name="hartreedc">  -1851.89464583 </i>
    <i name="XCdc">    240.69002764 </i>
    <i name="pawpsdc">   5783.94634153 </i>
    <i name="pawaedc">  -6052.11532851 </i>
    <i name="eentropy">     -0.00000000 </i>
    <i name="bandstr">   -753.74036953 </i>
    <i name="atom">   6645.14004964 </i>
    <i name="e_fr_energy">   -357.40226722 </i>
    <i name="e_wo_entrp">   -357.40226722 </i>
    <i name="e_0_energy">   -357.40226722 </i>
   </energy>
  </scstep>
  <structure>
   <crystal>
    <varray name="basis" >
     <v>       5.77830353       5.77830353      -0.18765243 </v>
     <v>       5.96595596       0.00000000      -5.96595596 </v>
     <v>      -0.00000000       5.96595596      -5.96595596 </v>
    </varray>
    <i name="volume">    404.65100183 </i>
    <varray name="rec_basis" >
     <v>       0.08795883       0.08795883       0.08795883 </v>
     <v>       0.08242554      -0.08519219      -0.08519219 </v>
     <v>      -0.08519219       0.08242554      -0.08519219 </v>
    </varray>
   </crystal>
   <varray name="positions" >
    <v>       0.75000000       0.75000000       0.75000000 </v>
    <v>       0.25000000       0.25000000       0.25000000 </v>
    <v>       0.00000000       0.00000000       0.00000000 </v>
    <v>       0.50000000       0.50000000       0.50000000 </v>
    <v>       0.25000000       0.68713317       0.25000000 </v>
    <v>       0.75000000       0.31286683       0.75000000 </v>
    <v>       0.25000000       0.81286683       0.68713317 </v>
    <v>       0.75000000       0.18713317       0.31286683 </v>
    <v>       0.25000000       0.25000000       0.81286683 </v>
    <v>       0.75000000       0.75000000       0.18713317 </v>
   </varray>
  </structure>
  <varray name="forces" >
   <v>       0.00000000       0.00000000       0.00000000 </v>
   <v>       0.00000000       0.00000000       0.00000000 </v>
   <v>       0.00000000       0.00000000      -0.00000000 </v>
   <v>       0.00000000      -0.00000000       0.00000000 </v>
   <v>      -0.00303666      -0.00000000       0.00303666 </v>
   <v>       0.00303666       0.00000000      -0.00303666 </v>
   <v>       0.00303666      -0.00303666       0.00000000 </v>
   <v>      -0.00303666       0.00303666       0.00000000 </v>
   <v>      -0.00000000       0.00303666      -0.00303666 </v>
   <v>       0.00000000      -0.00303666       0.00303666 </v>
  </varray>
  <varray name="stress" >
   <v>      -1.74525307       0.31607398       0.31607398 </v>
   <v>       0.31607398      -1.74525307       0.31607398 </v>
   <v>       0.31607398       0.31607398      -1.74525307 </v>
  </varray>
  <energy>
   <i name="e_fr_energy">   -357.40226722 </i>
   <i name="e_wo_entrp">   -357.40226722 </i>
   <i name="e_0_energy">     -0.00000000 </i>
  </energy>
  <time name="totalsc">   40.90   41.30</time>
  <eigenvalues>
   <array>
    <dimension dim="1">band</dimension>
    <dimension dim="2">kpoint</dimension>
    <dimension dim="3">spin</dimension>
    <field>eigene</field>
    <field>occ</field>
    <set>
     <set comment="spin 1">
      <set comment="kpoint 1">
       <r>  -20.9262    1.0000 </r>
       <r>  -20.9223    1.0000 </r>
       <r>  -16.4236    1.0000 </r>
       <r>  -16.4235    1.0000 </r>
       <r>  -16.3272    1.0000 </r>
       <r>  -16.3271    1.0000 </r>
       <r>  -16.2639    1.0000 </r>
       <r>  -16.2627    1.0000 </r>
       <r>  -16.2471    1.0000 </r>
       <r>  -16.2469    1.0000 </r>
       <r>  -16.2456    1.0000 </r>
       <r>  -16.2455    1.0000 </r>
       <r>  -14.3613    1.0000 </r>
       <r>  -14.0285    1.0000 </r>
       <r>  -14.0285    1.0000 </r>
       <r>  -13.9676    1.0000 </r>
       <r>  -13.7209    1.0000 </r>
       <r>  -13.7209    1.0000 </r>
       <r>   -8.1982    1.0000 </r>
       <r>   -7.3500    1.0000 </r>
       <r>   -7.3282    1.0000 </r>
       <r>   -7.3281    1.0000 </r>
       <r>   -7.3134    1.0000 </r>
       <r>   -7.2951    1.0000 </r>
       <r>   -7.2950    1.0000 </r>
       <r>   -6.4587    1.0000 </r>
       <r>   -3.3827    1.0000 </r>
       <r>   -3.3827    1.0000 </r>
       <r>   -3.1802    1.0000 </r>
       <r>   -1.9300    1.0000 </r>
       <r>   -1.9299    1.0000 </r>
       <r>   -1.8939    1.0000 </r>
       <r>   -1.5486    1.0000 </r>
       <r>   -1.4381    1.0000 </r>
       <r>   -1.4380    1.0000 </r>
       <r>   -1.2872    1.0000 </r>
       <r>   -1.2871    1.0000 </r>
       <r>   -1.1735    1.0000 </r>
       <r>   -1.1734    1.0000 </r>
       <r>   -1.0350    1.0000 </r>
       <r>   -0.8995    1.0000 </r>
       <r>   -0.8995    1.0000 </r>
       <r>   -0.8488    1.0000 </r>
       <r>    0.5743    1.0000 </r>
       <r>    2.7151    0.0000 </r>
       <r>    2.8321    0.0000 </r>
       <r>    2.8323    0.0000 </r>
       <r>    4.7123    0.0000 </r>
       <r>    5.8356    0.0000 </r>
       <r>    5.8357    0.0000 </r>
       <r>    6.2023    0.0000 </r>
       <r>    6.4698    0.0000 </r>
       <r>    6.5489    0.0000 </r>
       <r>    6.5490    0.0000 </r>
       <r>    6.6377    0.0000 </r>
       <r>    6.6890    0.0000 </r>
      </set>
      <set comment="kpoint 2">
       <r>  -20.9248    1.0000 </r>
       <r>  -20.9231    1.0000 </r>
       <r>  -16.4007    1.0000 </r>
       <r>  -16.4007    1.0000 </r>
       <r>  -16.3528    1.0000 </r>
       <r>  -16.3527    1.0000 </r>
       <r>  -16.2635    1.0000 </r>
       <r>  -16.2627    1.0000 </r>
       <r>  -16.2467    1.0000 </r>
       <r>  -16.2466    1.0000 </r>
       <r>  -16.2457    1.0000 </r>
       <r>  -16.2456    1.0000 </r>
       <r>  -14.2737    1.0000 </r>
       <r>  -14.0779    1.0000 </r>
       <r>  -13.9525    1.0000 </r>
       <r>  -13.9525    1.0000 </r>
       <r>  -13.7989    1.0000 </r>
       <r>  -13.7989    1.0000 </r>
       <r>   -7.8442    1.0000 </r>
       <r>   -7.3123    1.0000 </r>
       <r>   -7.3119    1.0000 </r>
       <r>   -7.3118    1.0000 </r>
       <r>   -7.2964    1.0000 </r>
       <r>   -7.2940    1.0000 </r>
       <r>   -7.2939    1.0000 </r>
       <r>   -7.0093    1.0000 </r>
       <r>   -3.0094    1.0000 </r>
       <r>   -3.0094    1.0000 </r>
       <r>   -2.5438    1.0000 </r>
       <r>   -2.0902    1.0000 </r>
       <r>   -2.0902    1.0000 </r>
       <r>   -1.9513    1.0000 </r>
       <r>   -1.7536    1.0000 </r>
       <r>   -1.7536    1.0000 </r>
       <r>   -1.4828    1.0000 </r>
       <r>   -1.3693    1.0000 </r>
       <r>   -1.3692    1.0000 </r>
       <r>   -1.3353    1.0000 </r>
       <r>   -1.2216    1.0000 </r>
       <r>   -1.2215    1.0000 </r>
       <r>   -1.1060    1.0000 </r>
       <r>   -1.1059    1.0000 </r>
       <r>   -0.8615    1.0000 </r>
       <r>   -0.3577    1.0000 </r>
       <r>    3.7856    0.0000 </r>
       <r>    3.8477    0.0000 </r>
       <r>    3.8478    0.0000 </r>
       <r>    5.0685    0.0000 </r>
       <r>    5.6761    0.0000 </r>
       <r>    5.6763    0.0000 </r>
       <r>    5.9658    0.0000 </r>
       <r>    6.2376    0.0000 </r>
       <r>    6.2377    0.0000 </r>
       <r>    6.6455    0.0000 </r>
       <r>    6.6891    0.0000 </r>
       <r>    6.6892    0.0000 </r>
      </set>
      <set comment="kpoint 3">
       <r>  -20.9250    1.0000 </r>
       <r>  -20.9231    1.0000 </r>
       <r>  -16.4009    1.0000 </r>
       <r>  -16.4007    1.0000 </r>
       <r>  -16.3527    1.0000 </r>
       <r>  -16.3525    1.0000 </r>
       <r>  -16.2635    1.0000 </r>
       <r>  -16.2629    1.0000 </r>
       <r>  -16.2468    1.0000 </r>
       <r>  -16.2467    1.0000 </r>
       <r>  -16.2459    1.0000 </r>
       <r>  -16.2457    1.0000 </r>
       <r>  -14.2869    1.0000 </r>
       <r>  -14.1190    1.0000 </r>
       <r>  -13.9502    1.0000 </r>
       <r>  -13.9103    1.0000 </r>
       <r>  -13.7963    1.0000 </r>
       <r>  -13.7844    1.0000 </r>
       <r>   -7.8594    1.0000 </r>
       <r>   -7.3322    1.0000 </r>
       <r>   -7.3288    1.0000 </r>
       <r>   -7.3039    1.0000 </r>
       <r>   -7.3004    1.0000 </r>
       <r>   -7.2876    1.0000 </r>
       <r>   -7.2813    1.0000 </r>
       <r>   -7.0250    1.0000 </r>
       <r>   -3.0204    1.0000 </r>
       <r>   -2.9004    1.0000 </r>
       <r>   -2.6576    1.0000 </r>
       <r>   -2.1404    1.0000 </r>
       <r>   -2.1203    1.0000 </r>
       <r>   -2.0433    1.0000 </r>
       <r>   -1.7598    1.0000 </r>
       <r>   -1.7504    1.0000 </r>
       <r>   -1.4876    1.0000 </r>
       <r>   -1.4564    1.0000 </r>
       <r>   -1.3423    1.0000 </r>
       <r>   -1.2349    1.0000 </r>
       <r>   -1.1783    1.0000 </r>
       <r>   -1.0582    1.0000 </r>
       <r>   -1.0109    1.0000 </r>
       <r>   -0.9544    1.0000 </r>
       <r>   -0.8714    1.0000 </r>
       <r>   -0.4254    1.0000 </r>
       <r>    3.5831    0.0000 </r>
       <r>    3.8122    0.0000 </r>
       <r>    3.9693    0.0000 </r>
       <r>    5.1194    0.0000 </r>
       <r>    5.4084    0.0000 </r>
       <r>    5.6248    0.0000 </r>
       <r>    5.9294    0.0000 </r>
       <r>    6.1725    0.0000 </r>
       <r>    6.2884    0.0000 </r>
       <r>    6.5424    0.0000 </r>
       <r>    6.7538    0.0000 </r>
       <r>    6.8806    0.0000 </r>
      </set>
      <set comment="kpoint 4">
       <r>  -20.9250    1.0000 </r>
       <r>  -20.9231    1.0000 </r>
       <r>  -16.4232    1.0000 </r>
       <r>  -16.3785    1.0000 </r>
       <r>  -16.3782    1.0000 </r>
       <r>  -16.3270    1.0000 </r>
       <r>  -16.2634    1.0000 </r>
       <r>  -16.2628    1.0000 </r>
       <r>  -16.2471    1.0000 </r>
       <r>  -16.2464    1.0000 </r>
       <r>  -16.2461    1.0000 </r>
       <r>  -16.2455    1.0000 </r>
       <r>  -14.2530    1.0000 </r>
       <r>  -14.0326    1.0000 </r>
       <r>  -13.9990    1.0000 </r>
       <r>  -13.9546    1.0000 </r>
       <r>  -13.9058    1.0000 </r>
       <r>  -13.7142    1.0000 </r>
       <r>   -7.8269    1.0000 </r>
       <r>   -7.3242    1.0000 </r>
       <r>   -7.3139    1.0000 </r>
       <r>   -7.2999    1.0000 </r>
       <r>   -7.2984    1.0000 </r>
       <r>   -7.2851    1.0000 </r>
       <r>   -7.2816    1.0000 </r>
       <r>   -6.9694    1.0000 </r>
       <r>   -3.3198    1.0000 </r>
       <r>   -3.1923    1.0000 </r>
       <r>   -2.7052    1.0000 </r>
       <r>   -2.1434    1.0000 </r>
       <r>   -2.0882    1.0000 </r>
       <r>   -1.7630    1.0000 </r>
       <r>   -1.7355    1.0000 </r>
       <r>   -1.4985    1.0000 </r>
       <r>   -1.4786    1.0000 </r>
       <r>   -1.3637    1.0000 </r>
       <r>   -1.3487    1.0000 </r>
       <r>   -1.2903    1.0000 </r>
       <r>   -1.2740    1.0000 </r>
       <r>   -1.1588    1.0000 </r>
       <r>   -1.1286    1.0000 </r>
       <r>   -1.0400    1.0000 </r>
       <r>   -0.7784    1.0000 </r>
       <r>    0.0065    1.0000 </r>
       <r>    3.0735    0.0000 </r>
       <r>    3.1081    0.0000 </r>
       <r>    4.3308    0.0000 </r>
       <r>    5.0215    0.0000 </r>
       <r>    5.6909    0.0000 </r>
       <r>    6.0934    0.0000 </r>
       <r>    6.2959    0.0000 </r>
       <r>    6.3178    0.0000 </r>
       <r>    6.4834    0.0000 </r>
       <r>    6.7531    0.0000 </r>
       <r>    6.8145    0.0000 </r>
       <r>    7.1033    0.0000 </r>
      </set>
      <set comment="kpoint 5">
       <r>  -20.9240    1.0000 </r>
       <r>  -20.9240    1.0000 </r>
       <r>  -16.4017    1.0000 </r>
       <r>  -16.4007    1.0000 </r>
       <r>  -16.3539    1.0000 </r>
       <r>  -16.3528    1.0000 </r>
       <r>  -16.2632    1.0000 </r>
       <r>  -16.2631    1.0000 </r>
       <r>  -16.2467    1.0000 </r>
       <r>  -16.2465    1.0000 </r>
       <r>  -16.2461    1.0000 </r>
       <r>  -16.2458    1.0000 </r>
       <r>  -14.1552    1.0000 </r>
       <r>  -14.1283    1.0000 </r>
       <r>  -14.0139    1.0000 </r>
       <r>  -13.9557    1.0000 </r>
       <r>  -13.8232    1.0000 </r>
       <r>  -13.7917    1.0000 </r>
       <r>   -7.4504    1.0000 </r>
       <r>   -7.4461    1.0000 </r>
       <r>   -7.3067    1.0000 </r>
       <r>   -7.3007    1.0000 </r>
       <r>   -7.2922    1.0000 </r>
       <r>   -7.2913    1.0000 </r>
       <r>   -7.2715    1.0000 </r>
       <r>   -7.2703    1.0000 </r>
       <r>   -3.1654    1.0000 </r>
       <r>   -2.9321    1.0000 </r>
       <r>   -2.6867    1.0000 </r>
       <r>   -2.2100    1.0000 </r>
       <r>   -2.0917    1.0000 </r>
       <r>   -1.9544    1.0000 </r>
       <r>   -1.7402    1.0000 </r>
       <r>   -1.6063    1.0000 </r>
       <r>   -1.4570    1.0000 </r>
       <r>   -1.3532    1.0000 </r>
       <r>   -1.3357    1.0000 </r>
       <r>   -1.3200    1.0000 </r>
       <r>   -1.2669    1.0000 </r>
       <r>   -1.2540    1.0000 </r>
       <r>   -1.1870    1.0000 </r>
       <r>   -1.0589    1.0000 </r>
       <r>   -0.6313    1.0000 </r>
       <r>   -0.5298    1.0000 </r>
       <r>    3.3882    0.0000 </r>
       <r>    4.0484    0.0000 </r>
       <r>    4.0947    0.0000 </r>
       <r>    5.1933    0.0000 </r>
       <r>    5.4229    0.0000 </r>
       <r>    5.9355    0.0000 </r>
       <r>    6.4410    0.0000 </r>
       <r>    6.4906    0.0000 </r>
       <r>    6.6727    0.0000 </r>
       <r>    6.6731    0.0000 </r>
       <r>    6.8162    0.0000 </r>
       <r>    6.9959    0.0000 </r>
      </set>
      <set comment="kpoint 6">
       <r>  -20.9241    1.0000 </r>
       <r>  -20.9240    1.0000 </r>
       <r>  -16.4017    1.0000 </r>
       <r>  -16.4006    1.0000 </r>
       <r>  -16.3540    1.0000 </r>
       <r>  -16.3527    1.0000 </r>
       <r>  -16.2632    1.0000 </r>
       <r>  -16.2632    1.0000 </r>
       <r>  -16.2468    1.0000 </r>
       <r>  -16.2465    1.0000 </r>
       <r>  -16.2462    1.0000 </r>
       <r>  -16.2458    1.0000 </r>
       <r>  -14.1750    1.0000 </r>
       <r>  -14.1358    1.0000 </r>
       <r>  -14.0158    1.0000 </r>
       <r>  -13.9270    1.0000 </r>
       <r>  -13.8306    1.0000 </r>
       <r>  -13.7803    1.0000 </r>
       <r>   -7.4637    1.0000 </r>
       <r>   -7.4550    1.0000 </r>
       <r>   -7.3149    1.0000 </r>
       <r>   -7.3071    1.0000 </r>
       <r>   -7.2950    1.0000 </r>
       <r>   -7.2905    1.0000 </r>
       <r>   -7.2628    1.0000 </r>
       <r>   -7.2618    1.0000 </r>
       <r>   -3.1674    1.0000 </r>
       <r>   -2.8548    1.0000 </r>
       <r>   -2.7679    1.0000 </r>
       <r>   -2.2218    1.0000 </r>
       <r>   -2.1170    1.0000 </r>
       <r>   -2.0040    1.0000 </r>
       <r>   -1.6891    1.0000 </r>
       <r>   -1.6317    1.0000 </r>
       <r>   -1.4821    1.0000 </r>
       <r>   -1.3968    1.0000 </r>
       <r>   -1.3900    1.0000 </r>
       <r>   -1.2808    1.0000 </r>
       <r>   -1.2651    1.0000 </r>
       <r>   -1.1359    1.0000 </r>
       <r>   -1.0955    1.0000 </r>
       <r>   -0.9683    1.0000 </r>
       <r>   -0.6777    1.0000 </r>
       <r>   -0.5260    1.0000 </r>
       <r>    3.3584    0.0000 </r>
       <r>    3.9547    0.0000 </r>
       <r>    4.1896    0.0000 </r>
       <r>    5.0992    0.0000 </r>
       <r>    5.4368    0.0000 </r>
       <r>    5.9393    0.0000 </r>
       <r>    6.2183    0.0000 </r>
       <r>    6.4585    0.0000 </r>
       <r>    6.6973    0.0000 </r>
       <r>    6.7685    0.0000 </r>
       <r>    6.8494    0.0000 </r>
       <r>    7.0644    0.0000 </r>
      </set>
     </set>
    </set>
   </array>
  </eigenvalues>
  <separator name="orbital magnetization" >
   <v name="MAGDIPOLOUT">      0.00000000      0.00000000      0.00000000</v>
  </separator>
  <dos>
   <i name="efermi">      0.61679348 </i>
   <total>
    <array>
     <dimension dim="1">gridpoints</dimension>
     <dimension dim="2">spin</dimension>
     <field>energy</field>
     <field>total</field>
     <field>integrated</field>
     <set>
      <set comment="spin 1">
       <r>   -22.3277     0.0000     0.0000 </r>
       <r>   -22.2249     0.0000     0.0000 </r>
       <r>   -22.1221     0.0000     0.0000 </r>
       <r>   -22.0193     0.0000     0.0000 </r>
       <r>   -21.9166     0.0000     0.0000 </r>
       <r>   -21.8138     0.0000     0.0000 </r>
       <r>   -21.7110     0.0000     0.0000 </r>
       <r>   -21.6082     0.0000     0.0000 </r>
       <r>   -21.5055     0.0000     0.0000 </r>
       <r>   -21.4027     0.0000     0.0000 </r>
       <r>   -21.2999     0.0000     0.0000 </r>
       <r>   -21.1971     0.0000     0.0000 </r>
       <r>   -21.0944     0.0000     0.0000 </r>
       <r>   -20.9916     0.0000     0.0000 </r>
       <r>   -20.8888    38.9201     4.0000 </r>
       <r>   -20.7860     0.0000     4.0000 </r>
       <r>   -20.6833     0.0000     4.0000 </r>
       <r>   -20.5805     0.0000     4.0000 </r>
       <r>   -20.4777     0.0000     4.0000 </r>
       <r>   -20.3749     0.0000     4.0000 </r>
       <r>   -20.2722     0.0000     4.0000 </r>
       <r>   -20.1694     0.0000     4.0000 </r>
       <r>   -20.0666     0.0000     4.0000 </r>
       <r>   -19.9638     0.0000     4.0000 </r>
       <r>   -19.8611     0.0000     4.0000 </r>
       <r>   -19.7583     0.0000     4.0000 </r>
       <r>   -19.6555     0.0000     4.0000 </r>
       <r>   -19.5527     0.0000     4.0000 </r>
       <r>   -19.4500     0.0000     4.0000 </r>
       <r>   -19.3472     0.0000     4.0000 </r>
       <r>   -19.2444     0.0000     4.0000 </r>
       <r>   -19.1416     0.0000     4.0000 </r>
       <r>   -19.0389     0.0000     4.0000 </r>
       <r>   -18.9361     0.0000     4.0000 </r>
       <r>   -18.8333     0.0000     4.0000 </r>
       <r>   -18.7305     0.0000     4.0000 </r>
       <r>   -18.6278     0.0000     4.0000 </r>
       <r>   -18.5250     0.0000     4.0000 </r>
       <r>   -18.4222     0.0000     4.0000 </r>
       <r>   -18.3194     0.0000     4.0000 </r>
       <r>   -18.2167     0.0000     4.0000 </r>
       <r>   -18.1139     0.0000     4.0000 </r>
       <r>   -18.0111     0.0000     4.0000 </r>
       <r>   -17.9083     0.0000     4.0000 </r>
       <r>   -17.8056     0.0000     4.0000 </r>
       <r>   -17.7028     0.0000     4.0000 </r>
       <r>   -17.6000     0.0000     4.0000 </r>
       <r>   -17.4973     0.0000     4.0000 </r>
       <r>   -17.3945     0.0000     4.0000 </r>
       <r>   -17.2917     0.0000     4.0000 </r>
       <r>   -17.1889     0.0000     4.0000 </r>
       <r>   -17.0862     0.0000     4.0000 </r>
       <r>   -16.9834     0.0000     4.0000 </r>
       <r>   -16.8806     0.0000     4.0000 </r>
       <r>   -16.7778     0.0000     4.0000 </r>
       <r>   -16.6751     0.0000     4.0000 </r>
       <r>   -16.5723     0.0000     4.0000 </r>
       <r>   -16.4695     0.0000     4.0000 </r>
       <r>   -16.3667    43.5863     8.4796 </r>
       <r>   -16.2640    23.9795    13.8719 </r>
       <r>   -16.1612     0.0000    24.0000 </r>
       <r>   -16.0584     0.0000    24.0000 </r>
       <r>   -15.9556     0.0000    24.0000 </r>
       <r>   -15.8529     0.0000    24.0000 </r>
       <r>   -15.7501     0.0000    24.0000 </r>
       <r>   -15.6473     0.0000    24.0000 </r>
       <r>   -15.5445     0.0000    24.0000 </r>
       <r>   -15.4418     0.0000    24.0000 </r>
       <r>   -15.3390     0.0000    24.0000 </r>
       <r>   -15.2362     0.0000    24.0000 </r>
       <r>   -15.1334     0.0000    24.0000 </r>
       <r>   -15.0307     0.0000    24.0000 </r>
       <r>   -14.9279     0.0000    24.0000 </r>
       <r>   -14.8251     0.0000    24.0000 </r>
       <r>   -14.7223     0.0000    24.0000 </r>
       <r>   -14.6196     0.0000    24.0000 </r>
       <r>   -14.5168     0.0000    24.0000 </r>
       <r>   -14.4140     0.0000    24.0000 </r>
       <r>   -14.3112     0.7220    24.0742 </r>
       <r>   -14.2085    10.0892    25.1111 </r>
       <r>   -14.1057    21.4885    27.3196 </r>
       <r>   -14.0029    16.7107    29.0508 </r>
       <r>   -13.9001    28.3147    32.3174 </r>
       <r>   -13.7974    13.3266    33.8141 </r>
       <r>   -13.6946     5.7537    35.9987 </r>
       <r>   -13.5918     0.0000    36.0000 </r>
       <r>   -13.4890     0.0000    36.0000 </r>
       <r>   -13.3863     0.0000    36.0000 </r>
       <r>   -13.2835     0.0000    36.0000 </r>
       <r>   -13.1807     0.0000    36.0000 </r>
       <r>   -13.0779     0.0000    36.0000 </r>
       <r>   -12.9752     0.0000    36.0000 </r>
       <r>   -12.8724     0.0000    36.0000 </r>
       <r>   -12.7696     0.0000    36.0000 </r>
       <r>   -12.6668     0.0000    36.0000 </r>
       <r>   -12.5641     0.0000    36.0000 </r>
       <r>   -12.4613     0.0000    36.0000 </r>
       <r>   -12.3585     0.0000    36.0000 </r>
       <r>   -12.2557     0.0000    36.0000 </r>
       <r>   -12.1530     0.0000    36.0000 </r>
       <r>   -12.0502     0.0000    36.0000 </r>
       <r>   -11.9474     0.0000    36.0000 </r>
       <r>   -11.8446     0.0000    36.0000 </r>
       <r>   -11.7419     0.0000    36.0000 </r>
       <r>   -11.6391     0.0000    36.0000 </r>
       <r>   -11.5363     0.0000    36.0000 </r>
       <r>   -11.4335     0.0000    36.0000 </r>
       <r>   -11.3308     0.0000    36.0000 </r>
       <r>   -11.2280     0.0000    36.0000 </r>
       <r>   -11.1252     0.0000    36.0000 </r>
       <r>   -11.0224     0.0000    36.0000 </r>
       <r>   -10.9197     0.0000    36.0000 </r>
       <r>   -10.8169     0.0000    36.0000 </r>
       <r>   -10.7141     0.0000    36.0000 </r>
       <r>   -10.6113     0.0000    36.0000 </r>
       <r>   -10.5086     0.0000    36.0000 </r>
       <r>   -10.4058     0.0000    36.0000 </r>
       <r>   -10.3030     0.0000    36.0000 </r>
       <r>   -10.2002     0.0000    36.0000 </r>
       <r>   -10.0975     0.0000    36.0000 </r>
       <r>    -9.9947     0.0000    36.0000 </r>
       <r>    -9.8919     0.0000    36.0000 </r>
       <r>    -9.7891     0.0000    36.0000 </r>
       <r>    -9.6864     0.0000    36.0000 </r>
       <r>    -9.5836     0.0000    36.0000 </r>
       <r>    -9.4808     0.0000    36.0000 </r>
       <r>    -9.3780     0.0000    36.0000 </r>
       <r>    -9.2753     0.0000    36.0000 </r>
       <r>    -9.1725     0.0000    36.0000 </r>
       <r>    -9.0697     0.0000    36.0000 </r>
       <r>    -8.9669     0.0000    36.0000 </r>
       <r>    -8.8642     0.0000    36.0000 </r>
       <r>    -8.7614     0.0000    36.0000 </r>
       <r>    -8.6586     0.0000    36.0000 </r>
       <r>    -8.5559     0.0000    36.0000 </r>
       <r>    -8.4531     0.0000    36.0000 </r>
       <r>    -8.3503     0.0000    36.0000 </r>
       <r>    -8.2475     0.0000    36.0000 </r>
       <r>    -8.1448     0.7207    36.0741 </r>
       <r>    -8.0420     0.0000    36.0741 </r>
       <r>    -7.9392     0.0000    36.0741 </r>
       <r>    -7.8364     5.9542    36.6860 </r>
       <r>    -7.7337     0.0000    37.1111 </r>
       <r>    -7.6309     0.0000    37.1111 </r>
       <r>    -7.5281     0.0000    37.1111 </r>
       <r>    -7.4253    17.2897    38.8881 </r>
       <r>    -7.3226    13.4702    40.2733 </r>
       <r>    -7.2198    61.9819    50.8889 </r>
       <r>    -7.1170     0.0000    50.8889 </r>
       <r>    -7.0142     4.3978    51.3409 </r>
       <r>    -6.9115     4.3245    51.9259 </r>
       <r>    -6.8087     0.0000    51.9259 </r>
       <r>    -6.7059     0.0000    51.9259 </r>
       <r>    -6.6031     0.0000    51.9259 </r>
       <r>    -6.5004     0.0000    51.9259 </r>
       <r>    -6.3976     0.7207    52.0000 </r>
       <r>    -6.2948     0.0000    52.0000 </r>
       <r>    -6.1920     0.0000    52.0000 </r>
       <r>    -6.0893     0.0000    52.0000 </r>
       <r>    -5.9865     0.0000    52.0000 </r>
       <r>    -5.8837     0.0000    52.0000 </r>
       <r>    -5.7809     0.0000    52.0000 </r>
       <r>    -5.6782     0.0000    52.0000 </r>
       <r>    -5.5754     0.0000    52.0000 </r>
       <r>    -5.4726     0.0000    52.0000 </r>
       <r>    -5.3698     0.0000    52.0000 </r>
       <r>    -5.2671     0.0000    52.0000 </r>
       <r>    -5.1643     0.0000    52.0000 </r>
       <r>    -5.0615     0.0000    52.0000 </r>
       <r>    -4.9587     0.0000    52.0000 </r>
       <r>    -4.8560     0.0000    52.0000 </r>
       <r>    -4.7532     0.0000    52.0000 </r>
       <r>    -4.6504     0.0000    52.0000 </r>
       <r>    -4.5476     0.0000    52.0000 </r>
       <r>    -4.4449     0.0000    52.0000 </r>
       <r>    -4.3421     0.0000    52.0000 </r>
       <r>    -4.2393     0.0000    52.0000 </r>
       <r>    -4.1365     0.0000    52.0000 </r>
       <r>    -4.0338     0.0000    52.0000 </r>
       <r>    -3.9310     0.0000    52.0000 </r>
       <r>    -3.8282     0.0000    52.0000 </r>
       <r>    -3.7254     0.0000    52.0000 </r>
       <r>    -3.6227     0.0000    52.0000 </r>
       <r>    -3.5199     0.0000    52.0000 </r>
       <r>    -3.4171     0.0000    52.0000 </r>
       <r>    -3.3143     4.8217    52.4956 </r>
       <r>    -3.2116     0.0138    52.5940 </r>
       <r>    -3.1088     9.3696    54.0000 </r>
       <r>    -3.0060     6.2062    54.6378 </r>
       <r>    -2.9032     5.8050    55.3373 </r>
       <r>    -2.8005     4.3245    56.0741 </r>
       <r>    -2.6977     8.2848    56.9255 </r>
       <r>    -2.5949     4.3245    57.8519 </r>
       <r>    -2.4921     1.4415    58.0000 </r>
       <r>    -2.3894     0.0000    58.0000 </r>
       <r>    -2.2866     0.0000    58.0000 </r>
       <r>    -2.1838     8.6484    58.8888 </r>
       <r>    -2.0810    27.5873    61.7242 </r>
       <r>    -1.9783     8.6500    62.7409 </r>
       <r>    -1.8755     7.9231    63.5552 </r>
       <r>    -1.7727     0.5297    63.6100 </r>
       <r>    -1.6699    12.9589    66.5170 </r>
       <r>    -1.5672     8.6520    67.4077 </r>
       <r>    -1.4644    19.8079    69.5172 </r>
       <r>    -1.3616    15.8942    71.9298 </r>
       <r>    -1.2588    32.7920    76.7777 </r>
       <r>    -1.1561    20.1056    79.3258 </r>
       <r>    -1.0533    18.3330    81.8101 </r>
       <r>    -0.9505    11.6864    83.7196 </r>
       <r>    -0.8477     7.5720    84.6301 </r>
       <r>    -0.7450     4.3244    85.1111 </r>
       <r>    -0.6422     4.5919    85.5830 </r>
       <r>    -0.5394     0.5032    86.0517 </r>
       <r>    -0.4366     0.2423    86.9138 </r>
       <r>    -0.3339     1.4409    87.4814 </r>
       <r>    -0.2311     0.0000    87.4815 </r>
       <r>    -0.1283     0.0000    87.4815 </r>
       <r>    -0.0255     0.0000    87.4815 </r>
       <r>     0.0772     4.3244    87.9259 </r>
       <r>     0.1800     0.0000    87.9259 </r>
       <r>     0.2828     0.0000    87.9259 </r>
       <r>     0.3856     0.0000    87.9259 </r>
       <r>     0.4883     0.0000    87.9259 </r>
       <r>     0.5911     0.7145    87.9994 </r>
       <r>     0.6939     0.0000    88.0000 </r>
       <r>     0.7966     0.0000    88.0000 </r>
       <r>     0.8994     0.0000    88.0000 </r>
       <r>     1.0022     0.0000    88.0000 </r>
       <r>     1.1050     0.0000    88.0000 </r>
       <r>     1.2077     0.0000    88.0000 </r>
       <r>     1.3105     0.0000    88.0000 </r>
       <r>     1.4133     0.0000    88.0000 </r>
       <r>     1.5161     0.0000    88.0000 </r>
       <r>     1.6188     0.0000    88.0000 </r>
       <r>     1.7216     0.0000    88.0000 </r>
       <r>     1.8244     0.0000    88.0000 </r>
       <r>     1.9272     0.0000    88.0000 </r>
       <r>     2.0299     0.0000    88.0000 </r>
       <r>     2.1327     0.0000    88.0000 </r>
       <r>     2.2355     0.0000    88.0000 </r>
       <r>     2.3383     0.0000    88.0000 </r>
       <r>     2.4410     0.0000    88.0000 </r>
       <r>     2.5438     0.0000    88.0000 </r>
       <r>     2.6466     0.0000    88.0000 </r>
       <r>     2.7494     0.7207    88.0741 </r>
       <r>     2.8521     1.4380    88.2219 </r>
       <r>     2.9549     0.0000    88.2222 </r>
       <r>     3.0577     0.0556    88.2279 </r>
       <r>     3.1605     4.3245    89.1111 </r>
       <r>     3.2632     0.0000    89.1111 </r>
       <r>     3.3660     3.7239    89.4938 </r>
       <r>     3.4688     0.0000    90.0000 </r>
       <r>     3.5716     0.2194    90.0225 </r>
       <r>     3.6743     0.0000    90.4444 </r>
       <r>     3.7771     0.1659    90.4615 </r>
       <r>     3.8799     7.2074    91.3333 </r>
       <r>     3.9827     8.5200    92.2090 </r>
       <r>     4.0854     4.7366    92.7090 </r>
       <r>     4.1882     1.8308    93.2993 </r>
       <r>     4.2910     0.0000    93.5556 </r>
       <r>     4.3938     4.3245    94.0000 </r>
       <r>     4.4965     0.0000    94.0000 </r>
       <r>     4.5993     0.0000    94.0000 </r>
       <r>     4.7021     0.0537    94.0055 </r>
       <r>     4.8049     0.0000    94.0741 </r>
       <r>     4.9076     0.0000    94.0741 </r>
       <r>     5.0104     0.2518    94.1000 </r>
       <r>     5.1132     6.4827    95.1848 </r>
       <r>     5.2160     4.3215    95.9997 </r>
       <r>     5.3187     0.0000    96.0000 </r>
       <r>     5.4215     6.0826    96.6251 </r>
       <r>     5.5243     0.0000    97.3333 </r>
       <r>     5.6271     2.7082    97.6117 </r>
       <r>     5.7298     7.2074    98.5185 </r>
       <r>     5.8326     0.4819    98.5680 </r>
       <r>     5.9354     6.8606    99.3718 </r>
       <r>     6.0382     1.4415   100.1481 </r>
       <r>     6.1409     4.3245   100.5926 </r>
       <r>     6.2437    11.6882   101.7939 </r>
       <r>     6.3465    12.9733   103.1852 </r>
       <r>     6.4493     4.2156   103.6184 </r>
       <r>     6.5520    13.5631   105.5421 </r>
       <r>     6.6548     2.0650   105.8419 </r>
       <r>     6.7576    14.4285   108.2236 </r>
       <r>     6.8604    12.7214   110.1963 </r>
       <r>     6.9631     0.0000   110.6667 </r>
       <r>     7.0659     6.8427   111.3699 </r>
       <r>     7.1687     4.3245   112.0000 </r>
       <r>     7.2715     0.0000   112.0000 </r>
       <r>     7.3742     0.0000   112.0000 </r>
       <r>     7.4770     0.0000   112.0000 </r>
       <r>     7.5798     0.0000   112.0000 </r>
       <r>     7.6826     0.0000   112.0000 </r>
       <r>     7.7853     0.0000   112.0000 </r>
       <r>     7.8881     0.0000   112.0000 </r>
       <r>     7.9909     0.0000   112.0000 </r>
       <r>     8.0937     0.0000   112.0000 </r>
       <r>     8.1964     0.0000   112.0000 </r>
       <r>     8.2992     0.0000   112.0000 </r>
       <r>     8.4020     0.0000   112.0000 </r>
       <r>     8.5048     0.0000   112.0000 </r>
      </set>
     </set>
    </array>
   </total>
   <partial>
    <array>
     <dimension dim="1">gridpoints</dimension>
     <dimension dim="2">spin</dimension>
     <dimension dim="3">ion</dimension>
     <field>energy</field>
     <field>  s  </field>
     <field>  p  </field>
     <field>  d  </field>
     <set>
      <set comment="ion 1">
       <set comment="spin 1">
        <r>   -22.3277     0.0000     0.0000     0.0000 </r>
        <r>   -22.2249     0.0000     0.0000     0.0000 </r>
        <r>   -22.1221     0.0000     0.0000     0.0000 </r>
        <r>   -22.0193     0.0000     0.0000     0.0000 </r>
        <r>   -21.9166     0.0000     0.0000     0.0000 </r>
        <r>   -21.8138     0.0000     0.0000     0.0000 </r>
        <r>   -21.7110     0.0000     0.0000     0.0000 </r>
        <r>   -21.6082     0.0000     0.0000     0.0000 </r>
        <r>   -21.5055     0.0000     0.0000     0.0000 </r>
        <r>   -21.4027     0.0000     0.0000     0.0000 </r>
        <r>   -21.2999     0.0000     0.0000     0.0000 </r>
        <r>   -21.1971     0.0000     0.0000     0.0000 </r>
        <r>   -21.0944     0.0000     0.0000     0.0000 </r>
        <r>   -20.9916     0.0000     0.0000     0.0000 </r>
        <r>   -20.8888    17.2741     0.0000     0.0000 </r>
        <r>   -20.7860     0.0000     0.0000     0.0000 </r>
        <r>   -20.6833     0.0000     0.0000     0.0000 </r>
        <r>   -20.5805     0.0000     0.0000     0.0000 </r>
        <r>   -20.4777     0.0000     0.0000     0.0000 </r>
        <r>   -20.3749     0.0000     0.0000     0.0000 </r>
        <r>   -20.2722     0.0000     0.0000     0.0000 </r>
        <r>   -20.1694     0.0000     0.0000     0.0000 </r>
        <r>   -20.0666     0.0000     0.0000     0.0000 </r>
        <r>   -19.9638     0.0000     0.0000     0.0000 </r>
        <r>   -19.8611     0.0000     0.0000     0.0000 </r>
        <r>   -19.7583     0.0000     0.0000     0.0000 </r>
        <r>   -19.6555     0.0000     0.0000     0.0000 </r>
        <r>   -19.5527     0.0000     0.0000     0.0000 </r>
        <r>   -19.4500     0.0000     0.0000     0.0000 </r>
        <r>   -19.3472     0.0000     0.0000     0.0000 </r>
        <r>   -19.2444     0.0000     0.0000     0.0000 </r>
        <r>   -19.1416     0.0000     0.0000     0.0000 </r>
        <r>   -19.0389     0.0000     0.0000     0.0000 </r>
        <r>   -18.9361     0.0000     0.0000     0.0000 </r>
        <r>   -18.8333     0.0000     0.0000     0.0000 </r>
        <r>   -18.7305     0.0000     0.0000     0.0000 </r>
        <r>   -18.6278     0.0000     0.0000     0.0000 </r>
        <r>   -18.5250     0.0000     0.0000     0.0000 </r>
        <r>   -18.4222     0.0000     0.0000     0.0000 </r>
        <r>   -18.3194     0.0000     0.0000     0.0000 </r>
        <r>   -18.2167     0.0000     0.0000     0.0000 </r>
        <r>   -18.1139     0.0000     0.0000     0.0000 </r>
        <r>   -18.0111     0.0000     0.0000     0.0000 </r>
        <r>   -17.9083     0.0000     0.0000     0.0000 </r>
        <r>   -17.8056     0.0000     0.0000     0.0000 </r>
        <r>   -17.7028     0.0000     0.0000     0.0000 </r>
        <r>   -17.6000     0.0000     0.0000     0.0000 </r>
        <r>   -17.4973     0.0000     0.0000     0.0000 </r>
        <r>   -17.3945     0.0000     0.0000     0.0000 </r>
        <r>   -17.2917     0.0000     0.0000     0.0000 </r>
        <r>   -17.1889     0.0000     0.0000     0.0000 </r>
        <r>   -17.0862     0.0000     0.0000     0.0000 </r>
        <r>   -16.9834     0.0000     0.0000     0.0000 </r>
        <r>   -16.8806     0.0000     0.0000     0.0000 </r>
        <r>   -16.7778     0.0000     0.0000     0.0000 </r>
        <r>   -16.6751     0.0000     0.0000     0.0000 </r>
        <r>   -16.5723     0.0000     0.0000     0.0000 </r>
        <r>   -16.4695     0.0000     0.0000     0.0000 </r>
        <r>   -16.3667     0.0001     0.0001     0.0000 </r>
        <r>   -16.2640     0.0000     0.0000     0.0000 </r>
        <r>   -16.1612     0.0000     0.0000     0.0000 </r>
        <r>   -16.0584     0.0000     0.0000     0.0000 </r>
        <r>   -15.9556     0.0000     0.0000     0.0000 </r>
        <r>   -15.8529     0.0000     0.0000     0.0000 </r>
        <r>   -15.7501     0.0000     0.0000     0.0000 </r>
        <r>   -15.6473     0.0000     0.0000     0.0000 </r>
        <r>   -15.5445     0.0000     0.0000     0.0000 </r>
        <r>   -15.4418     0.0000     0.0000     0.0000 </r>
        <r>   -15.3390     0.0000     0.0000     0.0000 </r>
        <r>   -15.2362     0.0000     0.0000     0.0000 </r>
        <r>   -15.1334     0.0000     0.0000     0.0000 </r>
        <r>   -15.0307     0.0000     0.0000     0.0000 </r>
        <r>   -14.9279     0.0000     0.0000     0.0000 </r>
        <r>   -14.8251     0.0000     0.0000     0.0000 </r>
        <r>   -14.7223     0.0000     0.0000     0.0000 </r>
        <r>   -14.6196     0.0000     0.0000     0.0000 </r>
        <r>   -14.5168     0.0000     0.0000     0.0000 </r>
        <r>   -14.4140     0.0000     0.0000     0.0000 </r>
        <r>   -14.3112     0.0004     0.0000     0.0000 </r>
        <r>   -14.2085     0.0031     0.0019     0.0000 </r>
        <r>   -14.1057     0.0011     0.0063     0.0003 </r>
        <r>   -14.0029     0.0016     0.0029     0.0002 </r>
        <r>   -13.9001     0.0009     0.0045     0.0005 </r>
        <r>   -13.7974     0.0007     0.0013     0.0002 </r>
        <r>   -13.6946     0.0003     0.0006     0.0001 </r>
        <r>   -13.5918     0.0000     0.0000     0.0000 </r>
        <r>   -13.4890     0.0000     0.0000     0.0000 </r>
        <r>   -13.3863     0.0000     0.0000     0.0000 </r>
        <r>   -13.2835     0.0000     0.0000     0.0000 </r>
        <r>   -13.1807     0.0000     0.0000     0.0000 </r>
        <r>   -13.0779     0.0000     0.0000     0.0000 </r>
        <r>   -12.9752     0.0000     0.0000     0.0000 </r>
        <r>   -12.8724     0.0000     0.0000     0.0000 </r>
        <r>   -12.7696     0.0000     0.0000     0.0000 </r>
        <r>   -12.6668     0.0000     0.0000     0.0000 </r>
        <r>   -12.5641     0.0000     0.0000     0.0000 </r>
        <r>   -12.4613     0.0000     0.0000     0.0000 </r>
        <r>   -12.3585     0.0000     0.0000     0.0000 </r>
        <r>   -12.2557     0.0000     0.0000     0.0000 </r>
        <r>   -12.1530     0.0000     0.0000     0.0000 </r>
        <r>   -12.0502     0.0000     0.0000     0.0000 </r>
        <r>   -11.9474     0.0000     0.0000     0.0000 </r>
        <r>   -11.8446     0.0000     0.0000     0.0000 </r>
        <r>   -11.7419     0.0000     0.0000     0.0000 </r>
        <r>   -11.6391     0.0000     0.0000     0.0000 </r>
        <r>   -11.5363     0.0000     0.0000     0.0000 </r>
        <r>   -11.4335     0.0000     0.0000     0.0000 </r>
        <r>   -11.3308     0.0000     0.0000     0.0000 </r>
        <r>   -11.2280     0.0000     0.0000     0.0000 </r>
        <r>   -11.1252     0.0000     0.0000     0.0000 </r>
        <r>   -11.0224     0.0000     0.0000     0.0000 </r>
        <r>   -10.9197     0.0000     0.0000     0.0000 </r>
        <r>   -10.8169     0.0000     0.0000     0.0000 </r>
        <r>   -10.7141     0.0000     0.0000     0.0000 </r>
        <r>   -10.6113     0.0000     0.0000     0.0000 </r>
        <r>   -10.5086     0.0000     0.0000     0.0000 </r>
        <r>   -10.4058     0.0000     0.0000     0.0000 </r>
        <r>   -10.3030     0.0000     0.0000     0.0000 </r>
        <r>   -10.2002     0.0000     0.0000     0.0000 </r>
        <r>   -10.0975     0.0000     0.0000     0.0000 </r>
        <r>    -9.9947     0.0000     0.0000     0.0000 </r>
        <r>    -9.8919     0.0000     0.0000     0.0000 </r>
        <r>    -9.7891     0.0000     0.0000     0.0000 </r>
        <r>    -9.6864     0.0000     0.0000     0.0000 </r>
        <r>    -9.5836     0.0000     0.0000     0.0000 </r>
        <r>    -9.4808     0.0000     0.0000     0.0000 </r>
        <r>    -9.3780     0.0000     0.0000     0.0000 </r>
        <r>    -9.2753     0.0000     0.0000     0.0000 </r>
        <r>    -9.1725     0.0000     0.0000     0.0000 </r>
        <r>    -9.0697     0.0000     0.0000     0.0000 </r>
        <r>    -8.9669     0.0000     0.0000     0.0000 </r>
        <r>    -8.8642     0.0000     0.0000     0.0000 </r>
        <r>    -8.7614     0.0000     0.0000     0.0000 </r>
        <r>    -8.6586     0.0000     0.0000     0.0000 </r>
        <r>    -8.5559     0.0000     0.0000     0.0000 </r>
        <r>    -8.4531     0.0000     0.0000     0.0000 </r>
        <r>    -8.3503     0.0000     0.0000     0.0000 </r>
        <r>    -8.2475     0.0000     0.0000     0.0000 </r>
        <r>    -8.1448     0.0000     0.0002     0.0000 </r>
        <r>    -8.0420     0.0000     0.0000     0.0000 </r>
        <r>    -7.9392     0.0000     0.0000     0.0000 </r>
        <r>    -7.8364     0.0000     0.0166     0.0000 </r>
        <r>    -7.7337     0.0000     0.0000     0.0000 </r>
        <r>    -7.6309     0.0000     0.0000     0.0000 </r>
        <r>    -7.5281     0.0000     0.0000     0.0000 </r>
        <r>    -7.4253     0.0000     0.7666     0.0001 </r>
        <r>    -7.3226     0.0000     5.1299     0.0000 </r>
        <r>    -7.2198     0.0000    23.1534     0.0000 </r>
        <r>    -7.1170     0.0000     0.0000     0.0000 </r>
        <r>    -7.0142     0.0000     0.0355     0.0000 </r>
        <r>    -6.9115     0.0000     0.0351     0.0000 </r>
        <r>    -6.8087     0.0000     0.0000     0.0000 </r>
        <r>    -6.7059     0.0000     0.0000     0.0000 </r>
        <r>    -6.6031     0.0000     0.0000     0.0000 </r>
        <r>    -6.5004     0.0000     0.0000     0.0000 </r>
        <r>    -6.3976     0.0000     0.0000     0.0000 </r>
        <r>    -6.2948     0.0000     0.0000     0.0000 </r>
        <r>    -6.1920     0.0000     0.0000     0.0000 </r>
        <r>    -6.0893     0.0000     0.0000     0.0000 </r>
        <r>    -5.9865     0.0000     0.0000     0.0000 </r>
        <r>    -5.8837     0.0000     0.0000     0.0000 </r>
        <r>    -5.7809     0.0000     0.0000     0.0000 </r>
        <r>    -5.6782     0.0000     0.0000     0.0000 </r>
        <r>    -5.5754     0.0000     0.0000     0.0000 </r>
        <r>    -5.4726     0.0000     0.0000     0.0000 </r>
        <r>    -5.3698     0.0000     0.0000     0.0000 </r>
        <r>    -5.2671     0.0000     0.0000     0.0000 </r>
        <r>    -5.1643     0.0000     0.0000     0.0000 </r>
        <r>    -5.0615     0.0000     0.0000     0.0000 </r>
        <r>    -4.9587     0.0000     0.0000     0.0000 </r>
        <r>    -4.8560     0.0000     0.0000     0.0000 </r>
        <r>    -4.7532     0.0000     0.0000     0.0000 </r>
        <r>    -4.6504     0.0000     0.0000     0.0000 </r>
        <r>    -4.5476     0.0000     0.0000     0.0000 </r>
        <r>    -4.4449     0.0000     0.0000     0.0000 </r>
        <r>    -4.3421     0.0000     0.0000     0.0000 </r>
        <r>    -4.2393     0.0000     0.0000     0.0000 </r>
        <r>    -4.1365     0.0000     0.0000     0.0000 </r>
        <r>    -4.0338     0.0000     0.0000     0.0000 </r>
        <r>    -3.9310     0.0000     0.0000     0.0000 </r>
        <r>    -3.8282     0.0000     0.0000     0.0000 </r>
        <r>    -3.7254     0.0000     0.0000     0.0000 </r>
        <r>    -3.6227     0.0000     0.0000     0.0000 </r>
        <r>    -3.5199     0.0000     0.0000     0.0000 </r>
        <r>    -3.4171     0.0000     0.0000     0.0000 </r>
        <r>    -3.3143     0.0000     0.0101     0.0006 </r>
        <r>    -3.2116     0.0000     0.0000     0.0000 </r>
        <r>    -3.1088     0.0000     0.0074     0.0011 </r>
        <r>    -3.0060     0.0001     0.0168     0.0004 </r>
        <r>    -2.9032     0.0001     0.0070     0.0008 </r>
        <r>    -2.8005     0.0001     0.0010     0.0012 </r>
        <r>    -2.6977     0.0000     0.0053     0.0010 </r>
        <r>    -2.5949     0.0011     0.0082     0.0010 </r>
        <r>    -2.4921     0.0003     0.0011     0.0005 </r>
        <r>    -2.3894     0.0000     0.0000     0.0000 </r>
        <r>    -2.2866     0.0000     0.0000     0.0000 </r>
        <r>    -2.1838     0.0008     0.0284     0.0009 </r>
        <r>    -2.0810     0.0227     0.0588     0.0071 </r>
        <r>    -1.9783     0.0121     0.0196     0.0028 </r>
        <r>    -1.8755     0.0077     0.0491     0.0016 </r>
        <r>    -1.7727     0.0000     0.0042     0.0003 </r>
        <r>    -1.6699     0.0032     0.0736     0.0104 </r>
        <r>    -1.5672     0.0000     0.0500     0.0055 </r>
        <r>    -1.4644     0.0026     0.0668     0.0114 </r>
        <r>    -1.3616     0.0005     0.0285     0.0107 </r>
        <r>    -1.2588     0.0046     0.0783     0.0181 </r>
        <r>    -1.1561     0.0026     0.0631     0.0087 </r>
        <r>    -1.0533     0.0011     0.0288     0.0106 </r>
        <r>    -0.9505     0.0001     0.0286     0.0049 </r>
        <r>    -0.8477     0.0007     0.0088     0.0053 </r>
        <r>    -0.7450     0.0000     0.0089     0.0022 </r>
        <r>    -0.6422     0.0010     0.0059     0.0008 </r>
        <r>    -0.5394     0.0000     0.0002     0.0000 </r>
        <r>    -0.4366     0.0000     0.0001     0.0000 </r>
        <r>    -0.3339     0.0001     0.0002     0.0000 </r>
        <r>    -0.2311     0.0000     0.0000     0.0000 </r>
        <r>    -0.1283     0.0000     0.0000     0.0000 </r>
        <r>    -0.0255     0.0000     0.0000     0.0000 </r>
        <r>     0.0772     0.0000     0.0007     0.0008 </r>
        <r>     0.1800     0.0000     0.0000     0.0000 </r>
        <r>     0.2828     0.0000     0.0000     0.0000 </r>
        <r>     0.3856     0.0000     0.0000     0.0000 </r>
        <r>     0.4883     0.0000     0.0000     0.0000 </r>
        <r>     0.5911     0.0000     0.0000     0.0000 </r>
        <r>     0.6939     0.0000     0.0000     0.0000 </r>
        <r>     0.7966     0.0000     0.0000     0.0000 </r>
        <r>     0.8994     0.0000     0.0000     0.0000 </r>
        <r>     1.0022     0.0000     0.0000     0.0000 </r>
        <r>     1.1050     0.0000     0.0000     0.0000 </r>
        <r>     1.2077     0.0000     0.0000     0.0000 </r>
        <r>     1.3105     0.0000     0.0000     0.0000 </r>
        <r>     1.4133     0.0000     0.0000     0.0000 </r>
        <r>     1.5161     0.0000     0.0000     0.0000 </r>
        <r>     1.6188     0.0000     0.0000     0.0000 </r>
        <r>     1.7216     0.0000     0.0000     0.0000 </r>
        <r>     1.8244     0.0000     0.0000     0.0000 </r>
        <r>     1.9272     0.0000     0.0000     0.0000 </r>
        <r>     2.0299     0.0000     0.0000     0.0000 </r>
        <r>     2.1327     0.0000     0.0000     0.0000 </r>
        <r>     2.2355     0.0000     0.0000     0.0000 </r>
        <r>     2.3383     0.0000     0.0000     0.0000 </r>
        <r>     2.4410     0.0000     0.0000     0.0000 </r>
        <r>     2.5438     0.0000     0.0000     0.0000 </r>
        <r>     2.6466     0.0000     0.0000     0.0000 </r>
        <r>     2.7494     0.0000     0.0000     0.0019 </r>
        <r>     2.8521     0.0000     0.0000     0.0016 </r>
        <r>     2.9549     0.0000     0.0000     0.0000 </r>
        <r>     3.0577     0.0000     0.0000     0.0000 </r>
        <r>     3.1605     0.0010     0.0002     0.0033 </r>
        <r>     3.2632     0.0000     0.0000     0.0000 </r>
        <r>     3.3660     0.0003     0.0031     0.0016 </r>
        <r>     3.4688     0.0000     0.0000     0.0000 </r>
        <r>     3.5716     0.0000     0.0000     0.0005 </r>
        <r>     3.6743     0.0000     0.0000     0.0000 </r>
        <r>     3.7771     0.0000     0.0002     0.0004 </r>
        <r>     3.8799     0.0016     0.0011     0.0074 </r>
        <r>     3.9827     0.0001     0.0052     0.0100 </r>
        <r>     4.0854     0.0007     0.0034     0.0022 </r>
        <r>     4.1882     0.0003     0.0008     0.0013 </r>
        <r>     4.2910     0.0000     0.0000     0.0000 </r>
        <r>     4.3938     0.0008     0.0033     0.0011 </r>
        <r>     4.4965     0.0000     0.0000     0.0000 </r>
        <r>     4.5993     0.0000     0.0000     0.0000 </r>
        <r>     4.7021     0.0012     0.0000     0.0000 </r>
        <r>     4.8049     0.0000     0.0000     0.0000 </r>
        <r>     4.9076     0.0000     0.0000     0.0000 </r>
        <r>     5.0104     0.0000     0.0000     0.0012 </r>
        <r>     5.1132     0.0193     0.0071     0.0157 </r>
        <r>     5.2160     0.0005     0.0078     0.0072 </r>
        <r>     5.3187     0.0000     0.0000     0.0000 </r>
        <r>     5.4215     0.0289     0.0129     0.0086 </r>
        <r>     5.5243     0.0000     0.0000     0.0000 </r>
        <r>     5.6271     0.0025     0.0012     0.0141 </r>
        <r>     5.7298     0.0727     0.0194     0.0381 </r>
        <r>     5.8326     0.0000     0.0000     0.0290 </r>
        <r>     5.9354     0.0245     0.0020     0.0210 </r>
        <r>     6.0382     0.0167     0.0026     0.0077 </r>
        <r>     6.1409     0.0068     0.0075     0.0141 </r>
        <r>     6.2437     0.0833     0.0298     0.4528 </r>
        <r>     6.3465     0.0088     0.0455     0.6390 </r>
        <r>     6.4493     0.0370     0.0196     0.1481 </r>
        <r>     6.5520     0.0968     0.0163     0.5435 </r>
        <r>     6.6548     0.0169     0.0010     0.1002 </r>
        <r>     6.7576     0.0103     0.0378     0.9385 </r>
        <r>     6.8604     0.0033     0.0769     0.7890 </r>
        <r>     6.9631     0.0000     0.0000     0.0000 </r>
        <r>     7.0659     0.0111     0.0533     0.3696 </r>
        <r>     7.1687     0.0453     0.0041     0.2727 </r>
        <r>     7.2715     0.0000     0.0000     0.0000 </r>
        <r>     7.3742     0.0000     0.0000     0.0000 </r>
        <r>     7.4770     0.0000     0.0000     0.0000 </r>
        <r>     7.5798     0.0000     0.0000     0.0000 </r>
        <r>     7.6826     0.0000     0.0000     0.0000 </r>
        <r>     7.7853     0.0000     0.0000     0.0000 </r>
        <r>     7.8881     0.0000     0.0000     0.0000 </r>
        <r>     7.9909     0.0000     0.0000     0.0000 </r>
        <r>     8.0937     0.0000     0.0000     0.0000 </r>
        <r>     8.1964     0.0000     0.0000     0.0000 </r>
        <r>     8.2992     0.0000     0.0000     0.0000 </r>
        <r>     8.4020     0.0000     0.0000     0.0000 </r>
        <r>     8.5048     0.0000     0.0000     0.0000 </r>
       </set>
      </set>
      <set comment="ion 2">
       <set comment="spin 1">
        <r>   -22.3277     0.0000     0.0000     0.0000 </r>
        <r>   -22.2249     0.0000     0.0000     0.0000 </r>
        <r>   -22.1221     0.0000     0.0000     0.0000 </r>
        <r>   -22.0193     0.0000     0.0000     0.0000 </r>
        <r>   -21.9166     0.0000     0.0000     0.0000 </r>
        <r>   -21.8138     0.0000     0.0000     0.0000 </r>
        <r>   -21.7110     0.0000     0.0000     0.0000 </r>
        <r>   -21.6082     0.0000     0.0000     0.0000 </r>
        <r>   -21.5055     0.0000     0.0000     0.0000 </r>
        <r>   -21.4027     0.0000     0.0000     0.0000 </r>
        <r>   -21.2999     0.0000     0.0000     0.0000 </r>
        <r>   -21.1971     0.0000     0.0000     0.0000 </r>
        <r>   -21.0944     0.0000     0.0000     0.0000 </r>
        <r>   -20.9916     0.0000     0.0000     0.0000 </r>
        <r>   -20.8888    17.2741     0.0000     0.0000 </r>
        <r>   -20.7860     0.0000     0.0000     0.0000 </r>
        <r>   -20.6833     0.0000     0.0000     0.0000 </r>
        <r>   -20.5805     0.0000     0.0000     0.0000 </r>
        <r>   -20.4777     0.0000     0.0000     0.0000 </r>
        <r>   -20.3749     0.0000     0.0000     0.0000 </r>
        <r>   -20.2722     0.0000     0.0000     0.0000 </r>
        <r>   -20.1694     0.0000     0.0000     0.0000 </r>
        <r>   -20.0666     0.0000     0.0000     0.0000 </r>
        <r>   -19.9638     0.0000     0.0000     0.0000 </r>
        <r>   -19.8611     0.0000     0.0000     0.0000 </r>
        <r>   -19.7583     0.0000     0.0000     0.0000 </r>
        <r>   -19.6555     0.0000     0.0000     0.0000 </r>
        <r>   -19.5527     0.0000     0.0000     0.0000 </r>
        <r>   -19.4500     0.0000     0.0000     0.0000 </r>
        <r>   -19.3472     0.0000     0.0000     0.0000 </r>
        <r>   -19.2444     0.0000     0.0000     0.0000 </r>
        <r>   -19.1416     0.0000     0.0000     0.0000 </r>
        <r>   -19.0389     0.0000     0.0000     0.0000 </r>
        <r>   -18.9361     0.0000     0.0000     0.0000 </r>
        <r>   -18.8333     0.0000     0.0000     0.0000 </r>
        <r>   -18.7305     0.0000     0.0000     0.0000 </r>
        <r>   -18.6278     0.0000     0.0000     0.0000 </r>
        <r>   -18.5250     0.0000     0.0000     0.0000 </r>
        <r>   -18.4222     0.0000     0.0000     0.0000 </r>
        <r>   -18.3194     0.0000     0.0000     0.0000 </r>
        <r>   -18.2167     0.0000     0.0000     0.0000 </r>
        <r>   -18.1139     0.0000     0.0000     0.0000 </r>
        <r>   -18.0111     0.0000     0.0000     0.0000 </r>
        <r>   -17.9083     0.0000     0.0000     0.0000 </r>
        <r>   -17.8056     0.0000     0.0000     0.0000 </r>
        <r>   -17.7028     0.0000     0.0000     0.0000 </r>
        <r>   -17.6000     0.0000     0.0000     0.0000 </r>
        <r>   -17.4973     0.0000     0.0000     0.0000 </r>
        <r>   -17.3945     0.0000     0.0000     0.0000 </r>
        <r>   -17.2917     0.0000     0.0000     0.0000 </r>
        <r>   -17.1889     0.0000     0.0000     0.0000 </r>
        <r>   -17.0862     0.0000     0.0000     0.0000 </r>
        <r>   -16.9834     0.0000     0.0000     0.0000 </r>
        <r>   -16.8806     0.0000     0.0000     0.0000 </r>
        <r>   -16.7778     0.0000     0.0000     0.0000 </r>
        <r>   -16.6751     0.0000     0.0000     0.0000 </r>
        <r>   -16.5723     0.0000     0.0000     0.0000 </r>
        <r>   -16.4695     0.0000     0.0000     0.0000 </r>
        <r>   -16.3667     0.0001     0.0001     0.0000 </r>
        <r>   -16.2640     0.0000     0.0000     0.0000 </r>
        <r>   -16.1612     0.0000     0.0000     0.0000 </r>
        <r>   -16.0584     0.0000     0.0000     0.0000 </r>
        <r>   -15.9556     0.0000     0.0000     0.0000 </r>
        <r>   -15.8529     0.0000     0.0000     0.0000 </r>
        <r>   -15.7501     0.0000     0.0000     0.0000 </r>
        <r>   -15.6473     0.0000     0.0000     0.0000 </r>
        <r>   -15.5445     0.0000     0.0000     0.0000 </r>
        <r>   -15.4418     0.0000     0.0000     0.0000 </r>
        <r>   -15.3390     0.0000     0.0000     0.0000 </r>
        <r>   -15.2362     0.0000     0.0000     0.0000 </r>
        <r>   -15.1334     0.0000     0.0000     0.0000 </r>
        <r>   -15.0307     0.0000     0.0000     0.0000 </r>
        <r>   -14.9279     0.0000     0.0000     0.0000 </r>
        <r>   -14.8251     0.0000     0.0000     0.0000 </r>
        <r>   -14.7223     0.0000     0.0000     0.0000 </r>
        <r>   -14.6196     0.0000     0.0000     0.0000 </r>
        <r>   -14.5168     0.0000     0.0000     0.0000 </r>
        <r>   -14.4140     0.0000     0.0000     0.0000 </r>
        <r>   -14.3112     0.0004     0.0000     0.0000 </r>
        <r>   -14.2085     0.0031     0.0019     0.0000 </r>
        <r>   -14.1057     0.0011     0.0063     0.0003 </r>
        <r>   -14.0029     0.0016     0.0029     0.0002 </r>
        <r>   -13.9001     0.0009     0.0045     0.0005 </r>
        <r>   -13.7974     0.0007     0.0013     0.0002 </r>
        <r>   -13.6946     0.0003     0.0006     0.0001 </r>
        <r>   -13.5918     0.0000     0.0000     0.0000 </r>
        <r>   -13.4890     0.0000     0.0000     0.0000 </r>
        <r>   -13.3863     0.0000     0.0000     0.0000 </r>
        <r>   -13.2835     0.0000     0.0000     0.0000 </r>
        <r>   -13.1807     0.0000     0.0000     0.0000 </r>
        <r>   -13.0779     0.0000     0.0000     0.0000 </r>
        <r>   -12.9752     0.0000     0.0000     0.0000 </r>
        <r>   -12.8724     0.0000     0.0000     0.0000 </r>
        <r>   -12.7696     0.0000     0.0000     0.0000 </r>
        <r>   -12.6668     0.0000     0.0000     0.0000 </r>
        <r>   -12.5641     0.0000     0.0000     0.0000 </r>
        <r>   -12.4613     0.0000     0.0000     0.0000 </r>
        <r>   -12.3585     0.0000     0.0000     0.0000 </r>
[...]
       <set comment="band 16">
        <r>  0.0000  0.0002  0.0000 </r>
        <r>  0.0000  0.0002  0.0000 </r>
        <r>  0.0000  0.0016  0.0084 </r>
        <r>  0.0000  0.0016  0.0084 </r>
        <r>  0.1967  0.0000  0.0000 </r>
        <r>  0.1967  0.0000  0.0000 </r>
        <r>  0.0000  0.0000  0.0000 </r>
        <r>  0.0000  0.0000  0.0000 </r>
        <r>  0.1967  0.0000  0.0000 </r>
        <r>  0.1967  0.0000  0.0000 </r>
       </set>
       <set comment="band 17">
        <r>  0.0001  0.0000  0.0000 </r>
        <r>  0.0001  0.0000  0.0000 </r>
        <r>  0.0013  0.0006  0.0219 </r>
        <r>  0.0013  0.0006  0.0219 </r>
        <r>  0.0643  0.0001  0.0000 </r>
        <r>  0.0643  0.0001  0.0000 </r>
        <r>  0.2569  0.0000  0.0000 </r>
        <r>  0.2569  0.0000  0.0000 </r>
        <r>  0.0643  0.0001  0.0000 </r>
        <r>  0.0643  0.0001  0.0000 </r>
       </set>
       <set comment="band 18">
        <r>  0.0001  0.0000  0.0000 </r>
        <r>  0.0001  0.0000  0.0000 </r>
        <r>  0.0000  0.0005  0.0231 </r>
        <r>  0.0000  0.0005  0.0231 </r>
        <r>  0.1935  0.0000  0.0000 </r>
        <r>  0.1935  0.0000  0.0000 </r>
        <r>  0.0013  0.0000  0.0000 </r>
        <r>  0.0013  0.0000  0.0000 </r>
        <r>  0.1935  0.0000  0.0000 </r>
        <r>  0.1935  0.0000  0.0000 </r>
       </set>
       <set comment="band 19">
        <r>  0.0000  0.0529  0.0000 </r>
        <r>  0.0000  0.0529  0.0000 </r>
        <r>  0.2564  0.0009  0.0004 </r>
        <r>  0.2564  0.0009  0.0004 </r>
        <r>  0.0073  0.0071  0.0004 </r>
        <r>  0.0073  0.0071  0.0004 </r>
        <r>  0.0000  0.0193  0.0001 </r>
        <r>  0.0000  0.0193  0.0001 </r>
        <r>  0.0073  0.0071  0.0004 </r>
        <r>  0.0073  0.0071  0.0004 </r>
       </set>
       <set comment="band 20">
        <r>  0.0000  0.0418  0.0000 </r>
        <r>  0.0000  0.0418  0.0000 </r>
        <r>  0.2666  0.0007  0.0005 </r>
        <r>  0.2666  0.0007  0.0005 </r>
        <r>  0.0018  0.0165  0.0002 </r>
        <r>  0.0018  0.0165  0.0002 </r>
        <r>  0.0112  0.0011  0.0006 </r>
        <r>  0.0112  0.0011  0.0006 </r>
        <r>  0.0018  0.0165  0.0002 </r>
        <r>  0.0018  0.0165  0.0002 </r>
       </set>
       <set comment="band 21">
        <r>  0.0000  0.3822  0.0000 </r>
        <r>  0.0000  0.3822  0.0000 </r>
        <r>  0.0024  0.0000  0.0000 </r>
        <r>  0.0024  0.0000  0.0000 </r>
        <r>  0.0005  0.0002  0.0000 </r>
        <r>  0.0005  0.0002  0.0000 </r>
        <r>  0.0000  0.0009  0.0000 </r>
        <r>  0.0000  0.0009  0.0000 </r>
        <r>  0.0005  0.0002  0.0000 </r>
        <r>  0.0005  0.0002  0.0000 </r>
       </set>
       <set comment="band 22">
        <r>  0.0000  0.3770  0.0000 </r>
        <r>  0.0000  0.3770  0.0000 </r>
        <r>  0.0085  0.0000  0.0000 </r>
        <r>  0.0085  0.0000  0.0000 </r>
        <r>  0.0000  0.0004  0.0000 </r>
        <r>  0.0000  0.0004  0.0000 </r>
        <r>  0.0000  0.0009  0.0000 </r>
        <r>  0.0000  0.0009  0.0000 </r>
        <r>  0.0000  0.0004  0.0000 </r>
        <r>  0.0000  0.0004  0.0000 </r>
       </set>
       <set comment="band 23">
        <r>  0.0000  0.3844  0.0000 </r>
        <r>  0.0000  0.3844  0.0000 </r>
        <r>  0.0003  0.0000  0.0000 </r>
        <r>  0.0003  0.0000  0.0000 </r>
        <r>  0.0005  0.0007  0.0000 </r>
        <r>  0.0005  0.0007  0.0000 </r>
        <r>  0.0000  0.0003  0.0000 </r>
        <r>  0.0000  0.0003  0.0000 </r>
        <r>  0.0005  0.0007  0.0000 </r>
        <r>  0.0005  0.0007  0.0000 </r>
       </set>
       <set comment="band 24">
        <r>  0.0000  0.3852  0.0000 </r>
        <r>  0.0000  0.3852  0.0000 </r>
        <r>  0.0000  0.0000  0.0000 </r>
        <r>  0.0000  0.0000  0.0000 </r>
        <r>  0.0002  0.0003  0.0000 </r>
        <r>  0.0002  0.0003  0.0000 </r>
        <r>  0.0007  0.0010  0.0000 </r>
        <r>  0.0007  0.0010  0.0000 </r>
        <r>  0.0002  0.0003  0.0000 </r>
        <r>  0.0002  0.0003  0.0000 </r>
       </set>
       <set comment="band 25">
        <r>  0.0000  0.3466  0.0000 </r>
        <r>  0.0000  0.3466  0.0000 </r>
        <r>  0.0309  0.0002  0.0001 </r>
        <r>  0.0309  0.0002  0.0001 </r>
        <r>  0.0025  0.0011  0.0000 </r>
        <r>  0.0025  0.0011  0.0000 </r>
        <r>  0.0000  0.0025  0.0000 </r>
        <r>  0.0000  0.0025  0.0000 </r>
        <r>  0.0025  0.0011  0.0000 </r>
        <r>  0.0025  0.0011  0.0000 </r>
       </set>
       <set comment="band 26">
        <r>  0.0000  0.3446  0.0000 </r>
        <r>  0.0000  0.3446  0.0000 </r>
        <r>  0.0324  0.0001  0.0001 </r>
        <r>  0.0324  0.0001  0.0001 </r>
        <r>  0.0010  0.0023  0.0000 </r>
        <r>  0.0010  0.0023  0.0000 </r>
        <r>  0.0033  0.0003  0.0001 </r>
        <r>  0.0033  0.0003  0.0001 </r>
        <r>  0.0010  0.0023  0.0000 </r>
        <r>  0.0010  0.0023  0.0000 </r>
       </set>
       <set comment="band 27">
        <r>  0.0000  0.0006  0.0001 </r>
        <r>  0.0000  0.0006  0.0001 </r>
        <r>  0.0000  0.0487  0.0001 </r>
        <r>  0.0000  0.0487  0.0001 </r>
        <r>  0.0000  0.0079  0.0002 </r>
        <r>  0.0000  0.0079  0.0002 </r>
        <r>  0.0000  0.2035  0.0000 </r>
        <r>  0.0000  0.2035  0.0000 </r>
        <r>  0.0000  0.0079  0.0002 </r>
        <r>  0.0000  0.0079  0.0002 </r>
       </set>
       <set comment="band 28">
        <r>  0.0000  0.0002  0.0003 </r>
        <r>  0.0000  0.0002  0.0003 </r>
        <r>  0.0000  0.0422  0.0020 </r>
        <r>  0.0000  0.0422  0.0020 </r>
        <r>  0.0005  0.1128  0.0001 </r>
        <r>  0.0005  0.1128  0.0001 </r>
        <r>  0.0000  0.0006  0.0002 </r>
        <r>  0.0000  0.0006  0.0002 </r>
        <r>  0.0005  0.1128  0.0001 </r>
        <r>  0.0005  0.1128  0.0001 </r>
       </set>
       <set comment="band 29">
        <r>  0.0000  0.0010  0.0002 </r>
        <r>  0.0000  0.0010  0.0002 </r>
        <r>  0.0107  0.0406  0.0021 </r>
        <r>  0.0107  0.0406  0.0021 </r>
        <r>  0.0012  0.0999  0.0002 </r>
        <r>  0.0012  0.0999  0.0002 </r>
        <r>  0.0000  0.0212  0.0002 </r>
        <r>  0.0000  0.0212  0.0002 </r>
        <r>  0.0012  0.0999  0.0002 </r>
        <r>  0.0012  0.0999  0.0002 </r>
       </set>
       <set comment="band 30">
        <r>  0.0000  0.0043  0.0001 </r>
        <r>  0.0000  0.0043  0.0001 </r>
        <r>  0.0001  0.0246  0.0049 </r>
        <r>  0.0001  0.0246  0.0049 </r>
        <r>  0.0011  0.0964  0.0002 </r>
        <r>  0.0011  0.0964  0.0002 </r>
        <r>  0.0000  0.0539  0.0000 </r>
        <r>  0.0000  0.0539  0.0000 </r>
        <r>  0.0011  0.0964  0.0002 </r>
        <r>  0.0011  0.0964  0.0002 </r>
       </set>
       <set comment="band 31">
        <r>  0.0016  0.0002  0.0004 </r>
        <r>  0.0016  0.0002  0.0004 </r>
        <r>  0.0063  0.0087  0.0016 </r>
        <r>  0.0063  0.0087  0.0016 </r>
        <r>  0.0011  0.1021  0.0001 </r>
        <r>  0.0011  0.1021  0.0001 </r>
        <r>  0.0002  0.0355  0.0000 </r>
        <r>  0.0002  0.0355  0.0000 </r>
        <r>  0.0011  0.1021  0.0001 </r>
        <r>  0.0011  0.1021  0.0001 </r>
       </set>
       <set comment="band 32">
        <r>  0.0018  0.0002  0.0002 </r>
        <r>  0.0018  0.0002  0.0002 </r>
        <r>  0.0002  0.0063  0.0012 </r>
        <r>  0.0002  0.0063  0.0012 </r>
        <r>  0.0001  0.0830  0.0000 </r>
        <r>  0.0001  0.0830  0.0000 </r>
        <r>  0.0022  0.0824  0.0001 </r>
        <r>  0.0022  0.0824  0.0001 </r>
        <r>  0.0001  0.0830  0.0000 </r>
        <r>  0.0001  0.0830  0.0000 </r>
       </set>
       <set comment="band 33">
        <r>  0.0002  0.0048  0.0010 </r>
        <r>  0.0002  0.0048  0.0010 </r>
        <r>  0.0079  0.0091  0.0009 </r>
        <r>  0.0079  0.0091  0.0009 </r>
        <r>  0.0006  0.0522  0.0002 </r>
        <r>  0.0006  0.0522  0.0002 </r>
        <r>  0.0001  0.1532  0.0001 </r>
        <r>  0.0001  0.1532  0.0001 </r>
        <r>  0.0006  0.0522  0.0002 </r>
        <r>  0.0006  0.0522  0.0002 </r>
       </set>
       <set comment="band 34">
        <r>  0.0000  0.0055  0.0006 </r>
        <r>  0.0000  0.0055  0.0006 </r>
        <r>  0.0000  0.0010  0.0023 </r>
        <r>  0.0000  0.0010  0.0023 </r>
        <r>  0.0000  0.0789  0.0000 </r>
        <r>  0.0000  0.0789  0.0000 </r>
        <r>  0.0000  0.1159  0.0001 </r>
        <r>  0.0000  0.1159  0.0001 </r>
        <r>  0.0000  0.0789  0.0000 </r>
        <r>  0.0000  0.0789  0.0000 </r>
       </set>
       <set comment="band 35">
        <r>  0.0000  0.0039  0.0008 </r>
        <r>  0.0000  0.0039  0.0008 </r>
        <r>  0.0001  0.0012  0.0021 </r>
        <r>  0.0001  0.0012  0.0021 </r>
        <r>  0.0000  0.1299  0.0000 </r>
        <r>  0.0000  0.1299  0.0000 </r>
        <r>  0.0000  0.0263  0.0000 </r>
        <r>  0.0000  0.0263  0.0000 </r>
        <r>  0.0000  0.1299  0.0000 </r>
        <r>  0.0000  0.1299  0.0000 </r>
       </set>
       <set comment="band 36">
        <r>  0.0000  0.0036  0.0005 </r>
        <r>  0.0000  0.0036  0.0005 </r>
        <r>  0.0007  0.0006  0.0012 </r>
        <r>  0.0007  0.0006  0.0012 </r>
        <r>  0.0000  0.0930  0.0000 </r>
        <r>  0.0000  0.0930  0.0000 </r>
        <r>  0.0000  0.1015  0.0001 </r>
        <r>  0.0000  0.1015  0.0001 </r>
        <r>  0.0000  0.0930  0.0000 </r>
        <r>  0.0000  0.0930  0.0000 </r>
       </set>
       <set comment="band 37">
        <r>  0.0001  0.0013  0.0010 </r>
        <r>  0.0001  0.0013  0.0010 </r>
        <r>  0.0001  0.0003  0.0014 </r>
        <r>  0.0001  0.0003  0.0014 </r>
        <r>  0.0000  0.1397  0.0000 </r>
        <r>  0.0000  0.1397  0.0000 </r>
        <r>  0.0001  0.0074  0.0001 </r>
        <r>  0.0001  0.0074  0.0001 </r>
        <r>  0.0000  0.1397  0.0000 </r>
        <r>  0.0000  0.1397  0.0000 </r>
       </set>
       <set comment="band 38">
        <r>  0.0000  0.0027  0.0004 </r>
        <r>  0.0000  0.0027  0.0004 </r>
        <r>  0.0002  0.0007  0.0024 </r>
        <r>  0.0002  0.0007  0.0024 </r>
        <r>  0.0000  0.0749  0.0000 </r>
        <r>  0.0000  0.0749  0.0000 </r>
        <r>  0.0000  0.1456  0.0001 </r>
        <r>  0.0000  0.1456  0.0001 </r>
        <r>  0.0000  0.0749  0.0000 </r>
        <r>  0.0000  0.0749  0.0000 </r>
       </set>
       <set comment="band 39">
        <r>  0.0000  0.0038  0.0007 </r>
        <r>  0.0000  0.0038  0.0007 </r>
        <r>  0.0017  0.0062  0.0012 </r>
        <r>  0.0017  0.0062  0.0012 </r>
        <r>  0.0001  0.0554  0.0001 </r>
        <r>  0.0001  0.0554  0.0001 </r>
        <r>  0.0006  0.1771  0.0001 </r>
        <r>  0.0006  0.1771  0.0001 </r>
        <r>  0.0001  0.0554  0.0001 </r>
        <r>  0.0001  0.0554  0.0001 </r>
       </set>
       <set comment="band 40">
        <r>  0.0000  0.0020  0.0004 </r>
        <r>  0.0000  0.0020  0.0004 </r>
        <r>  0.0002  0.0006  0.0005 </r>
        <r>  0.0002  0.0006  0.0005 </r>
        <r>  0.0000  0.0739  0.0001 </r>
        <r>  0.0000  0.0739  0.0001 </r>
        <r>  0.0000  0.1524  0.0000 </r>
        <r>  0.0000  0.1524  0.0000 </r>
        <r>  0.0000  0.0739  0.0001 </r>
        <r>  0.0000  0.0739  0.0001 </r>
       </set>
       <set comment="band 41">
        <r>  0.0001  0.0010  0.0007 </r>
        <r>  0.0001  0.0010  0.0007 </r>
        <r>  0.0001  0.0013  0.0003 </r>
        <r>  0.0001  0.0013  0.0003 </r>
        <r>  0.0000  0.1309  0.0000 </r>
        <r>  0.0000  0.1309  0.0000 </r>
        <r>  0.0001  0.0425  0.0000 </r>
        <r>  0.0001  0.0425  0.0000 </r>
        <r>  0.0000  0.1309  0.0000 </r>
        <r>  0.0000  0.1309  0.0000 </r>
       </set>
       <set comment="band 42">
        <r>  0.0000  0.0035  0.0003 </r>
        <r>  0.0000  0.0035  0.0003 </r>
        <r>  0.0031  0.0006  0.0023 </r>
        <r>  0.0031  0.0006  0.0023 </r>
        <r>  0.0000  0.1333  0.0001 </r>
        <r>  0.0000  0.1333  0.0001 </r>
        <r>  0.0000  0.0425  0.0000 </r>
        <r>  0.0000  0.0425  0.0000 </r>
        <r>  0.0000  0.1333  0.0001 </r>
        <r>  0.0000  0.1333  0.0001 </r>
       </set>
       <set comment="band 43">
        <r>  0.0002  0.0013  0.0002 </r>
        <r>  0.0002  0.0013  0.0002 </r>
        <r>  0.0619  0.0114  0.0020 </r>
        <r>  0.0619  0.0114  0.0020 </r>
        <r>  0.0007  0.1017  0.0005 </r>
        <r>  0.0007  0.1017  0.0005 </r>
        <r>  0.0006  0.0558  0.0005 </r>
        <r>  0.0006  0.0558  0.0005 </r>
        <r>  0.0007  0.1017  0.0005 </r>
        <r>  0.0007  0.1017  0.0005 </r>
       </set>
       <set comment="band 44">
        <r>  0.0000  0.0005  0.0001 </r>
        <r>  0.0000  0.0005  0.0001 </r>
        <r>  0.0660  0.0036  0.0052 </r>
        <r>  0.0660  0.0036  0.0052 </r>
        <r>  0.0007  0.0314  0.0005 </r>
        <r>  0.0007  0.0314  0.0005 </r>
        <r>  0.0000  0.2095  0.0001 </r>
        <r>  0.0000  0.2095  0.0001 </r>
        <r>  0.0007  0.0314  0.0005 </r>
        <r>  0.0007  0.0314  0.0005 </r>
       </set>
       <set comment="band 45">
        <r>  0.0001  0.0008  0.0004 </r>
        <r>  0.0001  0.0008  0.0004 </r>
        <r>  0.0001  0.1933  0.0002 </r>
        <r>  0.0001  0.1933  0.0002 </r>
        <r>  0.0008  0.0136  0.0013 </r>
        <r>  0.0008  0.0136  0.0013 </r>
        <r>  0.0177  0.0024  0.0107 </r>
        <r>  0.0177  0.0024  0.0107 </r>
        <r>  0.0008  0.0136  0.0013 </r>
        <r>  0.0008  0.0136  0.0013 </r>
       </set>
       <set comment="band 46">
        <r>  0.0000  0.0007  0.0001 </r>
        <r>  0.0000  0.0007  0.0001 </r>
        <r>  0.0000  0.1798  0.0026 </r>
        <r>  0.0000  0.1798  0.0026 </r>
        <r>  0.0075  0.0213  0.0058 </r>
        <r>  0.0075  0.0213  0.0058 </r>
        <r>  0.0000  0.0147  0.0005 </r>
        <r>  0.0000  0.0147  0.0005 </r>
        <r>  0.0075  0.0213  0.0058 </r>
        <r>  0.0075  0.0213  0.0058 </r>
       </set>
       <set comment="band 47">
        <r>  0.0001  0.0004  0.0007 </r>
        <r>  0.0001  0.0004  0.0007 </r>
        <r>  0.0094  0.1739  0.0016 </r>
        <r>  0.0094  0.1739  0.0016 </r>
        <r>  0.0071  0.0240  0.0055 </r>
        <r>  0.0071  0.0240  0.0055 </r>
        <r>  0.0018  0.0136  0.0008 </r>
        <r>  0.0018  0.0136  0.0008 </r>
        <r>  0.0071  0.0240  0.0055 </r>
        <r>  0.0071  0.0240  0.0055 </r>
       </set>
       <set comment="band 48">
        <r>  0.0006  0.0000  0.0030 </r>
        <r>  0.0006  0.0000  0.0030 </r>
        <r>  0.0000  0.1500  0.0030 </r>
        <r>  0.0000  0.1500  0.0030 </r>
        <r>  0.0039  0.0472  0.0032 </r>
        <r>  0.0039  0.0472  0.0032 </r>
        <r>  0.0000  0.0009  0.0051 </r>
        <r>  0.0000  0.0009  0.0051 </r>
        <r>  0.0039  0.0472  0.0032 </r>
        <r>  0.0039  0.0472  0.0032 </r>
       </set>
       <set comment="band 49">
        <r>  0.0000  0.0018  0.0025 </r>
        <r>  0.0000  0.0018  0.0025 </r>
        <r>  0.0081  0.1478  0.0014 </r>
        <r>  0.0081  0.1478  0.0014 </r>
        <r>  0.0050  0.0427  0.0026 </r>
        <r>  0.0050  0.0427  0.0026 </r>
        <r>  0.0000  0.0012  0.0055 </r>
        <r>  0.0000  0.0012  0.0055 </r>
        <r>  0.0050  0.0427  0.0026 </r>
        <r>  0.0050  0.0427  0.0026 </r>
       </set>
       <set comment="band 50">
        <r>  0.0000  0.0002  0.0013 </r>
        <r>  0.0000  0.0002  0.0013 </r>
        <r>  0.0000  0.1538  0.0008 </r>
        <r>  0.0000  0.1538  0.0008 </r>
        <r>  0.0001  0.0014  0.0058 </r>
        <r>  0.0001  0.0014  0.0058 </r>
        <r>  0.0000  0.1114  0.0016 </r>
        <r>  0.0000  0.1114  0.0016 </r>
        <r>  0.0001  0.0014  0.0058 </r>
        <r>  0.0001  0.0014  0.0058 </r>
       </set>
       <set comment="band 51">
        <r>  0.0137  0.0049  0.0271 </r>
        <r>  0.0137  0.0049  0.0271 </r>
        <r>  0.0004  0.0075  0.0006 </r>
        <r>  0.0004  0.0075  0.0006 </r>
        <r>  0.0012  0.0069  0.0016 </r>
        <r>  0.0012  0.0069  0.0016 </r>
        <r>  0.0102  0.0039  0.0080 </r>
        <r>  0.0102  0.0039  0.0080 </r>
        <r>  0.0012  0.0069  0.0016 </r>
        <r>  0.0012  0.0069  0.0016 </r>
       </set>
       <set comment="band 52">
        <r>  0.0145  0.0022  0.0309 </r>
        <r>  0.0145  0.0022  0.0309 </r>
        <r>  0.0003  0.0106  0.0007 </r>
        <r>  0.0003  0.0106  0.0007 </r>
        <r>  0.0018  0.0148  0.0027 </r>
        <r>  0.0018  0.0148  0.0027 </r>
        <r>  0.0054  0.0046  0.0048 </r>
        <r>  0.0054  0.0046  0.0048 </r>
        <r>  0.0018  0.0148  0.0027 </r>
        <r>  0.0018  0.0148  0.0027 </r>
       </set>
       <set comment="band 53">
        <r>  0.0023  0.0022  0.0657 </r>
        <r>  0.0023  0.0022  0.0657 </r>
        <r>  0.0001  0.0070  0.0005 </r>
        <r>  0.0001  0.0070  0.0005 </r>
        <r>  0.0010  0.0126  0.0056 </r>
        <r>  0.0010  0.0126  0.0056 </r>
        <r>  0.0005  0.0005  0.0014 </r>
        <r>  0.0005  0.0005  0.0014 </r>
        <r>  0.0010  0.0126  0.0056 </r>
        <r>  0.0010  0.0126  0.0056 </r>
       </set>
       <set comment="band 54">
        <r>  0.0000  0.0074  0.0563 </r>
        <r>  0.0000  0.0074  0.0563 </r>
        <r>  0.0000  0.0079  0.0006 </r>
        <r>  0.0000  0.0079  0.0006 </r>
        <r>  0.0015  0.0073  0.0040 </r>
        <r>  0.0015  0.0073  0.0040 </r>
        <r>  0.0000  0.0098  0.0065 </r>
        <r>  0.0000  0.0098  0.0065 </r>
        <r>  0.0015  0.0073  0.0040 </r>
        <r>  0.0015  0.0073  0.0040 </r>
       </set>
       <set comment="band 55">
        <r>  0.0000  0.0099  0.0484 </r>
        <r>  0.0000  0.0099  0.0484 </r>
        <r>  0.0000  0.0089  0.0013 </r>
        <r>  0.0000  0.0089  0.0013 </r>
        <r>  0.0047  0.0093  0.0049 </r>
        <r>  0.0047  0.0093  0.0049 </r>
        <r>  0.0000  0.0050  0.0043 </r>
        <r>  0.0000  0.0050  0.0043 </r>
        <r>  0.0047  0.0093  0.0049 </r>
        <r>  0.0047  0.0093  0.0049 </r>
       </set>
       <set comment="band 56">
        <r>  0.0011  0.0029  0.0696 </r>
        <r>  0.0011  0.0029  0.0698 </r>
        <r>  0.0000  0.0017  0.0035 </r>
        <r>  0.0000  0.0019  0.0035 </r>
        <r>  0.0005  0.0081  0.0053 </r>
        <r>  0.0003  0.0093  0.0053 </r>
        <r>  0.0028  0.0022  0.0069 </r>
        <r>  0.0028  0.0022  0.0068 </r>
        <r>  0.0003  0.0093  0.0053 </r>
        <r>  0.0005  0.0082  0.0053 </r>
       </set>
      </set>
     </set>
    </set>
   </array>
  </projected>
 </calculation>
 <structure name="finalpos" >
  <crystal>
   <varray name="basis" >
    <v>       5.77830353       5.77830353      -0.18765243 </v>
    <v>       5.96595596       0.00000000      -5.96595596 </v>
    <v>      -0.00000000       5.96595596      -5.96595596 </v>
   </varray>
   <i name="volume">    404.65100183 </i>
   <varray name="rec_basis" >
    <v>       0.08795883       0.08795883       0.08795883 </v>
    <v>       0.08242554      -0.08519219      -0.08519219 </v>
    <v>      -0.08519219       0.08242554      -0.08519219 </v>
   </varray>
  </crystal>
  <varray name="positions" >
   <v>       0.75000000       0.75000000       0.75000000 </v>
   <v>       0.25000000       0.25000000       0.25000000 </v>
   <v>       0.00000000       0.00000000       0.00000000 </v>
   <v>       0.50000000       0.50000000       0.50000000 </v>
   <v>       0.25000000       0.68713317       0.25000000 </v>
   <v>       0.75000000       0.31286683       0.75000000 </v>
   <v>       0.25000000       0.81286683       0.68713317 </v>
   <v>       0.75000000       0.18713317       0.31286683 </v>
   <v>       0.25000000       0.25000000       0.81286683 </v>
   <v>       0.75000000       0.75000000       0.18713317 </v>
  </varray>
 </structure>
</modeling>
