CsPbBr3 cubic bulk                      
           1
     5.778304    5.778304   -0.187652
     5.965956    0.000000   -5.965956
    -0.000000    5.965956   -5.965956
   Cs   Pb   Br
   2   2   6
Direct configuration=     1
   0.75000000  0.75000000  0.75000000
   0.25000000  0.25000000  0.25000000
   0.00000000  0.00000000  0.00000000
   0.50000000  0.50000000  0.50000000
   0.25000000  0.68713317  0.25000000
   0.75000000  0.31286683  0.75000000
   0.25000000  0.81286683  0.68713317
   0.75000000  0.18713317  0.31286683
   0.25000000  0.25000000  0.81286683
   0.75000000  0.75000000  0.18713317
