 vasp.5.4.4.18Apr17-6-g9f103f2a35 (build Jun 22 2020 09:27:21) complex           
 executed on tx2_gcc-7.3_libsci-1 date 2021.09.09  19:54:16
 running on   64 total cores
 distrk:  each k-point on   64 cores,    1 groups
 distr:  one band on NCORES_PER_BAND=   8 cores,    8 groups


--------------------------------------------------------------------------------------------------------


 INCAR:
 POTCAR:    PAW_PBE Cs_sv 08Apr2002               
 POTCAR:    PAW_PBE Pb_d 06Sep2000                
 POTCAR:    PAW_PBE Br 06Sep2000                  
 POTCAR:    PAW_PBE Cs_sv 08Apr2002               
   SHA256 =  c1463496f0f6037ed62c6012a8013a89ee9ad6ffb38599dcd6c079e7ed31779b Cs
   COPYR  = (c) Copyright 08Apr2002 Georg Kresse                                
   COPYR  = This file is part of the software VASP. Any use, copying, and all ot
   COPYR  = If you do not have a valid VASP license, you may not use, copy or di
   VRHFIN =Cs: 5s5p6s                                                           
   LEXCH  = PE                                                                  
   EATOM  =   555.6835 eV,   40.8416 Ry                                         
                                                                                
   TITEL  = PAW_PBE Cs_sv 08Apr2002                                             
   LULTRA =        F    use ultrasoft PP ?                                      
   IUNSCR =        1    unscreen: 0-lin 1-nonlin 2-no                           
   RPACOR =    2.200    partial core radius                                     
   POMASS =  132.900; ZVAL   =    9.000    mass and valenz                      
   RCORE  =    2.500    outmost cutoff radius                                   
   RWIGS  =    2.500; RWIGS  =    1.323    wigner-seitz radius (au A)           
   ENMAX  =  220.318; ENMIN  =  165.238 eV                                      
   RCLOC  =    2.207    cutoff for local pot                                    
   LCOR   =        T    correct aug charges                                     
   LPAW   =        T    paw PP                                                  
   EAUG   =  407.933                                                            
   DEXC   =    0.000                                                            
   RMAX   =    2.554    core radius for proj-oper                               
   RAUG   =    1.300    factor for augmentation sphere                          
   RDEP   =    2.590    radius for radial grids                                 
   RDEPT  =    2.117    core radius for aug-charge                              
                                                                                
   Atomic configuration                                                         
   13 entries                                                                   
     n  l   j            E        occ.                                          
     1  0  0.50    -35790.1377   2.0000                                         
     2  0  0.50     -5613.6201   2.0000                                         
     2  1  1.50     -5035.0101   6.0000                                         
     3  0  0.50     -1167.0767   2.0000                                         
     3  1  1.50      -980.9754   6.0000                                         
     3  2  2.50      -708.0703  10.0000                                         
     4  0  0.50      -220.2386   2.0000                                         
     4  1  1.50      -160.7596   6.0000                                         
     4  2  2.50       -74.2354  10.0000                                         
     5  0  0.50       -26.7287   2.0000                                         
     6  0  0.50        -2.0862   1.0000                                         
     5  1  1.50       -13.5159   6.0000                                         
     5  2  2.50        -0.4136   0.0000                                         
   Description                                                                  
     l       E           TYP  RCUT    TYP  RCUT                                 
     0    -26.7287425     23  1.900                                             
     0     -2.0862306     23  1.900                                             
     1    -13.5158719     23  2.500                                             
     1     -2.7211652     23  2.500                                             
     2     -0.4136171     23  2.500                                             
  local pseudopotential read in
  partial core-charges read in
  partial kinetic energy density read in
  atomic valenz-charges read in
  non local Contribution for L=           0  read in
    real space projection operators read in
  non local Contribution for L=           0  read in
    real space projection operators read in
  non local Contribution for L=           1  read in
    real space projection operators read in
  non local Contribution for L=           1  read in
    real space projection operators read in
  non local Contribution for L=           2  read in
    real space projection operators read in
    PAW grid and wavefunctions read in

   number of l-projection  operators is LMAX  =           5
   number of lm-projection operators is LMMAX =          13

 POTCAR:    PAW_PBE Pb_d 06Sep2000                
   SHA256 =  fb885b08f0fba73a15f6a6b0e39bd200c13ec96ef97cf3ecd8e63bade5137abd Pb
   COPYR  = (c) Copyright 06Sep2000 Georg Kresse                                
   COPYR  = This file is part of the software VASP. Any use, copying, and all ot
   COPYR  = If you do not have a valid VASP license, you may not use, copy or di
   VRHFIN =Pb:                                                                  
   LEXCH  = PE                                                                  
   EATOM  =  1661.6185 eV,  122.1255 Ry                                         
                                                                                
   TITEL  = PAW_PBE Pb_d 06Sep2000                                              
   LULTRA =        F    use ultrasoft PP ?                                      
   IUNSCR =        1    unscreen: 0-lin 1-nonlin 2-no                           
   RPACOR =    2.200    partial core radius                                     
   POMASS =  207.200; ZVAL   =   14.000    mass and valenz                      
   RCORE  =    2.500    outmost cutoff radius                                   
   RWIGS  =    3.260; RWIGS  =    1.725    wigner-seitz radius (au A)           
   ENMAX  =  237.835; ENMIN  =  178.376 eV                                      
   ICORE  =        3    local potential                                         
   LCOR   =        T    correct aug charges                                     
   LPAW   =        T    paw PP                                                  
   EAUG   =  391.914                                                            
   DEXC   =    0.000                                                            
   RMAX   =    2.565    core radius for proj-oper                               
   RAUG   =    1.300    factor for augmentation sphere                          
   RDEP   =    2.643    radius for radial grids                                 
   RDEPT  =    2.092    core radius for aug-charge                              
                                                                                
   Atomic configuration                                                         
   16 entries                                                                   
     n  l   j            E        occ.                                          
     1  0  0.50    -88091.8466   2.0000                                         
     2  0  0.50    -15753.4197   2.0000                                         
     2  1  1.50    -13508.1797   6.0000                                         
     3  0  0.50     -3781.7194   2.0000                                         
     3  1  1.50     -3138.2529   6.0000                                         
     3  2  2.50     -2483.2977  10.0000                                         
     4  0  0.50      -856.2895   2.0000                                         
     4  1  1.50      -645.4942   6.0000                                         
     4  2  2.50      -401.8768  10.0000                                         
     4  3  3.50      -132.9059  14.0000                                         
     5  0  0.50      -144.0950   2.0000                                         
     5  1  1.50       -85.7879   6.0000                                         
     5  2  2.50       -21.1769  10.0000                                         
     6  0  0.50       -12.0372   2.0000                                         
     6  1  1.50        -3.4971   2.0000                                         
     5  3  2.50        -2.7212   0.0000                                         
   Description                                                                  
     l       E           TYP  RCUT    TYP  RCUT                                 
     2    -21.1768523     23  2.500                                             
     2      1.3605826     23  2.500                                             
     0    -12.0371562     23  2.500                                             
     0     13.6058260     23  2.500                                             
     1     -3.4971339     23  2.500                                             
     1     13.6058260     23  2.500                                             
     3     -1.3605826      7  2.500                                             
  local pseudopotential read in
  partial core-charges read in
  partial kinetic energy density read in
  atomic valenz-charges read in
  non local Contribution for L=           2  read in
    real space projection operators read in
  non local Contribution for L=           2  read in
    real space projection operators read in
  non local Contribution for L=           0  read in
    real space projection operators read in
  non local Contribution for L=           0  read in
    real space projection operators read in
  non local Contribution for L=           1  read in
    real space projection operators read in
  non local Contribution for L=           1  read in
    real space projection operators read in
    PAW grid and wavefunctions read in

   number of l-projection  operators is LMAX  =           6
   number of lm-projection operators is LMMAX =          18

 POTCAR:    PAW_PBE Br 06Sep2000                  
   SHA256 =  96a73d2954943bbee26f4990d676cc6c3bf44b8dd2c75cd4b3b825d8403f0103 Br
   COPYR  = (c) Copyright 06Sep2000 Georg Kresse                                
   COPYR  = This file is part of the software VASP. Any use, copying, and all ot
   COPYR  = If you do not have a valid VASP license, you may not use, copy or di
   VRHFIN =Br: s2p5                                                             
   LEXCH  = PE                                                                  
   EATOM  =   368.4488 eV,   27.0802 Ry                                         
                                                                                
   TITEL  = PAW_PBE Br 06Sep2000                                                
   LULTRA =        F    use ultrasoft PP ?                                      
   IUNSCR =        1    unscreen: 0-lin 1-nonlin 2-no                           
   RPACOR =    1.900    partial core radius                                     
   POMASS =   79.904; ZVAL   =    7.000    mass and valenz                      
   RCORE  =    2.100    outmost cutoff radius                                   
   RWIGS  =    2.200; RWIGS  =    1.164    wigner-seitz radius (au A)           
   ENMAX  =  216.285; ENMIN  =  162.214 eV                                      
   ICORE  =        3    local potential                                         
   LCOR   =        T    correct aug charges                                     
   LPAW   =        T    paw PP                                                  
   EAUG   =  503.852                                                            
   DEXC   =    0.000                                                            
   RMAX   =    2.139    core radius for proj-oper                               
   RAUG   =    1.300    factor for augmentation sphere                          
   RDEP   =    2.186    radius for radial grids                                 
   RDEPT  =    1.890    core radius for aug-charge                              
                                                                                
   Atomic configuration                                                         
   10 entries                                                                   
     n  l   j            E        occ.                                          
     1  0  0.50    -13316.2796   2.0000                                         
     2  0  0.50     -1732.8239   2.0000                                         
     2  1  1.50     -1528.2193   6.0000                                         
     3  0  0.50      -238.0460   2.0000                                         
     3  1  1.50      -173.4609   6.0000                                         
     3  2  2.50       -66.7132  10.0000                                         
     4  0  0.50       -20.1334   2.0000                                         
     4  1  0.50        -7.8591   5.0000                                         
     4  2  2.50        -8.1635   0.0000                                         
     4  3  2.50        -8.1635   0.0000                                         
   Description                                                                  
     l       E           TYP  RCUT    TYP  RCUT                                 
     0    -20.1333652     23  2.100                                             
     0    -21.4939478     23  2.100                                             
     1     -7.8591052     23  2.100                                             
     1     -3.1608434     23  2.100                                             
     2     -8.1634956     23  2.100                                             
     3     -1.3605826      7  2.100                                             
  local pseudopotential read in
  partial core-charges read in
  partial kinetic energy density read in
  atomic valenz-charges read in
  non local Contribution for L=           0  read in
    real space projection operators read in
  non local Contribution for L=           0  read in
    real space projection operators read in
  non local Contribution for L=           1  read in
    real space projection operators read in
  non local Contribution for L=           1  read in
    real space projection operators read in
  non local Contribution for L=           2  read in
    real space projection operators read in
    PAW grid and wavefunctions read in

   number of l-projection  operators is LMAX  =           5
   number of lm-projection operators is LMMAX =          13

 Optimization of the real space projectors (new method)

 maximal supplied QI-value         = 15.12
 optimisation between [QCUT,QGAM] = [  8.77, 17.69] = [ 21.53, 87.61] Ry 
 Optimized for a Real-space Cutoff    1.85 Angstroem

   l    n(q)    QCUT    max X(q) W(low)/X(q) W(high)/X(q)  e(spline) 
   0     10     8.768    25.322    0.81E-04    0.51E-04    0.48E-06
   0     10     8.768    99.187    0.78E-04    0.50E-04    0.47E-06
   1      9     8.768    11.761    0.21E-03    0.20E-03    0.37E-06
   1      9     8.768     8.275    0.24E-03    0.22E-03    0.41E-06
   2      9     8.768     3.829    0.23E-04    0.15E-03    0.18E-06
 Optimization of the real space projectors (new method)

 maximal supplied QI-value         = 15.12
 optimisation between [QCUT,QGAM] = [  8.77, 17.69] = [ 21.53, 87.61] Ry 
 Optimized for a Real-space Cutoff    1.59 Angstroem

   l    n(q)    QCUT    max X(q) W(low)/X(q) W(high)/X(q)  e(spline) 
   2      7     8.768     3.846    0.48E-04    0.11E-03    0.11E-06
   2      7     8.768     8.593    0.20E-03    0.22E-04    0.24E-06
   0      8     8.768    20.082    0.68E-04    0.88E-04    0.41E-07
   0      8     8.768     8.597    0.89E-04    0.13E-03    0.59E-07
   1      8     8.768    33.223    0.15E-03    0.53E-04    0.87E-07
   1      8     8.768    15.899    0.14E-03    0.44E-04    0.78E-07
 Optimization of the real space projectors (new method)

 maximal supplied QI-value         = 17.95
 optimisation between [QCUT,QGAM] = [  8.80, 17.59] = [ 21.67, 86.68] Ry 
 Optimized for a Real-space Cutoff    1.59 Angstroem

   l    n(q)    QCUT    max X(q) W(low)/X(q) W(high)/X(q)  e(spline) 
   0      8     8.797   175.082    0.82E-04    0.14E-03    0.89E-07
   0      8     8.797   174.004    0.79E-04    0.14E-03    0.86E-07
   1      8     8.797    54.315    0.16E-03    0.14E-04    0.30E-06
   1      8     8.797    42.441    0.16E-03    0.14E-04    0.30E-06
   2      7     8.797     3.596    0.92E-04    0.15E-03    0.85E-07
  PAW_PBE Cs_sv 08Apr2002               :
 energy of atom  1       EATOM= -555.6835
 kinetic energy error for atom=    0.0069 (will be added to EATOM!!)
  PAW_PBE Pb_d 06Sep2000                :
 energy of atom  2       EATOM=-1661.6185
 kinetic energy error for atom=    0.0498 (will be added to EATOM!!)
  PAW_PBE Br 06Sep2000                  :
 energy of atom  3       EATOM= -368.4488
 kinetic energy error for atom=    0.0072 (will be added to EATOM!!)


 POSCAR: Cs4 Pb8 Br20                            
  positions in direct lattice
  velocities in cartesian coordinates

 METAGGA = SCAN     LMAXTAU =  6    LMIXTAU =  F

 exchange correlation table for  LEXCH =        8
   RHO(1)=    0.500       N(1)  =     2000
   RHO(2)=  100.500       N(2)  =     4000

 VTST: version 3.2, (02/03/18)

 CHAIN: initializing optimizer
 
 OPT: Using VASP Conjugate-Gradient optimizer
 CHAIN: Read ICHAIN            0

 POSCAR: Cs4 Pb8 Br20                            
  positions in direct lattice
  velocities in cartesian coordinates



--------------------------------------------------------------------------------------------------------


 ion  position               nearest neighbor table
   1  0.500  0.500  0.250-
   2  0.000  0.000  0.250-
   3  0.000  0.000  0.750-
   4  0.500  0.500  0.750-
   5  0.831  0.669  0.000-  18 2.90  25 2.90  13 3.16  14 3.16  22 3.38  29 3.38  20 3.38  31 3.38
                             6 4.05
   6  0.169  0.331  0.000-  16 2.90  27 2.90  13 3.16  14 3.16  20 3.38  31 3.38  29 3.38  22 3.38
                             5 4.05
   7  0.831  0.331  0.500-  32 2.90  19 2.90  24 3.16  23 3.16  28 3.38  26 3.38  15 3.38  17 3.38
                            12 4.05
   8  0.669  0.169  0.000-  20 2.90  31 2.90  13 3.16  14 3.16  25 3.38  18 3.38  27 3.38  16 3.38
                            11 4.05
   9  0.331  0.169  0.500-  28 2.90  15 2.90  24 3.16  23 3.16  30 3.38  32 3.38  21 3.38  19 3.38
                            10 4.05
  10  0.669  0.831  0.500-  26 2.90  17 2.90  24 3.16  23 3.16  32 3.38  30 3.38  19 3.38  21 3.38
                             9 4.05
  11  0.331  0.831  0.000-  22 2.90  29 2.90  13 3.16  14 3.16  27 3.38  16 3.38  18 3.38  25 3.38
                             8 4.05
  12  0.169  0.669  0.500-  30 2.90  21 2.90  24 3.16  23 3.16  26 3.38  28 3.38  17 3.38  15 3.38
                             7 4.05
  13  0.500  0.500  0.000-   5 3.16   6 3.16   8 3.16  11 3.16
  14  0.000  0.000  0.000-   5 3.16   6 3.16   8 3.16  11 3.16
  15  0.154  0.346  0.372-   9 2.90   7 3.38  12 3.38
  16  0.346  0.154  0.128-   6 2.90  11 3.38   8 3.38
  17  0.846  0.654  0.372-  10 2.90   7 3.38  12 3.38
  18  0.654  0.846  0.128-   5 2.90   8 3.38  11 3.38
  19  0.654  0.154  0.372-   7 2.90  10 3.38   9 3.38
  20  0.846  0.346  0.128-   8 2.90   6 3.38   5 3.38
  21  0.346  0.846  0.372-  12 2.90  10 3.38   9 3.38
  22  0.154  0.654  0.128-  11 2.90   5 3.38   6 3.38
  23  0.000  0.000  0.500-   7 3.16   9 3.16  10 3.16  12 3.16
  24  0.500  0.500  0.500-   7 3.16   9 3.16  10 3.16  12 3.16
  25  0.654  0.846  0.872-   5 2.90   8 3.38  11 3.38
  26  0.846  0.654  0.628-  10 2.90   7 3.38  12 3.38
  27  0.346  0.154  0.872-   6 2.90  11 3.38   8 3.38
  28  0.154  0.346  0.628-   9 2.90   7 3.38  12 3.38
  29  0.154  0.654  0.872-  11 2.90   5 3.38   6 3.38
  30  0.346  0.846  0.628-  12 2.90  10 3.38   9 3.38
  31  0.846  0.346  0.872-   8 2.90   6 3.38   5 3.38
  32  0.654  0.154  0.628-   7 2.90  10 3.38   9 3.38

  LATTYP: Found a simple tetragonal cell.
 ALAT       =     8.4983159791
 C/A-ratio  =     1.8161874605
  
  Lattice vectors:
  
 A1 = (   8.4983159791,   0.0000000000,   0.0000000000)
 A2 = (  -0.0000000000,   8.4983159791,   0.0000000000)
 A3 = (   0.0000000000,   0.0000000000,  15.4345349165)


Analysis of symmetry for initial positions (statically):
=====================================================================
 Subroutine PRICEL returns following result:
 
  LATTYP: Found a body centered tetragonal cell.
 ALAT       =     8.4983159791
 C/A-ratio  =     1.8161874605
  
  Lattice vectors:
  
 A1 = (   4.2491579896,  -4.2491579896,   7.7172674582)
 A2 = (  -4.2491579896,   4.2491579896,   7.7172674582)
 A3 = (  -4.2491579896,  -4.2491579896,  -7.7172674582)
 
   2 primitive cells build up your supercell.
 

 Routine SETGRP: Setting up the symmetry group for a 
 simple tetragonal supercell.


 Subroutine GETGRP returns: Found 16 space group operations
 (whereof  8 operations were pure point group operations)
 out of a pool of 16 trial point group operations.


The static configuration has the point symmetry C_4h.
 The point group associated with its full space group is D_4h.


Analysis of symmetry for dynamics (positions and initial velocities):
=====================================================================
 Subroutine PRICEL returns following result:
 
  LATTYP: Found a body centered tetragonal cell.
 ALAT       =     8.4983159791
 C/A-ratio  =     1.8161874605
  
  Lattice vectors:
  
 A1 = (   4.2491579896,  -4.2491579896,   7.7172674582)
 A2 = (  -4.2491579896,   4.2491579896,   7.7172674582)
 A3 = (  -4.2491579896,  -4.2491579896,  -7.7172674582)
 
   2 primitive cells build up your supercell.
 

 Routine SETGRP: Setting up the symmetry group for a 
 simple tetragonal supercell.


 Subroutine GETGRP returns: Found 16 space group operations
 (whereof  8 operations were pure point group operations)
 out of a pool of 16 trial point group operations.


The dynamic configuration has the point symmetry C_4h.
 The point group associated with its full space group is D_4h.


 Subroutine INISYM returns: Found 16 space group operations
 (whereof  8 operations are pure point group operations),
 and found     2 'primitive' translations



 KPOINTS: 1x1x1                                   

Automatic generation of k-mesh.
Space group operators:
 irot       det(A)        alpha          n_x          n_y          n_z        tau_x        tau_y        tau_z
    1     1.000000     0.000000     1.000000     0.000000     0.000000    -0.000000    -0.000000     0.000000
    2    -1.000000     0.000000     1.000000     0.000000     0.000000    -0.000000    -0.000000     0.000000
    3     1.000000    90.000000     0.000000     0.000000    -1.000000    -0.000000    -0.000000     0.000000
    4    -1.000000    90.000000     0.000000     0.000000    -1.000000    -0.000000    -0.000000     0.000000
    5     1.000000   180.000000     0.000000     0.000000     1.000000    -0.000000    -0.000000     0.000000
    6    -1.000000   180.000000     0.000000     0.000000     1.000000    -0.000000    -0.000000     0.000000
    7     1.000000    90.000000     0.000000     0.000000     1.000000    -0.000000    -0.000000     0.000000
    8    -1.000000    90.000000     0.000000     0.000000     1.000000    -0.000000    -0.000000     0.000000
    9     1.000000   180.000000     0.000000     1.000000     0.000000    -0.000000    -0.000000     0.500000
   10    -1.000000   180.000000     0.000000     1.000000     0.000000    -0.000000    -0.000000     0.500000
   11     1.000000   180.000000     0.707107     0.707107     0.000000    -0.000000    -0.000000     0.500000
   12    -1.000000   180.000000     0.707107     0.707107     0.000000    -0.000000    -0.000000     0.500000
   13     1.000000   180.000000     1.000000     0.000000     0.000000    -0.000000    -0.000000     0.500000
   14    -1.000000   180.000000     1.000000     0.000000     0.000000    -0.000000    -0.000000     0.500000
   15     1.000000   180.000000     0.707107    -0.707107     0.000000    -0.000000    -0.000000     0.500000
   16    -1.000000   180.000000     0.707107    -0.707107     0.000000    -0.000000    -0.000000     0.500000
 
 Subroutine IBZKPT returns following result:
 ===========================================
 
 Found     20 irreducible k-points:
 
 Following reciprocal coordinates:
            Coordinates               Weight
  0.000000  0.000000  0.000000      1.000000
  0.166667  0.000000  0.000000      4.000000
  0.333333  0.000000  0.000000      4.000000
  0.500000  0.000000  0.000000      2.000000
  0.166667  0.166667  0.000000      4.000000
  0.333333  0.166667  0.000000      8.000000
  0.500000  0.166667  0.000000      4.000000
  0.333333  0.333333  0.000000      4.000000
  0.500000  0.333333  0.000000      4.000000
  0.500000  0.500000  0.000000      1.000000
  0.000000  0.000000  0.333333      2.000000
  0.166667  0.000000  0.333333      8.000000
  0.333333  0.000000  0.333333      8.000000
  0.500000  0.000000  0.333333      4.000000
  0.166667  0.166667  0.333333      8.000000
  0.333333  0.166667  0.333333     16.000000
  0.500000  0.166667  0.333333      8.000000
  0.333333  0.333333  0.333333      8.000000
  0.500000  0.333333  0.333333      8.000000
  0.500000  0.500000  0.333333      2.000000
 
 Following cartesian coordinates:
            Coordinates               Weight
  0.000000  0.000000  0.000000      1.000000
  0.019612  0.000000  0.000000      4.000000
  0.039223  0.000000  0.000000      4.000000
  0.058835  0.000000  0.000000      2.000000
  0.019612  0.019612  0.000000      4.000000
  0.039223  0.019612  0.000000      8.000000
  0.058835  0.019612  0.000000      4.000000
  0.039223  0.039223  0.000000      4.000000
  0.058835  0.039223  0.000000      4.000000
  0.058835  0.058835  0.000000      1.000000
  0.000000  0.000000  0.021597      2.000000
  0.019612  0.000000  0.021597      8.000000
  0.039223  0.000000  0.021597      8.000000
  0.058835  0.000000  0.021597      4.000000
  0.019612  0.019612  0.021597      8.000000
  0.039223  0.019612  0.021597     16.000000
  0.058835  0.019612  0.021597      8.000000
  0.039223  0.039223  0.021597      8.000000
  0.058835  0.039223  0.021597      8.000000
  0.058835  0.058835  0.021597      2.000000
 


--------------------------------------------------------------------------------------------------------




 Dimension of arrays:
   k-points           NKPTS =     20   k-points in BZ     NKDIM =     20   number of bands    NBANDS=    176
   number of dos      NEDOS =    301   number of ions     NIONS =     32
   non local maximal  LDIM  =      6   non local SUM 2l+1 LMDIM =     18
   total plane-waves  NPLWV = 207360
   max r-space proj   IRMAX =   4967   max aug-charges    IRDMAX=  79201
   dimension x,y,z NGX =    48 NGY =   48 NGZ =   90
   dimension x,y,z NGXF=    96 NGYF=   96 NGZF=  180
   support grid    NGXF=   192 NGYF=  192 NGZF=  360
   ions per type =               4   8  20
   NGX,Y,Z   is equivalent  to a cutoff of   9.39,  9.39,  9.69 a.u.
   NGXF,Y,Z  is equivalent  to a cutoff of  18.78, 18.78, 19.39 a.u.

 SYSTEM =  CsPbBr3 cubic bulk                      
 POSCAR =  Cs4 Pb8 Br20                            

 Startparameter for this run:
   NWRITE =      2    write-flag & timer
   PREC   = accura    normal or accurate (medium, high low for compatibility)
   ISTART =      0    job   : 0-new  1-cont  2-samecut
   ICHARG =      2    charge: 1-file 2-atom 10-const
   ISPIN  =      1    spin polarized calculation?
   LNONCOLLINEAR =      F non collinear calculations
   LSORBIT =      F    spin-orbit coupling
   INIWAV =      1    electr: 0-lowe 1-rand  2-diag
   LASPH  =      T    aspherical Exc in radial PAW
   METAGGA=      F    non-selfconsistent MetaGGA calc.

 Electronic Relaxation 1
   ENCUT  =  300.0 eV  22.05 Ry    4.70 a.u.  12.00 12.00 21.80*2*pi/ulx,y,z
   ENINI  =  300.0     initial cutoff
   ENAUG  =  503.9 eV  augmentation charge cutoff
   NELM   =    200;   NELMIN=  2; NELMDL= -5     # of ELM steps 
   EDIFF  = 0.1E-05   stopping-criterion for ELM
   LREAL  =      T    real-space projection
   NLSPLINE    = F    spline interpolate recip. space projectors
   LCOMPAT=      F    compatible to vasp.4.4
   GGA_COMPAT  = T    GGA compatible to vasp.4.4-vasp.4.6
   LMAXPAW     = -100 max onsite density
   LMAXMIX     =    2 max onsite mixed and CHGCAR
   VOSKOWN=      0    Vosko Wilk Nusair interpolation
   ROPT   =   -0.00025  -0.00025  -0.00025
 Ionic relaxation
   EDIFFG = -.1E-01   stopping-criterion for IOM
   NSW    =      0    number of steps for IOM
   NBLOCK =      1;   KBLOCK =      1    inner block; outer block 
   IBRION =     -1    ionic relax: 0-MD 1-quasi-New 2-CG
   NFREE  =      1    steps in history (QN), initial steepest desc. (CG)
   ISIF   =      3    stress and relaxation
   IWAVPR =     10    prediction:  0-non 1-charg 2-wave 3-comb
   ISYM   =      2    0-nonsym 1-usesym 2-fastsym
   LCORR  =      T    Harris-Foulkes like correction to forces

   POTIM  = 0.5000    time-step for ionic-motion
   TEIN   =    0.0    initial temperature
   TEBEG  =    0.0;   TEEND  =   0.0 temperature during run
   SMASS  =  -3.00    Nose mass-parameter (am)
   estimated Nose-frequenzy (Omega)   =  0.10E-29 period in steps =****** mass=  -0.165E-26a.u.
   SCALEE = 1.0000    scale energy and forces
   NPACO  =    256;   APACO  = 16.0  distance and # of slots for P.C.
   PSTRESS=    0.0 pullay stress

  Mass of Ions in am
   POMASS = 132.90207.20 79.90
  Ionic Valenz
   ZVAL   =   9.00 14.00  7.00
  Atomic Wigner-Seitz radii
   RWIGS  =  -1.00 -1.00 -1.00
  virtual crystal weights 
   VCA    =   1.00  1.00  1.00
   NELECT =     288.0000    total number of electrons
   NUPDOWN=      -1.0000    fix difference up-down

 DOS related values:
   EMIN   =  10.00;   EMAX   =-10.00  energy-range for DOS
   EFERMI =   0.00
   ISMEAR =     0;   SIGMA  =   0.01  broadening in eV -4-tet -1-fermi 0-gaus

 Electronic relaxation 2 (details)
   IALGO  =     38    algorithm
   LDIAG  =      T    sub-space diagonalisation (order eigenvalues)
   LSUBROT=      F    optimize rotation matrix (better conditioning)
   TURBO    =      0    0=normal 1=particle mesh
   IRESTART =      0    0=no restart 2=restart with 2 vectors
   NREBOOT  =      0    no. of reboots
   NMIN     =      0    reboot dimension
   EREF     =   0.00    reference energy to select bands
   IMIX   =      4    mixing-type and parameters
     AMIX     =   0.40;   BMIX     =  1.00
     AMIX_MAG =   1.60;   BMIX_MAG =  1.00
     AMIN     =   0.10
     WC   =   100.;   INIMIX=   1;  MIXPRE=   1;  MAXMIX= -45

 Intra band minimization:
   WEIMIN = 0.0000     energy-eigenvalue tresh-hold
   EBREAK =  0.14E-08  absolut break condition
   DEPER  =   0.30     relativ break condition  

   TIME   =   0.40     timestep for ELM

  volume/ion in A,a.u.               =      34.83       235.07
  Fermi-wavevector in a.u.,A,eV,Ry     =   1.042684  1.970386 14.792107  1.087189
  Thomas-Fermi vector in A             =   2.177360

 Write flags
   LWAVE        =      F    write WAVECAR
   LDOWNSAMPLE  =      F    k-point downsampling of WAVECAR
   LCHARG       =      F    write CHGCAR
   LVTOT        =      F    write LOCPOT, total local potential
   LVHAR        =      T    write LOCPOT, Hartree potential only
   LELF         =      F    write electronic localiz. function (ELF)
   LORBIT       =     10    0 simple, 1 ext, 2 COOP (PROOUT), +10 PAW based schemes


 Dipole corrections
   LMONO  =      F    monopole corrections only (constant potential shift)
   LDIPOL =      F    correct potential (dipole corrections)
   IDIPOL =      0    1-x, 2-y, 3-z, 4-all directions 
   EPSILON=  1.0000000 bulk dielectric constant

 Exchange correlation treatment:
   GGA     =    --    GGA type
   LEXCH   =     8    internal setting for exchange type
   VOSKOWN=      0    Vosko Wilk Nusair interpolation
   LHFCALC =     F    Hartree Fock is set to
   LHFONE  =     F    Hartree Fock one center treatment
   AEXX    =    0.0000 exact exchange contribution

 Linear response parameters
   LEPSILON=     F    determine dielectric tensor
   LRPA    =     F    only Hartree local field effects (RPA)
   LNABLA  =     F    use nabla operator in PAW spheres
   LVEL    =     F    velocity operator in full k-point grid
   LINTERFAST=   F  fast interpolation
   KINTER  =     0    interpolate to denser k-point grid
   CSHIFT  =0.1000    complex shift for real part using Kramers Kronig
   OMEGAMAX=  -1.0    maximum frequency
   DEG_THRESHOLD= 0.2000000E-02 threshold for treating states as degnerate
   RTIME   =   -0.100 relaxation time in fs
  (WPLASMAI=    0.000 imaginary part of plasma frequency in eV, 0.658/RTIME)
   DFIELD  = 0.0000000 0.0000000 0.0000000 field for delta impulse in time

 Orbital magnetization related:
   ORBITALMAG=     F  switch on orbital magnetization
   LCHIMAG   =     F  perturbation theory with respect to B field
   DQ        =  0.001000  dq finite difference perturbation B field
   LLRAUG    =     F  two centre corrections for induced B field



--------------------------------------------------------------------------------------------------------


 Static calculation
 charge density and potential will be updated during run
 non-spin polarized calculation
 Variant of blocked Davidson
 Davidson routine will perform the subspace rotation
 perform sub-space diagonalisation
    after iterative eigenvector-optimisation
 modified Broyden-mixing scheme, WC =      100.0
 initial mixing is a Kerker type mixing with AMIX =  0.4000 and BMIX =      1.0000
 Hartree-type preconditioning will be used
 using additional bands           32
 real space projection scheme for non local part
 use partial core corrections
 calculate Harris-corrections to forces   (improved forces if not selfconsistent)
 use gradient corrections 
 use of overlap-Matrix (Vanderbilt PP)
 Gauss-broadening in eV      SIGMA  =   0.01


--------------------------------------------------------------------------------------------------------


  energy-cutoff  :      300.00
  volume of cell :     1114.70
      direct lattice vectors                 reciprocal lattice vectors
     8.498315979  0.000000000  0.000000000     0.117670372  0.000000000 -0.000000000
    -0.000000000  8.498315979  0.000000000     0.000000000  0.117670372  0.000000000
     0.000000000  0.000000000 15.434534916     0.000000000 -0.000000000  0.064789772

  length of vectors
     8.498315979  8.498315979 15.434534916     0.117670372  0.117670372  0.064789772



 k-points in units of 2pi/SCALE and weight: 1x1x1                                   
   0.00000000  0.00000000  0.00000000       0.009
   0.01961173  0.00000000  0.00000000       0.037
   0.03922346  0.00000000  0.00000000       0.037
   0.05883519  0.00000000  0.00000000       0.019
   0.01961173  0.01961173  0.00000000       0.037
   0.03922346  0.01961173  0.00000000       0.074
   0.05883519  0.01961173  0.00000000       0.037
   0.03922346  0.03922346  0.00000000       0.037
   0.05883519  0.03922346  0.00000000       0.037
   0.05883519  0.05883519  0.00000000       0.009
   0.00000000  0.00000000  0.02159659       0.019
   0.01961173  0.00000000  0.02159659       0.074
   0.03922346  0.00000000  0.02159659       0.074
   0.05883519  0.00000000  0.02159659       0.037
   0.01961173  0.01961173  0.02159659       0.074
   0.03922346  0.01961173  0.02159659       0.148
   0.05883519  0.01961173  0.02159659       0.074
   0.03922346  0.03922346  0.02159659       0.074
   0.05883519  0.03922346  0.02159659       0.074
   0.05883519  0.05883519  0.02159659       0.019

 k-points in reciprocal lattice and weights: 1x1x1                                   
   0.00000000  0.00000000  0.00000000       0.009
   0.16666667  0.00000000  0.00000000       0.037
   0.33333333  0.00000000  0.00000000       0.037
   0.50000000  0.00000000  0.00000000       0.019
   0.16666667  0.16666667  0.00000000       0.037
   0.33333333  0.16666667  0.00000000       0.074
   0.50000000  0.16666667  0.00000000       0.037
   0.33333333  0.33333333  0.00000000       0.037
   0.50000000  0.33333333  0.00000000       0.037
   0.50000000  0.50000000  0.00000000       0.009
   0.00000000  0.00000000  0.33333333       0.019
   0.16666667  0.00000000  0.33333333       0.074
   0.33333333  0.00000000  0.33333333       0.074
   0.50000000  0.00000000  0.33333333       0.037
   0.16666667  0.16666667  0.33333333       0.074
   0.33333333  0.16666667  0.33333333       0.148
   0.50000000  0.16666667  0.33333333       0.074
   0.33333333  0.33333333  0.33333333       0.074
   0.50000000  0.33333333  0.33333333       0.074
   0.50000000  0.50000000  0.33333333       0.019

 position of ions in fractional coordinates (direct lattice) 
   0.50000000  0.50000000  0.25000000
   0.00000000  0.00000000  0.25000000
   0.00000000  0.00000000  0.75000000
   0.50000000  0.50000000  0.75000000
   0.83132954  0.66867046  0.00000000
   0.16867046  0.33132954  0.00000000
   0.83132954  0.33132954  0.50000000
   0.66867046  0.16867046  0.00000000
   0.33132954  0.16867046  0.50000000
   0.66867046  0.83132954  0.50000000
   0.33132954  0.83132954  0.00000000
   0.16867046  0.66867046  0.50000000
   0.50000000  0.50000000  0.00000000
   0.00000000  0.00000000  0.00000000
   0.15399645  0.34600255  0.37228062
   0.34600255  0.15399645  0.12771838
   0.84600255  0.65399745  0.37228062
   0.65399745  0.84600255  0.12771838
   0.65399745  0.15399645  0.37228062
   0.84600255  0.34600255  0.12771838
   0.34600255  0.84600255  0.37228062
   0.15399645  0.65399745  0.12771838
   0.00000000  0.00000000  0.50000000
   0.50000000  0.50000000  0.50000000
   0.65399745  0.84600255  0.87228162
   0.84600255  0.65399745  0.62771838
   0.34600255  0.15399645  0.87228162
   0.15399645  0.34600255  0.62771838
   0.15399645  0.65399745  0.87228162
   0.34600255  0.84600255  0.62771838
   0.84600255  0.34600255  0.87228162
   0.65399745  0.15399645  0.62771838

 position of ions in cartesian coordinates  (Angst):
   4.24915799  4.24915799  3.85863373
   0.00000000  0.00000000  3.85863373
   0.00000000  0.00000000 11.57590119
   4.24915799  4.24915799 11.57590119
   7.06490111  5.68257285  0.00000000
   1.43341486  2.81574313  0.00000000
   7.06490111  2.81574313  7.71726746
   5.68257285  1.43341486  0.00000000
   2.81574313  1.43341486  7.71726746
   5.68257285  7.06490111  7.71726746
   2.81574313  7.06490111  0.00000000
   1.43341486  5.68257285  7.71726746
   4.24915799  4.24915799  0.00000000
   0.00000000  0.00000000  0.00000000
   1.30871047  2.94043902  5.74597819
   2.94043902  1.30871047  1.97127384
   7.18959701  5.55787696  5.74597819
   5.55787696  7.18959701  1.97127384
   5.55787696  1.30871047  5.74597819
   7.18959701  2.94043902  1.97127384
   2.94043902  7.18959701  5.74597819
   1.30871047  5.55787696  1.97127384
   0.00000000  0.00000000  7.71726746
   4.24915799  4.24915799  7.71726746
   5.55787696  7.18959701 13.46326108
   7.18959701  5.55787696  9.68854129
   2.94043902  1.30871047 13.46326108
   1.30871047  2.94043902  9.68854129
   1.30871047  5.55787696 13.46326108
   2.94043902  7.18959701  9.68854129
   7.18959701  2.94043902 13.46326108
   5.55787696  1.30871047  9.68854129



--------------------------------------------------------------------------------------------------------


 k-point  1 :   0.0000 0.0000 0.0000  plane waves:   13083
 k-point  2 :   0.1667 0.0000 0.0000  plane waves:   13116
 k-point  3 :   0.3333 0.0000 0.0000  plane waves:   13150
 k-point  4 :   0.5000 0.0000 0.0000  plane waves:   13176
 k-point  5 :   0.1667 0.1667 0.0000  plane waves:   13109
 k-point  6 :   0.3333 0.1667 0.0000  plane waves:   13153
 k-point  7 :   0.5000 0.1667 0.0000  plane waves:   13156
 k-point  8 :   0.3333 0.3333 0.0000  plane waves:   13171
 k-point  9 :   0.5000 0.3333 0.0000  plane waves:   13194
 k-point 10 :   0.5000 0.5000 0.0000  plane waves:   13192
 k-point 11 :   0.0000 0.0000 0.3333  plane waves:   13084
 k-point 12 :   0.1667 0.0000 0.3333  plane waves:   13130
 k-point 13 :   0.3333 0.0000 0.3333  plane waves:   13147
 k-point 14 :   0.5000 0.0000 0.3333  plane waves:   13160
 k-point 15 :   0.1667 0.1667 0.3333  plane waves:   13150
 k-point 16 :   0.3333 0.1667 0.3333  plane waves:   13161
 k-point 17 :   0.5000 0.1667 0.3333  plane waves:   13160
 k-point 18 :   0.3333 0.3333 0.3333  plane waves:   13162
 k-point 19 :   0.5000 0.3333 0.3333  plane waves:   13154
 k-point 20 :   0.5000 0.5000 0.3333  plane waves:   13156

 maximum and minimum number of plane-waves per node :      1667     1602

 maximum number of plane-waves:     13194
 maximum index in each direction: 
   IXMAX=   12   IYMAX=   12   IZMAX=   21
   IXMIN=  -12   IYMIN=  -12   IZMIN=  -22


 real space projection operators:
  total allocation   :      11602.28 KBytes
  max/ min on nodes  :       1526.06       1368.59


 parallel 3D FFT for wavefunctions:
    minimum data exchange during FFTs selected (reduces bandwidth)
 parallel 3D FFT for charge:
    minimum data exchange during FFTs selected (reduces bandwidth)


 total amount of memory used by VASP MPI-rank0    55527. kBytes
=======================================================================

   base      :      30000. kBytes
   nonlr-proj:       4374. kBytes
   fftplans  :       4660. kBytes
   grid      :       4379. kBytes
   one-center:         62. kBytes
   wavefun   :      12052. kBytes

     INWAV:  cpu time    0.0002: real time    0.0008
 Broyden mixing: mesh for mixing (old mesh)
   NGX = 25   NGY = 25   NGZ = 43
  (NGX  = 96   NGY  = 96   NGZ  =180)
  gives a total of  26875 points

 initial charge density was supplied:
 charge density of overlapping atoms calculated
 number of electron     288.0000000 magnetization 
 keeping initial charge density in first step


--------------------------------------------------------------------------------------------------------


 Maximum index for non-local projection operator          626
 Maximum index for augmentation-charges         2202 (set IRDMAX)


--------------------------------------------------------------------------------------------------------


 First call to EWALD:  gamma=   0.171
 Maximum number of real-space cells 3x 3x 2
 Maximum number of reciprocal cells 2x 2x 4

    FEWALD:  cpu time    0.0032: real time    0.0032


--------------------------------------- Iteration      1(   1)  ---------------------------------------


    POTLOK:  cpu time    0.1617: real time    0.1727
    SETDIJ:  cpu time    1.1672: real time    1.1673
     EDDAV:  cpu time   19.5548: real time   19.5595
       DOS:  cpu time    0.0014: real time    0.0014
    --------------------------------------------
      LOOP:  cpu time   20.8851: real time   20.9009

 eigenvalue-minimisations  :  7160
 total energy-change (2. order) : 0.1244316E+04  (-0.9444826E+04)
 number of electron     288.0000000 magnetization 
 augmentation part      288.0000000 magnetization 

 Free energy of the ion-electron system (eV)
  ---------------------------------------------------
  alpha Z        PSCENC =       785.52545613
  Ewald energy   TEWEN  =    -15889.17190063
  -Hartree energ DENC   =     -6644.92442457
  -exchange      EXHF   =         0.00000000
  -V(xc)+E(xc)   XCENC  =       787.43411081
  PAW double counting   =     18811.68421164   -19698.32252001
  entropy T*S    EENTRO =        -0.00119901
  eigenvalues    EBANDS =       208.00510684
  atomic energy  EATOM  =     22884.08756783
  Solvation  Ediel_sol  =         0.00000000
  ---------------------------------------------------
  free energy    TOTEN  =      1244.31640903 eV

  energy without entropy =     1244.31760804  energy(sigma->0) =     1244.31700853


--------------------------------------------------------------------------------------------------------




--------------------------------------- Iteration      1(   2)  ---------------------------------------


     EDDAV:  cpu time   21.4143: real time   21.4333
       DOS:  cpu time    0.0006: real time    0.0006
    --------------------------------------------
      LOOP:  cpu time   21.4149: real time   21.4339

 eigenvalue-minimisations  :  8216
 total energy-change (2. order) :-0.2159062E+04  (-0.2042976E+04)
 number of electron     288.0000000 magnetization 
 augmentation part      288.0000000 magnetization 

 Free energy of the ion-electron system (eV)
  ---------------------------------------------------
  alpha Z        PSCENC =       785.52545613
  Ewald energy   TEWEN  =    -15889.17190063
  -Hartree energ DENC   =     -6644.92442457
  -exchange      EXHF   =         0.00000000
  -V(xc)+E(xc)   XCENC  =       787.43411081
  PAW double counting   =     18811.68421164   -19698.32252001
  entropy T*S    EENTRO =        -0.00000000
  eigenvalues    EBANDS =     -1951.05854978
  atomic energy  EATOM  =     22884.08756783
  Solvation  Ediel_sol  =         0.00000000
  ---------------------------------------------------
  free energy    TOTEN  =      -914.74604859 eV

  energy without entropy =     -914.74604859  energy(sigma->0) =     -914.74604859


--------------------------------------------------------------------------------------------------------




--------------------------------------- Iteration      1(   3)  ---------------------------------------


     EDDAV:  cpu time   23.4871: real time   23.5023
       DOS:  cpu time    0.0006: real time    0.0006
    --------------------------------------------
      LOOP:  cpu time   23.4876: real time   23.5029

 eigenvalue-minimisations  :  9440
 total energy-change (2. order) :-0.3242067E+03  (-0.3209505E+03)
 number of electron     288.0000000 magnetization 
 augmentation part      288.0000000 magnetization 

 Free energy of the ion-electron system (eV)
  ---------------------------------------------------
  alpha Z        PSCENC =       785.52545613
  Ewald energy   TEWEN  =    -15889.17190063
  -Hartree energ DENC   =     -6644.92442457
  -exchange      EXHF   =         0.00000000
  -V(xc)+E(xc)   XCENC  =       787.43411081
  PAW double counting   =     18811.68421164   -19698.32252001
  entropy T*S    EENTRO =        -0.00000000
  eigenvalues    EBANDS =     -2275.26520084
  atomic energy  EATOM  =     22884.08756783
  Solvation  Ediel_sol  =         0.00000000
  ---------------------------------------------------
  free energy    TOTEN  =     -1238.95269965 eV

  energy without entropy =    -1238.95269965  energy(sigma->0) =    -1238.95269965


--------------------------------------------------------------------------------------------------------




--------------------------------------- Iteration      1(   4)  ---------------------------------------


     EDDAV:  cpu time   21.6003: real time   21.6028
       DOS:  cpu time    0.0006: real time    0.0006
    --------------------------------------------
      LOOP:  cpu time   21.6009: real time   21.6034

 eigenvalue-minimisations  :  8328
 total energy-change (2. order) :-0.1118486E+02  (-0.1113349E+02)
 number of electron     288.0000000 magnetization 
 augmentation part      288.0000000 magnetization 

 Free energy of the ion-electron system (eV)
  ---------------------------------------------------
  alpha Z        PSCENC =       785.52545613
  Ewald energy   TEWEN  =    -15889.17190063
  -Hartree energ DENC   =     -6644.92442457
  -exchange      EXHF   =         0.00000000
  -V(xc)+E(xc)   XCENC  =       787.43411081
  PAW double counting   =     18811.68421164   -19698.32252001
  entropy T*S    EENTRO =        -0.00000000
  eigenvalues    EBANDS =     -2286.45006409
  atomic energy  EATOM  =     22884.08756783
  Solvation  Ediel_sol  =         0.00000000
  ---------------------------------------------------
  free energy    TOTEN  =     -1250.13756290 eV

  energy without entropy =    -1250.13756290  energy(sigma->0) =    -1250.13756290


--------------------------------------------------------------------------------------------------------




--------------------------------------- Iteration      1(   5)  ---------------------------------------


     EDDAV:  cpu time   22.4519: real time   22.4728
       DOS:  cpu time    0.0007: real time    0.0007
    CHARGE:  cpu time    3.3338: real time    3.3339
    MIXING:  cpu time    0.0009: real time    0.0009
    --------------------------------------------
      LOOP:  cpu time   25.7872: real time   25.8083

 eigenvalue-minimisations  :  8872
 total energy-change (2. order) :-0.5020368E+00  (-0.5017881E+00)
 number of electron     288.0000000 magnetization 
 augmentation part        7.2372697 magnetization 

 Broyden mixing:
  rms(total) = 0.96675E+00    rms(broyden)= 0.96648E+00
  rms(prec ) = 0.12015E+01
  weight for this iteration     100.00

 Free energy of the ion-electron system (eV)
  ---------------------------------------------------
  alpha Z        PSCENC =       785.52545613
  Ewald energy   TEWEN  =    -15889.17190063
  -Hartree energ DENC   =     -6644.92442457
  -exchange      EXHF   =         0.00000000
  -V(xc)+E(xc)   XCENC  =       787.43411081
  PAW double counting   =     18811.68421164   -19698.32252001
  entropy T*S    EENTRO =        -0.00000000
  eigenvalues    EBANDS =     -2286.95210085
  atomic energy  EATOM  =     22884.08756783
  Solvation  Ediel_sol  =         0.00000000
  ---------------------------------------------------
  free energy    TOTEN  =     -1250.63959966 eV

  energy without entropy =    -1250.63959966  energy(sigma->0) =    -1250.63959966


--------------------------------------------------------------------------------------------------------




--------------------------------------- Iteration      1(   6)  ---------------------------------------


    POTLOK:  cpu time    0.1999: real time    0.2166
    SETDIJ:  cpu time    1.1701: real time    1.1702
     EDDAV:  cpu time   22.6051: real time   22.6060
       DOS:  cpu time    0.0007: real time    0.0007
    CHARGE:  cpu time    3.3197: real time    3.3198
    MIXING:  cpu time    0.0011: real time    0.0011
    --------------------------------------------
      LOOP:  cpu time   27.2965: real time   27.3143

 eigenvalue-minimisations  :  8976
 total energy-change (2. order) : 0.6583128E+02  (-0.2238872E+01)
 number of electron     287.9999999 magnetization 
 augmentation part        8.6006539 magnetization 

 Broyden mixing:
  rms(total) = 0.71937E+00    rms(broyden)= 0.71930E+00
  rms(prec ) = 0.81152E+00
  weight for this iteration     100.00

 eigenvalues of (default mixing * dielectric matrix)
  average eigenvalue GAMMA=   1.1204
  1.1204

 Free energy of the ion-electron system (eV)
  ---------------------------------------------------
  alpha Z        PSCENC =       785.52545613
  Ewald energy   TEWEN  =    -15889.17190063
  -Hartree energ DENC   =     -6604.85494678
  -exchange      EXHF   =         0.00000000
  -V(xc)+E(xc)   XCENC  =       816.56695619
  PAW double counting   =     19014.64000231   -19897.93643090
  entropy T*S    EENTRO =        -0.00000000
  eigenvalues    EBANDS =     -2293.66502270
  atomic energy  EATOM  =     22884.08756783
  Solvation  Ediel_sol  =         0.00000000
  ---------------------------------------------------
  free energy    TOTEN  =     -1184.80831856 eV

  energy without entropy =    -1184.80831856  energy(sigma->0) =    -1184.80831856


--------------------------------------------------------------------------------------------------------




--------------------------------------- Iteration      1(   7)  ---------------------------------------


    POTLOK:  cpu time    0.1761: real time    0.2175
    SETDIJ:  cpu time    1.1719: real time    1.1719
     EDDAV:  cpu time   21.6373: real time   21.6382
       DOS:  cpu time    0.0011: real time    0.0011
    CHARGE:  cpu time    3.3319: real time    3.3320
    MIXING:  cpu time    0.0010: real time    0.0010
    --------------------------------------------
      LOOP:  cpu time   26.3192: real time   26.3617

 eigenvalue-minimisations  :  8400
 total energy-change (2. order) : 0.2570880E+00  (-0.7264294E+00)
 number of electron     287.9999999 magnetization 
 augmentation part        9.1054544 magnetization 

 Broyden mixing:
  rms(total) = 0.39002E+00    rms(broyden)= 0.39001E+00
  rms(prec ) = 0.40839E+00
  weight for this iteration     100.00

 eigenvalues of (default mixing * dielectric matrix)
  average eigenvalue GAMMA=   1.3063
  1.3063  1.3063

 Free energy of the ion-electron system (eV)
  ---------------------------------------------------
  alpha Z        PSCENC =       785.52545613
  Ewald energy   TEWEN  =    -15889.17190063
  -Hartree energ DENC   =     -6626.05562514
  -exchange      EXHF   =         0.00000000
  -V(xc)+E(xc)   XCENC  =       819.52425324
  PAW double counting   =     19530.07110201   -20410.48146830
  entropy T*S    EENTRO =        -0.00000000
  eigenvalues    EBANDS =     -2278.05061574
  atomic energy  EATOM  =     22884.08756783
  Solvation  Ediel_sol  =         0.00000000
  ---------------------------------------------------
  free energy    TOTEN  =     -1184.55123060 eV

  energy without entropy =    -1184.55123060  energy(sigma->0) =    -1184.55123060


--------------------------------------------------------------------------------------------------------




--------------------------------------- Iteration      1(   8)  ---------------------------------------


    POTLOK:  cpu time    0.1566: real time    0.2123
    SETDIJ:  cpu time    1.1713: real time    1.1713
     EDDAV:  cpu time   21.2434: real time   21.2443
       DOS:  cpu time    0.0007: real time    0.0007
    CHARGE:  cpu time    3.3237: real time    3.3239
    MIXING:  cpu time    0.0010: real time    0.0010
    --------------------------------------------
      LOOP:  cpu time   25.8968: real time   25.9536

 eigenvalue-minimisations  :  8160
 total energy-change (2. order) :-0.1572742E+00  (-0.3695680E-01)
 number of electron     287.9999999 magnetization 
 augmentation part        9.0134825 magnetization 

 Broyden mixing:
  rms(total) = 0.21512E+00    rms(broyden)= 0.21512E+00
  rms(prec ) = 0.22719E+00
  weight for this iteration     100.00

 eigenvalues of (default mixing * dielectric matrix)
  average eigenvalue GAMMA=   1.6676
  2.6816  1.1605  1.1605

 Free energy of the ion-electron system (eV)
  ---------------------------------------------------
  alpha Z        PSCENC =       785.52545613
  Ewald energy   TEWEN  =    -15889.17190063
  -Hartree energ DENC   =     -6630.76258542
  -exchange      EXHF   =         0.00000000
  -V(xc)+E(xc)   XCENC  =       820.03726482
  PAW double counting   =     19770.06814746   -20650.58779672
  entropy T*S    EENTRO =        -0.00000000
  eigenvalues    EBANDS =     -2273.90465828
  atomic energy  EATOM  =     22884.08756783
  Solvation  Ediel_sol  =         0.00000000
  ---------------------------------------------------
  free energy    TOTEN  =     -1184.70850480 eV

  energy without entropy =    -1184.70850480  energy(sigma->0) =    -1184.70850480


--------------------------------------------------------------------------------------------------------




--------------------------------------- Iteration      1(   9)  ---------------------------------------


    POTLOK:  cpu time    0.1982: real time    0.2278
    SETDIJ:  cpu time    1.1718: real time    1.1719
     EDDAV:  cpu time   21.0009: real time   21.0018
       DOS:  cpu time    0.0007: real time    0.0007
    CHARGE:  cpu time    3.3232: real time    3.3234
    MIXING:  cpu time    0.0011: real time    0.0011
    --------------------------------------------
      LOOP:  cpu time   25.6959: real time   25.7267

 eigenvalue-minimisations  :  8024
 total energy-change (2. order) :-0.4037796E-01  (-0.1717319E-01)
 number of electron     287.9999999 magnetization 
 augmentation part        8.9982893 magnetization 

 Broyden mixing:
  rms(total) = 0.39659E-01    rms(broyden)= 0.39654E-01
  rms(prec ) = 0.42248E-01
  weight for this iteration     100.00

 eigenvalues of (default mixing * dielectric matrix)
  average eigenvalue GAMMA=   1.4496
  2.6164  1.1863  1.1863  0.8092

 Free energy of the ion-electron system (eV)
  ---------------------------------------------------
  alpha Z        PSCENC =       785.52545613
  Ewald energy   TEWEN  =    -15889.17190063
  -Hartree energ DENC   =     -6633.65421031
  -exchange      EXHF   =         0.00000000
  -V(xc)+E(xc)   XCENC  =       821.36274812
  PAW double counting   =     20093.73414577   -20974.69695567
  entropy T*S    EENTRO =        -0.00000000
  eigenvalues    EBANDS =     -2271.93573399
  atomic energy  EATOM  =     22884.08756783
  Solvation  Ediel_sol  =         0.00000000
  ---------------------------------------------------
  free energy    TOTEN  =     -1184.74888276 eV

  energy without entropy =    -1184.74888276  energy(sigma->0) =    -1184.74888276


--------------------------------------------------------------------------------------------------------




--------------------------------------- Iteration      1(  10)  ---------------------------------------


    POTLOK:  cpu time    0.1848: real time    0.2196
    SETDIJ:  cpu time    1.1699: real time    1.1700
     EDDAV:  cpu time   23.2458: real time   23.2467
       DOS:  cpu time    0.0007: real time    0.0007
    CHARGE:  cpu time    3.3216: real time    3.3218
    MIXING:  cpu time    0.0011: real time    0.0011
    --------------------------------------------
      LOOP:  cpu time   27.9239: real time   27.9599

 eigenvalue-minimisations  :  9368
 total energy-change (2. order) :-0.2240531E-02  (-0.1404441E-02)
 number of electron     287.9999999 magnetization 
 augmentation part        9.0048951 magnetization 

 Broyden mixing:
  rms(total) = 0.26204E-01    rms(broyden)= 0.26203E-01
  rms(prec ) = 0.28111E-01
  weight for this iteration     100.00

 eigenvalues of (default mixing * dielectric matrix)
  average eigenvalue GAMMA=   1.4097
  2.6134  1.2436  1.2436  0.9740  0.9740

 Free energy of the ion-electron system (eV)
  ---------------------------------------------------
  alpha Z        PSCENC =       785.52545613
  Ewald energy   TEWEN  =    -15889.17190063
  -Hartree energ DENC   =     -6631.62712821
  -exchange      EXHF   =         0.00000000
  -V(xc)+E(xc)   XCENC  =       821.20650335
  PAW double counting   =     20079.95023830   -20961.02359855
  entropy T*S    EENTRO =        -0.00000000
  eigenvalues    EBANDS =     -2273.69826152
  atomic energy  EATOM  =     22884.08756783
  Solvation  Ediel_sol  =         0.00000000
  ---------------------------------------------------
  free energy    TOTEN  =     -1184.75112329 eV

  energy without entropy =    -1184.75112329  energy(sigma->0) =    -1184.75112329


--------------------------------------------------------------------------------------------------------




--------------------------------------- Iteration      1(  11)  ---------------------------------------


    POTLOK:  cpu time    0.1737: real time    0.2049
    SETDIJ:  cpu time    1.1709: real time    1.1709
     EDDAV:  cpu time   23.0005: real time   23.0015
       DOS:  cpu time    0.0011: real time    0.0011
    CHARGE:  cpu time    3.3280: real time    3.3281
    MIXING:  cpu time    0.0011: real time    0.0011
    --------------------------------------------
      LOOP:  cpu time   27.6752: real time   27.7076

 eigenvalue-minimisations  :  9208
 total energy-change (2. order) :-0.1005125E-03  (-0.1662334E-03)
 number of electron     287.9999999 magnetization 
 augmentation part        9.0025916 magnetization 

 Broyden mixing:
  rms(total) = 0.12751E-01    rms(broyden)= 0.12751E-01
  rms(prec ) = 0.13489E-01
  weight for this iteration     100.00

 eigenvalues of (default mixing * dielectric matrix)
  average eigenvalue GAMMA=   1.5566
  2.5930  2.5930  1.1698  1.1698  0.9072  0.9072

 Free energy of the ion-electron system (eV)
  ---------------------------------------------------
  alpha Z        PSCENC =       785.52545613
  Ewald energy   TEWEN  =    -15889.17190063
  -Hartree energ DENC   =     -6630.21507445
  -exchange      EXHF   =         0.00000000
  -V(xc)+E(xc)   XCENC  =       821.14228655
  PAW double counting   =     20087.41593798   -20968.70750070
  entropy T*S    EENTRO =        -0.00000000
  eigenvalues    EBANDS =     -2274.82799652
  atomic energy  EATOM  =     22884.08756783
  Solvation  Ediel_sol  =         0.00000000
  ---------------------------------------------------
  free energy    TOTEN  =     -1184.75122380 eV

  energy without entropy =    -1184.75122380  energy(sigma->0) =    -1184.75122380


--------------------------------------------------------------------------------------------------------




--------------------------------------- Iteration      1(  12)  ---------------------------------------


    POTLOK:  cpu time    0.1630: real time    0.2216
    SETDIJ:  cpu time    1.1711: real time    1.1711
     EDDAV:  cpu time   21.3750: real time   21.3761
       DOS:  cpu time    0.0008: real time    0.0008
    CHARGE:  cpu time    3.3272: real time    3.3273
    MIXING:  cpu time    0.0012: real time    0.0012
    --------------------------------------------
      LOOP:  cpu time   26.0383: real time   26.0980

 eigenvalue-minimisations  :  8256
 total energy-change (2. order) :-0.5401066E-03  (-0.1049308E-03)
 number of electron     287.9999999 magnetization 
 augmentation part        9.0015602 magnetization 

 Broyden mixing:
  rms(total) = 0.38701E-02    rms(broyden)= 0.38696E-02
  rms(prec ) = 0.44783E-02
  weight for this iteration     100.00

 eigenvalues of (default mixing * dielectric matrix)
  average eigenvalue GAMMA=   1.5520
  2.7476  2.4976  1.3210  1.3210  0.9567  1.0101  1.0101

 Free energy of the ion-electron system (eV)
  ---------------------------------------------------
  alpha Z        PSCENC =       785.52545613
  Ewald energy   TEWEN  =    -15889.17190063
  -Hartree energ DENC   =     -6629.09188572
  -exchange      EXHF   =         0.00000000
  -V(xc)+E(xc)   XCENC  =       821.07865837
  PAW double counting   =     20088.39165490   -20969.86712040
  entropy T*S    EENTRO =        -0.00000000
  eigenvalues    EBANDS =     -2275.70419439
  atomic energy  EATOM  =     22884.08756783
  Solvation  Ediel_sol  =         0.00000000
  ---------------------------------------------------
  free energy    TOTEN  =     -1184.75176391 eV

  energy without entropy =    -1184.75176391  energy(sigma->0) =    -1184.75176391


--------------------------------------------------------------------------------------------------------




--------------------------------------- Iteration      1(  13)  ---------------------------------------


    POTLOK:  cpu time    0.2004: real time    0.2150
    SETDIJ:  cpu time    1.1714: real time    1.1714
     EDDAV:  cpu time   21.7556: real time   21.7564
       DOS:  cpu time    0.0007: real time    0.0007
    CHARGE:  cpu time    3.3239: real time    3.3240
    MIXING:  cpu time    0.0017: real time    0.0017
    --------------------------------------------
      LOOP:  cpu time   26.4536: real time   26.4691

 eigenvalue-minimisations  :  8448
 total energy-change (2. order) : 0.2023984E-03  (-0.1692127E-04)
 number of electron     287.9999999 magnetization 
 augmentation part        9.0022257 magnetization 

 Broyden mixing:
  rms(total) = 0.18302E-02    rms(broyden)= 0.18300E-02
  rms(prec ) = 0.18981E-02
  weight for this iteration     100.00

 eigenvalues of (default mixing * dielectric matrix)
  average eigenvalue GAMMA=   1.5769
  2.9838  2.5780  1.4653  1.4653  1.1432  1.1432  0.9180  0.9180

 Free energy of the ion-electron system (eV)
  ---------------------------------------------------
  alpha Z        PSCENC =       785.52545613
  Ewald energy   TEWEN  =    -15889.17190063
  -Hartree energ DENC   =     -6629.39168025
  -exchange      EXHF   =         0.00000000
  -V(xc)+E(xc)   XCENC  =       821.11230620
  PAW double counting   =     20089.55665949   -20971.01859483
  entropy T*S    EENTRO =        -0.00000000
  eigenvalues    EBANDS =     -2275.45137544
  atomic energy  EATOM  =     22884.08756783
  Solvation  Ediel_sol  =         0.00000000
  ---------------------------------------------------
  free energy    TOTEN  =     -1184.75156151 eV

  energy without entropy =    -1184.75156151  energy(sigma->0) =    -1184.75156151


--------------------------------------------------------------------------------------------------------




--------------------------------------- Iteration      1(  14)  ---------------------------------------


    POTLOK:  cpu time    0.1738: real time    0.1995
    SETDIJ:  cpu time    1.1708: real time    1.1708
     EDDAV:  cpu time   20.3102: real time   20.3109
       DOS:  cpu time    0.0007: real time    0.0007
    CHARGE:  cpu time    3.3274: real time    3.3276
    MIXING:  cpu time    0.0013: real time    0.0013
    --------------------------------------------
      LOOP:  cpu time   24.9842: real time   25.0108

 eigenvalue-minimisations  :  7616
 total energy-change (2. order) :-0.4944323E-04  (-0.3072389E-05)
 number of electron     287.9999999 magnetization 
 augmentation part        9.0025356 magnetization 

 Broyden mixing:
  rms(total) = 0.69255E-03    rms(broyden)= 0.69247E-03
  rms(prec ) = 0.73552E-03
  weight for this iteration     100.00

 eigenvalues of (default mixing * dielectric matrix)
  average eigenvalue GAMMA=   1.5089
  2.9526  2.3017  1.6508  1.3366  1.2094  1.2094  1.0229  0.9485  0.9485

 Free energy of the ion-electron system (eV)
  ---------------------------------------------------
  alpha Z        PSCENC =       785.52545613
  Ewald energy   TEWEN  =    -15889.17190063
  -Hartree energ DENC   =     -6629.37435218
  -exchange      EXHF   =         0.00000000
  -V(xc)+E(xc)   XCENC  =       821.10992338
  PAW double counting   =     20088.96608955   -20970.42509248
  entropy T*S    EENTRO =        -0.00000000
  eigenvalues    EBANDS =     -2275.46930255
  atomic energy  EATOM  =     22884.08756783
  Solvation  Ediel_sol  =         0.00000000
  ---------------------------------------------------
  free energy    TOTEN  =     -1184.75161095 eV

  energy without entropy =    -1184.75161095  energy(sigma->0) =    -1184.75161095


--------------------------------------------------------------------------------------------------------




--------------------------------------- Iteration      1(  15)  ---------------------------------------


    POTLOK:  cpu time    0.1554: real time    0.2188
    SETDIJ:  cpu time    1.1731: real time    1.1732
     EDDAV:  cpu time   15.1102: real time   15.1110
       DOS:  cpu time    0.0008: real time    0.0008
    CHARGE:  cpu time    3.3210: real time    3.3211
    MIXING:  cpu time    0.0014: real time    0.0014
    --------------------------------------------
      LOOP:  cpu time   19.7619: real time   19.8263

 eigenvalue-minimisations  :  4392
 total energy-change (2. order) : 0.1390654E-04  (-0.1692710E-06)
 number of electron     287.9999999 magnetization 
 augmentation part        9.0024124 magnetization 

 Broyden mixing:
  rms(total) = 0.36884E-03    rms(broyden)= 0.36883E-03
  rms(prec ) = 0.39112E-03
  weight for this iteration     100.00

 eigenvalues of (default mixing * dielectric matrix)
  average eigenvalue GAMMA=   1.6230
  2.9889  2.5931  2.5931  1.4958  1.4958  1.1341  1.1341  0.8931  0.9511  0.9511

 Free energy of the ion-electron system (eV)
  ---------------------------------------------------
  alpha Z        PSCENC =       785.52545613
  Ewald energy   TEWEN  =    -15889.17190063
  -Hartree energ DENC   =     -6629.42514381
  -exchange      EXHF   =         0.00000000
  -V(xc)+E(xc)   XCENC  =       821.11326830
  PAW double counting   =     20089.02383177   -20970.47560570
  entropy T*S    EENTRO =        -0.00000000
  eigenvalues    EBANDS =     -2275.42907093
  atomic energy  EATOM  =     22884.08756783
  Solvation  Ediel_sol  =         0.00000000
  ---------------------------------------------------
  free energy    TOTEN  =     -1184.75159705 eV

  energy without entropy =    -1184.75159705  energy(sigma->0) =    -1184.75159705


--------------------------------------------------------------------------------------------------------




--------------------------------------- Iteration      1(  16)  ---------------------------------------


    POTLOK:  cpu time    0.1676: real time    0.2089
    SETDIJ:  cpu time    1.1706: real time    1.1706
     EDDAV:  cpu time   14.7714: real time   14.7720
       DOS:  cpu time    0.0008: real time    0.0008
    CHARGE:  cpu time    3.3291: real time    3.3292
    MIXING:  cpu time    0.0017: real time    0.0017
    --------------------------------------------
      LOOP:  cpu time   19.4411: real time   19.4831

 eigenvalue-minimisations  :  4160
 total energy-change (2. order) :-0.1977837E-04  (-0.1578763E-06)
 number of electron     287.9999999 magnetization 
 augmentation part        9.0025949 magnetization 

 Broyden mixing:
  rms(total) = 0.11604E-03    rms(broyden)= 0.11601E-03
  rms(prec ) = 0.13539E-03
  weight for this iteration     100.00

 eigenvalues of (default mixing * dielectric matrix)
  average eigenvalue GAMMA=   1.5516
  3.0663  2.6154  2.3215  1.4862  1.4862  1.1271  1.1271  1.1120  0.9150  0.9053
  0.9053

 Free energy of the ion-electron system (eV)
  ---------------------------------------------------
  alpha Z        PSCENC =       785.52545613
  Ewald energy   TEWEN  =    -15889.17190063
  -Hartree energ DENC   =     -6629.44159453
  -exchange      EXHF   =         0.00000000
  -V(xc)+E(xc)   XCENC  =       821.11384096
  PAW double counting   =     20088.80042375   -20970.24768892
  entropy T*S    EENTRO =        -0.00000000
  eigenvalues    EBANDS =     -2275.41772140
  atomic energy  EATOM  =     22884.08756783
  Solvation  Ediel_sol  =         0.00000000
  ---------------------------------------------------
  free energy    TOTEN  =     -1184.75161682 eV

  energy without entropy =    -1184.75161682  energy(sigma->0) =    -1184.75161682


--------------------------------------------------------------------------------------------------------




--------------------------------------- Iteration      1(  17)  ---------------------------------------


    POTLOK:  cpu time    0.1764: real time    0.2316
    SETDIJ:  cpu time    1.1726: real time    1.1727
     EDDAV:  cpu time   14.5016: real time   14.5024
       DOS:  cpu time    0.0008: real time    0.0008
    CHARGE:  cpu time    3.3253: real time    3.3254
    MIXING:  cpu time    0.0015: real time    0.0015
    --------------------------------------------
      LOOP:  cpu time   19.1782: real time   19.2343

 eigenvalue-minimisations  :  4000
 total energy-change (2. order) :-0.1049295E-05  (-0.3523467E-07)
 number of electron     287.9999999 magnetization 
 augmentation part        9.0025561 magnetization 

 Broyden mixing:
  rms(total) = 0.77569E-04    rms(broyden)= 0.77564E-04
  rms(prec ) = 0.84718E-04
  weight for this iteration     100.00

 eigenvalues of (default mixing * dielectric matrix)
  average eigenvalue GAMMA=   1.6081
  3.0542  2.8094  2.3277  2.3277  1.4054  1.4054  1.1019  1.1019  1.0071  1.0071
  0.8747  0.8747

 Free energy of the ion-electron system (eV)
  ---------------------------------------------------
  alpha Z        PSCENC =       785.52545613
  Ewald energy   TEWEN  =    -15889.17190063
  -Hartree energ DENC   =     -6629.43247768
  -exchange      EXHF   =         0.00000000
  -V(xc)+E(xc)   XCENC  =       821.11284506
  PAW double counting   =     20088.83182335   -20970.28025950
  entropy T*S    EENTRO =        -0.00000000
  eigenvalues    EBANDS =     -2275.42467244
  atomic energy  EATOM  =     22884.08756783
  Solvation  Ediel_sol  =         0.00000000
  ---------------------------------------------------
  free energy    TOTEN  =     -1184.75161787 eV

  energy without entropy =    -1184.75161787  energy(sigma->0) =    -1184.75161787


--------------------------------------------------------------------------------------------------------




--------------------------------------- Iteration      1(  18)  ---------------------------------------


    POTLOK:  cpu time    0.1711: real time    0.2104
    SETDIJ:  cpu time    1.1713: real time    1.1714
     EDDAV:  cpu time   14.4676: real time   14.4686
       DOS:  cpu time    0.0007: real time    0.0007
    CHARGE:  cpu time    3.3194: real time    3.3194
    MIXING:  cpu time    0.0016: real time    0.0016
    --------------------------------------------
      LOOP:  cpu time   19.1317: real time   19.1721

 eigenvalue-minimisations  :  3984
 total energy-change (2. order) : 0.1765060E-05  (-0.1173794E-07)
 number of electron     287.9999999 magnetization 
 augmentation part        9.0025973 magnetization 

 Broyden mixing:
  rms(total) = 0.46220E-04    rms(broyden)= 0.46217E-04
  rms(prec ) = 0.50606E-04
  weight for this iteration     100.00

 eigenvalues of (default mixing * dielectric matrix)
  average eigenvalue GAMMA=   1.5918
  3.2026  3.0356  2.4121  1.6371  1.6371  1.3995  1.3995  1.1235  1.1235  1.0583
  0.9009  0.9009  0.8628

 Free energy of the ion-electron system (eV)
  ---------------------------------------------------
  alpha Z        PSCENC =       785.52545613
  Ewald energy   TEWEN  =    -15889.17190063
  -Hartree energ DENC   =     -6629.42524130
  -exchange      EXHF   =         0.00000000
  -V(xc)+E(xc)   XCENC  =       821.11243625
  PAW double counting   =     20088.86945044   -20970.31799482
  entropy T*S    EENTRO =        -0.00000000
  eigenvalues    EBANDS =     -2275.43139001
  atomic energy  EATOM  =     22884.08756783
  Solvation  Ediel_sol  =         0.00000000
  ---------------------------------------------------
  free energy    TOTEN  =     -1184.75161611 eV

  energy without entropy =    -1184.75161611  energy(sigma->0) =    -1184.75161611


--------------------------------------------------------------------------------------------------------




--------------------------------------- Iteration      1(  19)  ---------------------------------------


    POTLOK:  cpu time    0.1745: real time    0.2149
    SETDIJ:  cpu time    1.1714: real time    1.1715
     EDDAV:  cpu time   14.4947: real time   14.4954
       DOS:  cpu time    0.0006: real time    0.0006
    --------------------------------------------
      LOOP:  cpu time   15.8411: real time   15.8823

 eigenvalue-minimisations  :  4000
 total energy-change (2. order) : 0.7827516E-06  (-0.5600126E-08)
 number of electron     287.9999999 magnetization 
 augmentation part        9.0025973 magnetization 

 Free energy of the ion-electron system (eV)
  ---------------------------------------------------
  alpha Z        PSCENC =       785.52545613
  Ewald energy   TEWEN  =    -15889.17190063
  -Hartree energ DENC   =     -6629.43066587
  -exchange      EXHF   =         0.00000000
  -V(xc)+E(xc)   XCENC  =       821.11274002
  PAW double counting   =     20088.85446615   -20970.30213117
  entropy T*S    EENTRO =        -0.00000000
  eigenvalues    EBANDS =     -2275.42714778
  atomic energy  EATOM  =     22884.08756783
  Solvation  Ediel_sol  =         0.00000000
  ---------------------------------------------------
  free energy    TOTEN  =     -1184.75161533 eV

  energy without entropy =    -1184.75161533  energy(sigma->0) =    -1184.75161533


--------------------------------------------------------------------------------------------------------




 average (electrostatic) potential at core
  the test charge radii are     1.1312  1.1541  1.0178
  (the norm of the test charge is              1.0000)
       1 -54.0516       2 -54.0519       3 -54.0514       4 -54.0512       5-100.8967
       6-100.8965       7-100.8960       8-100.8966       9-100.8959      10-100.8961
      11-100.8966      12-100.8960      13 -68.3766      14 -68.3768      15 -68.0956
      16 -68.0959      17 -68.0957      18 -68.0960      19 -68.0957      20 -68.0960
      21 -68.0957      22 -68.0960      23 -68.3764      24 -68.3761      25 -68.0957
      26 -68.0954      27 -68.0956      28 -68.0953      29 -68.0957      30 -68.0954
      31 -68.0957      32 -68.0954



 E-fermi :   0.5611     XC(G=0):  -8.7430     alpha+bet : -7.9156


 k-point     1 :       0.0000    0.0000    0.0000
  band No.  band energies     occupation 
      1     -19.5992      2.00000
      2     -19.5987      2.00000
      3     -19.5954      2.00000
      4     -19.5949      2.00000
      5     -15.6661      2.00000
      6     -15.6655      2.00000
      7     -15.6490      2.00000
      8     -15.6484      2.00000
      9     -15.6154      2.00000
     10     -15.6148      2.00000
     11     -15.6128      2.00000
     12     -15.6128      2.00000
     13     -15.6122      2.00000
     14     -15.6122      2.00000
     15     -15.6058      2.00000
     16     -15.6058      2.00000
     17     -15.6053      2.00000
     18     -15.6053      2.00000
     19     -15.5734      2.00000
     20     -15.5729      2.00000
     21     -15.5727      2.00000
     22     -15.5727      2.00000
     23     -15.5722      2.00000
     24     -15.5722      2.00000
     25     -15.5696      2.00000
     26     -15.5691      2.00000
     27     -15.5619      2.00000
     28     -15.5616      2.00000
     29     -15.5612      2.00000
     30     -15.5610      2.00000
     31     -15.5604      2.00000
     32     -15.5599      2.00000
     33     -15.5596      2.00000
     34     -15.5595      2.00000
     35     -15.5590      2.00000
     36     -15.5590      2.00000
     37     -15.5360      2.00000
     38     -15.5355      2.00000
     39     -15.5240      2.00000
     40     -15.5234      2.00000
     41     -15.5037      2.00000
     42     -15.5037      2.00000
     43     -15.5032      2.00000
     44     -15.5032      2.00000
     45     -13.7638      2.00000
     46     -13.7612      2.00000
     47     -13.4323      2.00000
     48     -13.4276      2.00000
     49     -13.1706      2.00000
     50     -13.1648      2.00000
     51     -13.1565      2.00000
     52     -13.1349      2.00000
     53     -13.1349      2.00000
     54     -13.1230      2.00000
     55     -13.1069      2.00000
     56     -13.1069      2.00000
     57     -13.0109      2.00000
     58     -12.9860      2.00000
     59     -12.9258      2.00000
     60     -12.9258      2.00000
     61     -12.9203      2.00000
     62     -12.9140      2.00000
     63     -12.8955      2.00000
     64     -12.8955      2.00000
     65      -6.7235      2.00000
     66      -6.7198      2.00000
     67      -6.6595      2.00000
     68      -6.6595      2.00000
     69      -6.6277      2.00000
     70      -6.6277      2.00000
     71      -6.2714      2.00000
     72      -6.2595      2.00000
     73      -6.1161      2.00000
     74      -6.0476      2.00000
     75      -6.0369      2.00000
     76      -6.0313      2.00000
     77      -6.0313      2.00000
[...]
    115      -0.4922      2.00000
    116      -0.4922      2.00000
    117      -0.4792      2.00000
    118      -0.4792      2.00000
    119      -0.4771      2.00000
    120      -0.4770      2.00000
    121      -0.4108      2.00000
    122      -0.4108      2.00000
    123      -0.4088      2.00000
    124      -0.4088      2.00000
    125      -0.3607      2.00000
    126      -0.3607      2.00000
    127      -0.2506      2.00000
    128      -0.2506      2.00000
    129      -0.0646      2.00000
    130      -0.0646      2.00000
    131      -0.0260      2.00000
    132      -0.0260      2.00000
    133       0.0080      2.00000
    134       0.0080      2.00000
    135       0.0525      2.00000
    136       0.0525      2.00000
    137       0.0963      2.00000
    138       0.0963      2.00000
    139       0.1622      2.00000
    140       0.1622      2.00000
    141       0.1869      2.00000
    142       0.1869      2.00000
    143       0.2086      2.00000
    144       0.2086      2.00000
    145       4.0156      0.00000
    146       4.0156      0.00000
    147       4.0248      0.00000
    148       4.0248      0.00000
    149       4.6743      0.00000
    150       4.6743      0.00000
    151       4.7537      0.00000
    152       4.7537      0.00000
    153       4.8967      0.00000
    154       4.8967      0.00000
    155       4.9803      0.00000
    156       4.9803      0.00000
    157       5.3150      0.00000
    158       5.3150      0.00000
    159       5.3458      0.00000
    160       5.3458      0.00000
    161       5.6802      0.00000
    162       5.6802      0.00000
    163       5.7603      0.00000
    164       5.7603      0.00000
    165       6.1342      0.00000
    166       6.1342      0.00000
    167       6.1518      0.00000
    168       6.1518      0.00000
    169       7.6581      0.00000
    170       7.6582      0.00000
    171       7.9780      0.00000
    172       7.9780      0.00000
    173       8.0004      0.00000
    174       8.0005      0.00000
    175       8.1627      0.00000
    176       8.1697      0.00000


--------------------------------------------------------------------------------------------------------


 soft charge-density along one line, spin component           1
         0         1         2         3         4         5         6         7         8         9
 total charge-density along one line

 pseudopotential strength for first ion, spin component:           1
 17.432  -4.562   0.000  -0.000   0.000  -0.000   0.000  -0.000
 -4.562   1.202  -0.000   0.000  -0.000   0.000  -0.000   0.000
  0.000  -0.000   2.042   0.000  -0.000  -2.394  -0.000   0.000
 -0.000   0.000   0.000   2.041  -0.000  -0.000  -2.393   0.000
  0.000  -0.000  -0.000  -0.000   2.042   0.000   0.000  -2.394
 -0.000   0.000  -2.394  -0.000   0.000   2.760   0.000  -0.000
  0.000  -0.000  -0.000  -2.393   0.000   0.000   2.759  -0.000
 -0.000   0.000   0.000   0.000  -2.394  -0.000  -0.000   2.760
 -0.000   0.000   0.000  -0.000   0.000  -0.000   0.000  -0.000
  0.000  -0.000  -0.000   0.000  -0.000   0.000  -0.000   0.000
 -0.001   0.000  -0.000  -0.000  -0.000   0.000   0.000   0.000
 -0.000   0.000  -0.000   0.000  -0.000   0.000  -0.000   0.000
 -0.000   0.000  -0.000   0.000   0.000   0.000  -0.000  -0.000
 total augmentation occupancy for first ion, spin component:           1
  1.915  -0.134   0.000   0.000   0.000   0.000   0.000   0.000  -0.000   0.000  -0.000   0.000  -0.000
 -0.134   0.132   0.000   0.000   0.000   0.000   0.000   0.000   0.000  -0.000   0.001   0.000  -0.000
  0.000   0.000   2.018   0.000   0.000   0.005   0.000   0.000   0.000   0.000  -0.000   0.000   0.000
  0.000   0.000   0.000   2.019   0.000   0.000   0.006   0.000  -0.000   0.000  -0.000  -0.000   0.000
  0.000   0.000   0.000   0.000   2.018   0.000   0.000   0.005  -0.000  -0.000  -0.000   0.000   0.000
  0.000   0.000   0.005   0.000   0.000   0.010   0.000   0.000  -0.000  -0.000  -0.000  -0.000  -0.000
  0.000   0.000   0.000   0.006   0.000   0.000   0.010   0.000  -0.000   0.000  -0.000   0.000   0.000
  0.000   0.000   0.000   0.000   0.005   0.000   0.000   0.010   0.000   0.000   0.000   0.000  -0.000
 -0.000   0.000   0.000  -0.000  -0.000  -0.000  -0.000   0.000   0.006   0.000   0.000   0.000   0.000
  0.000  -0.000  -0.000   0.000  -0.000  -0.000   0.000   0.000   0.000   0.007   0.000   0.000  -0.000
 -0.000   0.001  -0.000  -0.000  -0.000  -0.000  -0.000   0.000   0.000   0.000   0.005   0.000  -0.000
  0.000   0.000   0.000  -0.000   0.000  -0.000   0.000  -0.000   0.000   0.000   0.000   0.007  -0.000
 -0.000  -0.000   0.000   0.000   0.000  -0.000   0.000  -0.000   0.000  -0.000  -0.000  -0.000   0.005


------------------------ aborting loop because EDIFF is reached ----------------------------------------





 total charge     

# of ion       s       p       d       tot
------------------------------------------
    1        1.788   4.719   0.022   6.529
    2        1.788   4.719   0.022   6.529
    3        1.788   4.719   0.022   6.529
    4        1.788   4.719   0.022   6.529
    5        1.542   0.410   9.828  11.780
    6        1.542   0.410   9.828  11.780
    7        1.543   0.407   9.828  11.778
    8        1.543   0.407   9.828  11.778
    9        1.542   0.410   9.828  11.780
   10        1.542   0.410   9.828  11.780
   11        1.543   0.407   9.828  11.778
   12        1.543   0.407   9.828  11.778
   13        1.619   3.286   0.009   4.914
   14        1.619   3.286   0.009   4.914
   15        1.617   3.273   0.008   4.898
   16        1.617   3.273   0.008   4.898
   17        1.617   3.273   0.008   4.898
   18        1.617   3.273   0.008   4.898
   19        1.617   3.273   0.008   4.897
   20        1.617   3.273   0.008   4.897
   21        1.617   3.273   0.008   4.898
   22        1.617   3.273   0.008   4.897
   23        1.619   3.286   0.009   4.914
   24        1.619   3.286   0.009   4.914
   25        1.617   3.273   0.008   4.898
   26        1.617   3.273   0.008   4.898
   27        1.617   3.273   0.008   4.898
   28        1.617   3.273   0.008   4.898
   29        1.617   3.273   0.008   4.897
   30        1.617   3.273   0.008   4.897
   31        1.617   3.273   0.008   4.897
   32        1.617   3.273   0.008   4.897
--------------------------------------------------
tot         51.844  87.656  78.871 218.371

    CHARGE:  cpu time    0.4378: real time    0.4378
    FORLOC:  cpu time    0.0077: real time    0.0077
    FORNL :  cpu time    1.9974: real time    1.9975
    STRESS:  cpu time   54.4095: real time   54.4119
    FORCOR:  cpu time    0.1453: real time    0.1453
    FORHAR:  cpu time    0.0172: real time    0.0172
    MIXING:  cpu time    0.0016: real time    0.0016
    OFIELD:  cpu time    0.0000: real time    0.0000

  FORCE on cell =-STRESS in cart. coord.  units (eV):
  Direction    XX          YY          ZZ          XY          YZ          ZX
  --------------------------------------------------------------------------------------
  Alpha Z   785.52546   785.52546   785.52546
  Ewald   -3773.05942 -3773.05942 -8343.11034     0.00000     0.00000     0.00000
  Hartree  3483.58336  3483.58336  -337.73869     0.00000    -0.00000    -0.00000
  E(xc)   -1239.55600 -1239.47941 -1239.30362    -0.03737     0.00037     0.00046
  Local   -5310.23415 -5310.23415  3064.34255     0.00000    -0.00000    -0.00000
  n-local  1563.07079  1562.68917  1564.89969    -0.04738     0.00261     0.00395
  augment   880.77438   880.77439   879.77824    -0.00000    -0.00003    -0.00003
  Kinetic  3608.50405  3609.28811  3623.94889    -1.33589     0.01291     0.01894
  Fock        0.00000     0.00000     0.00000     0.00000     0.00000     0.00000
  -------------------------------------------------------------------------------------
  Total      -1.15202    -1.15202    -1.65782     0.00000     0.00000     0.00000
  in kB      -1.65582    -1.65582    -2.38281     0.00000     0.00000     0.00000
  external pressure =       -1.90 kB  Pullay stress =        0.00 kB


 VOLUME and BASIS-vectors are now :
 -----------------------------------------------------------------------------
  energy-cutoff  :      300.00
  volume of cell :     1114.70
      direct lattice vectors                 reciprocal lattice vectors
     8.498315979  0.000000000  0.000000000     0.117670372  0.000000000 -0.000000000
    -0.000000000  8.498315979  0.000000000     0.000000000  0.117670372  0.000000000
     0.000000000  0.000000000 15.434534916     0.000000000 -0.000000000  0.064789772

  length of vectors
     8.498315979  8.498315979 15.434534916     0.117670372  0.117670372  0.064789772


 FORCES acting on ions
    electron-ion (+dipol)            ewald-force                    non-local-force                 convergence-correction
 -----------------------------------------------------------------------------------------------
   -.859E-04 -.858E-04 0.851E-04   -.431E-03 -.431E-03 0.434E-03   0.000E+00 -.169E-20 0.235E-20   0.101E-04 0.101E-04 -.909E-04
   0.260E-04 0.260E-04 0.851E-04   0.133E-03 0.133E-03 0.434E-03   0.000E+00 0.000E+00 -.800E-21   -.927E-05 -.927E-05 -.909E-04
   0.260E-04 0.260E-04 -.122E-03   0.133E-03 0.133E-03 -.615E-03   0.000E+00 -.169E-20 -.261E-19   -.927E-05 -.927E-05 0.898E-04
   -.858E-04 -.859E-04 -.122E-03   -.431E-03 -.431E-03 -.615E-03   0.000E+00 0.000E+00 -.101E-20   0.101E-04 0.101E-04 0.898E-04
   -.223E+02 0.223E+02 -.197E-03   0.265E+02 -.265E+02 -.994E-03   -.419E+01 0.419E+01 0.158E-19   0.787E-04 -.375E-04 0.142E-03
   0.223E+02 -.223E+02 -.197E-03   -.265E+02 0.265E+02 -.994E-03   0.419E+01 -.419E+01 0.839E-20   -.958E-04 0.515E-04 0.142E-03
   -.223E+02 -.223E+02 -.632E-05   0.265E+02 0.265E+02 -.230E-04   -.419E+01 -.419E+01 0.291E-20   0.803E-04 0.519E-04 -.140E-03
   0.223E+02 0.223E+02 -.195E-03   -.265E+02 -.265E+02 -.994E-03   0.419E+01 0.419E+01 -.239E-20   -.369E-04 -.941E-04 0.142E-03
   -.223E+02 0.223E+02 -.496E-05   0.265E+02 -.265E+02 -.230E-04   -.419E+01 0.419E+01 -.106E-19   0.513E-04 -.956E-04 -.140E-03
   0.223E+02 -.223E+02 -.496E-05   -.265E+02 0.265E+02 -.230E-04   0.419E+01 -.419E+01 0.198E-20   -.373E-04 0.785E-04 -.140E-03
   -.223E+02 -.223E+02 -.198E-03   0.265E+02 0.265E+02 -.994E-03   -.419E+01 -.419E+01 0.185E-20   0.521E-04 0.804E-04 0.142E-03
   0.223E+02 0.223E+02 -.360E-05   -.265E+02 -.265E+02 -.230E-04   0.419E+01 0.419E+01 -.407E-20   -.939E-04 -.367E-04 -.140E-03
   -.905E-04 -.349E-04 -.942E-04   -.459E-03 -.176E-03 -.477E-03   0.000E+00 0.000E+00 0.103E-21   0.901E-05 0.806E-05 0.701E-04
   -.771E-05 0.480E-04 -.942E-04   -.396E-04 0.243E-03 -.477E-03   0.000E+00 0.000E+00 -.659E-22   -.733E-05 -.828E-05 0.701E-04
   0.150E+02 -.150E+02 0.192E+03   -.154E+02 0.154E+02 -.193E+03   0.374E+00 -.374E+00 0.780E+00   -.442E-05 -.157E-04 -.722E-04
   -.150E+02 0.150E+02 -.192E+03   0.154E+02 -.154E+02 0.193E+03   -.374E+00 0.374E+00 -.780E+00   -.157E-04 -.446E-05 -.332E-04
   -.150E+02 0.150E+02 0.192E+03   0.154E+02 -.154E+02 -.193E+03   -.374E+00 0.374E+00 0.780E+00   -.579E-05 0.245E-04 -.722E-04
   0.150E+02 -.150E+02 -.192E+03   -.154E+02 0.154E+02 0.193E+03   0.374E+00 -.374E+00 -.780E+00   0.244E-04 -.574E-05 -.331E-04
   0.150E+02 0.150E+02 0.192E+03   -.154E+02 -.154E+02 -.193E+03   0.374E+00 0.374E+00 0.780E+00   0.251E-04 -.411E-05 -.722E-04
   -.150E+02 -.150E+02 -.192E+03   0.154E+02 0.154E+02 0.193E+03   -.374E+00 -.374E+00 -.780E+00   -.544E-05 -.150E-04 -.332E-04
   -.150E+02 -.150E+02 0.192E+03   0.154E+02 0.154E+02 -.193E+03   -.374E+00 -.374E+00 0.780E+00   -.150E-04 -.548E-05 -.722E-04
   0.150E+02 0.150E+02 -.192E+03   -.154E+02 -.154E+02 0.193E+03   0.374E+00 0.374E+00 -.780E+00   -.416E-05 0.251E-04 -.331E-04
   0.480E-04 -.771E-05 0.548E-04   0.243E-03 -.396E-04 0.279E-03   0.000E+00 0.000E+00 0.828E-22   -.828E-05 -.733E-05 -.691E-04
   -.349E-04 -.905E-04 0.548E-04   -.176E-03 -.459E-03 0.279E-03   0.000E+00 0.000E+00 -.738E-22   0.806E-05 0.901E-05 -.691E-04
   0.150E+02 -.150E+02 0.192E+03   -.154E+02 0.154E+02 -.193E+03   0.374E+00 -.374E+00 0.780E+00   0.244E-04 -.575E-05 0.130E-03
   -.150E+02 0.150E+02 -.192E+03   0.154E+02 -.154E+02 0.193E+03   -.374E+00 0.374E+00 -.780E+00   -.580E-05 0.245E-04 -.250E-04
   -.150E+02 0.150E+02 0.192E+03   0.154E+02 -.154E+02 -.193E+03   -.374E+00 0.374E+00 0.780E+00   -.157E-04 -.445E-05 0.130E-03
   0.150E+02 -.150E+02 -.192E+03   -.154E+02 0.154E+02 0.193E+03   0.374E+00 -.374E+00 -.780E+00   -.441E-05 -.157E-04 -.250E-04
   0.150E+02 0.150E+02 0.192E+03   -.154E+02 -.154E+02 -.193E+03   0.374E+00 0.374E+00 0.780E+00   -.415E-05 0.251E-04 0.130E-03
   -.150E+02 -.150E+02 -.192E+03   0.154E+02 0.154E+02 0.193E+03   -.374E+00 -.374E+00 -.780E+00   -.151E-04 -.549E-05 -.250E-04
   -.150E+02 -.150E+02 0.192E+03   0.154E+02 0.154E+02 -.193E+03   -.374E+00 -.374E+00 0.780E+00   -.545E-05 -.150E-04 0.130E-03
   0.150E+02 0.150E+02 -.192E+03   -.154E+02 -.154E+02 0.193E+03   0.374E+00 0.374E+00 -.780E+00   0.251E-04 -.410E-05 -.250E-04
 -----------------------------------------------------------------------------------------------
   0.222E-01 0.222E-01 0.385E-01   -.480E-13 -.639E-13 -.284E-13   -.205E-14 0.167E-14 0.111E-15   -.278E-06 -.278E-06 0.761E-05


 POSITION                                       TOTAL-FORCE (eV/Angst)
 -----------------------------------------------------------------------------------
      4.24916      4.24916      3.85863         0.000000     -0.000000      0.000000
      0.00000      0.00000      3.85863         0.000000     -0.000000      0.000000
      0.00000      0.00000     11.57590         0.000000      0.000000      0.000000
      4.24916      4.24916     11.57590        -0.000000      0.000000      0.000000
      7.06490      5.68257      0.00000        -0.014561      0.014561      0.000000
      1.43341      2.81574      0.00000         0.014561     -0.014561      0.000000
      7.06490      2.81574      7.71727        -0.014561     -0.014561      0.000000
      5.68257      1.43341      0.00000         0.014561      0.014561      0.000000
      2.81574      1.43341      7.71727        -0.014561      0.014561      0.000000
      5.68257      7.06490      7.71727         0.014561     -0.014561      0.000000
      2.81574      7.06490      0.00000        -0.014561     -0.014561      0.000000
      1.43341      5.68257      7.71727         0.014561      0.014561      0.000000
      4.24916      4.24916      0.00000         0.000000     -0.000000      0.000000
      0.00000      0.00000      0.00000         0.000000     -0.000000      0.000000
      1.30871      2.94044      5.74598         0.000313     -0.000313      0.004946
      2.94044      1.30871      1.97127        -0.000313      0.000313     -0.004946
      7.18960      5.55788      5.74598        -0.000313      0.000313      0.004946
      5.55788      7.18960      1.97127         0.000313     -0.000313     -0.004946
      5.55788      1.30871      5.74598         0.000313      0.000313      0.004946
      7.18960      2.94044      1.97127        -0.000313     -0.000313     -0.004946
      2.94044      7.18960      5.74598        -0.000313     -0.000313      0.004946
      1.30871      5.55788      1.97127         0.000313      0.000313     -0.004946
      0.00000      0.00000      7.71727         0.000000     -0.000000      0.000000
      4.24916      4.24916      7.71727        -0.000000      0.000000      0.000000
      5.55788      7.18960     13.46326         0.000313     -0.000313      0.004946
      7.18960      5.55788      9.68854        -0.000313      0.000313     -0.004946
      2.94044      1.30871     13.46326        -0.000313      0.000313      0.004946
      1.30871      2.94044      9.68854         0.000313     -0.000313     -0.004946
      1.30871      5.55788     13.46326         0.000313      0.000313      0.004946
      2.94044      7.18960      9.68854        -0.000313     -0.000313     -0.004946
      7.18960      2.94044     13.46326        -0.000313     -0.000313      0.004946
      5.55788      1.30871      9.68854         0.000313      0.000313     -0.004946
 -----------------------------------------------------------------------------------
    total drift:                                0.022172      0.022172      0.038555


--------------------------------------------------------------------------------------------------------



  FREE ENERGIE OF THE ION-ELECTRON SYSTEM (eV)
  ---------------------------------------------------
  free  energy   TOTEN  =     -1184.75161533 eV

  energy  without entropy=    -1184.75161533  energy(sigma->0) =    -1184.75161533



--------------------------------------------------------------------------------------------------------


    POTLOK:  cpu time    1.3095: real time    1.3096


--------------------------------------------------------------------------------------------------------


 stress matrix after NEB project (eV)
     -1.15202      0.00000      0.00000
      0.00000     -1.15202      0.00000
      0.00000      0.00000     -1.65782
  FORCES: max atom, RMS     0.020593    0.010879
  FORCE total and by dimension    0.061538    0.014561
  Stress total and by dimension    2.324366    1.657820
     LOOP+:  cpu time  504.4197: real time  505.0751
    4ORBIT:  cpu time    0.0000: real time    0.0000



 total charge     

# of ion       s       p       d       tot
------------------------------------------
    1        1.788   4.719   0.022   6.529
    2        1.788   4.719   0.022   6.529
    3        1.788   4.719   0.022   6.529
    4        1.788   4.719   0.022   6.529
    5        1.542   0.410   9.828  11.780
    6        1.542   0.410   9.828  11.780
    7        1.543   0.407   9.828  11.778
    8        1.543   0.407   9.828  11.778
    9        1.542   0.410   9.828  11.780
   10        1.542   0.410   9.828  11.780
   11        1.543   0.407   9.828  11.778
   12        1.543   0.407   9.828  11.778
   13        1.619   3.286   0.009   4.914
   14        1.619   3.286   0.009   4.914
   15        1.617   3.273   0.008   4.898
   16        1.617   3.273   0.008   4.898
   17        1.617   3.273   0.008   4.898
   18        1.617   3.273   0.008   4.898
   19        1.617   3.273   0.008   4.897
   20        1.617   3.273   0.008   4.897
   21        1.617   3.273   0.008   4.898
   22        1.617   3.273   0.008   4.897
   23        1.619   3.286   0.009   4.914
   24        1.619   3.286   0.009   4.914
   25        1.617   3.273   0.008   4.898
   26        1.617   3.273   0.008   4.898
   27        1.617   3.273   0.008   4.898
   28        1.617   3.273   0.008   4.898
   29        1.617   3.273   0.008   4.897
   30        1.617   3.273   0.008   4.897
   31        1.617   3.273   0.008   4.897
   32        1.617   3.273   0.008   4.897
--------------------------------------------------
tot         51.844  87.656  78.871 218.371


 total amount of memory used by VASP MPI-rank0    55527. kBytes
=======================================================================

   base      :      30000. kBytes
   nonlr-proj:       4374. kBytes
   fftplans  :       4660. kBytes
   grid      :       4379. kBytes
   one-center:         62. kBytes
   wavefun   :      12052. kBytes

  
  
 General timing and accounting informations for this job:
 ========================================================
  
                  Total CPU time used (sec):      515.258
                            User time (sec):      512.946
                          System time (sec):        2.312
                         Elapsed time (sec):      516.419
  
                   Maximum memory used (kb):      100064.
                   Average memory used (kb):           0.
  
                          Minor page faults:       161948
                          Major page faults:            0
                 Voluntary context switches:         1640
