CsPbBr3 cubic bulk                      
           1
     8.498316    0.000000    0.000000
    -0.000000    8.498316    0.000000
     0.000000    0.000000   15.434535
   Cs   Pb   Br
   4   8  20
Direct configuration=     1
   0.50000000  0.50000000  0.25000000
   0.00000000  0.00000000  0.25000000
   0.00000000  0.00000000  0.75000000
   0.50000000  0.50000000  0.75000000
   0.83132954  0.66867046  0.00000000
   0.16867046  0.33132954  0.00000000
   0.83132954  0.33132954  0.50000000
   0.66867046  0.16867046  0.00000000
   0.33132954  0.16867046  0.50000000
   0.66867046  0.83132954  0.50000000
   0.33132954  0.83132954  0.00000000
   0.16867046  0.66867046  0.50000000
   0.50000000  0.50000000  0.00000000
   0.00000000  0.00000000  0.00000000
   0.15399645  0.34600255  0.37228062
   0.34600255  0.15399645  0.12771838
   0.84600255  0.65399745  0.37228062
   0.65399745  0.84600255  0.12771838
   0.65399745  0.15399645  0.37228062
   0.84600255  0.34600255  0.12771838
   0.34600255  0.84600255  0.37228062
   0.15399645  0.65399745  0.12771838
   0.00000000  0.00000000  0.50000000
   0.50000000  0.50000000  0.50000000
   0.65399745  0.84600255  0.87228162
   0.84600255  0.65399745  0.62771838
   0.34600255  0.15399645  0.87228162
   0.15399645  0.34600255  0.62771838
   0.15399645  0.65399745  0.87228162
   0.34600255  0.84600255  0.62771838
   0.84600255  0.34600255  0.87228162
   0.65399745  0.15399645  0.62771838
