  20  20   1   0
  0.3612627E+02  0.8490938E-09  0.1161254E-08  0.7327743E-09  0.5000000E-15
   1.0000000000000000E-004
  CAR 
 CsPbBr3 cubic bulk                      
      9.64579310    -21.32390001  301      1.23235980      1.00000000
    -21.324  0.0000E+00  0.0000E+00
    -21.221  0.0000E+00  0.0000E+00
    -21.117  0.0000E+00  0.0000E+00
    -21.014  0.0000E+00  0.0000E+00
    -20.911  0.0000E+00  0.0000E+00
    -20.808  0.0000E+00  0.0000E+00
    -20.705  0.0000E+00  0.0000E+00
    -20.601  0.0000E+00  0.0000E+00
    -20.498  0.0000E+00  0.0000E+00
    -20.395  0.0000E+00  0.0000E+00
    -20.292  0.0000E+00  0.0000E+00
    -20.188  0.0000E+00  0.0000E+00
    -20.085  0.0000E+00  0.0000E+00
    -19.982  0.0000E+00  0.0000E+00
    -19.879  0.7749E+02  0.8000E+01
    -19.775  0.0000E+00  0.8000E+01
    -19.672  0.0000E+00  0.8000E+01
    -19.569  0.0000E+00  0.8000E+01
    -19.466  0.0000E+00  0.8000E+01
    -19.362  0.0000E+00  0.8000E+01
    -19.259  0.0000E+00  0.8000E+01
    -19.156  0.0000E+00  0.8000E+01
    -19.053  0.0000E+00  0.8000E+01
    -18.950  0.0000E+00  0.8000E+01
    -18.846  0.0000E+00  0.8000E+01
    -18.743  0.0000E+00  0.8000E+01
    -18.640  0.0000E+00  0.8000E+01
    -18.537  0.0000E+00  0.8000E+01
    -18.433  0.0000E+00  0.8000E+01
    -18.330  0.0000E+00  0.8000E+01
    -18.227  0.0000E+00  0.8000E+01
    -18.124  0.0000E+00  0.8000E+01
    -18.020  0.0000E+00  0.8000E+01
    -17.917  0.0000E+00  0.8000E+01
    -17.814  0.0000E+00  0.8000E+01
    -17.711  0.0000E+00  0.8000E+01
    -17.608  0.0000E+00  0.8000E+01
    -17.504  0.0000E+00  0.8000E+01
    -17.401  0.0000E+00  0.8000E+01
    -17.298  0.0000E+00  0.8000E+01
    -17.195  0.0000E+00  0.8000E+01
    -17.091  0.0000E+00  0.8000E+01
    -16.988  0.0000E+00  0.8000E+01
    -16.885  0.0000E+00  0.8000E+01
    -16.782  0.0000E+00  0.8000E+01
    -16.678  0.0000E+00  0.8000E+01
    -16.575  0.0000E+00  0.8000E+01
    -16.472  0.0000E+00  0.8000E+01
    -16.369  0.0000E+00  0.8000E+01
    -16.266  0.0000E+00  0.8000E+01
    -16.162  0.0000E+00  0.8000E+01
    -16.059  0.0000E+00  0.8000E+01
    -15.956  0.0000E+00  0.8000E+01
    -15.853  0.1840E-13  0.8000E+01
    -15.749  0.5671E+02  0.1385E+02
    -15.646  0.6455E+02  0.2400E+02
    -15.543  0.2325E+03  0.4800E+02
    -15.440  0.0000E+00  0.4800E+02
    -15.336  0.0000E+00  0.4800E+02
    -15.233  0.0000E+00  0.4800E+02
    -15.130  0.0000E+00  0.4800E+02
    -15.027  0.0000E+00  0.4800E+02
    -14.923  0.0000E+00  0.4800E+02
    -14.820  0.0000E+00  0.4800E+02
    -14.717  0.0000E+00  0.4800E+02
    -14.614  0.0000E+00  0.4800E+02
    -14.511  0.0000E+00  0.4800E+02
    -14.407  0.0000E+00  0.4800E+02
    -14.304  0.0000E+00  0.4800E+02
    -14.201  0.0000E+00  0.4800E+02
    -14.098  0.0000E+00  0.4800E+02
    -13.994  0.0000E+00  0.4800E+02
    -13.891  0.1099E-01  0.4800E+02
    -13.788  0.6484E+01  0.4878E+02
    -13.685  0.1776E+02  0.5106E+02
    -13.581  0.2831E+02  0.5426E+02
    -13.478  0.3842E+02  0.5863E+02
    -13.375  0.2700E+02  0.6245E+02
    -13.272  0.2960E+02  0.6672E+02
    -13.169  0.3586E+02  0.7115E+02
    -13.065  0.0000E+00  0.7200E+02
    -12.962  0.0000E+00  0.7200E+02
    -12.859  0.0000E+00  0.7200E+02
    -12.756  0.0000E+00  0.7200E+02
    -12.652  0.0000E+00  0.7200E+02
    -12.549  0.0000E+00  0.7200E+02
    -12.446  0.0000E+00  0.7200E+02
    -12.343  0.0000E+00  0.7200E+02
    -12.239  0.0000E+00  0.7200E+02
    -12.136  0.0000E+00  0.7200E+02
    -12.033  0.0000E+00  0.7200E+02
    -11.930  0.0000E+00  0.7200E+02
    -11.827  0.0000E+00  0.7200E+02
    -11.723  0.0000E+00  0.7200E+02
    -11.620  0.0000E+00  0.7200E+02
    -11.517  0.0000E+00  0.7200E+02
    -11.414  0.0000E+00  0.7200E+02
    -11.310  0.0000E+00  0.7200E+02
    -11.207  0.0000E+00  0.7200E+02
    -11.104  0.0000E+00  0.7200E+02
    -11.001  0.0000E+00  0.7200E+02
    -10.897  0.0000E+00  0.7200E+02
    -10.794  0.0000E+00  0.7200E+02
    -10.691  0.0000E+00  0.7200E+02
    -10.588  0.0000E+00  0.7200E+02
    -10.485  0.0000E+00  0.7200E+02
    -10.381  0.0000E+00  0.7200E+02
    -10.278  0.0000E+00  0.7200E+02
    -10.175  0.0000E+00  0.7200E+02
    -10.072  0.0000E+00  0.7200E+02
     -9.968  0.0000E+00  0.7200E+02
     -9.865  0.0000E+00  0.7200E+02
     -9.762  0.0000E+00  0.7200E+02
     -9.659  0.0000E+00  0.7200E+02
     -9.555  0.0000E+00  0.7200E+02
     -9.452  0.0000E+00  0.7200E+02
     -9.349  0.0000E+00  0.7200E+02
     -9.246  0.0000E+00  0.7200E+02
     -9.142  0.0000E+00  0.7200E+02
     -9.039  0.0000E+00  0.7200E+02
     -8.936  0.0000E+00  0.7200E+02
     -8.833  0.0000E+00  0.7200E+02
     -8.730  0.0000E+00  0.7200E+02
     -8.626  0.0000E+00  0.7200E+02
     -8.523  0.0000E+00  0.7200E+02
     -8.420  0.0000E+00  0.7200E+02
     -8.317  0.0000E+00  0.7200E+02
     -8.213  0.0000E+00  0.7200E+02
     -8.110  0.0000E+00  0.7200E+02
     -8.007  0.0000E+00  0.7200E+02
     -7.904  0.0000E+00  0.7200E+02
     -7.800  0.0000E+00  0.7200E+02
     -7.697  0.0000E+00  0.7200E+02
     -7.594  0.1076E+01  0.7211E+02
     -7.491  0.0000E+00  0.7211E+02
     -7.388  0.5054E+01  0.7263E+02
     -7.284  0.2704E+01  0.7306E+02
     -7.181  0.1644E+00  0.7324E+02
     -7.078  0.1057E+01  0.7422E+02
     -6.975  0.1292E+02  0.7556E+02
     -6.871  0.6176E+01  0.7619E+02
     -6.768  0.5090E+01  0.7697E+02
     -6.665  0.8272E+01  0.7819E+02
     -6.562  0.1075E+01  0.7878E+02
     -6.458  0.8283E+01  0.7963E+02
     -6.355  0.1104E+03  0.9295E+02
     -6.252  0.6343E+02  0.1032E+03
     -6.149  0.6088E+01  0.1039E+03
     -6.046  0.0000E+00  0.1039E+03
     -5.942  0.0000E+00  0.1039E+03
     -5.839  0.2202E+00  0.1039E+03
     -5.736  0.0000E+00  0.1040E+03
     -5.633  0.0000E+00  0.1040E+03
     -5.529  0.0000E+00  0.1040E+03
     -5.426  0.0000E+00  0.1040E+03
     -5.323  0.0000E+00  0.1040E+03
     -5.220  0.0000E+00  0.1040E+03
     -5.116  0.0000E+00  0.1040E+03
     -5.013  0.0000E+00  0.1040E+03
     -4.910  0.0000E+00  0.1040E+03
     -4.807  0.0000E+00  0.1040E+03
     -4.703  0.0000E+00  0.1040E+03
     -4.600  0.0000E+00  0.1040E+03
     -4.497  0.0000E+00  0.1040E+03
     -4.394  0.0000E+00  0.1040E+03
     -4.291  0.0000E+00  0.1040E+03
     -4.187  0.0000E+00  0.1040E+03
     -4.084  0.0000E+00  0.1040E+03
     -3.981  0.0000E+00  0.1040E+03
     -3.878  0.0000E+00  0.1040E+03
     -3.774  0.0000E+00  0.1040E+03
     -3.671  0.0000E+00  0.1040E+03
     -3.568  0.0000E+00  0.1040E+03
     -3.465  0.0000E+00  0.1040E+03
     -3.361  0.0000E+00  0.1040E+03
     -3.258  0.0000E+00  0.1040E+03
     -3.155  0.0000E+00  0.1040E+03
     -3.052  0.0000E+00  0.1040E+03
     -2.949  0.3437E+00  0.1040E+03
     -2.845  0.1080E+01  0.1042E+03
     -2.742  0.1080E+02  0.1058E+03
     -2.639  0.8362E+01  0.1069E+03
     -2.536  0.1399E+02  0.1083E+03
     -2.432  0.1012E+02  0.1094E+03
     -2.329  0.1076E+02  0.1107E+03
     -2.226  0.1938E+02  0.1127E+03
     -2.123  0.5764E+01  0.1137E+03
     -2.019  0.3052E-04  0.1138E+03
     -1.916  0.1970E+02  0.1158E+03
     -1.813  0.1519E+02  0.1185E+03
     -1.710  0.8472E+01  0.1195E+03
     -1.607  0.1214E+02  0.1220E+03
     -1.503  0.2441E+02  0.1253E+03
     -1.400  0.5570E+01  0.1267E+03
     -1.297  0.1213E+01  0.1269E+03
     -1.194  0.2553E+02  0.1300E+03
     -1.090  0.2314E+02  0.1335E+03
     -0.987  0.2064E+02  0.1364E+03
     -0.884  0.3383E+02  0.1413E+03
     -0.781  0.5838E+02  0.1477E+03
     -0.677  0.2764E+02  0.1522E+03
     -0.574  0.2658E+02  0.1557E+03
     -0.471  0.5121E+02  0.1627E+03
     -0.368  0.2600E+02  0.1670E+03
     -0.265  0.3097E+01  0.1679E+03
     -0.161  0.3713E+01  0.1683E+03
     -0.058  0.1613E+02  0.1703E+03
      0.045  0.9448E+01  0.1713E+03
      0.148  0.1035E+02  0.1727E+03
      0.252  0.5382E+01  0.1736E+03
      0.355  0.4307E+01  0.1740E+03
      0.458  0.2152E+01  0.1747E+03
      0.561  0.1737E-02  0.1747E+03
      0.665  0.6442E+01  0.1754E+03
      0.768  0.2153E+01  0.1757E+03
      0.871  0.2152E+01  0.1759E+03
      0.974  0.0000E+00  0.1759E+03
      1.078  0.0000E+00  0.1759E+03
      1.181  0.5534E+00  0.1759E+03
      1.284  0.0000E+00  0.1760E+03
      1.387  0.0000E+00  0.1760E+03
      1.490  0.0000E+00  0.1760E+03
      1.594  0.0000E+00  0.1760E+03
      1.697  0.0000E+00  0.1760E+03
      1.800  0.0000E+00  0.1760E+03
      1.903  0.0000E+00  0.1760E+03
      2.007  0.0000E+00  0.1760E+03
      2.110  0.0000E+00  0.1760E+03
      2.213  0.0000E+00  0.1760E+03
      2.316  0.0000E+00  0.1760E+03
      2.420  0.0000E+00  0.1760E+03
      2.523  0.0000E+00  0.1760E+03
      2.626  0.0000E+00  0.1760E+03
      2.729  0.0000E+00  0.1760E+03
      2.832  0.0000E+00  0.1760E+03
      2.936  0.0000E+00  0.1760E+03
      3.039  0.0000E+00  0.1760E+03
      3.142  0.0000E+00  0.1760E+03
      3.245  0.0000E+00  0.1760E+03
      3.349  0.0000E+00  0.1760E+03
      3.452  0.1076E+01  0.1761E+03
      3.555  0.1076E+01  0.1762E+03
      3.658  0.5165E+01  0.1768E+03
      3.762  0.4305E+01  0.1773E+03
      3.865  0.8066E+01  0.1782E+03
      3.968  0.3367E+01  0.1788E+03
      4.071  0.9097E+01  0.1798E+03
      4.174  0.2209E+01  0.1802E+03
      4.278  0.7875E+01  0.1811E+03
      4.381  0.7972E+00  0.1815E+03
      4.484  0.4314E+01  0.1820E+03
      4.587  0.2155E+01  0.1824E+03
      4.691  0.1505E+01  0.1830E+03
      4.794  0.8487E+01  0.1847E+03
      4.897  0.4306E+01  0.1851E+03
      5.000  0.6379E+01  0.1858E+03
      5.104  0.1349E+01  0.1859E+03
      5.207  0.5594E+01  0.1868E+03
      5.310  0.1092E+02  0.1887E+03
      5.413  0.3927E+01  0.1893E+03
      5.517  0.1076E+02  0.1904E+03
      5.620  0.4305E+01  0.1909E+03
      5.723  0.4305E+01  0.1913E+03
      5.826  0.6326E+01  0.1920E+03
      5.929  0.1076E+02  0.1931E+03
      6.033  0.9687E+01  0.1941E+03
      6.136  0.8611E+01  0.1950E+03
      6.239  0.6148E+01  0.1956E+03
      6.342  0.0000E+00  0.1960E+03
      6.446  0.9072E+01  0.1969E+03
      6.549  0.3229E+01  0.1976E+03
      6.652  0.9233E+01  0.1985E+03
      6.755  0.2155E+01  0.1990E+03
      6.859  0.4305E+01  0.1996E+03
      6.962  0.9730E+01  0.2006E+03
      7.065  0.1179E+02  0.2029E+03
      7.168  0.2370E+02  0.2058E+03
      7.271  0.1440E+02  0.2074E+03
      7.375  0.9877E+01  0.2088E+03
      7.478  0.2362E+02  0.2121E+03
      7.581  0.1496E+02  0.2138E+03
      7.684  0.2250E+02  0.2167E+03
      7.788  0.7207E+01  0.2183E+03
      7.891  0.9727E+01  0.2203E+03
      7.994  0.1723E+02  0.2223E+03
      8.097  0.7458E+01  0.2233E+03
      8.201  0.3229E+01  0.2239E+03
      8.304  0.1076E+01  0.2240E+03
      8.407  0.0000E+00  0.2240E+03
      8.510  0.0000E+00  0.2240E+03
      8.613  0.0000E+00  0.2240E+03
      8.717  0.0000E+00  0.2240E+03
      8.820  0.0000E+00  0.2240E+03
      8.923  0.0000E+00  0.2240E+03
      9.026  0.0000E+00  0.2240E+03
      9.130  0.0000E+00  0.2240E+03
      9.233  0.0000E+00  0.2240E+03
      9.336  0.0000E+00  0.2240E+03
      9.439  0.0000E+00  0.2240E+03
      9.543  0.0000E+00  0.2240E+03
      9.646  0.0000E+00  0.2240E+03
      9.64579310    -21.32390001  301      1.23235980      1.00000000
    -21.324  0.0000E+00  0.0000E+00  0.0000E+00
    -21.221  0.0000E+00  0.0000E+00  0.0000E+00
    -21.117  0.0000E+00  0.0000E+00  0.0000E+00
    -21.014  0.0000E+00  0.0000E+00  0.0000E+00
    -20.911  0.0000E+00  0.0000E+00  0.0000E+00
    -20.808  0.0000E+00  0.0000E+00  0.0000E+00
    -20.705  0.0000E+00  0.0000E+00  0.0000E+00
    -20.601  0.0000E+00  0.0000E+00  0.0000E+00
    -20.498  0.0000E+00  0.0000E+00  0.0000E+00
    -20.395  0.0000E+00  0.0000E+00  0.0000E+00
    -20.292  0.0000E+00  0.0000E+00  0.0000E+00
    -20.188  0.0000E+00  0.0000E+00  0.0000E+00
    -20.085  0.0000E+00  0.0000E+00  0.0000E+00
    -19.982  0.0000E+00  0.0000E+00  0.0000E+00
    -19.879  0.1719E+02  0.2950E-04  0.1217E-05
    -19.775  0.0000E+00  0.0000E+00  0.0000E+00
    -19.672  0.0000E+00  0.0000E+00  0.0000E+00
    -19.569  0.0000E+00  0.0000E+00  0.0000E+00
    -19.466  0.0000E+00  0.0000E+00  0.0000E+00
    -19.362  0.0000E+00  0.0000E+00  0.0000E+00
    -19.259  0.0000E+00  0.0000E+00  0.0000E+00
    -19.156  0.0000E+00  0.0000E+00  0.0000E+00
    -19.053  0.0000E+00  0.0000E+00  0.0000E+00
    -18.950  0.0000E+00  0.0000E+00  0.0000E+00
    -18.846  0.0000E+00  0.0000E+00  0.0000E+00
    -18.743  0.0000E+00  0.0000E+00  0.0000E+00
    -18.640  0.0000E+00  0.0000E+00  0.0000E+00
    -18.537  0.0000E+00  0.0000E+00  0.0000E+00
    -18.433  0.0000E+00  0.0000E+00  0.0000E+00
    -18.330  0.0000E+00  0.0000E+00  0.0000E+00
    -18.227  0.0000E+00  0.0000E+00  0.0000E+00
    -18.124  0.0000E+00  0.0000E+00  0.0000E+00
    -18.020  0.0000E+00  0.0000E+00  0.0000E+00
    -17.917  0.0000E+00  0.0000E+00  0.0000E+00
    -17.814  0.0000E+00  0.0000E+00  0.0000E+00
    -17.711  0.0000E+00  0.0000E+00  0.0000E+00
    -17.608  0.0000E+00  0.0000E+00  0.0000E+00
    -17.504  0.0000E+00  0.0000E+00  0.0000E+00
    -17.401  0.0000E+00  0.0000E+00  0.0000E+00
    -17.298  0.0000E+00  0.0000E+00  0.0000E+00
    -17.195  0.0000E+00  0.0000E+00  0.0000E+00
    -17.091  0.0000E+00  0.0000E+00  0.0000E+00
    -16.988  0.0000E+00  0.0000E+00  0.0000E+00
    -16.885  0.0000E+00  0.0000E+00  0.0000E+00
    -16.782  0.0000E+00  0.0000E+00  0.0000E+00
    -16.678  0.0000E+00  0.0000E+00  0.0000E+00
    -16.575  0.0000E+00  0.0000E+00  0.0000E+00
    -16.472  0.0000E+00  0.0000E+00  0.0000E+00
    -16.369  0.0000E+00  0.0000E+00  0.0000E+00
    -16.266  0.0000E+00  0.0000E+00  0.0000E+00
    -16.162  0.0000E+00  0.0000E+00  0.0000E+00
    -16.059  0.0000E+00  0.0000E+00  0.0000E+00
    -15.956  0.0000E+00  0.0000E+00  0.0000E+00
    -15.853  0.1027E-19  0.7826E-19  0.2088E-19
    -15.749  0.2215E-03  0.1715E-03  0.4655E-04
    -15.646  0.5761E-04  0.1151E-03  0.1205E-04
    -15.543  0.2987E-03  0.1466E-03  0.1765E-04
    -15.440  0.0000E+00  0.0000E+00  0.0000E+00
    -15.336  0.0000E+00  0.0000E+00  0.0000E+00
    -15.233  0.0000E+00  0.0000E+00  0.0000E+00
    -15.130  0.0000E+00  0.0000E+00  0.0000E+00
    -15.027  0.0000E+00  0.0000E+00  0.0000E+00
    -14.923  0.0000E+00  0.0000E+00  0.0000E+00
    -14.820  0.0000E+00  0.0000E+00  0.0000E+00
    -14.717  0.0000E+00  0.0000E+00  0.0000E+00
    -14.614  0.0000E+00  0.0000E+00  0.0000E+00
    -14.511  0.0000E+00  0.0000E+00  0.0000E+00
    -14.407  0.0000E+00  0.0000E+00  0.0000E+00
    -14.304  0.0000E+00  0.0000E+00  0.0000E+00
    -14.201  0.0000E+00  0.0000E+00  0.0000E+00
    -14.098  0.0000E+00  0.0000E+00  0.0000E+00
    -13.994  0.0000E+00  0.0000E+00  0.0000E+00
    -13.891  0.1179E-04  0.1878E-07  0.6979E-08
    -13.788  0.4769E-02  0.1021E-02  0.1519E-04
    -13.685  0.6317E-02  0.5804E-02  0.1029E-03
    -13.581  0.2073E-02  0.9928E-02  0.3886E-03
    -13.478  0.4255E-02  0.1015E-01  0.9452E-03
    -13.375  0.1038E-02  0.4496E-02  0.5287E-03
    -13.272  0.1410E-02  0.4696E-02  0.7131E-03
    -13.169  0.1728E-02  0.4675E-02  0.8764E-03
    -13.065  0.0000E+00  0.0000E+00  0.0000E+00
    -12.962  0.0000E+00  0.0000E+00  0.0000E+00
    -12.859  0.0000E+00  0.0000E+00  0.0000E+00
    -12.756  0.0000E+00  0.0000E+00  0.0000E+00
    -12.652  0.0000E+00  0.0000E+00  0.0000E+00
    -12.549  0.0000E+00  0.0000E+00  0.0000E+00
    -12.446  0.0000E+00  0.0000E+00  0.0000E+00
    -12.343  0.0000E+00  0.0000E+00  0.0000E+00
    -12.239  0.0000E+00  0.0000E+00  0.0000E+00
    -12.136  0.0000E+00  0.0000E+00  0.0000E+00
    -12.033  0.0000E+00  0.0000E+00  0.0000E+00
    -11.930  0.0000E+00  0.0000E+00  0.0000E+00
    -11.827  0.0000E+00  0.0000E+00  0.0000E+00
    -11.723  0.0000E+00  0.0000E+00  0.0000E+00
    -11.620  0.0000E+00  0.0000E+00  0.0000E+00
    -11.517  0.0000E+00  0.0000E+00  0.0000E+00
    -11.414  0.0000E+00  0.0000E+00  0.0000E+00
    -11.310  0.0000E+00  0.0000E+00  0.0000E+00
    -11.207  0.0000E+00  0.0000E+00  0.0000E+00
    -11.104  0.0000E+00  0.0000E+00  0.0000E+00
    -11.001  0.0000E+00  0.0000E+00  0.0000E+00
    -10.897  0.0000E+00  0.0000E+00  0.0000E+00
    -10.794  0.0000E+00  0.0000E+00  0.0000E+00
    -10.691  0.0000E+00  0.0000E+00  0.0000E+00
    -10.588  0.0000E+00  0.0000E+00  0.0000E+00
    -10.485  0.0000E+00  0.0000E+00  0.0000E+00
    -10.381  0.0000E+00  0.0000E+00  0.0000E+00
    -10.278  0.0000E+00  0.0000E+00  0.0000E+00
    -10.175  0.0000E+00  0.0000E+00  0.0000E+00
    -10.072  0.0000E+00  0.0000E+00  0.0000E+00
     -9.968  0.0000E+00  0.0000E+00  0.0000E+00
     -9.865  0.0000E+00  0.0000E+00  0.0000E+00
     -9.762  0.0000E+00  0.0000E+00  0.0000E+00
     -9.659  0.0000E+00  0.0000E+00  0.0000E+00
     -9.555  0.0000E+00  0.0000E+00  0.0000E+00
     -9.452  0.0000E+00  0.0000E+00  0.0000E+00
     -9.349  0.0000E+00  0.0000E+00  0.0000E+00
     -9.246  0.0000E+00  0.0000E+00  0.0000E+00
     -9.142  0.0000E+00  0.0000E+00  0.0000E+00
     -9.039  0.0000E+00  0.0000E+00  0.0000E+00
     -8.936  0.0000E+00  0.0000E+00  0.0000E+00
     -8.833  0.0000E+00  0.0000E+00  0.0000E+00
     -8.730  0.0000E+00  0.0000E+00  0.0000E+00
     -8.626  0.0000E+00  0.0000E+00  0.0000E+00
     -8.523  0.0000E+00  0.0000E+00  0.0000E+00
     -8.420  0.0000E+00  0.0000E+00  0.0000E+00
     -8.317  0.0000E+00  0.0000E+00  0.0000E+00
     -8.213  0.0000E+00  0.0000E+00  0.0000E+00
     -8.110  0.0000E+00  0.0000E+00  0.0000E+00
     -8.007  0.0000E+00  0.0000E+00  0.0000E+00
     -7.904  0.0000E+00  0.0000E+00  0.0000E+00
     -7.800  0.0000E+00  0.0000E+00  0.0000E+00
     -7.697  0.0000E+00  0.0000E+00  0.0000E+00
     -7.594  0.1151E-18  0.4137E-03  0.2956E-04
     -7.491  0.0000E+00  0.0000E+00  0.0000E+00
     -7.388  0.6177E-06  0.7511E-02  0.1116E-03
     -7.284  0.4909E-17  0.1077E-01  0.4953E-04
     -7.181  0.5196E-06  0.8457E-03  0.2335E-05
     -7.078  0.1274E-05  0.1362E-01  0.7873E-05
     -6.975  0.9591E-04  0.7683E-01  0.1716E-03
     -6.871  0.1570E-04  0.6560E-01  0.9306E-04
     -6.768  0.3076E-04  0.3815E-01  0.6790E-04
     -6.665  0.1852E-03  0.2083E+00  0.6746E-04
     -6.562  0.5257E-17  0.7593E-04  0.2030E-04
     -6.458  0.3702E-04  0.1228E+01  0.3953E-04
     -6.355  0.2038E-03  0.2037E+02  0.2473E-03
     -6.252  0.1160E-03  0.1141E+02  0.1065E-03
     -6.149  0.8245E-04  0.3853E+00  0.4554E-04
     -6.046  0.0000E+00  0.0000E+00  0.0000E+00
     -5.942  0.0000E+00  0.0000E+00  0.0000E+00
     -5.839  0.3799E-05  0.3495E-02  0.4530E-06
     -5.736  0.0000E+00  0.0000E+00  0.0000E+00
     -5.633  0.0000E+00  0.0000E+00  0.0000E+00
     -5.529  0.0000E+00  0.0000E+00  0.0000E+00
     -5.426  0.0000E+00  0.0000E+00  0.0000E+00
     -5.323  0.0000E+00  0.0000E+00  0.0000E+00
     -5.220  0.0000E+00  0.0000E+00  0.0000E+00
     -5.116  0.0000E+00  0.0000E+00  0.0000E+00
     -5.013  0.0000E+00  0.0000E+00  0.0000E+00
     -4.910  0.0000E+00  0.0000E+00  0.0000E+00
     -4.807  0.0000E+00  0.0000E+00  0.0000E+00
     -4.703  0.0000E+00  0.0000E+00  0.0000E+00
     -4.600  0.0000E+00  0.0000E+00  0.0000E+00
     -4.497  0.0000E+00  0.0000E+00  0.0000E+00
     -4.394  0.0000E+00  0.0000E+00  0.0000E+00
     -4.291  0.0000E+00  0.0000E+00  0.0000E+00
     -4.187  0.0000E+00  0.0000E+00  0.0000E+00
     -4.084  0.0000E+00  0.0000E+00  0.0000E+00
     -3.981  0.0000E+00  0.0000E+00  0.0000E+00
     -3.878  0.0000E+00  0.0000E+00  0.0000E+00
     -3.774  0.0000E+00  0.0000E+00  0.0000E+00
     -3.671  0.0000E+00  0.0000E+00  0.0000E+00
     -3.568  0.0000E+00  0.0000E+00  0.0000E+00
     -3.465  0.0000E+00  0.0000E+00  0.0000E+00
     -3.361  0.0000E+00  0.0000E+00  0.0000E+00
     -3.258  0.0000E+00  0.0000E+00  0.0000E+00
     -3.155  0.0000E+00  0.0000E+00  0.0000E+00
     -3.052  0.0000E+00  0.0000E+00  0.0000E+00
     -2.949  0.3662E-17  0.2927E-03  0.1386E-04
     -2.845  0.1481E-03  0.3100E-02  0.1305E-03
     -2.742  0.1132E-16  0.1718E-01  0.1611E-02
     -2.639  0.1087E-02  0.2402E-01  0.1600E-02
     -2.536  0.1847E-02  0.4482E-01  0.3021E-02
     -2.432  0.6404E-03  0.2035E-01  0.2821E-02
     -2.329  0.5481E-03  0.3900E-01  0.1670E-02
     -2.226  0.7781E-03  0.3933E-01  0.3273E-02
     -2.123  0.1100E-02  0.5028E-02  0.7123E-03
     -2.019  0.1327E-09  0.9418E-07  0.5822E-08
     -1.916  0.2301E-02  0.6325E-01  0.3276E-02
     -1.813  0.8890E-02  0.2439E-01  0.4393E-02
     -1.710  0.6394E-02  0.1791E-01  0.2122E-02
     -1.607  0.5187E-02  0.4638E-01  0.3384E-02
     -1.503  0.1883E-01  0.6911E-01  0.7821E-02
     -1.400  0.3276E-02  0.2387E-01  0.1717E-02
     -1.297  0.2352E-03  0.1358E-01  0.2315E-03
     -1.194  0.9013E-02  0.1628E+00  0.1239E-01
     -1.090  0.1055E-02  0.1415E+00  0.1401E-01
     -0.987  0.5226E-02  0.9082E-01  0.1346E-01
     -0.884  0.2695E-02  0.1049E+00  0.2108E-01
     -0.781  0.8466E-02  0.1649E+00  0.3926E-01
     -0.677  0.4342E-02  0.7543E-01  0.9663E-02
     -0.574  0.1802E-02  0.6752E-01  0.1686E-01
     -0.471  0.3590E-02  0.1859E+00  0.1706E-01
     -0.368  0.1026E-02  0.4286E-01  0.1068E-01
     -0.265  0.5613E-05  0.5350E-02  0.1034E-02
     -0.161  0.1599E-03  0.7700E-02  0.7782E-03
     -0.058  0.9582E-03  0.2538E-01  0.5603E-02
      0.045  0.9177E-03  0.1583E-01  0.1658E-02
      0.148  0.8846E-03  0.8972E-02  0.2786E-02
      0.252  0.7608E-03  0.2023E-02  0.1608E-02
      0.355  0.6766E-03  0.5037E-02  0.8929E-03
      0.458  0.1454E-16  0.1656E-02  0.4354E-03
      0.561  0.4239E-07  0.2354E-05  0.2606E-06
      0.665  0.1669E-10  0.3667E-02  0.2270E-02
      0.768  0.2301E-04  0.1630E-02  0.6506E-03
      0.871  0.3354E-15  0.2332E-02  0.3290E-03
      0.974  0.0000E+00  0.0000E+00  0.0000E+00
      1.078  0.0000E+00  0.0000E+00  0.0000E+00
      1.181  0.2625E-16  0.1554E-03  0.2142E-03
      1.284  0.0000E+00  0.0000E+00  0.0000E+00
      1.387  0.0000E+00  0.0000E+00  0.0000E+00
      1.490  0.0000E+00  0.0000E+00  0.0000E+00
      1.594  0.0000E+00  0.0000E+00  0.0000E+00
      1.697  0.0000E+00  0.0000E+00  0.0000E+00
      1.800  0.0000E+00  0.0000E+00  0.0000E+00
      1.903  0.0000E+00  0.0000E+00  0.0000E+00
      2.007  0.0000E+00  0.0000E+00  0.0000E+00
      2.110  0.0000E+00  0.0000E+00  0.0000E+00
      2.213  0.0000E+00  0.0000E+00  0.0000E+00
      2.316  0.0000E+00  0.0000E+00  0.0000E+00
      2.420  0.0000E+00  0.0000E+00  0.0000E+00
      2.523  0.0000E+00  0.0000E+00  0.0000E+00
      2.626  0.0000E+00  0.0000E+00  0.0000E+00
      2.729  0.0000E+00  0.0000E+00  0.0000E+00
      2.832  0.0000E+00  0.0000E+00  0.0000E+00
      2.936  0.0000E+00  0.0000E+00  0.0000E+00
      3.039  0.0000E+00  0.0000E+00  0.0000E+00
      3.142  0.0000E+00  0.0000E+00  0.0000E+00
      3.245  0.0000E+00  0.0000E+00  0.0000E+00
      3.349  0.0000E+00  0.0000E+00  0.0000E+00
      3.452  0.8927E-08  0.3008E-03  0.1966E-02
      3.555  0.6015E-04  0.4515E-03  0.3716E-03
      3.658  0.5707E-03  0.1876E-02  0.2745E-02
      3.762  0.6316E-04  0.7904E-03  0.3234E-02
      3.865  0.3962E-03  0.8014E-02  0.5825E-02
      3.968  0.3478E-03  0.1296E-02  0.1004E-02
      4.071  0.1459E-02  0.1050E-01  0.9493E-02
      4.174  0.2229E-03  0.6263E-03  0.2171E-02
      4.278  0.1643E-02  0.4736E-02  0.1188E-01
      4.381  0.1603E-03  0.2475E-03  0.2974E-03
      4.484  0.8513E-03  0.2295E-02  0.5583E-02
      4.587  0.8274E-16  0.4008E-03  0.3361E-02
      4.691  0.4730E-04  0.4677E-03  0.1817E-02
      4.794  0.2064E-03  0.1993E-02  0.5061E-02
      4.897  0.6353E-03  0.2348E-02  0.5495E-02
      5.000  0.3952E-03  0.1996E-02  0.3281E-02
      5.104  0.8863E-04  0.6023E-03  0.1286E-02
      5.207  0.4829E-03  0.3775E-02  0.7318E-02
      5.310  0.1560E-02  0.2169E-02  0.6563E-02
      5.413  0.1360E-02  0.1290E-02  0.5138E-02
      5.517  0.1184E-03  0.4179E-02  0.1286E-01
      5.620  0.5612E-03  0.1845E-02  0.8809E-02
      5.723  0.7697E-03  0.1785E-02  0.1056E-01
      5.826  0.9246E-03  0.3017E-02  0.1150E-01
      5.929  0.2137E-02  0.2632E-02  0.2140E-01
      6.033  0.1363E-01  0.3540E-02  0.1375E-01
      6.136  0.3473E-03  0.1346E-02  0.1527E-01
      6.239  0.1020E-01  0.3692E-02  0.1492E-01
      6.342  0.0000E+00  0.0000E+00  0.0000E+00
      6.446  0.2145E-03  0.8716E-03  0.1913E-01
      6.549  0.1287E-01  0.1919E-02  0.2428E-01
      6.652  0.1892E-02  0.3403E-02  0.6193E-01
      6.755  0.1225E-01  0.2972E-02  0.1252E-01
      6.859  0.4158E-13  0.1070E-02  0.1813E-01
      6.962  0.9722E-02  0.8309E-02  0.1766E+00
      7.065  0.2563E-01  0.9799E-02  0.1145E+00
      7.168  0.2330E-01  0.4502E-01  0.6756E+00
      7.271  0.2495E-01  0.1468E-01  0.4210E+00
      7.375  0.2240E-01  0.1699E-01  0.2442E+00
      7.478  0.4809E-01  0.3090E-01  0.7182E+00
      7.581  0.2056E-01  0.1537E-01  0.4601E+00
      7.684  0.1568E-01  0.3128E-01  0.7789E+00
      7.788  0.1290E-01  0.9687E-02  0.2379E+00
      7.891  0.2679E-02  0.8515E-02  0.2893E+00
      7.994  0.4240E-01  0.2265E-01  0.5365E+00
      8.097  0.6362E-02  0.1684E-01  0.2459E+00
      8.201  0.3313E-03  0.4217E-02  0.8803E-01
      8.304  0.1906E-02  0.3328E-02  0.2223E-01
      8.407  0.0000E+00  0.0000E+00  0.0000E+00
      8.510  0.0000E+00  0.0000E+00  0.0000E+00
      8.613  0.0000E+00  0.0000E+00  0.0000E+00
      8.717  0.0000E+00  0.0000E+00  0.0000E+00
      8.820  0.0000E+00  0.0000E+00  0.0000E+00
      8.923  0.0000E+00  0.0000E+00  0.0000E+00
      9.026  0.0000E+00  0.0000E+00  0.0000E+00
      9.130  0.0000E+00  0.0000E+00  0.0000E+00
      9.233  0.0000E+00  0.0000E+00  0.0000E+00
      9.336  0.0000E+00  0.0000E+00  0.0000E+00
      9.439  0.0000E+00  0.0000E+00  0.0000E+00
      9.543  0.0000E+00  0.0000E+00  0.0000E+00
      9.646  0.0000E+00  0.0000E+00  0.0000E+00
      9.64579310    -21.32390001  301      1.23235980      1.00000000
    -21.324  0.0000E+00  0.0000E+00  0.0000E+00
    -21.221  0.0000E+00  0.0000E+00  0.0000E+00
    -21.117  0.0000E+00  0.0000E+00  0.0000E+00
    -21.014  0.0000E+00  0.0000E+00  0.0000E+00
    -20.911  0.0000E+00  0.0000E+00  0.0000E+00
    -20.808  0.0000E+00  0.0000E+00  0.0000E+00
    -20.705  0.0000E+00  0.0000E+00  0.0000E+00
    -20.601  0.0000E+00  0.0000E+00  0.0000E+00
    -20.498  0.0000E+00  0.0000E+00  0.0000E+00
    -20.395  0.0000E+00  0.0000E+00  0.0000E+00
    -20.292  0.0000E+00  0.0000E+00  0.0000E+00
    -20.188  0.0000E+00  0.0000E+00  0.0000E+00
    -20.085  0.0000E+00  0.0000E+00  0.0000E+00
    -19.982  0.0000E+00  0.0000E+00  0.0000E+00
    -19.879  0.1719E+02  0.2945E-04  0.1235E-05
    -19.775  0.0000E+00  0.0000E+00  0.0000E+00
    -19.672  0.0000E+00  0.0000E+00  0.0000E+00
    -19.569  0.0000E+00  0.0000E+00  0.0000E+00
    -19.466  0.0000E+00  0.0000E+00  0.0000E+00
    -19.362  0.0000E+00  0.0000E+00  0.0000E+00
    -19.259  0.0000E+00  0.0000E+00  0.0000E+00
    -19.156  0.0000E+00  0.0000E+00  0.0000E+00
    -19.053  0.0000E+00  0.0000E+00  0.0000E+00
    -18.950  0.0000E+00  0.0000E+00  0.0000E+00
    -18.846  0.0000E+00  0.0000E+00  0.0000E+00
    -18.743  0.0000E+00  0.0000E+00  0.0000E+00
    -18.640  0.0000E+00  0.0000E+00  0.0000E+00
    -18.537  0.0000E+00  0.0000E+00  0.0000E+00
    -18.433  0.0000E+00  0.0000E+00  0.0000E+00
    -18.330  0.0000E+00  0.0000E+00  0.0000E+00
    -18.227  0.0000E+00  0.0000E+00  0.0000E+00
    -18.124  0.0000E+00  0.0000E+00  0.0000E+00
    -18.020  0.0000E+00  0.0000E+00  0.0000E+00
    -17.917  0.0000E+00  0.0000E+00  0.0000E+00
    -17.814  0.0000E+00  0.0000E+00  0.0000E+00
    -17.711  0.0000E+00  0.0000E+00  0.0000E+00
    -17.608  0.0000E+00  0.0000E+00  0.0000E+00
    -17.504  0.0000E+00  0.0000E+00  0.0000E+00
    -17.401  0.0000E+00  0.0000E+00  0.0000E+00
    -17.298  0.0000E+00  0.0000E+00  0.0000E+00
    -17.195  0.0000E+00  0.0000E+00  0.0000E+00
    -17.091  0.0000E+00  0.0000E+00  0.0000E+00
    -16.988  0.0000E+00  0.0000E+00  0.0000E+00
    -16.885  0.0000E+00  0.0000E+00  0.0000E+00
    -16.782  0.0000E+00  0.0000E+00  0.0000E+00
    -16.678  0.0000E+00  0.0000E+00  0.0000E+00
    -16.575  0.0000E+00  0.0000E+00  0.0000E+00
    -16.472  0.0000E+00  0.0000E+00  0.0000E+00
    -16.369  0.0000E+00  0.0000E+00  0.0000E+00
    -16.266  0.0000E+00  0.0000E+00  0.0000E+00
    -16.162  0.0000E+00  0.0000E+00  0.0000E+00
    -16.059  0.0000E+00  0.0000E+00  0.0000E+00
    -15.956  0.0000E+00  0.0000E+00  0.0000E+00
    -15.853  0.7368E-20  0.7820E-19  0.2093E-19
    -15.749  0.2183E-03  0.1525E-03  0.4122E-04
    -15.646  0.3035E-04  0.1578E-03  0.1426E-04
    -15.543  0.3005E-03  0.1460E-03  0.1758E-04
    -15.440  0.0000E+00  0.0000E+00  0.0000E+00
    -15.336  0.0000E+00  0.0000E+00  0.0000E+00
    -15.233  0.0000E+00  0.0000E+00  0.0000E+00
    -15.130  0.0000E+00  0.0000E+00  0.0000E+00
    -15.027  0.0000E+00  0.0000E+00  0.0000E+00
    -14.923  0.0000E+00  0.0000E+00  0.0000E+00
    -14.820  0.0000E+00  0.0000E+00  0.0000E+00
    -14.717  0.0000E+00  0.0000E+00  0.0000E+00
    -14.614  0.0000E+00  0.0000E+00  0.0000E+00
    -14.511  0.0000E+00  0.0000E+00  0.0000E+00
    -14.407  0.0000E+00  0.0000E+00  0.0000E+00
    -14.304  0.0000E+00  0.0000E+00  0.0000E+00
    -14.201  0.0000E+00  0.0000E+00  0.0000E+00
    -14.098  0.0000E+00  0.0000E+00  0.0000E+00
    -13.994  0.0000E+00  0.0000E+00  0.0000E+00
    -13.891  0.1179E-04  0.1879E-07  0.6979E-08
    -13.788  0.4769E-02  0.1021E-02  0.1519E-04
    -13.685  0.7517E-02  0.4796E-02  0.1195E-03
    -13.581  0.1817E-02  0.1185E-01  0.4282E-03
    -13.478  0.3148E-02  0.8126E-02  0.7042E-03
    -13.375  0.1512E-02  0.5931E-02  0.7708E-03
    -13.272  0.1660E-02  0.5193E-02  0.6349E-03
    -13.169  0.1773E-02  0.4539E-02  0.7556E-03
    -13.065  0.0000E+00  0.0000E+00  0.0000E+00
    -12.962  0.0000E+00  0.0000E+00  0.0000E+00
    -12.859  0.0000E+00  0.0000E+00  0.0000E+00
    -12.756  0.0000E+00  0.0000E+00  0.0000E+00
    -12.652  0.0000E+00  0.0000E+00  0.0000E+00
    -12.549  0.0000E+00  0.0000E+00  0.0000E+00
    -12.446  0.0000E+00  0.0000E+00  0.0000E+00
    -12.343  0.0000E+00  0.0000E+00  0.0000E+00
    -12.239  0.0000E+00  0.0000E+00  0.0000E+00
    -12.136  0.0000E+00  0.0000E+00  0.0000E+00