<?xml version="1.0" encoding="ISO-8859-1"?>
<modeling>
 <generator>
  <i name="program" type="string">vasp </i>
  <i name="version" type="string">5.4.4.18Apr17-6-g9f103f2a35  </i>
  <i name="subversion" type="string">(build Jun 22 2020 09:27:21) complex            parallel </i>
  <i name="platform" type="string">tx2_gcc-7.3_libsci-18.07_cray-fftw-3.3.8 </i>
  <i name="date" type="string">2021 09 20 </i>
  <i name="time" type="string">15:14:33 </i>
 </generator>
 <incar>
  <i type="string" name="SYSTEM"> CsPbBr3 cubic bulk</i>
  <i type="string" name="PREC">accurate</i>
  <i type="string" name="ALGO"> Normal   ! Electronic minimisation algo</i>
  <i type="logical" name="ADDGRID"> T  </i>
  <i type="int" name="NELM">   200</i>
  <i type="int" name="IBRION">     2</i>
  <i name="EDIFF">      0.00000100</i>
  <i name="EDIFFG">     -0.01000000</i>
  <i type="int" name="NSW">     0</i>
  <i type="int" name="ISIF">     3</i>
  <i type="int" name="ISYM">     2</i>
  <i name="ENCUT">    300.00000000</i>
  <i name="POTIM">      0.50000000</i>
  <i type="string" name="LREAL"> AUTO</i>
  <i type="int" name="ISMEAR">     0</i>
  <i name="SIGMA">      0.01000000</i>
  <i name="PSTRESS">      0.00000000</i>
  <i type="logical" name="LWAVE"> F  </i>
  <i type="logical" name="LCHARG"> T  </i>
  <i type="logical" name="LVHAR"> T  </i>
  <i type="int" name="LORBIT">    10</i>
  <i type="logical" name="LASPH"> T  </i>
  <v type="int" name="KPOINT_BSE">    -1     0     0     0</v>
  <i type="int" name="NELM">   200</i>
  <i type="string" name="METAGGA"> SCAN       ! PBE exchange-correlation</i>
  <i type="logical" name="LASPH"> T  </i>
 </incar>
 <structure name="primitive_cell" >
  <crystal>
   <varray name="basis" >
    <v>       8.49093791       0.00000000      -0.00000000 </v>
    <v>       0.00000000      11.61254016       0.00000000 </v>
    <v>      -0.00000000       0.00000000       7.32774313 </v>
   </varray>
   <i name="volume">    722.52541997 </i>
   <varray name="rec_basis" >
    <v>       0.11777262      -0.00000000       0.00000000 </v>
    <v>      -0.00000000       0.08611380      -0.00000000 </v>
    <v>       0.00000000      -0.00000000       0.13646767 </v>
   </varray>
  </crystal>
  <varray name="positions" >
   <v>       0.09638201       0.25000000       0.45373660 </v>
   <v>      -0.18411600       0.03858786       0.33795576 </v>
   <v>      -0.18411600       0.46141214       0.33795576 </v>
   <v>      -0.49867498       0.25000000      -0.42627544 </v>
   <v>       0.00132502       0.25000000      -0.07372456 </v>
   <v>       0.31588400       0.46141214       0.16204424 </v>
   <v>       0.31588400       0.03858786       0.16204424 </v>
   <v>       0.18411600      -0.46141214      -0.33795576 </v>
   <v>       0.18411600      -0.03858786      -0.33795576 </v>
   <v>       0.00000000       0.00000000       0.00000000 </v>
   <v>       0.00000000      -0.50000000       0.00000000 </v>
   <v>      -0.50000000       0.00000000      -0.50000000 </v>
   <v>      -0.50000000      -0.50000000      -0.50000000 </v>
   <v>      -0.40361799       0.25000000       0.04626340 </v>
   <v>      -0.31588400      -0.03858786      -0.16204424 </v>
   <v>      -0.31588400      -0.46141214      -0.16204424 </v>
   <v>      -0.09638201      -0.25000000      -0.45373660 </v>
   <v>      -0.00132502      -0.25000000       0.07372456 </v>
   <v>       0.49867498      -0.25000000       0.42627544 </v>
   <v>       0.40361799      -0.25000000      -0.04626340 </v>
  </varray>
 </structure>
 <varray name="primitive_index" >
  <v type="int" >        1 </v>
  <v type="int" >       15 </v>
  <v type="int" >       20 </v>
  <v type="int" >       12 </v>
  <v type="int" >       10 </v>
  <v type="int" >       13 </v>
  <v type="int" >       17 </v>
  <v type="int" >       14 </v>
  <v type="int" >       18 </v>
  <v type="int" >        5 </v>
  <v type="int" >        8 </v>
  <v type="int" >        6 </v>
  <v type="int" >        7 </v>
  <v type="int" >        3 </v>
  <v type="int" >       16 </v>
  <v type="int" >       19 </v>
  <v type="int" >        4 </v>
  <v type="int" >       11 </v>
  <v type="int" >        9 </v>
  <v type="int" >        2 </v>
 </varray>
 <kpoints>
  <generation param="Gamma">
   <v type="int" name="divisions">       3        2        3 </v>
   <v name="usershift">      0.00000000       0.00000000       0.00000000 </v>
   <v name="genvec1">      0.33333333       0.00000000      -0.00000000 </v>
   <v name="genvec2">      0.00000000       0.50000000       0.00000000 </v>
   <v name="genvec3">     -0.00000000       0.00000000       0.33333333 </v>
   <v name="shift">      0.00000000       0.00000000       0.00000000 </v>
  </generation>
  <varray name="kpointlist" >
   <v>       0.00000000       0.00000000       0.00000000 </v>
   <v>       0.33333333       0.00000000       0.00000000 </v>
   <v>       0.00000000       0.50000000       0.00000000 </v>
   <v>       0.33333333       0.50000000       0.00000000 </v>
   <v>       0.00000000       0.00000000       0.33333333 </v>
   <v>       0.33333333       0.00000000       0.33333333 </v>
   <v>       0.00000000       0.50000000       0.33333333 </v>
   <v>       0.33333333       0.50000000       0.33333333 </v>
  </varray>
  <varray name="weights" >
   <v>       0.05555556 </v>
   <v>       0.11111111 </v>
   <v>       0.05555556 </v>
   <v>       0.11111111 </v>
   <v>       0.11111111 </v>
   <v>       0.22222222 </v>
   <v>       0.11111111 </v>
   <v>       0.22222222 </v>
  </varray>
 </kpoints>
 <parameters>
  <separator name="general" >
   <i type="string" name="SYSTEM">CsPbBr3 cubic bulk</i>
   <i type="logical" name="LCOMPAT"> F  </i>
  </separator>
  <separator name="electronic" >
   <i type="string" name="PREC">accura</i>
   <i name="ENMAX">    300.00000000</i>
   <i name="ENAUG">    503.85200000</i>
   <i name="EDIFF">      0.00000100</i>
   <i type="int" name="IALGO">    38</i>
   <i type="int" name="IWAVPR">    10</i>
   <i type="int" name="NBANDS">   112</i>
   <i name="NELECT">    176.00000000</i>
   <i type="int" name="TURBO">     0</i>
   <i type="int" name="IRESTART">     0</i>
   <i type="int" name="NREBOOT">     0</i>
   <i type="int" name="NMIN">     0</i>
   <i name="EREF">      0.00000000</i>
   <separator name="electronic smearing" >
    <i type="int" name="ISMEAR">     0</i>
    <i name="SIGMA">      0.01000000</i>
    <i name="KSPACING">      0.50000000</i>
    <i type="logical" name="KGAMMA"> T  </i>
   </separator>
   <separator name="electronic projectors" >
    <i type="logical" name="LREAL"> T  </i>
    <v name="ROPT">     -0.00025000     -0.00025000     -0.00025000</v>
    <i type="int" name="LMAXPAW">  -100</i>
    <i type="int" name="LMAXMIX">     2</i>
    <i type="logical" name="NLSPLINE"> F  </i>
   </separator>
   <separator name="electronic startup" >
    <i type="int" name="ISTART">     0</i>
    <i type="int" name="ICHARG">     2</i>
    <i type="int" name="INIWAV">     1</i>
   </separator>
   <separator name="electronic spin" >
    <i type="int" name="ISPIN">     1</i>
    <i type="logical" name="LNONCOLLINEAR"> F  </i>
    <v name="MAGMOM">      1.00000000      1.00000000      1.00000000      1.00000000      1.00000000      1.00000000      1.00000000      1.00000000      1.00000000      1.00000000      1.00000000      1.00000000      1.00000000      1.00000000      1.00000000      1.00000000      1.00000000      1.00000000      1.00000000      1.00000000
</v>
    <i name="NUPDOWN">     -1.00000000</i>
    <i type="logical" name="LSORBIT"> F  </i>
    <v name="SAXIS">      0.00000000      0.00000000      1.00000000</v>
    <i type="logical" name="LSPIRAL"> F  </i>
    <v name="QSPIRAL">      0.00000000      0.00000000      0.00000000</v>
    <i type="logical" name="LZEROZ"> F  </i>
   </separator>
   <separator name="electronic exchange-correlation" >
    <i type="logical" name="LASPH"> T  </i>
    <i type="logical" name="LMETAGGA"> F  </i>
   </separator>
   <separator name="electronic convergence" >
    <i type="int" name="NELM">   200</i>
    <i type="int" name="NELMDL">     0</i>
    <i type="int" name="NELMIN">     2</i>
    <i name="ENINI">    300.00000000</i>
    <separator name="electronic convergence detail" >
     <i type="logical" name="LDIAG"> T  </i>
     <i type="logical" name="LSUBROT"> F  </i>
     <i name="WEIMIN">      0.00000000</i>
     <i name="EBREAK">      0.00000000</i>
     <i name="DEPER">      0.30000000</i>
     <i type="int" name="NRMM">     4</i>
     <i name="TIME">      0.40000000</i>
    </separator>
   </separator>
   <separator name="electronic mixer" >
    <i name="AMIX">      0.40000000</i>
    <i name="BMIX">      1.00000000</i>
    <i name="AMIN">      0.10000000</i>
    <i name="AMIX_MAG">      1.60000000</i>
    <i name="BMIX_MAG">      1.00000000</i>
    <separator name="electronic mixer details" >
     <i type="int" name="IMIX">     4</i>
     <i type="logical" name="MIXFIRST"> F  </i>
     <i type="int" name="MAXMIX">   -45</i>
     <i name="WC">    100.00000000</i>
     <i type="int" name="INIMIX">     1</i>
     <i type="int" name="MIXPRE">     1</i>
     <i type="int" name="MREMOVE">     5</i>
    </separator>
   </separator>
   <separator name="electronic dipolcorrection" >
    <i type="logical" name="LDIPOL"> F  </i>
    <i type="logical" name="LMONO"> F  </i>
    <i type="int" name="IDIPOL">     0</i>
    <i name="EPSILON">      1.00000000</i>
    <v name="DIPOL">   -100.00000000   -100.00000000   -100.00000000</v>
    <i name="EFIELD">      0.00000000</i>
   </separator>
  </separator>
  <separator name="grids" >
   <i type="int" name="NGX">    48</i>
   <i type="int" name="NGY">    70</i>
   <i type="int" name="NGZ">    42</i>
   <i type="int" name="NGXF">    96</i>
   <i type="int" name="NGYF">   140</i>
   <i type="int" name="NGZF">    84</i>
   <i type="logical" name="ADDGRID"> T  </i>
  </separator>
  <separator name="ionic" >
   <i type="int" name="NSW">     0</i>
   <i type="int" name="IBRION">    -1</i>
   <i type="int" name="MDALGO">     0</i>
   <i type="int" name="ISIF">     3</i>
   <i name="PSTRESS">      0.00000000</i>
   <i name="EDIFFG">     -0.01000000</i>
   <i type="int" name="NFREE">     1</i>
   <i name="POTIM">      0.50000000</i>
   <i name="SMASS">     -3.00000000</i>
   <i name="SCALEE">      1.00000000</i>
  </separator>
  <separator name="ionic md" >
   <i name="TEBEG">      0.00010000</i>
   <i name="TEEND">      0.00010000</i>
   <i type="int" name="NBLOCK">     1</i>
   <i type="int" name="KBLOCK">     1</i>
   <i type="int" name="NPACO">   256</i>
   <i name="APACO">     16.00000000</i>
  </separator>
  <separator name="symmetry" >
   <i type="int" name="ISYM">     2</i>
   <i name="SYMPREC">      0.00001000</i>
  </separator>
  <separator name="dos" >
   <i type="int" name="LORBIT">    10</i>
   <v name="RWIGS">     -1.00000000     -1.00000000     -1.00000000</v>
   <i type="int" name="NEDOS">   301</i>
   <i name="EMIN">     10.00000000</i>
   <i name="EMAX">    -10.00000000</i>
   <i name="EFERMI">      0.00000000</i>
  </separator>
  <separator name="writing" >
   <i type="int" name="NWRITE">     2</i>
   <i type="logical" name="LWAVE"> F  </i>
   <i type="logical" name="LDOWNSAMPLE"> F  </i>
   <i type="logical" name="LCHARG"> T  </i>
   <i type="logical" name="LPARD"> F  </i>
   <i type="logical" name="LVTOT"> F  </i>
   <i type="logical" name="LVHAR"> T  </i>
   <i type="logical" name="LELF"> F  </i>
   <i type="logical" name="LOPTICS"> F  </i>
   <v name="STM">      0.00000000      0.00000000      0.00000000      0.00000000      0.00000000      0.00000000      0.00000000</v>
  </separator>
  <separator name="performance" >
   <i type="int" name="NPAR">     8</i>
   <i type="int" name="NSIM">     4</i>
   <i type="int" name="NBLK">    -1</i>
   <i type="logical" name="LPLANE"> T  </i>
   <i type="logical" name="LSCALAPACK"> T  </i>
   <i type="logical" name="LSCAAWARE"> F  </i>
   <i type="logical" name="LSCALU"> F  </i>
   <i type="logical" name="LASYNC"> F  </i>
   <i type="logical" name="LORBITALREAL"> F  </i>
  </separator>
  <separator name="miscellaneous" >
   <i type="int" name="IDIOT">     3</i>
   <i type="int" name="ISPECIAL">     0</i>
   <i type="logical" name="LMUSIC"> F  </i>
   <v name="POMASS">    132.90000000    207.20000000     79.90400000</v>
   <v name="DARWINR">      0.00000000      0.00000000      0.00000000</v>
   <v name="DARWINV">      1.00000000      1.00000000      1.00000000</v>
   <i type="logical" name="LCORR"> T  </i>
  </separator>
  <i type="logical" name="GGA_COMPAT"> T  </i>
  <i type="logical" name="LBERRY"> F  </i>
  <i type="int" name="ICORELEVEL">     0</i>
  <i type="logical" name="LDAU"> F  </i>
  <i type="int" name="I_CONSTRAINED_M">     0</i>
  <separator name="electronic exchange-correlation" >
   <i type="string" name="GGA">--</i>
   <i type="int" name="VOSKOWN">     0</i>
   <i type="logical" name="LHFCALC"> F  </i>
   <i type="string" name="PRECFOCK"></i>
   <i type="logical" name="LSYMGRAD"> F  </i>
   <i type="logical" name="LHFONE"> F  </i>
   <i type="logical" name="LRHFCALC"> F  </i>
   <i type="logical" name="LTHOMAS"> F  </i>
   <i type="logical" name="LMODELHF"> F  </i>
   <i name="ENCUT4O">     -1.00000000</i>
   <i type="int" name="EXXOEP">     0</i>
   <i type="int" name="FOURORBIT">     0</i>
   <i name="AEXX">      0.00000000</i>
   <i name="HFALPHA">      0.00000000</i>
   <i name="MCALPHA">      0.00000000</i>
   <i name="ALDAX">      1.00000000</i>
   <i name="AGGAX">      1.00000000</i>
   <i name="ALDAC">      1.00000000</i>
   <i name="AGGAC">      1.00000000</i>
   <i type="int" name="NKREDX">     1</i>
   <i type="int" name="NKREDY">     1</i>
   <i type="int" name="NKREDZ">     1</i>
   <i type="logical" name="SHIFTRED"> F  </i>
   <i type="logical" name="ODDONLY"> F  </i>
   <i type="logical" name="EVENONLY"> F  </i>
   <i type="int" name="LMAXFOCK">     0</i>
   <i type="int" name="NMAXFOCKAE">     0</i>
   <i type="logical" name="LFOCKAEDFT"> F  </i>
   <i name="HFSCREEN">      0.00000000</i>
   <i name="HFSCREENC">      0.00000000</i>
   <i type="int" name="NBANDSGWLOW">     0</i>
  </separator>
  <separator name="vdW DFT" >
   <i type="logical" name="LUSE_VDW"> F  </i>
   <i name="Zab_VDW">     -0.84910000</i>
   <i name="PARAM1">      0.12340000</i>
   <i name="PARAM2">      1.00000000</i>
   <i name="PARAM3">      0.00000000</i>
  </separator>
  <separator name="model GW" >
   <i type="int" name="MODEL_GW">     0</i>
   <i name="MODEL_EPS0">     21.67576260</i>
   <i name="MODEL_ALPHA">      1.00000000</i>
  </separator>
  <separator name="linear response parameters" >
   <i type="logical" name="LEPSILON"> F  </i>
   <i type="logical" name="LRPA"> F  </i>
   <i type="logical" name="LNABLA"> F  </i>
   <i type="logical" name="LVEL"> F  </i>
   <i type="int" name="KINTER">     0</i>
   <i name="CSHIFT">      0.10000000</i>
   <i name="OMEGAMAX">     -1.00000000</i>
   <i name="DEG_THRESHOLD">      0.00200000</i>
   <i name="RTIME">     -0.10000000</i>
   <i name="WPLASMAI">      0.00000000</i>
   <v name="DFIELD">      0.00000000      0.00000000      0.00000000</v>
   <v name="WPLASMA">      0.00000000      0.00000000      0.00000000      0.00000000      0.00000000      0.00000000      0.00000000      0.00000000      0.00000000</v>
  </separator>
  <separator name="orbital magnetization" >
   <i type="logical" name="NUCIND"> F  </i>
   <v name="MAGPOS">      0.00000000      0.00000000      0.00000000</v>
   <i type="logical" name="LNICSALL"> T  </i>
   <i type="logical" name="ORBITALMAG"> F  </i>
   <i type="logical" name="LMAGBLOCH"> F  </i>
   <i type="logical" name="LCHIMAG"> F  </i>
   <i type="logical" name="LGAUGE"> T  </i>
   <i type="int" name="MAGATOM">     0</i>
   <v name="MAGDIPOL">      0.00000000      0.00000000      0.00000000</v>
   <v name="AVECCONST">      0.00000000      0.00000000      0.00000000</v>
  </separator>
  <separator name="response functions" >
   <i type="logical" name="LADDER"> F  </i>
   <i type="logical" name="LRPAFORCE"> F  </i>
   <i type="logical" name="LFXC"> F  </i>
   <i type="logical" name="LHARTREE"> T  </i>
   <i type="int" name="IBSE">     0</i>
   <v type="int" name="KPOINT">    -1     0     0     0</v>
   <i type="logical" name="LTCTE"> F  </i>
   <i type="logical" name="LTETE"> F  </i>
   <i type="logical" name="LTRIPLET"> F  </i>
   <i type="logical" name="LFXCEPS"> F  </i>
   <i type="logical" name="LFXHEG"> F  </i>
   <i type="int" name="NATURALO">     2</i>
   <i type="logical" name="L2ORDER"> F  </i>
   <i type="logical" name="LMP2LT"> F  </i>
   <i type="logical" name="LUSEW"> F  </i>
   <i name="ENCUTGW">     -2.00000000</i>
   <i name="ENCUTGWSOFT">     -2.00000000</i>
   <i name="ENCUTLF">     -1.00000000</i>
   <i type="int" name="LMAXMP2">    -1</i>
   <i name="SCISSOR">      0.00000000</i>
   <i type="int" name="NOMEGA">     0</i>
   <i type="int" name="NOMEGAR">     0</i>
   <i type="int" name="NBANDSGW">    -1</i>
   <i type="int" name="NBANDSO">    -1</i>
   <i type="int" name="NBANDSV">    -1</i>
   <i type="int" name="NELM">   200</i>
   <i type="int" name="NELMHF">     1</i>
   <i type="int" name="DIM">     3</i>
   <i type="int" name="ANTIRES">     0</i>
   <i name="OMEGAMAX">    -30.00000000</i>
   <i name="OMEGAMIN">    -30.00000000</i>
   <i name="OMEGATL">   -200.00000000</i>
   <i type="int" name="OMEGAGRID">   140</i>
   <i name="CSHIFT">     -0.10000000</i>
   <i type="logical" name="SELFENERGY"> F  </i>
   <i type="logical" name="LSPECTRAL"> F  </i>
   <i type="logical" name="LSPECTRALGW"> F  </i>
   <i type="logical" name="LSINGLES"> F  </i>
   <i type="logical" name="LFERMIGW"> F  </i>
   <i type="logical" name="ODDONLYGW"> F  </i>
   <i type="logical" name="EVENONLYGW"> F  </i>
   <i type="int" name="NKREDLFX">     1</i>
   <i type="int" name="NKREDLFY">     1</i>
   <i type="int" name="NKREDLFZ">     1</i>
   <i type="int" name="MAXMEM">  2800</i>
   <i type="int" name="TELESCOPE">     0</i>
   <i type="int" name="TAUPAR">     1</i>
   <i type="int" name="OMEGAPAR">    -1</i>
   <i name="LAMBDA">      1.00000000</i>
  </separator>
  <separator name="External order field" >
   <i name="OFIELD_KAPPA">      0.00000000</i>
   <v name="OFIELD_K">      0.00000000      0.00000000      0.00000000</v>
   <i name="OFIELD_Q6_NEAR">      0.00000000</i>
   <i name="OFIELD_Q6_FAR">      0.00000000</i>
   <i name="OFIELD_A">      0.00000000</i>
  </separator>
 </parameters>
 <atominfo>
  <atoms>      20 </atoms>
  <types>       3 </types>
  <array name="atoms" >
   <dimension dim="1">ion</dimension>
   <field type="string">element</field>
   <field type="int">atomtype</field>
   <set>
    <rc><c>Cs</c><c>   1</c></rc>
    <rc><c>Cs</c><c>   1</c></rc>
    <rc><c>Cs</c><c>   1</c></rc>
    <rc><c>Cs</c><c>   1</c></rc>
    <rc><c>Pb</c><c>   2</c></rc>
    <rc><c>Pb</c><c>   2</c></rc>
    <rc><c>Pb</c><c>   2</c></rc>
    <rc><c>Pb</c><c>   2</c></rc>
    <rc><c>Br</c><c>   3</c></rc>
    <rc><c>Br</c><c>   3</c></rc>
    <rc><c>Br</c><c>   3</c></rc>
    <rc><c>Br</c><c>   3</c></rc>
    <rc><c>Br</c><c>   3</c></rc>
    <rc><c>Br</c><c>   3</c></rc>
    <rc><c>Br</c><c>   3</c></rc>
    <rc><c>Br</c><c>   3</c></rc>
    <rc><c>Br</c><c>   3</c></rc>
    <rc><c>Br</c><c>   3</c></rc>
    <rc><c>Br</c><c>   3</c></rc>
    <rc><c>Br</c><c>   3</c></rc>
   </set>
  </array>
  <array name="atomtypes" >
   <dimension dim="1">type</dimension>
   <field type="int">atomspertype</field>
   <field type="string">element</field>
   <field>mass</field>
   <field>valence</field>
   <field type="string">pseudopotential</field>
   <set>
    <rc><c>   4</c><c>Cs</c><c>    132.90000000</c><c>      9.00000000</c><c>  PAW_PBE Cs_sv 08Apr2002               </c></rc>
    <rc><c>   4</c><c>Pb</c><c>    207.20000000</c><c>     14.00000000</c><c>  PAW_PBE Pb_d 06Sep2000                </c></rc>
    <rc><c>  12</c><c>Br</c><c>     79.90400000</c><c>      7.00000000</c><c>  PAW_PBE Br 06Sep2000                  </c></rc>
   </set>
  </array>
 </atominfo>
 <structure name="initialpos" >
  <crystal>
   <varray name="basis" >
    <v>       8.49093791       0.00000000      -0.00000000 </v>
    <v>       0.00000000      11.61254016       0.00000000 </v>
    <v>      -0.00000000       0.00000000       7.32774313 </v>
   </varray>
   <i name="volume">    722.52541997 </i>
   <varray name="rec_basis" >
    <v>       0.11777262      -0.00000000       0.00000000 </v>
    <v>      -0.00000000       0.08611380      -0.00000000 </v>
    <v>       0.00000000      -0.00000000       0.13646767 </v>
   </varray>
  </crystal>
  <varray name="positions" >
   <v>       0.09638201       0.25000000       0.45373660 </v>
   <v>       0.40361799       0.75000000       0.95373660 </v>
   <v>       0.59638201       0.25000000       0.04626340 </v>
   <v>       0.90361799       0.75000000       0.54626340 </v>
   <v>       0.00000000       0.00000000       0.00000000 </v>
   <v>       0.50000000       0.00000000       0.50000000 </v>
   <v>       0.50000000       0.50000000       0.50000000 </v>
   <v>       0.00000000       0.50000000       0.00000000 </v>
   <v>       0.49867498       0.75000000       0.42627544 </v>
   <v>       0.00132502       0.25000000       0.92627544 </v>
   <v>       0.99867498       0.75000000       0.07372456 </v>
   <v>       0.50132502       0.25000000       0.57372456 </v>
   <v>       0.31588400       0.46141214       0.16204424 </v>
   <v>       0.18411600       0.53858786       0.66204424 </v>
   <v>       0.81588400       0.03858786       0.33795576 </v>
   <v>       0.68411600       0.96141214       0.83795576 </v>
   <v>       0.31588400       0.03858786       0.16204424 </v>
   <v>       0.18411600       0.96141214       0.66204424 </v>
   <v>       0.68411600       0.53858786       0.83795576 </v>
   <v>       0.81588400       0.46141214       0.33795576 </v>
  </varray>
 </structure>
 <calculation>
  <scstep>
   <time name="dav">    3.84    3.85</time>
   <time name="total">    5.11    5.13</time>
   <energy>
    <i name="alphaZ">    499.37195812 </i>
    <i name="ewald">  -9642.89099040 </i>
    <i name="hartreedc">  -3403.61332687 </i>
    <i name="XCdc">    464.47053787 </i>
    <i name="pawpsdc">  10816.98087266 </i>
    <i name="pawaedc"> -11353.96092700 </i>
    <i name="eentropy">     -0.00025599 </i>
    <i name="bandstr">     11.93504866 </i>
    <i name="atom">  13290.28009929 </i>
    <i name="e_fr_energy">    682.57301634 </i>
    <i name="e_wo_entrp">    682.57327233 </i>
    <i name="e_0_energy">    682.57314434 </i>
   </energy>
  </scstep>
  <scstep>
   <time name="dav">    4.22    4.28</time>
   <time name="total">    4.22    4.28</time>
   <energy>
    <i name="e_fr_energy">   -570.29466424 </i>
    <i name="e_wo_entrp">   -570.29466424 </i>
    <i name="e_0_energy">   -570.29466424 </i>
   </energy>
  </scstep>
  <scstep>
   <time name="dav">    4.64    4.70</time>
   <time name="total">    4.64    4.70</time>
   <energy>
    <i name="e_fr_energy">   -748.34089038 </i>
    <i name="e_wo_entrp">   -748.34089038 </i>
    <i name="e_0_energy">   -748.34089038 </i>
   </energy>
  </scstep>
  <scstep>
   <time name="dav">    4.35    4.35</time>
   <time name="total">    4.35    4.35</time>
   <energy>
    <i name="e_fr_energy">   -754.03112988 </i>
    <i name="e_wo_entrp">   -754.03112988 </i>
    <i name="e_0_energy">   -754.03112988 </i>
   </energy>
  </scstep>
  <scstep>
   <time name="dav">    4.45    4.50</time>
   <time name="total">    5.28    5.33</time>
   <energy>
    <i name="e_fr_energy">   -754.28705009 </i>
    <i name="e_wo_entrp">   -754.28705009 </i>
    <i name="e_0_energy">   -754.28705009 </i>
   </energy>
  </scstep>
  <scstep>
   <time name="dav">    4.59    4.59</time>
   <time name="total">    6.70    6.71</time>
   <energy>
    <i name="e_fr_energy">   -714.55905471 </i>
    <i name="e_wo_entrp">   -714.55905471 </i>
    <i name="e_0_energy">   -714.55905471 </i>
   </energy>
  </scstep>
  <scstep>
   <time name="dav">    4.36    4.36</time>
   <time name="total">    6.43    6.48</time>
   <energy>
    <i name="e_fr_energy">   -714.32478226 </i>
    <i name="e_wo_entrp">   -714.32478226 </i>
    <i name="e_0_energy">   -714.32478226 </i>
   </energy>
  </scstep>
  <scstep>
   <time name="dav">    4.25    4.25</time>
   <time name="total">    6.36    6.37</time>
   <energy>
    <i name="e_fr_energy">   -714.40503561 </i>
    <i name="e_wo_entrp">   -714.40503561 </i>
    <i name="e_0_energy">   -714.40503561 </i>
   </energy>
  </scstep>
  <scstep>
   <time name="dav">    4.05    4.06</time>
   <time name="total">    6.12    6.18</time>
   <energy>
    <i name="e_fr_energy">   -714.43268077 </i>
    <i name="e_wo_entrp">   -714.43268077 </i>
    <i name="e_0_energy">   -714.43268077 </i>
   </energy>
  </scstep>
  <scstep>
   <time name="dav">    4.65    4.65</time>
   <time name="total">    6.74    6.76</time>
   <energy>
    <i name="e_fr_energy">   -714.43328708 </i>
    <i name="e_wo_entrp">   -714.43328708 </i>
    <i name="e_0_energy">   -714.43328708 </i>
   </energy>
  </scstep>
  <scstep>
   <time name="dav">    4.08    4.08</time>
   <time name="total">    6.19    6.20</time>
   <energy>
    <i name="e_fr_energy">   -714.43415208 </i>
    <i name="e_wo_entrp">   -714.43415208 </i>
    <i name="e_0_energy">   -714.43415208 </i>
   </energy>
  </scstep>
  <scstep>
   <time name="dav">    4.37    4.37</time>
   <time name="total">    6.44    6.50</time>
   <energy>
    <i name="e_fr_energy">   -714.43422416 </i>
    <i name="e_wo_entrp">   -714.43422416 </i>
    <i name="e_0_energy">   -714.43422416 </i>
   </energy>
  </scstep>
  <scstep>
   <time name="dav">    4.33    4.33</time>
   <time name="total">    6.43    6.44</time>
   <energy>
    <i name="e_fr_energy">   -714.43420094 </i>
    <i name="e_wo_entrp">   -714.43420094 </i>
    <i name="e_0_energy">   -714.43420094 </i>
   </energy>
  </scstep>
  <scstep>
   <time name="dav">    3.84    3.84</time>
   <time name="total">    5.90    5.95</time>
   <energy>
    <i name="e_fr_energy">   -714.43422585 </i>
    <i name="e_wo_entrp">   -714.43422585 </i>
    <i name="e_0_energy">   -714.43422585 </i>
   </energy>
  </scstep>
  <scstep>
   <time name="dav">    3.14    3.14</time>
   <time name="total">    5.24    5.25</time>
   <energy>
    <i name="e_fr_energy">   -714.43422930 </i>
    <i name="e_wo_entrp">   -714.43422930 </i>
    <i name="e_0_energy">   -714.43422930 </i>
   </energy>
  </scstep>
  <scstep>
   <time name="dav">    2.95    2.95</time>
   <time name="total">    5.05    5.06</time>
   <energy>
    <i name="e_fr_energy">   -714.43422696 </i>
    <i name="e_wo_entrp">   -714.43422696 </i>
    <i name="e_0_energy">   -714.43422696 </i>
   </energy>
  </scstep>
  <scstep>
   <time name="dav">    2.93    2.93</time>
   <time name="total">    5.00    5.04</time>
   <energy>
    <i name="e_fr_energy">   -714.43422516 </i>
    <i name="e_wo_entrp">   -714.43422516 </i>
    <i name="e_0_energy">   -714.43422516 </i>
   </energy>
  </scstep>
  <scstep>
   <time name="dav">    2.93    2.93</time>
   <time name="total">    4.20    4.24</time>
   <energy>
    <i name="alphaZ">    499.37195812 </i>
    <i name="ewald">  -9642.89099040 </i>
    <i name="hartreedc">  -3414.08927318 </i>
    <i name="XCdc">    483.35902299 </i>
    <i name="pawpsdc">  11718.51062989 </i>
    <i name="pawaedc"> -12255.92301990 </i>
    <i name="eentropy">     -0.00000000 </i>
    <i name="bandstr">  -1393.05265190 </i>
    <i name="atom">  13290.28009929 </i>
    <i name="e_fr_energy">   -714.43422509 </i>
    <i name="e_wo_entrp">   -714.43422509 </i>
    <i name="e_0_energy">   -714.43422509 </i>
   </energy>
  </scstep>
  <structure>
   <crystal>
    <varray name="basis" >
     <v>       8.49093791       0.00000000      -0.00000000 </v>
     <v>       0.00000000      11.61254016       0.00000000 </v>
     <v>      -0.00000000       0.00000000       7.32774313 </v>
    </varray>
    <i name="volume">    722.52541997 </i>
    <varray name="rec_basis" >
     <v>       0.11777262      -0.00000000       0.00000000 </v>
     <v>      -0.00000000       0.08611380      -0.00000000 </v>
     <v>       0.00000000      -0.00000000       0.13646767 </v>
    </varray>
   </crystal>
   <varray name="positions" >
    <v>       0.09638201       0.25000000       0.45373660 </v>
    <v>       0.40361799       0.75000000       0.95373660 </v>
    <v>       0.59638201       0.25000000       0.04626340 </v>
    <v>       0.90361799       0.75000000       0.54626340 </v>
    <v>       0.00000000       0.00000000       0.00000000 </v>
    <v>       0.50000000       0.00000000       0.50000000 </v>
    <v>       0.50000000       0.50000000       0.50000000 </v>
    <v>       0.00000000       0.50000000       0.00000000 </v>
    <v>       0.49867498       0.75000000       0.42627544 </v>
    <v>       0.00132502       0.25000000       0.92627544 </v>
    <v>       0.99867498       0.75000000       0.07372456 </v>
    <v>       0.50132502       0.25000000       0.57372456 </v>
    <v>       0.31588400       0.46141214       0.16204424 </v>
    <v>       0.18411600       0.53858786       0.66204424 </v>
    <v>       0.81588400       0.03858786       0.33795576 </v>
    <v>       0.68411600       0.96141214       0.83795576 </v>
    <v>       0.31588400       0.03858786       0.16204424 </v>
    <v>       0.18411600       0.96141214       0.66204424 </v>
    <v>       0.68411600       0.53858786       0.83795576 </v>
    <v>       0.81588400       0.46141214       0.33795576 </v>
   </varray>
  </structure>
  <varray name="forces" >
   <v>       0.00493648      -0.00000000       0.00790166 </v>
   <v>      -0.00493648       0.00000000       0.00790166 </v>
   <v>       0.00493648       0.00000000      -0.00790166 </v>
   <v>      -0.00493648       0.00000000      -0.00790166 </v>
   <v>      -0.00000000       0.00000000       0.00000000 </v>
   <v>      -0.00000000       0.00000000       0.00000000 </v>
   <v>      -0.00000000       0.00000000       0.00000000 </v>
   <v>      -0.00000000       0.00000000       0.00000000 </v>
   <v>      -0.00303204       0.00000000      -0.01684383 </v>
   <v>       0.00303204       0.00000000      -0.01684383 </v>
   <v>      -0.00303204       0.00000000       0.01684383 </v>
   <v>       0.00303204      -0.00000000       0.01684383 </v>
   <v>      -0.00277700       0.00167770       0.00381485 </v>
   <v>       0.00277700      -0.00167770       0.00381485 </v>
   <v>      -0.00277700      -0.00167770      -0.00381485 </v>
   <v>       0.00277700       0.00167770      -0.00381485 </v>
   <v>      -0.00277700      -0.00167770       0.00381485 </v>
   <v>       0.00277700       0.00167770       0.00381485 </v>
   <v>       0.00277700      -0.00167770      -0.00381485 </v>
   <v>      -0.00277700       0.00167770      -0.00381485 </v>
  </varray>
  <varray name="stress" >
   <v>      18.62302998       0.00000000      -0.00000000 </v>
   <v>       0.00000000      18.79878523       0.00000000 </v>
   <v>      -0.00000000       0.00000000      18.57383129 </v>
  </varray>
  <energy>
   <i name="e_fr_energy">   -714.43422509 </i>
   <i name="e_wo_entrp">   -714.43422509 </i>
   <i name="e_0_energy">     -0.00000000 </i>
  </energy>
  <time name="totalsc">  117.43  118.34</time>
  <eigenvalues>
   <array>
    <dimension dim="1">band</dimension>
    <dimension dim="2">kpoint</dimension>
    <dimension dim="3">spin</dimension>
    <field>eigene</field>
    <field>occ</field>
    <set>
     <set comment="spin 1">
      <set comment="kpoint 1">
       <r>  -19.9162    1.0000 </r>
       <r>  -19.9124    1.0000 </r>
       <r>  -19.9048    1.0000 </r>
       <r>  -19.9034    1.0000 </r>
       <r>  -15.7990    1.0000 </r>
       <r>  -15.7771    1.0000 </r>
       <r>  -15.7767    1.0000 </r>
       <r>  -15.7664    1.0000 </r>
       <r>  -15.7235    1.0000 </r>
       <r>  -15.6802    1.0000 </r>
       <r>  -15.6634    1.0000 </r>
       <r>  -15.6634    1.0000 </r>
       <r>  -15.6082    1.0000 </r>
       <r>  -15.6074    1.0000 </r>
       <r>  -15.6063    1.0000 </r>
       <r>  -15.6060    1.0000 </r>
       <r>  -15.5939    1.0000 </r>
       <r>  -15.5930    1.0000 </r>
       <r>  -15.5930    1.0000 </r>
       <r>  -15.5925    1.0000 </r>
       <r>  -15.5787    1.0000 </r>
       <r>  -15.5783    1.0000 </r>
       <r>  -15.5780    1.0000 </r>
       <r>  -15.5776    1.0000 </r>
       <r>  -13.8748    1.0000 </r>
       <r>  -13.6726    1.0000 </r>
       <r>  -13.5459    1.0000 </r>
       <r>  -13.5439    1.0000 </r>
       <r>  -13.5000    1.0000 </r>
       <r>  -13.4893    1.0000 </r>
       <r>  -13.4551    1.0000 </r>
       <r>  -13.3848    1.0000 </r>
       <r>  -13.3781    1.0000 </r>
       <r>  -13.1927    1.0000 </r>
       <r>  -13.1599    1.0000 </r>
       <r>  -13.1545    1.0000 </r>
       <r>   -7.6377    1.0000 </r>
       <r>   -7.0926    1.0000 </r>
       <r>   -6.5828    1.0000 </r>
       <r>   -6.4777    1.0000 </r>
       <r>   -6.4347    1.0000 </r>
       <r>   -6.4229    1.0000 </r>
       <r>   -6.4208    1.0000 </r>
       <r>   -6.4208    1.0000 </r>
       <r>   -6.4102    1.0000 </r>
       <r>   -6.3866    1.0000 </r>
       <r>   -6.3738    1.0000 </r>
       <r>   -6.3702    1.0000 </r>
       <r>   -6.3286    1.0000 </r>
       <r>   -6.3249    1.0000 </r>
       <r>   -6.2655    1.0000 </r>
       <r>   -5.8332    1.0000 </r>
       <r>   -2.9452    1.0000 </r>
       <r>   -2.8718    1.0000 </r>
       <r>   -2.6800    1.0000 </r>
       <r>   -2.6535    1.0000 </r>
       <r>   -2.6102    1.0000 </r>
       <r>   -2.4533    1.0000 </r>
       <r>   -1.7565    1.0000 </r>
       <r>   -1.4196    1.0000 </r>
       <r>   -1.3935    1.0000 </r>
       <r>   -1.3175    1.0000 </r>
       <r>   -1.2192    1.0000 </r>
       <r>   -1.2182    1.0000 </r>
       <r>   -1.1162    1.0000 </r>
       <r>   -1.0888    1.0000 </r>
       <r>   -1.0083    1.0000 </r>
       <r>   -0.9805    1.0000 </r>
       <r>   -0.9287    1.0000 </r>
       <r>   -0.9251    1.0000 </r>
       <r>   -0.8714    1.0000 </r>
       <r>   -0.8588    1.0000 </r>
       <r>   -0.8414    1.0000 </r>
       <r>   -0.8370    1.0000 </r>
       <r>   -0.7958    1.0000 </r>
       <r>   -0.7801    1.0000 </r>
       <r>   -0.7099    1.0000 </r>
       <r>   -0.5332    1.0000 </r>
       <r>   -0.4924    1.0000 </r>
       <r>   -0.4850    1.0000 </r>
       <r>   -0.4693    1.0000 </r>
       <r>   -0.4305    1.0000 </r>
       <r>   -0.3369    1.0000 </r>
       <r>   -0.2374    1.0000 </r>
       <r>   -0.1195    1.0000 </r>
       <r>    0.1749    1.0000 </r>
       <r>    0.5822    1.0000 </r>
       <r>    1.1805    1.0000 </r>
       <r>    3.4170    0.0000 </r>
       <r>    3.4774    0.0000 </r>
       <r>    3.8767    0.0000 </r>
       <r>    3.8830    0.0000 </r>
       <r>    4.1859    0.0000 </r>
       <r>    4.3764    0.0000 </r>
       <r>    5.9589    0.0000 </r>
       <r>    6.1749    0.0000 </r>
       <r>    6.4439    0.0000 </r>
       <r>    6.5209    0.0000 </r>
       <r>    6.6499    0.0000 </r>
       <r>    6.7759    0.0000 </r>
       <r>    6.9151    0.0000 </r>
       <r>    7.0318    0.0000 </r>
       <r>    7.1822    0.0000 </r>
       <r>    7.2075    0.0000 </r>
       <r>    7.3837    0.0000 </r>
       <r>    7.4840    0.0000 </r>
       <r>    7.5012    0.0000 </r>
       <r>    7.6230    0.0000 </r>
       <r>    7.8820    0.0000 </r>
       <r>    8.0879    0.0000 </r>
       <r>    8.1611    0.0000 </r>
       <r>    8.2381    0.0000 </r>
      </set>
      <set comment="kpoint 2">
       <r>  -19.9134    1.0000 </r>
       <r>  -19.9102    1.0000 </r>
       <r>  -19.9078    1.0000 </r>
       <r>  -19.9056    1.0000 </r>
       <r>  -15.7904    1.0000 </r>
       <r>  -15.7741    1.0000 </r>
       <r>  -15.7501    1.0000 </r>
       <r>  -15.7499    1.0000 </r>
       <r>  -15.7122    1.0000 </r>
       <r>  -15.6934    1.0000 </r>
       <r>  -15.6933    1.0000 </r>
       <r>  -15.6906    1.0000 </r>
       <r>  -15.6081    1.0000 </r>
       <r>  -15.6077    1.0000 </r>
       <r>  -15.6063    1.0000 </r>
       <r>  -15.6061    1.0000 </r>
       <r>  -15.5938    1.0000 </r>
       <r>  -15.5933    1.0000 </r>
       <r>  -15.5930    1.0000 </r>
       <r>  -15.5928    1.0000 </r>
       <r>  -15.5787    1.0000 </r>
       <r>  -15.5785    1.0000 </r>
       <r>  -15.5780    1.0000 </r>
       <r>  -15.5778    1.0000 </r>
       <r>  -13.8237    1.0000 </r>
       <r>  -13.6794    1.0000 </r>
       <r>  -13.6325    1.0000 </r>
       <r>  -13.5437    1.0000 </r>
       <r>  -13.5413    1.0000 </r>
       <r>  -13.5411    1.0000 </r>
       <r>  -13.3285    1.0000 </r>
       <r>  -13.3185    1.0000 </r>
       <r>  -13.3106    1.0000 </r>
       <r>  -13.2164    1.0000 </r>
       <r>  -13.2135    1.0000 </r>
       <r>  -13.2067    1.0000 </r>
       <r>   -7.4198    1.0000 </r>
       <r>   -6.9228    1.0000 </r>
       <r>   -6.8740    1.0000 </r>
       <r>   -6.5110    1.0000 </r>
       <r>   -6.4306    1.0000 </r>
       <r>   -6.4270    1.0000 </r>
       <r>   -6.4212    1.0000 </r>
       <r>   -6.4071    1.0000 </r>
       <r>   -6.4026    1.0000 </r>
       <r>   -6.3704    1.0000 </r>
       <r>   -6.3655    1.0000 </r>
       <r>   -6.3396    1.0000 </r>
       <r>   -6.3285    1.0000 </r>
       <r>   -6.3065    1.0000 </r>
       <r>   -6.2825    1.0000 </r>
       <r>   -6.1780    1.0000 </r>
       <r>   -2.8113    1.0000 </r>
       <r>   -2.7114    1.0000 </r>
       <r>   -2.4265    1.0000 </r>
       <r>   -2.2962    1.0000 </r>
       <r>   -2.2644    1.0000 </r>
       <r>   -2.2623    1.0000 </r>
       <r>   -1.7880    1.0000 </r>
       <r>   -1.6540    1.0000 </r>
       <r>   -1.6500    1.0000 </r>
       <r>   -1.5121    1.0000 </r>
       <r>   -1.4909    1.0000 </r>
       <r>   -1.4759    1.0000 </r>
       <r>   -1.2026    1.0000 </r>
       <r>   -1.1284    1.0000 </r>
       <r>   -1.1024    1.0000 </r>
       <r>   -1.0353    1.0000 </r>
       <r>   -0.9285    1.0000 </r>
       <r>   -0.9188    1.0000 </r>
       <r>   -0.8218    1.0000 </r>
       <r>   -0.8199    1.0000 </r>
       <r>   -0.7938    1.0000 </r>
       <r>   -0.7712    1.0000 </r>
       <r>   -0.7479    1.0000 </r>
       <r>   -0.7265    1.0000 </r>
       <r>   -0.6969    1.0000 </r>
       <r>   -0.6211    1.0000 </r>
       <r>   -0.6016    1.0000 </r>
       <r>   -0.4883    1.0000 </r>
       <r>   -0.4802    1.0000 </r>
       <r>   -0.4471    1.0000 </r>
       <r>   -0.4265    1.0000 </r>
       <r>   -0.3702    1.0000 </r>
       <r>    0.0235    1.0000 </r>
       <r>    0.1987    1.0000 </r>
       <r>    0.3783    1.0000 </r>
       <r>    0.7924    1.0000 </r>
       <r>    3.6365    0.0000 </r>
       <r>    3.9636    0.0000 </r>
       <r>    4.0755    0.0000 </r>
       <r>    4.5033    0.0000 </r>
       <r>    4.6997    0.0000 </r>
       <r>    5.1096    0.0000 </r>
       <r>    5.4757    0.0000 </r>
       <r>    5.8916    0.0000 </r>
       <r>    5.9711    0.0000 </r>
       <r>    6.1653    0.0000 </r>
       <r>    6.6010    0.0000 </r>
       <r>    6.6994    0.0000 </r>
       <r>    6.9666    0.0000 </r>
       <r>    7.0512    0.0000 </r>
       <r>    7.2003    0.0000 </r>
       <r>    7.2400    0.0000 </r>
       <r>    7.2569    0.0000 </r>
       <r>    7.4258    0.0000 </r>
       <r>    7.5579    0.0000 </r>
       <r>    7.5831    0.0000 </r>
       <r>    7.7507    0.0000 </r>
       <r>    7.7690    0.0000 </r>
       <r>    7.9248    0.0000 </r>
       <r>    8.1137    0.0000 </r>
      </set>
      <set comment="kpoint 3">
       <r>  -19.9142    1.0000 </r>
       <r>  -19.9142    1.0000 </r>
       <r>  -19.9041    1.0000 </r>
       <r>  -19.9041    1.0000 </r>
       <r>  -15.7769    1.0000 </r>
       <r>  -15.7769    1.0000 </r>
       <r>  -15.7616    1.0000 </r>
       <r>  -15.7616    1.0000 </r>
       <r>  -15.7241    1.0000 </r>
       <r>  -15.7241    1.0000 </r>
       <r>  -15.6633    1.0000 </r>
       <r>  -15.6633    1.0000 </r>
       <r>  -15.6073    1.0000 </r>
       <r>  -15.6073    1.0000 </r>
       <r>  -15.6067    1.0000 </r>
       <r>  -15.6067    1.0000 </r>
       <r>  -15.5936    1.0000 </r>
       <r>  -15.5936    1.0000 </r>
       <r>  -15.5926    1.0000 </r>
       <r>  -15.5926    1.0000 </r>
       <r>  -15.5784    1.0000 </r>
       <r>  -15.5784    1.0000 </r>
       <r>  -15.5779    1.0000 </r>
       <r>  -15.5779    1.0000 </r>
       <r>  -13.8164    1.0000 </r>
       <r>  -13.8164    1.0000 </r>
       <r>  -13.5071    1.0000 </r>
       <r>  -13.5071    1.0000 </r>
       <r>  -13.4869    1.0000 </r>
       <r>  -13.4869    1.0000 </r>
       <r>  -13.3844    1.0000 </r>
       <r>  -13.3844    1.0000 </r>
       <r>  -13.3218    1.0000 </r>
       <r>  -13.3218    1.0000 </r>
       <r>  -13.1570    1.0000 </r>
       <r>  -13.1570    1.0000 </r>
       <r>   -7.3848    1.0000 </r>
       <r>   -7.3848    1.0000 </r>
       <r>   -6.4703    1.0000 </r>
       <r>   -6.4703    1.0000 </r>
       <r>   -6.4479    1.0000 </r>
       <r>   -6.4479    1.0000 </r>
       <r>   -6.3883    1.0000 </r>
       <r>   -6.3883    1.0000 </r>
       <r>   -6.3773    1.0000 </r>
       <r>   -6.3773    1.0000 </r>
       <r>   -6.3504    1.0000 </r>
       <r>   -6.3504    1.0000 </r>
       <r>   -6.3450    1.0000 </r>
       <r>   -6.3450    1.0000 </r>
       <r>   -6.2187    1.0000 </r>
       <r>   -6.2187    1.0000 </r>
       <r>   -2.8225    1.0000 </r>
       <r>   -2.8225    1.0000 </r>
       <r>   -2.5856    1.0000 </r>
       <r>   -2.5856    1.0000 </r>
       <r>   -1.9257    1.0000 </r>
       <r>   -1.9257    1.0000 </r>
       <r>   -1.8019    1.0000 </r>
       <r>   -1.8019    1.0000 </r>
       <r>   -1.5761    1.0000 </r>
       <r>   -1.5761    1.0000 </r>
       <r>   -1.2540    1.0000 </r>
       <r>   -1.2540    1.0000 </r>
       <r>   -1.1638    1.0000 </r>
       <r>   -1.1638    1.0000 </r>
       <r>   -1.0235    1.0000 </r>
       <r>   -1.0235    1.0000 </r>
       <r>   -0.9369    1.0000 </r>
       <r>   -0.9369    1.0000 </r>
       <r>   -0.9247    1.0000 </r>
       <r>   -0.9247    1.0000 </r>
       <r>   -0.8034    1.0000 </r>
       <r>   -0.8034    1.0000 </r>
       <r>   -0.7792    1.0000 </r>
       <r>   -0.7792    1.0000 </r>
       <r>   -0.6270    1.0000 </r>
       <r>   -0.6270    1.0000 </r>
       <r>   -0.5983    1.0000 </r>
       <r>   -0.5983    1.0000 </r>
       <r>   -0.5121    1.0000 </r>
       <r>   -0.5121    1.0000 </r>
       <r>   -0.2754    1.0000 </r>
       <r>   -0.2754    1.0000 </r>
       <r>   -0.0919    1.0000 </r>
       <r>   -0.0919    1.0000 </r>
       <r>    0.6986    1.0000 </r>
       <r>    0.6986    1.0000 </r>
       <r>    3.6601    0.0000 </r>
       <r>    3.6601    0.0000 </r>
       <r>    4.1233    0.0000 </r>
       <r>    4.1233    0.0000 </r>
       <r>    5.1048    0.0000 </r>
       <r>    5.1048    0.0000 </r>
       <r>    5.5753    0.0000 </r>
       <r>    5.5753    0.0000 </r>
       <r>    6.4487    0.0000 </r>
       <r>    6.4487    0.0000 </r>
       <r>    6.4929    0.0000 </r>
       <r>    6.4929    0.0000 </r>
       <r>    6.9560    0.0000 </r>
       <r>    6.9560    0.0000 </r>
       <r>    7.1109    0.0000 </r>
       <r>    7.1109    0.0000 </r>
       <r>    7.3592    0.0000 </r>
       <r>    7.3592    0.0000 </r>
       <r>    7.4646    0.0000 </r>
       <r>    7.4646    0.0000 </r>
       <r>    7.8117    0.0000 </r>
       <r>    7.8117    0.0000 </r>
       <r>    7.9514    0.0000 </r>
       <r>    7.9514    0.0000 </r>
      </set>
      <set comment="kpoint 4">
       <r>  -19.9118    1.0000 </r>
       <r>  -19.9118    1.0000 </r>
       <r>  -19.9066    1.0000 </r>
       <r>  -19.9066    1.0000 </r>
       <r>  -15.7519    1.0000 </r>
       <r>  -15.7519    1.0000 </r>
       <r>  -15.7500    1.0000 </r>
       <r>  -15.7500    1.0000 </r>
       <r>  -15.7331    1.0000 </r>
       <r>  -15.7331    1.0000 </r>
       <r>  -15.6933    1.0000 </r>
       <r>  -15.6933    1.0000 </r>
       <r>  -15.6072    1.0000 </r>
       <r>  -15.6072    1.0000 </r>
       <r>  -15.6069    1.0000 </r>
       <r>  -15.6069    1.0000 </r>
       <r>  -15.5935    1.0000 </r>
       <r>  -15.5935    1.0000 </r>
       <r>  -15.5930    1.0000 </r>
       <r>  -15.5930    1.0000 </r>
       <r>  -15.5784    1.0000 </r>
       <r>  -15.5784    1.0000 </r>
       <r>  -15.5782    1.0000 </r>
       <r>  -15.5782    1.0000 </r>
       <r>  -13.7706    1.0000 </r>
       <r>  -13.7706    1.0000 </r>
       <r>  -13.6473    1.0000 </r>
       <r>  -13.6473    1.0000 </r>
       <r>  -13.3877    1.0000 </r>
       <r>  -13.3877    1.0000 </r>
       <r>  -13.3506    1.0000 </r>
       <r>  -13.3506    1.0000 </r>
       <r>  -13.3096    1.0000 </r>
       <r>  -13.3096    1.0000 </r>
       <r>  -13.2101    1.0000 </r>
       <r>  -13.2101    1.0000 </r>
       <r>   -7.1681    1.0000 </r>
       <r>   -7.1681    1.0000 </r>
       <r>   -6.6715    1.0000 </r>
       <r>   -6.6715    1.0000 </r>
       <r>   -6.4446    1.0000 </r>
       <r>   -6.4446    1.0000 </r>
       <r>   -6.4418    1.0000 </r>
       <r>   -6.4418    1.0000 </r>
       <r>   -6.3665    1.0000 </r>
       <r>   -6.3665    1.0000 </r>
       <r>   -6.3524    1.0000 </r>
       <r>   -6.3524    1.0000 </r>
       <r>   -6.3373    1.0000 </r>
       <r>   -6.3373    1.0000 </r>
       <r>   -6.2899    1.0000 </r>
       <r>   -6.2899    1.0000 </r>
       <r>   -2.3761    1.0000 </r>
       <r>   -2.3761    1.0000 </r>
       <r>   -2.3510    1.0000 </r>
       <r>   -2.3510    1.0000 </r>
       <r>   -1.9181    1.0000 </r>
       <r>   -1.9181    1.0000 </r>
       <r>   -1.8673    1.0000 </r>
       <r>   -1.8673    1.0000 </r>
       <r>   -1.7009    1.0000 </r>
       <r>   -1.7009    1.0000 </r>
       <r>   -1.5745    1.0000 </r>
       <r>   -1.5745    1.0000 </r>
       <r>   -1.2329    1.0000 </r>
       <r>   -1.2329    1.0000 </r>
       <r>   -1.1220    1.0000 </r>
       <r>   -1.1220    1.0000 </r>
       <r>   -0.9952    1.0000 </r>
       <r>   -0.9952    1.0000 </r>
       <r>   -0.9873    1.0000 </r>
       <r>   -0.9873    1.0000 </r>
       <r>   -0.7921    1.0000 </r>
       <r>   -0.7921    1.0000 </r>
       <r>   -0.7685    1.0000 </r>
       <r>   -0.7685    1.0000 </r>
       <r>   -0.5512    1.0000 </r>
       <r>   -0.5512    1.0000 </r>
       <r>   -0.5237    1.0000 </r>
       <r>   -0.5237    1.0000 </r>
       <r>   -0.4774    1.0000 </r>
       <r>   -0.4774    1.0000 </r>
       <r>   -0.4420    1.0000 </r>
       <r>   -0.4420    1.0000 </r>
       <r>    0.0509    1.0000 </r>
       <r>    0.0509    1.0000 </r>
       <r>    0.3305    1.0000 </r>
       <r>    0.3305    1.0000 </r>
       <r>    4.2720    0.0000 </r>
       <r>    4.2720    0.0000 </r>
       <r>    4.8359    0.0000 </r>
       <r>    4.8359    0.0000 </r>
       <r>    5.2562    0.0000 </r>
       <r>    5.2562    0.0000 </r>
       <r>    5.4037    0.0000 </r>
       <r>    5.4037    0.0000 </r>
       <r>    5.6788    0.0000 </r>
       <r>    5.6788    0.0000 </r>
       <r>    6.2457    0.0000 </r>
       <r>    6.2457    0.0000 </r>
       <r>    6.9954    0.0000 </r>
       <r>    6.9954    0.0000 </r>
       <r>    7.0995    0.0000 </r>
       <r>    7.0995    0.0000 </r>
       <r>    7.5373    0.0000 </r>
       <r>    7.5373    0.0000 </r>
       <r>    7.5609    0.0000 </r>
       <r>    7.5609    0.0000 </r>
       <r>    7.6358    0.0000 </r>
       <r>    7.6358    0.0000 </r>
       <r>    7.7930    0.0000 </r>
       <r>    7.7930    0.0000 </r>
      </set>
      <set comment="kpoint 5">
       <r>  -19.9137    1.0000 </r>
       <r>  -19.9114    1.0000 </r>
       <r>  -19.9057    1.0000 </r>
       <r>  -19.9045    1.0000 </r>
       <r>  -15.7900    1.0000 </r>
       <r>  -15.7739    1.0000 </r>
       <r>  -15.7508    1.0000 </r>
       <r>  -15.7505    1.0000 </r>
       <r>  -15.7118    1.0000 </r>
       <r>  -15.6941    1.0000 </r>
       <r>  -15.6939    1.0000 </r>
       <r>  -15.6900    1.0000 </r>
       <r>  -15.6079    1.0000 </r>
       <r>  -15.6076    1.0000 </r>
       <r>  -15.6064    1.0000 </r>
       <r>  -15.6060    1.0000 </r>
       <r>  -15.5938    1.0000 </r>
       <r>  -15.5931    1.0000 </r>
       <r>  -15.5930    1.0000 </r>
       <r>  -15.5927    1.0000 </r>
       <r>  -15.5787    1.0000 </r>
       <r>  -15.5784    1.0000 </r>
       <r>  -15.5781    1.0000 </r>
       <r>  -15.5778    1.0000 </r>
       <r>  -13.8083    1.0000 </r>
       <r>  -13.6320    1.0000 </r>
       <r>  -13.6086    1.0000 </r>
       <r>  -13.5487    1.0000 </r>
       <r>  -13.5480    1.0000 </r>
       <r>  -13.4616    1.0000 </r>
       <r>  -13.4170    1.0000 </r>
       <r>  -13.4010    1.0000 </r>
       <r>  -13.2845    1.0000 </r>
       <r>  -13.2359    1.0000 </r>
       <r>  -13.2339    1.0000 </r>
       <r>  -13.2107    1.0000 </r>
       <r>   -7.4188    1.0000 </r>
       <r>   -6.9083    1.0000 </r>
       <r>   -6.8660    1.0000 </r>
       <r>   -6.4631    1.0000 </r>
       <r>   -6.4311    1.0000 </r>
       <r>   -6.4308    1.0000 </r>
       <r>   -6.4102    1.0000 </r>
       <r>   -6.3968    1.0000 </r>
       <r>   -6.3603    1.0000 </r>
       <r>   -6.3582    1.0000 </r>
       <r>   -6.3459    1.0000 </r>
       <r>   -6.3423    1.0000 </r>
       <r>   -6.3224    1.0000 </r>
       <r>   -6.2983    1.0000 </r>
       <r>   -6.2924    1.0000 </r>
       <r>   -6.1554    1.0000 </r>
       <r>   -2.8236    1.0000 </r>
       <r>   -2.7270    1.0000 </r>
       <r>   -2.5923    1.0000 </r>
       <r>   -2.3843    1.0000 </r>
       <r>   -2.1604    1.0000 </r>
       <r>   -1.9834    1.0000 </r>
       <r>   -1.8407    1.0000 </r>
       <r>   -1.6281    1.0000 </r>
       <r>   -1.5346    1.0000 </r>
       <r>   -1.5316    1.0000 </r>
       <r>   -1.4334    1.0000 </r>
       <r>   -1.2396    1.0000 </r>
       <r>   -1.2267    1.0000 </r>
       <r>   -1.1568    1.0000 </r>
       <r>   -1.0805    1.0000 </r>
       <r>   -1.0557    1.0000 </r>
       <r>   -0.9317    1.0000 </r>
       <r>   -0.9144    1.0000 </r>
       <r>   -0.8873    1.0000 </r>
       <r>   -0.8679    1.0000 </r>
       <r>   -0.8500    1.0000 </r>
       <r>   -0.7668    1.0000 </r>
       <r>   -0.7373    1.0000 </r>
       <r>   -0.7289    1.0000 </r>
       <r>   -0.7095    1.0000 </r>
       <r>   -0.6352    1.0000 </r>
       <r>   -0.6248    1.0000 </r>
       <r>   -0.5198    1.0000 </r>
       <r>   -0.5053    1.0000 </r>
       <r>   -0.4783    1.0000 </r>
       <r>   -0.4536    1.0000 </r>
       <r>   -0.3727    1.0000 </r>
       <r>   -0.1974    1.0000 </r>
       <r>    0.0184    1.0000 </r>
       <r>    0.2184    1.0000 </r>
       <r>    0.6151    1.0000 </r>
       <r>    3.6319    0.0000 </r>
       <r>    3.9612    0.0000 </r>
       <r>    4.2478    0.0000 </r>
       <r>    4.5076    0.0000 </r>
       <r>    4.7060    0.0000 </r>
       <r>    4.9230    0.0000 </r>
       <r>    5.5616    0.0000 </r>
       <r>    5.7842    0.0000 </r>
       <r>    5.9673    0.0000 </r>
       <r>    6.1827    0.0000 </r>
       <r>    6.6383    0.0000 </r>
       <r>    6.6709    0.0000 </r>
       <r>    6.9566    0.0000 </r>
       <r>    6.9702    0.0000 </r>
       <r>    6.9828    0.0000 </r>
       <r>    7.2809    0.0000 </r>
       <r>    7.3515    0.0000 </r>
       <r>    7.4063    0.0000 </r>
       <r>    7.5355    0.0000 </r>
       <r>    7.6627    0.0000 </r>
       <r>    7.6791    0.0000 </r>
       <r>    8.0096    0.0000 </r>
       <r>    8.0678    0.0000 </r>
       <r>    8.1483    0.0000 </r>
      </set>
      <set comment="kpoint 6">
       <r>  -19.9118    1.0000 </r>
       <r>  -19.9099    1.0000 </r>
       <r>  -19.9075    1.0000 </r>
       <r>  -19.9061    1.0000 </r>
       <r>  -15.7938    1.0000 </r>
       <r>  -15.7838    1.0000 </r>
       <r>  -15.7510    1.0000 </r>
       <r>  -15.7290    1.0000 </r>
       <r>  -15.7283    1.0000 </r>
       <r>  -15.7028    1.0000 </r>
       <r>  -15.6914    1.0000 </r>
       <r>  -15.6752    1.0000 </r>
       <r>  -15.6079    1.0000 </r>
       <r>  -15.6077    1.0000 </r>
       <r>  -15.6063    1.0000 </r>
       <r>  -15.6061    1.0000 </r>
       <r>  -15.5935    1.0000 </r>
       <r>  -15.5933    1.0000 </r>
       <r>  -15.5927    1.0000 </r>
       <r>  -15.5926    1.0000 </r>
       <r>  -15.5784    1.0000 </r>
       <r>  -15.5783    1.0000 </r>
       <r>  -15.5778    1.0000 </r>
       <r>  -15.5777    1.0000 </r>
       <r>  -13.7567    1.0000 </r>
       <r>  -13.6435    1.0000 </r>
       <r>  -13.5713    1.0000 </r>
       <r>  -13.5577    1.0000 </r>
       <r>  -13.5504    1.0000 </r>
       <r>  -13.4909    1.0000 </r>
       <r>  -13.4687    1.0000 </r>
       <r>  -13.3714    1.0000 </r>
       <r>  -13.3675    1.0000 </r>
       <r>  -13.2808    1.0000 </r>
       <r>  -13.1903    1.0000 </r>
       <r>  -13.1543    1.0000 </r>
       <r>   -7.2866    1.0000 </r>
       <r>   -7.0363    1.0000 </r>
       <r>   -6.7115    1.0000 </r>
       <r>   -6.4529    1.0000 </r>
       <r>   -6.4270    1.0000 </r>
       <r>   -6.4063    1.0000 </r>
       <r>   -6.3989    1.0000 </r>
       <r>   -6.3825    1.0000 </r>
       <r>   -6.3809    1.0000 </r>
       <r>   -6.3559    1.0000 </r>
       <r>   -6.3414    1.0000 </r>
       <r>   -6.3346    1.0000 </r>
       <r>   -6.3246    1.0000 </r>
       <r>   -6.3101    1.0000 </r>
       <r>   -6.3094    1.0000 </r>
       <r>   -6.2687    1.0000 </r>
       <r>   -2.8191    1.0000 </r>
       <r>   -2.7838    1.0000 </r>
       <r>   -2.6503    1.0000 </r>
       <r>   -2.4809    1.0000 </r>
       <r>   -2.2857    1.0000 </r>
       <r>   -2.1297    1.0000 </r>
       <r>   -1.8359    1.0000 </r>
       <r>   -1.6256    1.0000 </r>
       <r>   -1.6033    1.0000 </r>
       <r>   -1.5835    1.0000 </r>
       <r>   -1.5077    1.0000 </r>
       <r>   -1.2838    1.0000 </r>
       <r>   -1.1932    1.0000 </r>
       <r>   -1.1345    1.0000 </r>
       <r>   -1.0314    1.0000 </r>
       <r>   -0.9269    1.0000 </r>
       <r>   -0.9164    1.0000 </r>
       <r>   -0.9147    1.0000 </r>
       <r>   -0.8516    1.0000 </r>
       <r>   -0.8183    1.0000 </r>
       <r>   -0.7989    1.0000 </r>
       <r>   -0.7671    1.0000 </r>
       <r>   -0.7195    1.0000 </r>
       <r>   -0.7030    1.0000 </r>
       <r>   -0.6881    1.0000 </r>
       <r>   -0.6317    1.0000 </r>
       <r>   -0.5690    1.0000 </r>
       <r>   -0.5178    1.0000 </r>
       <r>   -0.4891    1.0000 </r>
       <r>   -0.4599    1.0000 </r>
       <r>   -0.4541    1.0000 </r>
       <r>   -0.3583    1.0000 </r>
       <r>   -0.1319    1.0000 </r>
       <r>    0.0295    1.0000 </r>
       <r>    0.3781    1.0000 </r>
       <r>    0.6457    1.0000 </r>
       <r>    3.6890    0.0000 </r>
       <r>    3.8512    0.0000 </r>
       <r>    3.8562    0.0000 </r>
       <r>    4.2770    0.0000 </r>
       <r>    4.6098    0.0000 </r>
       <r>    4.9856    0.0000 </r>
       <r>    5.4893    0.0000 </r>
       <r>    5.9832    0.0000 </r>
       <r>    6.0968    0.0000 </r>
       <r>    6.5833    0.0000 </r>
       <r>    6.8230    0.0000 </r>
       <r>    6.9657    0.0000 </r>
       <r>    7.0139    0.0000 </r>
       <r>    7.1025    0.0000 </r>
       <r>    7.1345    0.0000 </r>
       <r>    7.3123    0.0000 </r>
       <r>    7.4321    0.0000 </r>
       <r>    7.4418    0.0000 </r>
       <r>    7.5943    0.0000 </r>
       <r>    7.6863    0.0000 </r>
       <r>    7.7890    0.0000 </r>
       <r>    7.8815    0.0000 </r>
       <r>    7.8885    0.0000 </r>
       <r>    7.9754    0.0000 </r>
      </set>
      <set comment="kpoint 7">
       <r>  -19.9125    1.0000 </r>
       <r>  -19.9125    1.0000 </r>
       <r>  -19.9052    1.0000 </r>
       <r>  -19.9052    1.0000 </r>
       <r>  -15.7514    1.0000 </r>
       <r>  -15.7514    1.0000 </r>
       <r>  -15.7507    1.0000 </r>
       <r>  -15.7507    1.0000 </r>
       <r>  -15.7326    1.0000 </r>
       <r>  -15.7326    1.0000 </r>
       <r>  -15.6940    1.0000 </r>
       <r>  -15.6940    1.0000 </r>
       <r>  -15.6073    1.0000 </r>
       <r>  -15.6073    1.0000 </r>
       <r>  -15.6069    1.0000 </r>
       <r>  -15.6069    1.0000 </r>
       <r>  -15.5934    1.0000 </r>
       <r>  -15.5934    1.0000 </r>
       <r>  -15.5930    1.0000 </r>
       <r>  -15.5930    1.0000 </r>
       <r>  -15.5784    1.0000 </r>
       <r>  -15.5784    1.0000 </r>
       <r>  -15.5781    1.0000 </r>
       <r>  -15.5781    1.0000 </r>
       <r>  -13.7559    1.0000 </r>
       <r>  -13.7559    1.0000 </r>
       <r>  -13.6069    1.0000 </r>
       <r>  -13.6069    1.0000 </r>
       <r>  -13.4135    1.0000 </r>
       <r>  -13.4135    1.0000 </r>
       <r>  -13.3584    1.0000 </r>
       <r>  -13.3584    1.0000 </r>
       <r>  -13.3226    1.0000 </r>
       <r>  -13.3226    1.0000 </r>
       <r>  -13.2357    1.0000 </r>
       <r>  -13.2357    1.0000 </r>
       <r>   -7.1630    1.0000 </r>
       <r>   -7.1630    1.0000 </r>
       <r>   -6.6557    1.0000 </r>
       <r>   -6.6557    1.0000 </r>
       <r>   -6.4463    1.0000 </r>
       <r>   -6.4463    1.0000 </r>
       <r>   -6.3942    1.0000 </r>
       <r>   -6.3942    1.0000 </r>
       <r>   -6.3620    1.0000 </r>
       <r>   -6.3620    1.0000 </r>
       <r>   -6.3375    1.0000 </r>
       <r>   -6.3375    1.0000 </r>
       <r>   -6.3307    1.0000 </r>
       <r>   -6.3307    1.0000 </r>
       <r>   -6.2919    1.0000 </r>
       <r>   -6.2919    1.0000 </r>
       <r>   -2.5098    1.0000 </r>
       <r>   -2.5098    1.0000 </r>
       <r>   -2.2058    1.0000 </r>
       <r>   -2.2058    1.0000 </r>
       <r>   -1.9378    1.0000 </r>
       <r>   -1.9378    1.0000 </r>
       <r>   -1.8594    1.0000 </r>
       <r>   -1.8594    1.0000 </r>
       <r>   -1.6882    1.0000 </r>
       <r>   -1.6882    1.0000 </r>
       <r>   -1.4803    1.0000 </r>
       <r>   -1.4803    1.0000 </r>
       <r>   -1.1558    1.0000 </r>
       <r>   -1.1558    1.0000 </r>
       <r>   -1.0695    1.0000 </r>
       <r>   -1.0695    1.0000 </r>
       <r>   -0.9645    1.0000 </r>
       <r>   -0.9645    1.0000 </r>
       <r>   -0.9087    1.0000 </r>
       <r>   -0.9087    1.0000 </r>
       <r>   -0.8412    1.0000 </r>
       <r>   -0.8412    1.0000 </r>
       <r>   -0.8195    1.0000 </r>
       <r>   -0.8195    1.0000 </r>
       <r>   -0.6447    1.0000 </r>
       <r>   -0.6447    1.0000 </r>
       <r>   -0.5844    1.0000 </r>
       <r>   -0.5844    1.0000 </r>
       <r>   -0.4886    1.0000 </r>
       <r>   -0.4886    1.0000 </r>
       <r>   -0.4164    1.0000 </r>
       <r>   -0.4164    1.0000 </r>
       <r>   -0.1527    1.0000 </r>
       <r>   -0.1527    1.0000 </r>
       <r>    0.1020    1.0000 </r>
       <r>    0.1020    1.0000 </r>
       <r>    4.4466    0.0000 </r>
       <r>    4.4466    0.0000 </r>
       <r>    4.6945    0.0000 </r>
       <r>    4.6945    0.0000 </r>
       <r>    5.1860    0.0000 </r>
       <r>    5.1860    0.0000 </r>
       <r>    5.4539    0.0000 </r>
       <r>    5.4539    0.0000 </r>
       <r>    5.8130    0.0000 </r>
       <r>    5.8130    0.0000 </r>
       <r>    6.0774    0.0000 </r>
       <r>    6.0774    0.0000 </r>
       <r>    6.9567    0.0000 </r>
       <r>    6.9567    0.0000 </r>
       <r>    7.0865    0.0000 </r>
       <r>    7.0865    0.0000 </r>
       <r>    7.3790    0.0000 </r>
       <r>    7.3790    0.0000 </r>
       <r>    7.3925    0.0000 </r>
       <r>    7.3925    0.0000 </r>
       <r>    7.8008    0.0000 </r>
       <r>    7.8008    0.0000 </r>
       <r>    8.0444    0.0000 </r>
       <r>    8.0445    0.0000 </r>
      </set>
      <set comment="kpoint 8">
       <r>  -19.9106    1.0000 </r>
       <r>  -19.9106    1.0000 </r>
       <r>  -19.9070    1.0000 </r>
       <r>  -19.9070    1.0000 </r>
       <r>  -15.7656    1.0000 </r>
       <r>  -15.7656    1.0000 </r>
       <r>  -15.7504    1.0000 </r>
       <r>  -15.7504    1.0000 </r>
       <r>  -15.7177    1.0000 </r>
       <r>  -15.7177    1.0000 </r>
       <r>  -15.6954    1.0000 </r>
       <r>  -15.6954    1.0000 </r>
       <r>  -15.6072    1.0000 </r>
       <r>  -15.6072    1.0000 </r>
       <r>  -15.6071    1.0000 </r>
       <r>  -15.6071    1.0000 </r>
       <r>  -15.5932    1.0000 </r>
       <r>  -15.5932    1.0000 </r>
       <r>  -15.5930    1.0000 </r>
       <r>  -15.5930    1.0000 </r>
       <r>  -15.5781    1.0000 </r>
       <r>  -15.5781    1.0000 </r>
       <r>  -15.5780    1.0000 </r>
       <r>  -15.5780    1.0000 </r>
       <r>  -13.7096    1.0000 </r>
       <r>  -13.7096    1.0000 </r>
       <r>  -13.6122    1.0000 </r>
       <r>  -13.6122    1.0000 </r>
       <r>  -13.4823    1.0000 </r>
       <r>  -13.4823    1.0000 </r>
       <r>  -13.4010    1.0000 </r>
       <r>  -13.4010    1.0000 </r>
       <r>  -13.2670    1.0000 </r>
       <r>  -13.2670    1.0000 </r>
       <r>  -13.2274    1.0000 </r>
       <r>  -13.2274    1.0000 </r>
       <r>   -7.0269    1.0000 </r>
       <r>   -7.0269    1.0000 </r>
       <r>   -6.7698    1.0000 </r>
       <r>   -6.7698    1.0000 </r>
       <r>   -6.4221    1.0000 </r>
       <r>   -6.4221    1.0000 </r>
       <r>   -6.3852    1.0000 </r>
       <r>   -6.3852    1.0000 </r>
       <r>   -6.3665    1.0000 </r>
       <r>   -6.3665    1.0000 </r>
       <r>   -6.3618    1.0000 </r>
       <r>   -6.3618    1.0000 </r>
       <r>   -6.3176    1.0000 </r>
       <r>   -6.3176    1.0000 </r>
       <r>   -6.2914    1.0000 </r>
       <r>   -6.2914    1.0000 </r>
       <r>   -2.6021    1.0000 </r>
       <r>   -2.6021    1.0000 </r>
       <r>   -2.2585    1.0000 </r>
       <r>   -2.2585    1.0000 </r>
       <r>   -1.9877    1.0000 </r>
       <r>   -1.9877    1.0000 </r>
       <r>   -1.8993    1.0000 </r>
       <r>   -1.8993    1.0000 </r>
       <r>   -1.7108    1.0000 </r>
       <r>   -1.7108    1.0000 </r>
       <r>   -1.5184    1.0000 </r>
       <r>   -1.5184    1.0000 </r>
       <r>   -1.2336    1.0000 </r>
       <r>   -1.2336    1.0000 </r>
       <r>   -1.1738    1.0000 </r>
       <r>   -1.1738    1.0000 </r>
       <r>   -0.9836    1.0000 </r>
       <r>   -0.9836    1.0000 </r>
       <r>   -0.8560    1.0000 </r>
       <r>   -0.8560    1.0000 </r>
       <r>   -0.7878    1.0000 </r>
       <r>   -0.7878    1.0000 </r>
       <r>   -0.6691    1.0000 </r>
       <r>   -0.6691    1.0000 </r>
       <r>   -0.5573    1.0000 </r>
       <r>   -0.5573    1.0000 </r>
       <r>   -0.5100    1.0000 </r>
       <r>   -0.5100    1.0000 </r>
       <r>   -0.4737    1.0000 </r>
       <r>   -0.4737    1.0000 </r>
       <r>   -0.4086    1.0000 </r>
       <r>   -0.4086    1.0000 </r>
       <r>   -0.0796    1.0000 </r>
       <r>   -0.0796    1.0000 </r>
       <r>    0.1447    1.0000 </r>
       <r>    0.1447    1.0000 </r>
       <r>    4.0552    0.0000 </r>
       <r>    4.0552    0.0000 </r>
       <r>    4.7784    0.0000 </r>
       <r>    4.7784    0.0000 </r>
       <r>    5.2141    0.0000 </r>
       <r>    5.2141    0.0000 </r>
       <r>    5.3048    0.0000 </r>
       <r>    5.3048    0.0000 </r>
       <r>    5.8659    0.0000 </r>
       <r>    5.8659    0.0000 </r>
       <r>    6.4366    0.0000 </r>
       <r>    6.4366    0.0000 </r>
       <r>    7.1312    0.0000 </r>
       <r>    7.1312    0.0000 </r>
       <r>    7.2660    0.0000 </r>
       <r>    7.2660    0.0000 </r>
       <r>    7.4639    0.0000 </r>
       <r>    7.4639    0.0000 </r>
       <r>    7.6099    0.0000 </r>
       <r>    7.6099    0.0000 </r>
       <r>    7.6871    0.0000 </r>
       <r>    7.6871    0.0000 </r>
       <r>    7.9600    0.0000 </r>
       <r>    7.9600    0.0000 </r>
      </set>
     </set>
    </set>
   </array>
  </eigenvalues>
  <separator name="orbital magnetization" >
   <v name="MAGDIPOLOUT">      0.00000000      0.00000000      0.00000000</v>
  </separator>
  <dos>
   <i name="efermi">      1.23235980 </i>
   <total>
    <array>
     <dimension dim="1">gridpoints</dimension>
     <dimension dim="2">spin</dimension>
     <field>energy</field>
     <field>total</field>
     <field>integrated</field>
     <set>
      <set comment="spin 1">
       <r>   -21.3239     0.0000     0.0000 </r>
       <r>   -21.2207     0.0000     0.0000 </r>
       <r>   -21.1174     0.0000     0.0000 </r>
       <r>   -21.0142     0.0000     0.0000 </r>
       <r>   -20.9110     0.0000     0.0000 </r>
       <r>   -20.8077     0.0000     0.0000 </r>
       <r>   -20.7045     0.0000     0.0000 </r>
       <r>   -20.6013     0.0000     0.0000 </r>
       <r>   -20.4980     0.0000     0.0000 </r>
       <r>   -20.3948     0.0000     0.0000 </r>
       <r>   -20.2916     0.0000     0.0000 </r>
       <r>   -20.1883     0.0000     0.0000 </r>
       <r>   -20.0851     0.0000     0.0000 </r>
       <r>   -19.9819     0.0000     0.0000 </r>
       <r>   -19.8786    77.4926     7.9997 </r>
       <r>   -19.7754     0.0000     8.0000 </r>
       <r>   -19.6722     0.0000     8.0000 </r>
       <r>   -19.5690     0.0000     8.0000 </r>
       <r>   -19.4657     0.0000     8.0000 </r>
       <r>   -19.3625     0.0000     8.0000 </r>
       <r>   -19.2593     0.0000     8.0000 </r>
       <r>   -19.1560     0.0000     8.0000 </r>
       <r>   -19.0528     0.0000     8.0000 </r>
       <r>   -18.9496     0.0000     8.0000 </r>
       <r>   -18.8463     0.0000     8.0000 </r>
       <r>   -18.7431     0.0000     8.0000 </r>
       <r>   -18.6399     0.0000     8.0000 </r>
       <r>   -18.5366     0.0000     8.0000 </r>
       <r>   -18.4334     0.0000     8.0000 </r>
       <r>   -18.3302     0.0000     8.0000 </r>
       <r>   -18.2269     0.0000     8.0000 </r>
       <r>   -18.1237     0.0000     8.0000 </r>
       <r>   -18.0205     0.0000     8.0000 </r>
       <r>   -17.9172     0.0000     8.0000 </r>
       <r>   -17.8140     0.0000     8.0000 </r>
       <r>   -17.7108     0.0000     8.0000 </r>
       <r>   -17.6075     0.0000     8.0000 </r>
       <r>   -17.5043     0.0000     8.0000 </r>
       <r>   -17.4011     0.0000     8.0000 </r>
       <r>   -17.2978     0.0000     8.0000 </r>
       <r>   -17.1946     0.0000     8.0000 </r>
       <r>   -17.0914     0.0000     8.0000 </r>
       <r>   -16.9881     0.0000     8.0000 </r>
       <r>   -16.8849     0.0000     8.0000 </r>
       <r>   -16.7817     0.0000     8.0000 </r>
       <r>   -16.6784     0.0000     8.0000 </r>
       <r>   -16.5752     0.0000     8.0000 </r>
       <r>   -16.4720     0.0000     8.0000 </r>
       <r>   -16.3687     0.0000     8.0000 </r>
       <r>   -16.2655     0.0000     8.0000 </r>
       <r>   -16.1623     0.0000     8.0000 </r>
       <r>   -16.0591     0.0000     8.0000 </r>
       <r>   -15.9558     0.0000     8.0000 </r>
       <r>   -15.8526     0.0000     8.0000 </r>
       <r>   -15.7494    56.7085    13.8541 </r>
       <r>   -15.6461    64.5467    23.9967 </r>
       <r>   -15.5429   232.4853    48.0000 </r>
       <r>   -15.4397     0.0000    48.0000 </r>
       <r>   -15.3364     0.0000    48.0000 </r>
       <r>   -15.2332     0.0000    48.0000 </r>
       <r>   -15.1300     0.0000    48.0000 </r>
       <r>   -15.0267     0.0000    48.0000 </r>
       <r>   -14.9235     0.0000    48.0000 </r>
       <r>   -14.8203     0.0000    48.0000 </r>
       <r>   -14.7170     0.0000    48.0000 </r>
       <r>   -14.6138     0.0000    48.0000 </r>
       <r>   -14.5106     0.0000    48.0000 </r>
       <r>   -14.4073     0.0000    48.0000 </r>
       <r>   -14.3041     0.0000    48.0000 </r>
       <r>   -14.2009     0.0000    48.0000 </r>
       <r>   -14.0976     0.0000    48.0000 </r>
       <r>   -13.9944     0.0000    48.0000 </r>
       <r>   -13.8912     0.0110    48.0011 </r>
       <r>   -13.7879     6.4840    48.7805 </r>
       <r>   -13.6847    17.7566    51.0553 </r>
       <r>   -13.5815    28.3105    54.2559 </r>
       <r>   -13.4782    38.4183    58.6328 </r>
       <r>   -13.3750    27.0044    62.4544 </r>
       <r>   -13.2718    29.6050    66.7230 </r>
       <r>   -13.1685    35.8625    71.1466 </r>
       <r>   -13.0653     0.0000    72.0000 </r>
       <r>   -12.9621     0.0000    72.0000 </r>
       <r>   -12.8589     0.0000    72.0000 </r>
       <r>   -12.7556     0.0000    72.0000 </r>
       <r>   -12.6524     0.0000    72.0000 </r>
       <r>   -12.5492     0.0000    72.0000 </r>
       <r>   -12.4459     0.0000    72.0000 </r>
       <r>   -12.3427     0.0000    72.0000 </r>
       <r>   -12.2395     0.0000    72.0000 </r>
       <r>   -12.1362     0.0000    72.0000 </r>
       <r>   -12.0330     0.0000    72.0000 </r>
       <r>   -11.9298     0.0000    72.0000 </r>
       <r>   -11.8265     0.0000    72.0000 </r>
       <r>   -11.7233     0.0000    72.0000 </r>
       <r>   -11.6201     0.0000    72.0000 </r>
       <r>   -11.5168     0.0000    72.0000 </r>
       <r>   -11.4136     0.0000    72.0000 </r>
       <r>   -11.3104     0.0000    72.0000 </r>
       <r>   -11.2071     0.0000    72.0000 </r>
       <r>   -11.1039     0.0000    72.0000 </r>
       <r>   -11.0007     0.0000    72.0000 </r>
       <r>   -10.8974     0.0000    72.0000 </r>
       <r>   -10.7942     0.0000    72.0000 </r>
       <r>   -10.6910     0.0000    72.0000 </r>
       <r>   -10.5877     0.0000    72.0000 </r>
       <r>   -10.4845     0.0000    72.0000 </r>
       <r>   -10.3813     0.0000    72.0000 </r>
       <r>   -10.2780     0.0000    72.0000 </r>
       <r>   -10.1748     0.0000    72.0000 </r>
       <r>   -10.0716     0.0000    72.0000 </r>
       <r>    -9.9683     0.0000    72.0000 </r>
       <r>    -9.8651     0.0000    72.0000 </r>
       <r>    -9.7619     0.0000    72.0000 </r>
       <r>    -9.6586     0.0000    72.0000 </r>
       <r>    -9.5554     0.0000    72.0000 </r>
       <r>    -9.4522     0.0000    72.0000 </r>
       <r>    -9.3490     0.0000    72.0000 </r>
       <r>    -9.2457     0.0000    72.0000 </r>
       <r>    -9.1425     0.0000    72.0000 </r>
       <r>    -9.0393     0.0000    72.0000 </r>
       <r>    -8.9360     0.0000    72.0000 </r>
       <r>    -8.8328     0.0000    72.0000 </r>
       <r>    -8.7296     0.0000    72.0000 </r>
       <r>    -8.6263     0.0000    72.0000 </r>
       <r>    -8.5231     0.0000    72.0000 </r>
       <r>    -8.4199     0.0000    72.0000 </r>
       <r>    -8.3166     0.0000    72.0000 </r>
       <r>    -8.2134     0.0000    72.0000 </r>
       <r>    -8.1102     0.0000    72.0000 </r>
       <r>    -8.0069     0.0000    72.0000 </r>
       <r>    -7.9037     0.0000    72.0000 </r>
       <r>    -7.8005     0.0000    72.0000 </r>
       <r>    -7.6972     0.0000    72.0000 </r>
       <r>    -7.5940     1.0763    72.1111 </r>
       <r>    -7.4908     0.0000    72.1111 </r>
       <r>    -7.3875     5.0544    72.6329 </r>
       <r>    -7.2843     2.7042    73.0569 </r>
       <r>    -7.1811     0.1644    73.2392 </r>
       <r>    -7.0778     1.0568    74.2202 </r>
       <r>    -6.9746    12.9159    75.5556 </r>
       <r>    -6.8714     6.1762    76.1931 </r>
       <r>    -6.7681     5.0897    76.9699 </r>
       <r>    -6.6649     8.2720    78.1873 </r>
       <r>    -6.5617     1.0748    78.7776 </r>
       <r>    -6.4584     8.2830    79.6329 </r>
       <r>    -6.3552   110.3730    92.9497 </r>
       <r>    -6.2520    63.4321   103.2151 </r>
       <r>    -6.1488     6.0876   103.8507 </r>
       <r>    -6.0455     0.0000   103.8889 </r>
       <r>    -5.9423     0.0000   103.8889 </r>
       <r>    -5.8391     0.2202   103.9116 </r>
       <r>    -5.7358     0.0000   104.0000 </r>
       <r>    -5.6326     0.0000   104.0000 </r>
       <r>    -5.5294     0.0000   104.0000 </r>
       <r>    -5.4261     0.0000   104.0000 </r>
       <r>    -5.3229     0.0000   104.0000 </r>
       <r>    -5.2197     0.0000   104.0000 </r>
       <r>    -5.1164     0.0000   104.0000 </r>
       <r>    -5.0132     0.0000   104.0000 </r>
       <r>    -4.9100     0.0000   104.0000 </r>
       <r>    -4.8067     0.0000   104.0000 </r>
       <r>    -4.7035     0.0000   104.0000 </r>
       <r>    -4.6003     0.0000   104.0000 </r>
       <r>    -4.4970     0.0000   104.0000 </r>
       <r>    -4.3938     0.0000   104.0000 </r>
       <r>    -4.2906     0.0000   104.0000 </r>
       <r>    -4.1873     0.0000   104.0000 </r>
       <r>    -4.0841     0.0000   104.0000 </r>
       <r>    -3.9809     0.0000   104.0000 </r>
       <r>    -3.8776     0.0000   104.0000 </r>
       <r>    -3.7744     0.0000   104.0000 </r>
       <r>    -3.6712     0.0000   104.0000 </r>
       <r>    -3.5679     0.0000   104.0000 </r>
       <r>    -3.4647     0.0000   104.0000 </r>
       <r>    -3.3615     0.0000   104.0000 </r>
       <r>    -3.2582     0.0000   104.0000 </r>
       <r>    -3.1550     0.0000   104.0000 </r>
       <r>    -3.0518     0.0000   104.0000 </r>
       <r>    -2.9485     0.3437   104.0355 </r>
       <r>    -2.8453     1.0804   104.2226 </r>
       <r>    -2.7421    10.7979   105.7814 </r>
       <r>    -2.6389     8.3616   106.8632 </r>
       <r>    -2.5356    13.9927   108.3334 </r>
       <r>    -2.4324    10.1237   109.3785 </r>
       <r>    -2.3292    10.7588   110.6662 </r>
       <r>    -2.2259    19.3832   112.6676 </r>
       <r>    -2.1227     5.7640   113.7061 </r>
       <r>    -2.0195     0.0000   113.7778 </r>
       <r>    -1.9162    19.6960   115.8110 </r>
       <r>    -1.8130    15.1909   118.4571 </r>
       <r>    -1.7098     8.4719   119.5413 </r>
       <r>    -1.6065    12.1383   122.0308 </r>
       <r>    -1.5033    24.4099   125.2977 </r>
       <r>    -1.4001     5.5701   126.6861 </r>
       <r>    -1.2968     1.2135   126.9030 </r>
       <r>    -1.1936    25.5287   129.9687 </r>
       <r>    -1.0904    23.1353   133.4994 </r>
       <r>    -0.9871    20.6370   136.3526 </r>
       <r>    -0.8839    33.8331   141.2705 </r>
       <r>    -0.7807    58.3774   147.6932 </r>
       <r>    -0.6774    27.6357   152.1862 </r>
       <r>    -0.5742    26.5797   155.7439 </r>
       <r>    -0.4710    51.2058   162.7305 </r>
       <r>    -0.3677    26.0049   167.0180 </r>
       <r>    -0.2645     3.0970   167.8753 </r>
       <r>    -0.1613     3.7126   168.2722 </r>
       <r>    -0.0580    16.1347   170.3323 </r>
       <r>     0.0452     9.4480   171.3087 </r>
       <r>     0.1484    10.3456   172.7347 </r>
       <r>     0.2517     5.3815   173.5556 </r>
       <r>     0.3549     4.3073   174.0002 </r>
       <r>     0.4581     2.1517   174.6667 </r>
       <r>     0.5613     0.0017   174.6668 </r>
       <r>     0.6646     6.4418   175.4428 </r>
       <r>     0.7678     2.1532   175.6667 </r>
       <r>     0.8710     2.1521   175.8889 </r>
       <r>     0.9743     0.0000   175.8889 </r>
       <r>     1.0775     0.0000   175.8889 </r>
       <r>     1.1807     0.5534   175.9460 </r>
       <r>     1.2840     0.0000   176.0000 </r>
       <r>     1.3872     0.0000   176.0000 </r>
       <r>     1.4904     0.0000   176.0000 </r>
       <r>     1.5937     0.0000   176.0000 </r>
       <r>     1.6969     0.0000   176.0000 </r>
       <r>     1.8001     0.0000   176.0000 </r>
       <r>     1.9034     0.0000   176.0000 </r>
       <r>     2.0066     0.0000   176.0000 </r>
       <r>     2.1098     0.0000   176.0000 </r>
       <r>     2.2131     0.0000   176.0000 </r>
       <r>     2.3163     0.0000   176.0000 </r>
       <r>     2.4195     0.0000   176.0000 </r>
       <r>     2.5228     0.0000   176.0000 </r>
       <r>     2.6260     0.0000   176.0000 </r>
       <r>     2.7292     0.0000   176.0000 </r>
       <r>     2.8325     0.0000   176.0000 </r>
       <r>     2.9357     0.0000   176.0000 </r>
       <r>     3.0389     0.0000   176.0000 </r>
       <r>     3.1422     0.0000   176.0000 </r>
       <r>     3.2454     0.0000   176.0000 </r>
       <r>     3.3486     0.0000   176.0000 </r>
       <r>     3.4519     1.0765   176.1111 </r>
       <r>     3.5551     1.0762   176.2222 </r>
       <r>     3.6583     5.1648   176.7554 </r>
       <r>     3.7616     4.3053   177.3333 </r>
       <r>     3.8648     8.0664   178.1661 </r>
       <r>     3.9680     3.3667   178.7920 </r>
       <r>     4.0712     9.0967   179.8280 </r>
       <r>     4.1745     2.2091   180.2281 </r>
       <r>     4.2777     7.8753   181.1463 </r>
       <r>     4.3809     0.7972   181.5267 </r>
       <r>     4.4842     4.3136   182.0009 </r>
       <r>     4.5874     2.1550   182.4448 </r>
       <r>     4.6906     1.5045   183.0442 </r>
       <r>     4.7939     8.4870   184.6539 </r>
       <r>     4.8971     4.3056   185.1111 </r>
       <r>     5.0003     6.3790   185.7697 </r>
       <r>     5.1036     1.3489   185.9170 </r>
       <r>     5.2068     5.5943   186.7997 </r>
       <r>     5.3100    10.9222   188.6831 </r>
       <r>     5.4133     3.9272   189.2943 </r>
       <r>     5.5165    10.7629   190.4444 </r>
       <r>     5.6197     4.3053   190.8889 </r>
       <r>     5.7230     4.3053   191.3333 </r>
       <r>     5.8262     6.3259   191.9864 </r>
       <r>     5.9294    10.7632   193.1111 </r>
       <r>     6.0327     9.6869   194.1111 </r>
       <r>     6.1359     8.6106   195.0000 </r>
       <r>     6.2391     6.1481   195.6347 </r>
       <r>     6.3424     0.0000   196.0000 </r>
       <r>     6.4456     9.0721   196.9365 </r>
       <r>     6.5488     3.2289   197.5556 </r>
       <r>     6.6521     9.2328   198.5087 </r>
       <r>     6.7553     2.1546   199.0002 </r>
       <r>     6.8585     4.3053   199.5556 </r>
       <r>     6.9618     9.7300   200.5600 </r>
       <r>     7.0650    11.7887   202.8836 </r>
       <r>     7.1682    23.7045   205.7804 </r>
       <r>     7.2714    14.4022   207.3757 </r>
       <r>     7.3747     9.8770   208.7974 </r>
       <r>     7.4779    23.6192   212.1049 </r>
       <r>     7.5811    14.9605   213.7667 </r>
       <r>     7.6844    22.4966   216.6557 </r>
       <r>     7.7876     7.2066   218.2995 </r>
       <r>     7.8908     9.7265   220.3375 </r>
       <r>     7.9941    17.2333   222.3346 </r>
       <r>     8.0973     7.4578   223.3254 </r>
       <r>     8.2005     3.2290   223.8889 </r>
       <r>     8.3038     1.0763   224.0000 </r>
       <r>     8.4070     0.0000   224.0000 </r>
       <r>     8.5102     0.0000   224.0000 </r>
       <r>     8.6135     0.0000   224.0000 </r>
       <r>     8.7167     0.0000   224.0000 </r>
       <r>     8.8199     0.0000   224.0000 </r>
       <r>     8.9232     0.0000   224.0000 </r>
       <r>     9.0264     0.0000   224.0000 </r>
       <r>     9.1296     0.0000   224.0000 </r>
       <r>     9.2329     0.0000   224.0000 </r>
       <r>     9.3361     0.0000   224.0000 </r>
       <r>     9.4393     0.0000   224.0000 </r>
       <r>     9.5426     0.0000   224.0000 </r>
       <r>     9.6458     0.0000   224.0000 </r>
      </set>
     </set>
    </array>
   </total>
   <partial>
    <array>
     <dimension dim="1">gridpoints</dimension>
     <dimension dim="2">spin</dimension>
     <dimension dim="3">ion</dimension>
     <field>energy</field>
     <field>  s  </field>
     <field>  p  </field>
     <field>  d  </field>
     <set>
      <set comment="ion 1">
       <set comment="spin 1">
        <r>   -21.3239     0.0000     0.0000     0.0000 </r>
[...]
        <r>  0.0000  0.0002  0.0006 </r>
        <r>  0.0001  0.0061  0.0001 </r>
        <r>  0.0001  0.0024  0.0004 </r>
        <r>  0.0019  0.1974  0.0014 </r>
        <r>  0.0028  0.1317  0.0021 </r>
        <r>  0.0003  0.0046  0.0020 </r>
        <r>  0.0001  0.0032  0.0010 </r>
        <r>  0.0000  0.0024  0.0013 </r>
        <r>  0.0004  0.0057  0.0015 </r>
        <r>  0.0143  0.0346  0.0078 </r>
        <r>  0.0018  0.0167  0.0010 </r>
        <r>  0.0000  0.0005  0.0001 </r>
        <r>  0.0004  0.0011  0.0003 </r>
        <r>  0.0002  0.0021  0.0002 </r>
        <r>  0.0000  0.0004  0.0000 </r>
        <r>  0.0145  0.0335  0.0079 </r>
        <r>  0.0018  0.0168  0.0010 </r>
       </set>
       <set comment="band 93">
        <r>  0.0000  0.0002  0.0006 </r>
        <r>  0.0006  0.0005  0.0007 </r>
        <r>  0.0000  0.0001  0.0012 </r>
        <r>  0.0000  0.0008  0.0024 </r>
        <r>  0.0023  0.1341  0.0012 </r>
        <r>  0.0013  0.0662  0.0007 </r>
        <r>  0.0022  0.0350  0.0011 </r>
        <r>  0.0045  0.0686  0.0022 </r>
        <r>  0.0071  0.0024  0.0027 </r>
        <r>  0.0004  0.0792  0.0009 </r>
        <r>  0.0136  0.0046  0.0057 </r>
        <r>  0.0002  0.0408  0.0011 </r>
        <r>  0.0002  0.0063  0.0010 </r>
        <r>  0.0000  0.0013  0.0016 </r>
        <r>  0.0000  0.0018  0.0028 </r>
        <r>  0.0007  0.0074  0.0019 </r>
        <r>  0.0005  0.0104  0.0017 </r>
        <r>  0.0000  0.0022  0.0028 </r>
        <r>  0.0004  0.0034  0.0011 </r>
        <r>  0.0000  0.0009  0.0015 </r>
       </set>
       <set comment="band 94">
        <r>  0.0000  0.0008  0.0024 </r>
        <r>  0.0000  0.0001  0.0012 </r>
        <r>  0.0006  0.0005  0.0007 </r>
        <r>  0.0000  0.0002  0.0006 </r>
        <r>  0.0045  0.0686  0.0022 </r>
        <r>  0.0022  0.0350  0.0011 </r>
        <r>  0.0013  0.0662  0.0007 </r>
        <r>  0.0023  0.1341  0.0012 </r>
        <r>  0.0002  0.0408  0.0011 </r>
        <r>  0.0136  0.0046  0.0057 </r>
        <r>  0.0004  0.0792  0.0009 </r>
        <r>  0.0071  0.0024  0.0027 </r>
        <r>  0.0007  0.0074  0.0019 </r>
        <r>  0.0000  0.0018  0.0028 </r>
        <r>  0.0000  0.0013  0.0016 </r>
        <r>  0.0002  0.0063  0.0010 </r>
        <r>  0.0004  0.0034  0.0011 </r>
        <r>  0.0000  0.0009  0.0015 </r>
        <r>  0.0005  0.0104  0.0017 </r>
        <r>  0.0000  0.0022  0.0028 </r>
       </set>
       <set comment="band 95">
        <r>  0.0000  0.0002  0.0004 </r>
        <r>  0.0000  0.0008  0.0019 </r>
        <r>  0.0000  0.0004  0.0005 </r>
        <r>  0.0003  0.0003  0.0007 </r>
        <r>  0.0017  0.0265  0.0010 </r>
        <r>  0.0047  0.0572  0.0028 </r>
        <r>  0.0018  0.1599  0.0011 </r>
        <r>  0.0007  0.0662  0.0007 </r>
        <r>  0.0136  0.0057  0.0062 </r>
        <r>  0.0003  0.0253  0.0012 </r>
        <r>  0.0046  0.0024  0.0021 </r>
        <r>  0.0009  0.0756  0.0006 </r>
        <r>  0.0005  0.0104  0.0030 </r>
        <r>  0.0001  0.0069  0.0021 </r>
        <r>  0.0000  0.0043  0.0010 </r>
        <r>  0.0004  0.0039  0.0016 </r>
        <r>  0.0002  0.0042  0.0011 </r>
        <r>  0.0000  0.0020  0.0009 </r>
        <r>  0.0007  0.0102  0.0035 </r>
        <r>  0.0001  0.0092  0.0023 </r>
       </set>
       <set comment="band 96">
        <r>  0.0003  0.0003  0.0007 </r>
        <r>  0.0000  0.0004  0.0005 </r>
        <r>  0.0000  0.0008  0.0019 </r>
        <r>  0.0000  0.0002  0.0004 </r>
        <r>  0.0007  0.0662  0.0007 </r>
        <r>  0.0018  0.1599  0.0011 </r>
        <r>  0.0047  0.0572  0.0028 </r>
        <r>  0.0017  0.0265  0.0010 </r>
        <r>  0.0009  0.0756  0.0006 </r>
        <r>  0.0046  0.0024  0.0021 </r>
        <r>  0.0003  0.0253  0.0012 </r>
        <r>  0.0136  0.0057  0.0062 </r>
        <r>  0.0004  0.0039  0.0016 </r>
        <r>  0.0000  0.0043  0.0010 </r>
        <r>  0.0001  0.0069  0.0021 </r>
        <r>  0.0005  0.0104  0.0030 </r>
        <r>  0.0007  0.0102  0.0035 </r>
        <r>  0.0001  0.0092  0.0023 </r>
        <r>  0.0002  0.0042  0.0011 </r>
        <r>  0.0000  0.0020  0.0009 </r>
       </set>
       <set comment="band 97">
        <r>  0.0000  0.0001  0.0021 </r>
        <r>  0.0001  0.0004  0.0013 </r>
        <r>  0.0000  0.0001  0.0035 </r>
        <r>  0.0002  0.0004  0.0019 </r>
        <r>  0.0025  0.1597  0.0010 </r>
        <r>  0.0029  0.0699  0.0012 </r>
        <r>  0.0011  0.0232  0.0007 </r>
        <r>  0.0024  0.0539  0.0014 </r>
        <r>  0.0006  0.0048  0.0009 </r>
        <r>  0.0004  0.0231  0.0037 </r>
        <r>  0.0050  0.0035  0.0034 </r>
        <r>  0.0000  0.0035  0.0032 </r>
        <r>  0.0006  0.0184  0.0016 </r>
        <r>  0.0004  0.0007  0.0013 </r>
        <r>  0.0005  0.0041  0.0029 </r>
        <r>  0.0040  0.0446  0.0030 </r>
        <r>  0.0028  0.0500  0.0036 </r>
        <r>  0.0009  0.0028  0.0033 </r>
        <r>  0.0018  0.0130  0.0010 </r>
        <r>  0.0001  0.0021  0.0009 </r>
       </set>
       <set comment="band 98">
        <r>  0.0002  0.0004  0.0019 </r>
        <r>  0.0000  0.0001  0.0035 </r>
        <r>  0.0001  0.0004  0.0013 </r>
        <r>  0.0000  0.0001  0.0021 </r>
        <r>  0.0024  0.0539  0.0014 </r>
        <r>  0.0011  0.0232  0.0007 </r>
        <r>  0.0029  0.0699  0.0012 </r>
        <r>  0.0025  0.1597  0.0010 </r>
        <r>  0.0000  0.0035  0.0032 </r>
        <r>  0.0050  0.0035  0.0034 </r>
        <r>  0.0004  0.0231  0.0037 </r>
        <r>  0.0006  0.0048  0.0009 </r>
        <r>  0.0040  0.0446  0.0030 </r>
        <r>  0.0005  0.0041  0.0029 </r>
        <r>  0.0004  0.0007  0.0013 </r>
        <r>  0.0006  0.0184  0.0016 </r>
        <r>  0.0018  0.0130  0.0010 </r>
        <r>  0.0001  0.0021  0.0009 </r>
        <r>  0.0028  0.0500  0.0036 </r>
        <r>  0.0009  0.0028  0.0033 </r>
       </set>
       <set comment="band 99">
        <r>  0.0000  0.0000  0.0019 </r>
        <r>  0.0001  0.0002  0.0037 </r>
        <r>  0.0000  0.0001  0.0049 </r>
        <r>  0.0000  0.0002  0.0017 </r>
        <r>  0.0000  0.0144  0.0008 </r>
        <r>  0.0007  0.0220  0.0010 </r>
        <r>  0.0001  0.1574  0.0003 </r>
        <r>  0.0000  0.1008  0.0008 </r>
        <r>  0.0009  0.0020  0.0026 </r>
        <r>  0.0000  0.0012  0.0038 </r>
        <r>  0.0001  0.0040  0.0012 </r>
        <r>  0.0002  0.0058  0.0041 </r>
        <r>  0.0002  0.0028  0.0052 </r>
        <r>  0.0001  0.0727  0.0037 </r>
        <r>  0.0000  0.0131  0.0007 </r>
        <r>  0.0003  0.0004  0.0011 </r>
        <r>  0.0001  0.0009  0.0007 </r>
        <r>  0.0000  0.0086  0.0011 </r>
        <r>  0.0004  0.0024  0.0056 </r>
        <r>  0.0001  0.0771  0.0034 </r>
       </set>
       <set comment="band 100">
        <r>  0.0000  0.0002  0.0017 </r>
        <r>  0.0000  0.0001  0.0049 </r>
        <r>  0.0001  0.0002  0.0037 </r>
        <r>  0.0000  0.0000  0.0019 </r>
        <r>  0.0000  0.1008  0.0008 </r>
        <r>  0.0001  0.1574  0.0003 </r>
        <r>  0.0007  0.0220  0.0010 </r>
        <r>  0.0000  0.0144  0.0008 </r>
        <r>  0.0002  0.0058  0.0041 </r>
        <r>  0.0001  0.0040  0.0012 </r>
        <r>  0.0000  0.0012  0.0038 </r>
        <r>  0.0009  0.0020  0.0026 </r>
        <r>  0.0003  0.0004  0.0011 </r>
        <r>  0.0000  0.0131  0.0007 </r>
        <r>  0.0001  0.0727  0.0037 </r>
        <r>  0.0002  0.0028  0.0052 </r>
        <r>  0.0004  0.0024  0.0056 </r>
        <r>  0.0001  0.0771  0.0034 </r>
        <r>  0.0001  0.0009  0.0007 </r>
        <r>  0.0000  0.0086  0.0011 </r>
       </set>
       <set comment="band 101">
        <r>  0.0001  0.0013  0.0295 </r>
        <r>  0.0012  0.0004  0.0269 </r>
        <r>  0.0017  0.0006  0.0383 </r>
        <r>  0.0000  0.0010  0.0246 </r>
        <r>  0.0001  0.0130  0.0000 </r>
        <r>  0.0003  0.0093  0.0005 </r>
        <r>  0.0000  0.0046  0.0015 </r>
        <r>  0.0001  0.0017  0.0015 </r>
        <r>  0.0000  0.0027  0.0048 </r>
        <r>  0.0010  0.0035  0.0057 </r>
        <r>  0.0007  0.0037  0.0041 </r>
        <r>  0.0000  0.0036  0.0065 </r>
        <r>  0.0007  0.0031  0.0020 </r>
        <r>  0.0001  0.0042  0.0026 </r>
        <r>  0.0029  0.0048  0.0023 </r>
        <r>  0.0001  0.0025  0.0008 </r>
        <r>  0.0001  0.0023  0.0012 </r>
        <r>  0.0028  0.0036  0.0019 </r>
        <r>  0.0007  0.0034  0.0016 </r>
        <r>  0.0002  0.0054  0.0030 </r>
       </set>
       <set comment="band 102">
        <r>  0.0000  0.0010  0.0246 </r>
        <r>  0.0017  0.0006  0.0383 </r>
        <r>  0.0012  0.0004  0.0269 </r>
        <r>  0.0001  0.0013  0.0295 </r>
        <r>  0.0001  0.0017  0.0015 </r>
        <r>  0.0000  0.0046  0.0015 </r>
        <r>  0.0003  0.0093  0.0005 </r>
        <r>  0.0001  0.0130  0.0000 </r>
        <r>  0.0000  0.0036  0.0065 </r>
        <r>  0.0007  0.0037  0.0041 </r>
        <r>  0.0010  0.0035  0.0057 </r>
        <r>  0.0000  0.0027  0.0048 </r>
        <r>  0.0001  0.0025  0.0008 </r>
        <r>  0.0029  0.0048  0.0023 </r>
        <r>  0.0001  0.0042  0.0026 </r>
        <r>  0.0007  0.0031  0.0020 </r>
        <r>  0.0007  0.0034  0.0016 </r>
        <r>  0.0002  0.0054  0.0030 </r>
        <r>  0.0001  0.0023  0.0012 </r>
        <r>  0.0028  0.0036  0.0019 </r>
       </set>
       <set comment="band 103">
        <r>  0.0027  0.0013  0.0272 </r>
        <r>  0.0013  0.0036  0.0212 </r>
        <r>  0.0013  0.0036  0.0211 </r>
        <r>  0.0027  0.0013  0.0274 </r>
        <r>  0.0002  0.0109  0.0014 </r>
        <r>  0.0000  0.0050  0.0005 </r>
        <r>  0.0002  0.0094  0.0004 </r>
        <r>  0.0000  0.0005  0.0002 </r>
        <r>  0.0007  0.0065  0.0027 </r>
        <r>  0.0014  0.0088  0.0033 </r>
        <r>  0.0014  0.0088  0.0033 </r>
        <r>  0.0007  0.0065  0.0027 </r>
        <r>  0.0019  0.0033  0.0027 </r>
        <r>  0.0001  0.0010  0.0008 </r>
        <r>  0.0021  0.0009  0.0026 </r>
        <r>  0.0020  0.0043  0.0037 </r>
        <r>  0.0019  0.0043  0.0037 </r>
        <r>  0.0021  0.0009  0.0026 </r>
        <r>  0.0019  0.0033  0.0027 </r>
        <r>  0.0001  0.0010  0.0008 </r>
       </set>
       <set comment="band 104">
        <r>  0.0027  0.0013  0.0274 </r>
        <r>  0.0013  0.0036  0.0211 </r>
        <r>  0.0013  0.0036  0.0212 </r>
        <r>  0.0027  0.0013  0.0272 </r>
        <r>  0.0000  0.0005  0.0002 </r>
        <r>  0.0002  0.0094  0.0004 </r>
        <r>  0.0000  0.0050  0.0005 </r>
        <r>  0.0002  0.0109  0.0014 </r>
        <r>  0.0007  0.0065  0.0027 </r>
        <r>  0.0014  0.0088  0.0033 </r>
        <r>  0.0014  0.0088  0.0033 </r>
        <r>  0.0007  0.0065  0.0027 </r>
        <r>  0.0020  0.0043  0.0037 </r>
        <r>  0.0021  0.0009  0.0026 </r>
        <r>  0.0001  0.0010  0.0008 </r>
        <r>  0.0019  0.0033  0.0027 </r>
        <r>  0.0019  0.0033  0.0027 </r>
        <r>  0.0001  0.0010  0.0008 </r>
        <r>  0.0019  0.0043  0.0037 </r>
        <r>  0.0021  0.0009  0.0026 </r>
       </set>
       <set comment="band 105">
        <r>  0.0003  0.0013  0.0339 </r>
        <r>  0.0013  0.0033  0.0245 </r>
        <r>  0.0001  0.0006  0.0318 </r>
        <r>  0.0042  0.0038  0.0175 </r>
        <r>  0.0001  0.0023  0.0014 </r>
        <r>  0.0010  0.0012  0.0014 </r>
        <r>  0.0004  0.0033  0.0022 </r>
        <r>  0.0001  0.0041  0.0014 </r>
        <r>  0.0019  0.0082  0.0029 </r>
        <r>  0.0000  0.0049  0.0024 </r>
        <r>  0.0006  0.0073  0.0029 </r>
        <r>  0.0001  0.0022  0.0021 </r>
        <r>  0.0014  0.0021  0.0040 </r>
        <r>  0.0036  0.0035  0.0058 </r>
        <r>  0.0011  0.0018  0.0016 </r>
        <r>  0.0007  0.0014  0.0025 </r>
        <r>  0.0016  0.0017  0.0028 </r>
        <r>  0.0039  0.0018  0.0044 </r>
        <r>  0.0005  0.0018  0.0036 </r>
        <r>  0.0009  0.0034  0.0031 </r>
       </set>
       <set comment="band 106">
        <r>  0.0042  0.0038  0.0175 </r>
        <r>  0.0001  0.0006  0.0318 </r>
        <r>  0.0013  0.0033  0.0245 </r>
        <r>  0.0003  0.0013  0.0339 </r>
        <r>  0.0001  0.0041  0.0014 </r>
        <r>  0.0004  0.0033  0.0022 </r>
        <r>  0.0010  0.0012  0.0014 </r>
        <r>  0.0001  0.0023  0.0014 </r>
        <r>  0.0001  0.0022  0.0021 </r>
        <r>  0.0006  0.0073  0.0029 </r>
        <r>  0.0000  0.0049  0.0024 </r>
        <r>  0.0019  0.0082  0.0029 </r>
        <r>  0.0007  0.0014  0.0025 </r>
        <r>  0.0011  0.0018  0.0016 </r>
        <r>  0.0036  0.0035  0.0058 </r>
        <r>  0.0014  0.0021  0.0040 </r>
        <r>  0.0005  0.0018  0.0036 </r>
        <r>  0.0009  0.0034  0.0031 </r>
        <r>  0.0016  0.0017  0.0028 </r>
        <r>  0.0039  0.0018  0.0044 </r>
       </set>
       <set comment="band 107">
        <r>  0.0005  0.0026  0.0579 </r>
        <r>  0.0001  0.0008  0.0140 </r>
        <r>  0.0020  0.0041  0.0365 </r>
        <r>  0.0000  0.0002  0.0186 </r>
        <r>  0.0001  0.0056  0.0012 </r>
        <r>  0.0002  0.0038  0.0002 </r>
        <r>  0.0005  0.0080  0.0005 </r>
        <r>  0.0001  0.0041  0.0007 </r>
        <r>  0.0004  0.0053  0.0008 </r>
        <r>  0.0005  0.0083  0.0073 </r>
        <r>  0.0000  0.0016  0.0016 </r>
        <r>  0.0058  0.0040  0.0056 </r>
        <r>  0.0001  0.0053  0.0035 </r>
        <r>  0.0001  0.0021  0.0029 </r>
        <r>  0.0001  0.0050  0.0026 </r>
        <r>  0.0022  0.0005  0.0024 </r>
        <r>  0.0003  0.0044  0.0039 </r>
        <r>  0.0001  0.0028  0.0039 </r>
        <r>  0.0019  0.0014  0.0021 </r>
        <r>  0.0002  0.0044  0.0016 </r>
       </set>
       <set comment="band 108">
        <r>  0.0000  0.0002  0.0186 </r>
        <r>  0.0020  0.0041  0.0365 </r>
        <r>  0.0001  0.0008  0.0140 </r>
        <r>  0.0005  0.0026  0.0579 </r>
        <r>  0.0001  0.0041  0.0007 </r>
        <r>  0.0005  0.0080  0.0005 </r>
        <r>  0.0002  0.0038  0.0002 </r>
        <r>  0.0001  0.0056  0.0012 </r>
        <r>  0.0058  0.0040  0.0056 </r>
        <r>  0.0000  0.0016  0.0016 </r>
        <r>  0.0005  0.0083  0.0073 </r>
        <r>  0.0004  0.0053  0.0008 </r>
        <r>  0.0022  0.0005  0.0024 </r>
        <r>  0.0001  0.0050  0.0026 </r>
        <r>  0.0001  0.0021  0.0029 </r>
        <r>  0.0001  0.0053  0.0035 </r>
        <r>  0.0019  0.0014  0.0021 </r>
        <r>  0.0002  0.0044  0.0016 </r>
        <r>  0.0003  0.0044  0.0039 </r>
        <r>  0.0001  0.0028  0.0039 </r>
       </set>
       <set comment="band 109">
        <r>  0.0000  0.0021  0.0292 </r>
        <r>  0.0027  0.0023  0.0170 </r>
        <r>  0.0003  0.0004  0.0433 </r>
        <r>  0.0002  0.0054  0.0300 </r>
        <r>  0.0003  0.0031  0.0007 </r>
        <r>  0.0001  0.0068  0.0026 </r>
        <r>  0.0002  0.0141  0.0032 </r>
        <r>  0.0002  0.0065  0.0017 </r>
        <r>  0.0009  0.0041  0.0015 </r>
        <r>  0.0003  0.0026  0.0009 </r>
        <r>  0.0026  0.0046  0.0025 </r>
        <r>  0.0001  0.0021  0.0041 </r>
        <r>  0.0004  0.0051  0.0048 </r>
        <r>  0.0000  0.0024  0.0056 </r>
        <r>  0.0016  0.0016  0.0042 </r>
        <r>  0.0006  0.0034  0.0045 </r>
        <r>  0.0003  0.0044  0.0025 </r>
        <r>  0.0004  0.0027  0.0049 </r>
        <r>  0.0007  0.0041  0.0067 </r>
        <r>  0.0012  0.0013  0.0050 </r>
       </set>
       <set comment="band 110">
        <r>  0.0002  0.0054  0.0300 </r>
        <r>  0.0003  0.0004  0.0433 </r>
        <r>  0.0027  0.0023  0.0170 </r>
        <r>  0.0000  0.0021  0.0292 </r>
        <r>  0.0002  0.0065  0.0017 </r>
        <r>  0.0002  0.0141  0.0032 </r>
        <r>  0.0001  0.0068  0.0026 </r>
        <r>  0.0003  0.0031  0.0007 </r>
        <r>  0.0001  0.0021  0.0041 </r>
        <r>  0.0026  0.0046  0.0025 </r>
        <r>  0.0003  0.0026  0.0009 </r>
        <r>  0.0009  0.0041  0.0015 </r>
        <r>  0.0006  0.0034  0.0045 </r>
        <r>  0.0016  0.0016  0.0042 </r>
        <r>  0.0000  0.0024  0.0056 </r>
        <r>  0.0004  0.0051  0.0048 </r>
        <r>  0.0007  0.0041  0.0067 </r>
        <r>  0.0012  0.0013  0.0050 </r>
        <r>  0.0003  0.0044  0.0025 </r>
        <r>  0.0004  0.0027  0.0049 </r>
       </set>
       <set comment="band 111">
        <r>  0.0015  0.0011  0.0372 </r>
        <r>  0.0020  0.0021  0.0282 </r>
        <r>  0.0004  0.0012  0.0371 </r>
        <r>  0.0072  0.0018  0.0218 </r>
        <r>  0.0002  0.0116  0.0027 </r>
        <r>  0.0001  0.0094  0.0004 </r>
        <r>  0.0002  0.0035  0.0028 </r>
        <r>  0.0002  0.0130  0.0025 </r>
        <r>  0.0003  0.0125  0.0019 </r>
        <r>  0.0002  0.0006  0.0042 </r>
        <r>  0.0011  0.0026  0.0032 </r>
        <r>  0.0001  0.0034  0.0015 </r>
        <r>  0.0012  0.0042  0.0033 </r>
        <r>  0.0006  0.0022  0.0071 </r>
        <r>  0.0010  0.0062  0.0031 </r>
        <r>  0.0006  0.0021  0.0030 </r>
        <r>  0.0004  0.0026  0.0038 </r>
        <r>  0.0004  0.0078  0.0034 </r>
        <r>  0.0014  0.0037  0.0025 </r>
        <r>  0.0013  0.0007  0.0068 </r>
       </set>
       <set comment="band 112">
        <r>  0.0072  0.0018  0.0218 </r>
        <r>  0.0004  0.0012  0.0371 </r>
        <r>  0.0020  0.0021  0.0283 </r>
        <r>  0.0015  0.0011  0.0372 </r>
        <r>  0.0002  0.0130  0.0025 </r>
        <r>  0.0002  0.0035  0.0028 </r>
        <r>  0.0001  0.0094  0.0004 </r>
        <r>  0.0002  0.0116  0.0027 </r>
        <r>  0.0001  0.0034  0.0015 </r>
        <r>  0.0011  0.0026  0.0032 </r>
        <r>  0.0002  0.0006  0.0042 </r>
        <r>  0.0003  0.0125  0.0019 </r>
        <r>  0.0006  0.0021  0.0030 </r>
        <r>  0.0010  0.0062  0.0031 </r>
        <r>  0.0006  0.0022  0.0071 </r>
        <r>  0.0012  0.0042  0.0033 </r>
        <r>  0.0014  0.0037  0.0025 </r>
        <r>  0.0013  0.0007  0.0068 </r>
        <r>  0.0004  0.0026  0.0038 </r>
        <r>  0.0004  0.0078  0.0034 </r>
       </set>
      </set>
     </set>
    </set>
   </array>
  </projected>
 </calculation>
 <structure name="finalpos" >
  <crystal>
   <varray name="basis" >
    <v>       8.49093791       0.00000000      -0.00000000 </v>
    <v>       0.00000000      11.61254016       0.00000000 </v>
    <v>      -0.00000000       0.00000000       7.32774313 </v>
   </varray>
   <i name="volume">    722.52541997 </i>
   <varray name="rec_basis" >
    <v>       0.11777262      -0.00000000       0.00000000 </v>
    <v>      -0.00000000       0.08611380      -0.00000000 </v>
    <v>       0.00000000      -0.00000000       0.13646767 </v>
   </varray>
  </crystal>
  <varray name="positions" >
   <v>       0.09638201       0.25000000       0.45373660 </v>
   <v>       0.40361799       0.75000000       0.95373660 </v>
   <v>       0.59638201       0.25000000       0.04626340 </v>
   <v>       0.90361799       0.75000000       0.54626340 </v>
   <v>       0.00000000       0.00000000       0.00000000 </v>
   <v>       0.50000000       0.00000000       0.50000000 </v>
   <v>       0.50000000       0.50000000       0.50000000 </v>
   <v>       0.00000000       0.50000000       0.00000000 </v>
   <v>       0.49867498       0.75000000       0.42627544 </v>
   <v>       0.00132502       0.25000000       0.92627544 </v>
   <v>       0.99867498       0.75000000       0.07372456 </v>
   <v>       0.50132502       0.25000000       0.57372456 </v>
   <v>       0.31588400       0.46141214       0.16204424 </v>
   <v>       0.18411600       0.53858786       0.66204424 </v>
   <v>       0.81588400       0.03858786       0.33795576 </v>
   <v>       0.68411600       0.96141214       0.83795576 </v>
   <v>       0.31588400       0.03858786       0.16204424 </v>
   <v>       0.18411600       0.96141214       0.66204424 </v>
   <v>       0.68411600       0.53858786       0.83795576 </v>
   <v>       0.81588400       0.46141214       0.33795576 </v>
  </varray>
 </structure>
</modeling>
