CsPbBr3 cubic bulk                      
           1
     8.490938    0.000000   -0.000000
     0.000000   11.612540    0.000000
    -0.000000    0.000000    7.327743
   Cs   Pb   Br
   4   4  12
Direct configuration=     1
   0.09638201  0.25000000  0.45373660
   0.40361799  0.75000000  0.95373660
   0.59638201  0.25000000  0.04626340
   0.90361799  0.75000000  0.54626340
   0.00000000  0.00000000  0.00000000
   0.50000000  0.00000000  0.50000000
   0.50000000  0.50000000  0.50000000
   0.00000000  0.50000000  0.00000000
   0.49867498  0.75000000  0.42627544
   0.00132502  0.25000000  0.92627544
   0.99867498  0.75000000  0.07372456
   0.50132502  0.25000000  0.57372456
   0.31588400  0.46141214  0.16204424
   0.18411600  0.53858786  0.66204424
   0.81588400  0.03858786  0.33795576
   0.68411600  0.96141214  0.83795576
   0.31588400  0.03858786  0.16204424
   0.18411600  0.96141214  0.66204424
   0.68411600  0.53858786  0.83795576
   0.81588400  0.46141214  0.33795576
