  20  20   1   0
  0.4217261E+02  0.8756818E-09  0.1146510E-08  0.8401100E-09  0.5000000E-15
   1.0000000000000000E-004
  CAR 
 CsPbBr3 cubic bulk                      
      8.31248192    -22.50783121  301      0.01668097      1.00000000
    -22.508  0.0000E+00  0.0000E+00
    -22.405  0.0000E+00  0.0000E+00
    -22.302  0.0000E+00  0.0000E+00
    -22.200  0.0000E+00  0.0000E+00
    -22.097  0.0000E+00  0.0000E+00
    -21.994  0.0000E+00  0.0000E+00
    -21.891  0.0000E+00  0.0000E+00
    -21.789  0.0000E+00  0.0000E+00
    -21.686  0.0000E+00  0.0000E+00
    -21.583  0.0000E+00  0.0000E+00
    -21.480  0.0000E+00  0.0000E+00
    -21.378  0.0000E+00  0.0000E+00
    -21.275  0.0000E+00  0.0000E+00
    -21.172  0.0000E+00  0.0000E+00
    -21.070  0.7787E+02  0.8000E+01
    -20.967  0.0000E+00  0.8000E+01
    -20.864  0.0000E+00  0.8000E+01
    -20.761  0.0000E+00  0.8000E+01
    -20.659  0.0000E+00  0.8000E+01
    -20.556  0.0000E+00  0.8000E+01
    -20.453  0.0000E+00  0.8000E+01
    -20.350  0.0000E+00  0.8000E+01
    -20.248  0.0000E+00  0.8000E+01
    -20.145  0.0000E+00  0.8000E+01
    -20.042  0.0000E+00  0.8000E+01
    -19.939  0.0000E+00  0.8000E+01
    -19.837  0.0000E+00  0.8000E+01
    -19.734  0.0000E+00  0.8000E+01
    -19.631  0.0000E+00  0.8000E+01
    -19.529  0.0000E+00  0.8000E+01
    -19.426  0.0000E+00  0.8000E+01
    -19.323  0.0000E+00  0.8000E+01
    -19.220  0.0000E+00  0.8000E+01
    -19.118  0.0000E+00  0.8000E+01
    -19.015  0.0000E+00  0.8000E+01
    -18.912  0.0000E+00  0.8000E+01
    -18.809  0.0000E+00  0.8000E+01
    -18.707  0.0000E+00  0.8000E+01
    -18.604  0.0000E+00  0.8000E+01
    -18.501  0.0000E+00  0.8000E+01
    -18.398  0.0000E+00  0.8000E+01
    -18.296  0.0000E+00  0.8000E+01
    -18.193  0.0000E+00  0.8000E+01
    -18.090  0.0000E+00  0.8000E+01
    -17.988  0.0000E+00  0.8000E+01
    -17.885  0.0000E+00  0.8000E+01
    -17.782  0.0000E+00  0.8000E+01
    -17.679  0.0000E+00  0.8000E+01
    -17.577  0.0000E+00  0.8000E+01
    -17.474  0.0000E+00  0.8000E+01
    -17.371  0.0000E+00  0.8000E+01
    -17.268  0.0000E+00  0.8000E+01
    -17.166  0.0000E+00  0.8000E+01
    -17.063  0.0000E+00  0.8000E+01
    -16.960  0.0000E+00  0.8000E+01
    -16.857  0.6360E+01  0.8653E+01
    -16.755  0.1363E+03  0.2400E+02
    -16.652  0.2336E+03  0.4800E+02
    -16.549  0.0000E+00  0.4800E+02
    -16.447  0.0000E+00  0.4800E+02
    -16.344  0.0000E+00  0.4800E+02
    -16.241  0.0000E+00  0.4800E+02
    -16.138  0.0000E+00  0.4800E+02
    -16.036  0.0000E+00  0.4800E+02
    -15.933  0.0000E+00  0.4800E+02
    -15.830  0.0000E+00  0.4800E+02
    -15.727  0.0000E+00  0.4800E+02
    -15.625  0.0000E+00  0.4800E+02
    -15.522  0.0000E+00  0.4800E+02
    -15.419  0.0000E+00  0.4800E+02
    -15.316  0.0000E+00  0.4800E+02
    -15.214  0.0000E+00  0.4800E+02
    -15.111  0.0000E+00  0.4800E+02
    -15.008  0.0000E+00  0.4800E+02
    -14.905  0.0000E+00  0.4800E+02
    -14.803  0.0000E+00  0.4800E+02
    -14.700  0.0000E+00  0.4800E+02
    -14.597  0.0000E+00  0.4800E+02
    -14.495  0.1061E+01  0.4811E+02
    -14.392  0.2801E+02  0.5099E+02
    -14.289  0.4111E+02  0.5589E+02
    -14.186  0.8967E+01  0.5692E+02
    -14.084  0.7485E+02  0.6491E+02
    -13.981  0.4986E+02  0.7123E+02
    -13.878  0.4326E+01  0.7200E+02
    -13.775  0.0000E+00  0.7200E+02
    -13.673  0.0000E+00  0.7200E+02
    -13.570  0.0000E+00  0.7200E+02
    -13.467  0.0000E+00  0.7200E+02
    -13.364  0.0000E+00  0.7200E+02
    -13.262  0.0000E+00  0.7200E+02
    -13.159  0.0000E+00  0.7200E+02
    -13.056  0.0000E+00  0.7200E+02
    -12.954  0.0000E+00  0.7200E+02
    -12.851  0.0000E+00  0.7200E+02
    -12.748  0.0000E+00  0.7200E+02
    -12.645  0.0000E+00  0.7200E+02
    -12.543  0.0000E+00  0.7200E+02
    -12.440  0.0000E+00  0.7200E+02
    -12.337  0.0000E+00  0.7200E+02
    -12.234  0.0000E+00  0.7200E+02
    -12.132  0.0000E+00  0.7200E+02
    -12.029  0.0000E+00  0.7200E+02
    -11.926  0.0000E+00  0.7200E+02
    -11.823  0.0000E+00  0.7200E+02
    -11.721  0.0000E+00  0.7200E+02
    -11.618  0.0000E+00  0.7200E+02
    -11.515  0.0000E+00  0.7200E+02
    -11.413  0.0000E+00  0.7200E+02
    -11.310  0.0000E+00  0.7200E+02
    -11.207  0.0000E+00  0.7200E+02
    -11.104  0.0000E+00  0.7200E+02
    -11.002  0.0000E+00  0.7200E+02
    -10.899  0.0000E+00  0.7200E+02
    -10.796  0.0000E+00  0.7200E+02
    -10.693  0.0000E+00  0.7200E+02
    -10.591  0.0000E+00  0.7200E+02
    -10.488  0.0000E+00  0.7200E+02
    -10.385  0.0000E+00  0.7200E+02
    -10.282  0.0000E+00  0.7200E+02
    -10.180  0.0000E+00  0.7200E+02
    -10.077  0.0000E+00  0.7200E+02
     -9.974  0.0000E+00  0.7200E+02
     -9.872  0.0000E+00  0.7200E+02
     -9.769  0.0000E+00  0.7200E+02
     -9.666  0.0000E+00  0.7200E+02
     -9.563  0.0000E+00  0.7200E+02
     -9.461  0.0000E+00  0.7200E+02
     -9.358  0.0000E+00  0.7200E+02
     -9.255  0.0000E+00  0.7200E+02
     -9.152  0.0000E+00  0.7200E+02
     -9.050  0.0000E+00  0.7200E+02
     -8.947  0.0000E+00  0.7200E+02
     -8.844  0.0000E+00  0.7200E+02
     -8.741  0.0000E+00  0.7200E+02
     -8.639  0.0000E+00  0.7200E+02
     -8.536  0.0000E+00  0.7200E+02
     -8.433  0.1801E-15  0.7200E+02
     -8.330  0.1082E+01  0.7211E+02
     -8.228  0.7859E-02  0.7211E+02
     -8.125  0.1015E+01  0.7266E+02
     -8.022  0.0000E+00  0.7322E+02
     -7.920  0.1083E+02  0.7434E+02
     -7.817  0.1391E+02  0.7598E+02
     -7.714  0.6029E-10  0.7600E+02
     -7.611  0.1344E+02  0.7738E+02
     -7.509  0.4564E+02  0.8213E+02
     -7.406  0.1265E+03  0.1028E+03
     -7.303  0.2681E+01  0.1031E+03
     -7.200  0.1817E+01  0.1036E+03
     -7.098  0.0000E+00  0.1039E+03
     -6.995  0.5875E-12  0.1039E+03
     -6.892  0.1082E+01  0.1040E+03
     -6.789  0.0000E+00  0.1040E+03
     -6.687  0.0000E+00  0.1040E+03
     -6.584  0.0000E+00  0.1040E+03
     -6.481  0.0000E+00  0.1040E+03
     -6.379  0.0000E+00  0.1040E+03
     -6.276  0.0000E+00  0.1040E+03
     -6.173  0.0000E+00  0.1040E+03
     -6.070  0.0000E+00  0.1040E+03
     -5.968  0.0000E+00  0.1040E+03
     -5.865  0.0000E+00  0.1040E+03
     -5.762  0.0000E+00  0.1040E+03
     -5.659  0.0000E+00  0.1040E+03
     -5.557  0.0000E+00  0.1040E+03
     -5.454  0.0000E+00  0.1040E+03
     -5.351  0.0000E+00  0.1040E+03
     -5.248  0.0000E+00  0.1040E+03
     -5.146  0.0000E+00  0.1040E+03
     -5.043  0.0000E+00  0.1040E+03
     -4.940  0.0000E+00  0.1040E+03
     -4.838  0.0000E+00  0.1040E+03
     -4.735  0.0000E+00  0.1040E+03
     -4.632  0.0000E+00  0.1040E+03
     -4.529  0.0000E+00  0.1040E+03
     -4.427  0.0000E+00  0.1040E+03
     -4.324  0.0000E+00  0.1040E+03
     -4.221  0.0000E+00  0.1040E+03
     -4.118  0.0000E+00  0.1040E+03
     -4.016  0.0000E+00  0.1040E+03
     -3.913  0.0000E+00  0.1040E+03
     -3.810  0.0000E+00  0.1040E+03
     -3.707  0.0000E+00  0.1040E+03
     -3.605  0.1641E-02  0.1040E+03
     -3.502  0.1351E+02  0.1055E+03
     -3.399  0.1081E+01  0.1060E+03
     -3.297  0.2064E+01  0.1062E+03
     -3.194  0.1009E+02  0.1073E+03
     -3.091  0.1485E+01  0.1083E+03
     -2.988  0.8198E+01  0.1095E+03
     -2.886  0.2593E+02  0.1127E+03
     -2.783  0.5876E+01  0.1135E+03
     -2.680  0.1731E+02  0.1160E+03
     -2.577  0.1917E+02  0.1180E+03
     -2.475  0.1915E+00  0.1180E+03
     -2.372  0.6536E+01  0.1189E+03
     -2.269  0.1762E+02  0.1211E+03
     -2.166  0.2650E+02  0.1248E+03
     -2.064  0.1441E+02  0.1271E+03
     -1.961  0.1122E+02  0.1284E+03
     -1.858  0.2313E+02  0.1313E+03
     -1.755  0.2349E+02  0.1356E+03
     -1.653  0.4114E+02  0.1411E+03
     -1.550  0.4151E+02  0.1466E+03
     -1.447  0.6458E+02  0.1552E+03
     -1.345  0.5990E+02  0.1622E+03
     -1.242  0.4495E+02  0.1677E+03
     -1.139  0.7551E+01  0.1687E+03
     -1.036  0.2581E+02  0.1713E+03
     -0.934  0.5496E+01  0.1725E+03
     -0.831  0.1298E+02  0.1742E+03
     -0.728  0.3002E+01  0.1745E+03
     -0.625  0.1082E+01  0.1748E+03
     -0.523  0.9507E+00  0.1749E+03
     -0.420  0.4326E+01  0.1759E+03
     -0.317  0.0000E+00  0.1759E+03
     -0.214  0.0000E+00  0.1759E+03
     -0.112  0.0000E+00  0.1759E+03
     -0.009  0.1082E+01  0.1760E+03
      0.094  0.0000E+00  0.1760E+03
      0.196  0.0000E+00  0.1760E+03
      0.299  0.0000E+00  0.1760E+03
      0.402  0.0000E+00  0.1760E+03
      0.505  0.0000E+00  0.1760E+03
      0.607  0.0000E+00  0.1760E+03
      0.710  0.0000E+00  0.1760E+03
      0.813  0.0000E+00  0.1760E+03
      0.916  0.0000E+00  0.1760E+03
      1.018  0.0000E+00  0.1760E+03
      1.121  0.0000E+00  0.1760E+03
      1.224  0.0000E+00  0.1760E+03
      1.327  0.0000E+00  0.1760E+03
      1.429  0.0000E+00  0.1760E+03
      1.532  0.0000E+00  0.1760E+03
      1.635  0.0000E+00  0.1760E+03
      1.737  0.0000E+00  0.1760E+03
      1.840  0.0000E+00  0.1760E+03
      1.943  0.0000E+00  0.1760E+03
      2.046  0.0000E+00  0.1760E+03
      2.148  0.0000E+00  0.1760E+03
      2.251  0.1082E+01  0.1761E+03
      2.354  0.3648E-05  0.1761E+03
      2.457  0.3245E+01  0.1764E+03
      2.559  0.5408E+01  0.1770E+03
      2.662  0.2163E+01  0.1772E+03
      2.765  0.9734E+01  0.1782E+03
      2.868  0.5420E+01  0.1788E+03
      2.970  0.4949E+01  0.1797E+03
      3.073  0.7269E+01  0.1806E+03
      3.176  0.4517E+01  0.1817E+03
      3.278  0.1096E+02  0.1830E+03
      3.381  0.5408E+01  0.1838E+03
      3.484  0.1098E+02  0.1851E+03
      3.587  0.2163E+01  0.1856E+03
      3.689  0.4326E+01  0.1860E+03
      3.792  0.0000E+00  0.1860E+03
      3.895  0.0000E+00  0.1860E+03
      3.998  0.0000E+00  0.1860E+03
      4.100  0.1298E-02  0.1860E+03
      4.203  0.2308E+01  0.1862E+03
      4.306  0.8702E+01  0.1876E+03
      4.409  0.4851E+01  0.1889E+03
      4.511  0.1902E+02  0.1917E+03
      4.614  0.2117E+02  0.1942E+03
      4.717  0.6489E+01  0.1952E+03
      4.820  0.2163E+01  0.1954E+03
      4.922  0.5195E-01  0.1954E+03
      5.025  0.9626E+00  0.1960E+03
      5.128  0.8572E+01  0.1969E+03
      5.230  0.1950E+01  0.1971E+03
      5.333  0.8657E+01  0.1981E+03
      5.436  0.2163E+01  0.1986E+03
      5.539  0.5408E+01  0.1991E+03
      5.641  0.2163E+01  0.1993E+03
      5.744  0.1622E+02  0.2010E+03
      5.847  0.4325E+01  0.2014E+03
      5.950  0.2043E+02  0.2035E+03
      6.052  0.1132E+02  0.2054E+03
      6.155  0.2603E+02  0.2086E+03
      6.258  0.1184E+02  0.2107E+03
      6.361  0.1280E+02  0.2126E+03
      6.463  0.2591E+02  0.2157E+03
      6.566  0.3206E+02  0.2190E+03
      6.669  0.2604E+02  0.2222E+03
      6.771  0.2034E+01  0.2231E+03
      6.874  0.3233E+01  0.2234E+03
      6.977  0.4326E+01  0.2240E+03
      7.080  0.0000E+00  0.2240E+03
      7.182  0.0000E+00  0.2240E+03
      7.285  0.0000E+00  0.2240E+03
      7.388  0.0000E+00  0.2240E+03
      7.491  0.0000E+00  0.2240E+03
      7.593  0.0000E+00  0.2240E+03
      7.696  0.0000E+00  0.2240E+03
      7.799  0.0000E+00  0.2240E+03
      7.902  0.0000E+00  0.2240E+03
      8.004  0.0000E+00  0.2240E+03
      8.107  0.0000E+00  0.2240E+03
      8.210  0.0000E+00  0.2240E+03
      8.312  0.0000E+00  0.2240E+03
      8.31248192    -22.50783121  301      0.01668097      1.00000000
    -22.508  0.0000E+00  0.0000E+00  0.0000E+00
    -22.405  0.0000E+00  0.0000E+00  0.0000E+00
    -22.302  0.0000E+00  0.0000E+00  0.0000E+00
    -22.200  0.0000E+00  0.0000E+00  0.0000E+00
    -22.097  0.0000E+00  0.0000E+00  0.0000E+00
    -21.994  0.0000E+00  0.0000E+00  0.0000E+00
    -21.891  0.0000E+00  0.0000E+00  0.0000E+00
    -21.789  0.0000E+00  0.0000E+00  0.0000E+00
    -21.686  0.0000E+00  0.0000E+00  0.0000E+00
    -21.583  0.0000E+00  0.0000E+00  0.0000E+00
    -21.480  0.0000E+00  0.0000E+00  0.0000E+00
    -21.378  0.0000E+00  0.0000E+00  0.0000E+00
    -21.275  0.0000E+00  0.0000E+00  0.0000E+00
    -21.172  0.0000E+00  0.0000E+00  0.0000E+00
    -21.070  0.1728E+02  0.1811E-04  0.1250E-05
    -20.967  0.0000E+00  0.0000E+00  0.0000E+00
    -20.864  0.0000E+00  0.0000E+00  0.0000E+00
    -20.761  0.0000E+00  0.0000E+00  0.0000E+00
    -20.659  0.0000E+00  0.0000E+00  0.0000E+00
    -20.556  0.0000E+00  0.0000E+00  0.0000E+00
    -20.453  0.0000E+00  0.0000E+00  0.0000E+00
    -20.350  0.0000E+00  0.0000E+00  0.0000E+00
    -20.248  0.0000E+00  0.0000E+00  0.0000E+00
    -20.145  0.0000E+00  0.0000E+00  0.0000E+00
    -20.042  0.0000E+00  0.0000E+00  0.0000E+00
    -19.939  0.0000E+00  0.0000E+00  0.0000E+00
    -19.837  0.0000E+00  0.0000E+00  0.0000E+00
    -19.734  0.0000E+00  0.0000E+00  0.0000E+00
    -19.631  0.0000E+00  0.0000E+00  0.0000E+00
    -19.529  0.0000E+00  0.0000E+00  0.0000E+00
    -19.426  0.0000E+00  0.0000E+00  0.0000E+00
    -19.323  0.0000E+00  0.0000E+00  0.0000E+00
    -19.220  0.0000E+00  0.0000E+00  0.0000E+00
    -19.118  0.0000E+00  0.0000E+00  0.0000E+00
    -19.015  0.0000E+00  0.0000E+00  0.0000E+00
    -18.912  0.0000E+00  0.0000E+00  0.0000E+00
    -18.809  0.0000E+00  0.0000E+00  0.0000E+00
    -18.707  0.0000E+00  0.0000E+00  0.0000E+00
    -18.604  0.0000E+00  0.0000E+00  0.0000E+00
    -18.501  0.0000E+00  0.0000E+00  0.0000E+00
    -18.398  0.0000E+00  0.0000E+00  0.0000E+00
    -18.296  0.0000E+00  0.0000E+00  0.0000E+00
    -18.193  0.0000E+00  0.0000E+00  0.0000E+00
    -18.090  0.0000E+00  0.0000E+00  0.0000E+00
    -17.988  0.0000E+00  0.0000E+00  0.0000E+00
    -17.885  0.0000E+00  0.0000E+00  0.0000E+00
    -17.782  0.0000E+00  0.0000E+00  0.0000E+00
    -17.679  0.0000E+00  0.0000E+00  0.0000E+00
    -17.577  0.0000E+00  0.0000E+00  0.0000E+00
    -17.474  0.0000E+00  0.0000E+00  0.0000E+00
    -17.371  0.0000E+00  0.0000E+00  0.0000E+00
    -17.268  0.0000E+00  0.0000E+00  0.0000E+00
    -17.166  0.0000E+00  0.0000E+00  0.0000E+00
    -17.063  0.0000E+00  0.0000E+00  0.0000E+00
    -16.960  0.0000E+00  0.0000E+00  0.0000E+00
    -16.857  0.1456E-04  0.6782E-05  0.1066E-05
    -16.755  0.5242E-04  0.5345E-04  0.9352E-05
    -16.652  0.4157E-04  0.2304E-04  0.2888E-05
    -16.549  0.0000E+00  0.0000E+00  0.0000E+00
    -16.447  0.0000E+00  0.0000E+00  0.0000E+00
    -16.344  0.0000E+00  0.0000E+00  0.0000E+00
    -16.241  0.0000E+00  0.0000E+00  0.0000E+00
    -16.138  0.0000E+00  0.0000E+00  0.0000E+00
    -16.036  0.0000E+00  0.0000E+00  0.0000E+00
    -15.933  0.0000E+00  0.0000E+00  0.0000E+00
    -15.830  0.0000E+00  0.0000E+00  0.0000E+00
    -15.727  0.0000E+00  0.0000E+00  0.0000E+00
    -15.625  0.0000E+00  0.0000E+00  0.0000E+00
    -15.522  0.0000E+00  0.0000E+00  0.0000E+00
    -15.419  0.0000E+00  0.0000E+00  0.0000E+00
    -15.316  0.0000E+00  0.0000E+00  0.0000E+00
    -15.214  0.0000E+00  0.0000E+00  0.0000E+00
    -15.111  0.0000E+00  0.0000E+00  0.0000E+00
    -15.008  0.0000E+00  0.0000E+00  0.0000E+00
    -14.905  0.0000E+00  0.0000E+00  0.0000E+00
    -14.803  0.0000E+00  0.0000E+00  0.0000E+00
    -14.700  0.0000E+00  0.0000E+00  0.0000E+00
    -14.597  0.0000E+00  0.0000E+00  0.0000E+00
    -14.495  0.3359E-03  0.1341E-04  0.6560E-06
    -14.392  0.4040E-02  0.3315E-02  0.8170E-04
    -14.289  0.1413E-02  0.4877E-02  0.3631E-03
    -14.186  0.8756E-13  0.1414E-02  0.6044E-04
    -14.084  0.2367E-02  0.7137E-02  0.5246E-03
    -13.981  0.9457E-03  0.2332E-02  0.4304E-03
    -13.878  0.2499E-04  0.2053E-03  0.3433E-04
    -13.775  0.0000E+00  0.0000E+00  0.0000E+00
    -13.673  0.0000E+00  0.0000E+00  0.0000E+00
    -13.570  0.0000E+00  0.0000E+00  0.0000E+00
    -13.467  0.0000E+00  0.0000E+00  0.0000E+00
    -13.364  0.0000E+00  0.0000E+00  0.0000E+00
    -13.262  0.0000E+00  0.0000E+00  0.0000E+00
    -13.159  0.0000E+00  0.0000E+00  0.0000E+00
    -13.056  0.0000E+00  0.0000E+00  0.0000E+00
    -12.954  0.0000E+00  0.0000E+00  0.0000E+00
    -12.851  0.0000E+00  0.0000E+00  0.0000E+00
    -12.748  0.0000E+00  0.0000E+00  0.0000E+00
    -12.645  0.0000E+00  0.0000E+00  0.0000E+00
    -12.543  0.0000E+00  0.0000E+00  0.0000E+00
    -12.440  0.0000E+00  0.0000E+00  0.0000E+00
    -12.337  0.0000E+00  0.0000E+00  0.0000E+00
    -12.234  0.0000E+00  0.0000E+00  0.0000E+00
    -12.132  0.0000E+00  0.0000E+00  0.0000E+00
    -12.029  0.0000E+00  0.0000E+00  0.0000E+00
    -11.926  0.0000E+00  0.0000E+00  0.0000E+00
    -11.823  0.0000E+00  0.0000E+00  0.0000E+00
    -11.721  0.0000E+00  0.0000E+00  0.0000E+00
    -11.618  0.0000E+00  0.0000E+00  0.0000E+00
    -11.515  0.0000E+00  0.0000E+00  0.0000E+00
    -11.413  0.0000E+00  0.0000E+00  0.0000E+00
    -11.310  0.0000E+00  0.0000E+00  0.0000E+00
    -11.207  0.0000E+00  0.0000E+00  0.0000E+00
    -11.104  0.0000E+00  0.0000E+00  0.0000E+00
    -11.002  0.0000E+00  0.0000E+00  0.0000E+00
    -10.899  0.0000E+00  0.0000E+00  0.0000E+00
    -10.796  0.0000E+00  0.0000E+00  0.0000E+00
    -10.693  0.0000E+00  0.0000E+00  0.0000E+00
    -10.591  0.0000E+00  0.0000E+00  0.0000E+00
    -10.488  0.0000E+00  0.0000E+00  0.0000E+00
    -10.385  0.0000E+00  0.0000E+00  0.0000E+00
    -10.282  0.0000E+00  0.0000E+00  0.0000E+00
    -10.180  0.0000E+00  0.0000E+00  0.0000E+00
    -10.077  0.0000E+00  0.0000E+00  0.0000E+00
     -9.974  0.0000E+00  0.0000E+00  0.0000E+00
     -9.872  0.0000E+00  0.0000E+00  0.0000E+00
     -9.769  0.0000E+00  0.0000E+00  0.0000E+00
     -9.666  0.0000E+00  0.0000E+00  0.0000E+00
     -9.563  0.0000E+00  0.0000E+00  0.0000E+00
     -9.461  0.0000E+00  0.0000E+00  0.0000E+00
     -9.358  0.0000E+00  0.0000E+00  0.0000E+00
     -9.255  0.0000E+00  0.0000E+00  0.0000E+00
     -9.152  0.0000E+00  0.0000E+00  0.0000E+00
     -9.050  0.0000E+00  0.0000E+00  0.0000E+00
     -8.947  0.0000E+00  0.0000E+00  0.0000E+00
     -8.844  0.0000E+00  0.0000E+00  0.0000E+00
     -8.741  0.0000E+00  0.0000E+00  0.0000E+00
     -8.639  0.0000E+00  0.0000E+00  0.0000E+00
     -8.536  0.0000E+00  0.0000E+00  0.0000E+00
     -8.433  0.3421E-35  0.1058E-20  0.6625E-21
     -8.330  0.2054E-19  0.6352E-05  0.3978E-05
     -8.228  0.9928E-20  0.2682E-05  0.2207E-07
     -8.125  0.4107E-07  0.1635E-02  0.3249E-05
     -8.022  0.0000E+00  0.0000E+00  0.0000E+00
     -7.920  0.6773E-05  0.3043E-01  0.3255E-04
     -7.817  0.7931E-05  0.3977E-01  0.4607E-04
     -7.714  0.9343E-16  0.2256E-11  0.1298E-15
     -7.611  0.2111E-04  0.3165E+00  0.4298E-04
     -7.509  0.5159E-04  0.6832E+01  0.4220E-04
     -7.406  0.3490E-04  0.2424E+02  0.4391E-04
     -7.303  0.1236E-04  0.1968E-01  0.9304E-05
     -7.200  0.1218E-04  0.6337E-02  0.6942E-05
     -7.098  0.0000E+00  0.0000E+00  0.0000E+00
     -6.995  0.5111E-17  0.9650E-15  0.4214E-18
     -6.892  0.9409E-05  0.1776E-02  0.7757E-06
     -6.789  0.0000E+00  0.0000E+00  0.0000E+00
     -6.687  0.0000E+00  0.0000E+00  0.0000E+00
     -6.584  0.0000E+00  0.0000E+00  0.0000E+00
     -6.481  0.0000E+00  0.0000E+00  0.0000E+00
     -6.379  0.0000E+00  0.0000E+00  0.0000E+00
     -6.276  0.0000E+00  0.0000E+00  0.0000E+00
     -6.173  0.0000E+00  0.0000E+00  0.0000E+00
     -6.070  0.0000E+00  0.0000E+00  0.0000E+00
     -5.968  0.0000E+00  0.0000E+00  0.0000E+00
     -5.865  0.0000E+00  0.0000E+00  0.0000E+00
     -5.762  0.0000E+00  0.0000E+00  0.0000E+00
     -5.659  0.0000E+00  0.0000E+00  0.0000E+00
     -5.557  0.0000E+00  0.0000E+00  0.0000E+00
     -5.454  0.0000E+00  0.0000E+00  0.0000E+00
     -5.351  0.0000E+00  0.0000E+00  0.0000E+00
     -5.248  0.0000E+00  0.0000E+00  0.0000E+00
     -5.146  0.0000E+00  0.0000E+00  0.0000E+00
     -5.043  0.0000E+00  0.0000E+00  0.0000E+00
     -4.940  0.0000E+00  0.0000E+00  0.0000E+00
     -4.838  0.0000E+00  0.0000E+00  0.0000E+00
     -4.735  0.0000E+00  0.0000E+00  0.0000E+00
     -4.632  0.0000E+00  0.0000E+00  0.0000E+00
     -4.529  0.0000E+00  0.0000E+00  0.0000E+00
     -4.427  0.0000E+00  0.0000E+00  0.0000E+00
     -4.324  0.0000E+00  0.0000E+00  0.0000E+00
     -4.221  0.0000E+00  0.0000E+00  0.0000E+00
     -4.118  0.0000E+00  0.0000E+00  0.0000E+00
     -4.016  0.0000E+00  0.0000E+00  0.0000E+00
     -3.913  0.0000E+00  0.0000E+00  0.0000E+00
     -3.810  0.0000E+00  0.0000E+00  0.0000E+00
     -3.707  0.0000E+00  0.0000E+00  0.0000E+00
     -3.605  0.1346E-20  0.2748E-05  0.3364E-07
     -3.502  0.3699E-15  0.7840E-02  0.9225E-03
     -3.399  0.2860E-17  0.9446E-04  0.6418E-04
     -3.297  0.4336E-04  0.4469E-02  0.9659E-04
     -3.194  0.1980E-03  0.1102E-01  0.1167E-02
     -3.091  0.4863E-11  0.3854E-03  0.1404E-03
     -2.988  0.3037E-03  0.1457E-01  0.5950E-03
     -2.886  0.5889E-03  0.2500E-01  0.2029E-02
     -2.783  0.5155E-04  0.3720E-02  0.6253E-03
     -2.680  0.6472E-03  0.1104E-01  0.1290E-02
     -2.577  0.1225E-02  0.9035E-02  0.2224E-02
     -2.475  0.4928E-04  0.2476E-03  0.2431E-04
     -2.372  0.2120E-02  0.9190E-02  0.4437E-03
     -2.269  0.6917E-02  0.1600E-01  0.2300E-02
     -2.166  0.1348E-01  0.3685E-01  0.3712E-02
     -2.064  0.6707E-02  0.4146E-01  0.2218E-02
     -1.961  0.4715E-03  0.4816E-01  0.2295E-02
     -1.858  0.2879E-02  0.7991E-01  0.7519E-02
     -1.755  0.8279E-03  0.5440E-01  0.8734E-02
     -1.653  0.2994E-02  0.5952E-01  0.1175E-01
     -1.550  0.5306E-02  0.6373E-01  0.1507E-01
     -1.447  0.6669E-02  0.8673E-01  0.1702E-01
     -1.345  0.2378E-02  0.1071E+00  0.1446E-01
     -1.242  0.6757E-03  0.4274E-01  0.1180E-01
     -1.139  0.1592E-03  0.7110E-02  0.2168E-02
     -1.036  0.1111E-02  0.2773E-01  0.5447E-02
     -0.934  0.1418E-03  0.2184E-02  0.6967E-03
     -0.831  0.1904E-03  0.1952E-02  0.7987E-03
     -0.728  0.1658E-13  0.1485E-02  0.3043E-04
     -0.625  0.1483E-05  0.3915E-03  0.1605E-03
     -0.523  0.1123E-07  0.5511E-04  0.6267E-04
     -0.420  0.1804E-13  0.3737E-04  0.6297E-03
     -0.317  0.0000E+00  0.0000E+00  0.0000E+00
     -0.214  0.0000E+00  0.0000E+00  0.0000E+00
     -0.112  0.0000E+00  0.0000E+00  0.0000E+00
     -0.009  0.4671E-16  0.1132E-04  0.4765E-04
      0.094  0.0000E+00  0.0000E+00  0.0000E+00
      0.196  0.0000E+00  0.0000E+00  0.0000E+00
      0.299  0.0000E+00  0.0000E+00  0.0000E+00
      0.402  0.0000E+00  0.0000E+00  0.0000E+00
      0.505  0.0000E+00  0.0000E+00  0.0000E+00
      0.607  0.0000E+00  0.0000E+00  0.0000E+00
      0.710  0.0000E+00  0.0000E+00  0.0000E+00
      0.813  0.0000E+00  0.0000E+00  0.0000E+00
      0.916  0.0000E+00  0.0000E+00  0.0000E+00
      1.018  0.0000E+00  0.0000E+00  0.0000E+00
      1.121  0.0000E+00  0.0000E+00  0.0000E+00
      1.224  0.0000E+00  0.0000E+00  0.0000E+00
      1.327  0.0000E+00  0.0000E+00  0.0000E+00
      1.429  0.0000E+00  0.0000E+00  0.0000E+00
      1.532  0.0000E+00  0.0000E+00  0.0000E+00
      1.635  0.0000E+00  0.0000E+00  0.0000E+00
      1.737  0.0000E+00  0.0000E+00  0.0000E+00
      1.840  0.0000E+00  0.0000E+00  0.0000E+00
      1.943  0.0000E+00  0.0000E+00  0.0000E+00
      2.046  0.0000E+00  0.0000E+00  0.0000E+00
      2.148  0.0000E+00  0.0000E+00  0.0000E+00
      2.251  0.2559E-15  0.1788E-04  0.5900E-03
      2.354  0.1829E-14  0.9582E-10  0.2231E-08
      2.457  0.3406E-03  0.1737E-03  0.1579E-02
      2.559  0.2272E-03  0.1605E-02  0.1221E-02
      2.662  0.3605E-04  0.2719E-03  0.9208E-03
      2.765  0.4398E-03  0.3905E-02  0.2753E-02
      2.868  0.3948E-03  0.1132E-02  0.2398E-02
      2.970  0.8594E-04  0.8550E-03  0.3028E-02
      3.073  0.4591E-03  0.2281E-02  0.2525E-02
      3.176  0.5867E-03  0.5421E-03  0.2179E-02
      3.278  0.6433E-03  0.1929E-02  0.4900E-02
      3.381  0.1707E-03  0.1467E-02  0.2218E-02
      3.484  0.1219E-03  0.2442E-02  0.2277E-02
      3.587  0.1184E-03  0.7720E-03  0.3919E-03
      3.689  0.4272E-06  0.1379E-02  0.6245E-03
      3.792  0.0000E+00  0.0000E+00  0.0000E+00
      3.895  0.0000E+00  0.0000E+00  0.0000E+00
      3.998  0.0000E+00  0.0000E+00  0.0000E+00
      4.100  0.2368E-07  0.1377E-06  0.2195E-05
      4.203  0.5333E-04  0.2665E-03  0.3862E-02
      4.306  0.1707E-03  0.1658E-02  0.8578E-02
      4.409  0.1597E-05  0.1790E-02  0.2150E-02
      4.511  0.3699E-02  0.4766E-02  0.6958E-02
      4.614  0.1712E-01  0.7852E-02  0.1229E-01
      4.717  0.1237E-01  0.4280E-02  0.4403E-02
      4.820  0.1962E-03  0.3285E-03  0.5760E-03
      4.922  0.2211E-15  0.1126E-05  0.4610E-04
      5.025  0.2506E-11  0.1752E-03  0.4027E-03
      5.128  0.1353E-03  0.3115E-03  0.6803E-02
      5.230  0.6420E-02  0.1016E-02  0.1441E-02
      5.333  0.2946E-01  0.7489E-02  0.5604E-02
      5.436  0.1749E-02  0.7240E-03  0.8441E-03
      5.539  0.3744E-01  0.9398E-02  0.1739E-01
      5.641  0.1354E-05  0.8789E-04  0.3176E-01
      5.744  0.6761E-01  0.1713E-01  0.1037E+00
      5.847  0.1494E-06  0.2617E-03  0.8176E-02
      5.950  0.6163E-01  0.2905E-01  0.2128E+00
      6.052  0.2936E-01  0.1499E-01  0.2458E+00
      6.155  0.5576E-01  0.3425E-01  0.5320E+00
      6.258  0.1835E-01  0.2418E-01  0.3401E+00
      6.361  0.3910E-01  0.2304E-01  0.2856E+00
      6.463  0.2911E-01  0.6176E-01  0.7896E+00
      6.566  0.7034E-01  0.4790E-01  0.8027E+00
      6.669  0.4044E-01  0.3543E-01  0.6744E+00
      6.771  0.1382E-03  0.7294E-02  0.5743E-01
      6.874  0.4953E-02  0.2020E-02  0.7596E-01
      6.977  0.6176E-02  0.4929E-02  0.6858E-01
      7.080  0.0000E+00  0.0000E+00  0.0000E+00
      7.182  0.0000E+00  0.0000E+00  0.0000E+00
      7.285  0.0000E+00  0.0000E+00  0.0000E+00
      7.388  0.0000E+00  0.0000E+00  0.0000E+00
      7.491  0.0000E+00  0.0000E+00  0.0000E+00
      7.593  0.0000E+00  0.0000E+00  0.0000E+00
      7.696  0.0000E+00  0.0000E+00  0.0000E+00
      7.799  0.0000E+00  0.0000E+00  0.0000E+00
      7.902  0.0000E+00  0.0000E+00  0.0000E+00
      8.004  0.0000E+00  0.0000E+00  0.0000E+00
      8.107  0.0000E+00  0.0000E+00  0.0000E+00
      8.210  0.0000E+00  0.0000E+00  0.0000E+00
      8.312  0.0000E+00  0.0000E+00  0.0000E+00
      8.31248192    -22.50783121  301      0.01668097      1.00000000
    -22.508  0.0000E+00  0.0000E+00  0.0000E+00
    -22.405  0.0000E+00  0.0000E+00  0.0000E+00
    -22.302  0.0000E+00  0.0000E+00  0.0000E+00
    -22.200  0.0000E+00  0.0000E+00  0.0000E+00
    -22.097  0.0000E+00  0.0000E+00  0.0000E+00
    -21.994  0.0000E+00  0.0000E+00  0.0000E+00
    -21.891  0.0000E+00  0.0000E+00  0.0000E+00
    -21.789  0.0000E+00  0.0000E+00  0.0000E+00
    -21.686  0.0000E+00  0.0000E+00  0.0000E+00
    -21.583  0.0000E+00  0.0000E+00  0.0000E+00
    -21.480  0.0000E+00  0.0000E+00  0.0000E+00
    -21.378  0.0000E+00  0.0000E+00  0.0000E+00
    -21.275  0.0000E+00  0.0000E+00  0.0000E+00
    -21.172  0.0000E+00  0.0000E+00  0.0000E+00
    -21.070  0.1728E+02  0.1811E-04  0.1245E-05
    -20.967  0.0000E+00  0.0000E+00  0.0000E+00
    -20.864  0.0000E+00  0.0000E+00  0.0000E+00
    -20.761  0.0000E+00  0.0000E+00  0.0000E+00
    -20.659  0.0000E+00  0.0000E+00  0.0000E+00
    -20.556  0.0000E+00  0.0000E+00  0.0000E+00
    -20.453  0.0000E+00  0.0000E+00  0.0000E+00
    -20.350  0.0000E+00  0.0000E+00  0.0000E+00
    -20.248  0.0000E+00  0.0000E+00  0.0000E+00
    -20.145  0.0000E+00  0.0000E+00  0.0000E+00
    -20.042  0.0000E+00  0.0000E+00  0.0000E+00
    -19.939  0.0000E+00  0.0000E+00  0.0000E+00
    -19.837  0.0000E+00  0.0000E+00  0.0000E+00
    -19.734  0.0000E+00  0.0000E+00  0.0000E+00
    -19.631  0.0000E+00  0.0000E+00  0.0000E+00
    -19.529  0.0000E+00  0.0000E+00  0.0000E+00
    -19.426  0.0000E+00  0.0000E+00  0.0000E+00
    -19.323  0.0000E+00  0.0000E+00  0.0000E+00
    -19.220  0.0000E+00  0.0000E+00  0.0000E+00
    -19.118  0.0000E+00  0.0000E+00  0.0000E+00
    -19.015  0.0000E+00  0.0000E+00  0.0000E+00
    -18.912  0.0000E+00  0.0000E+00  0.0000E+00
    -18.809  0.0000E+00  0.0000E+00  0.0000E+00
    -18.707  0.0000E+00  0.0000E+00  0.0000E+00
    -18.604  0.0000E+00  0.0000E+00  0.0000E+00
    -18.501  0.0000E+00  0.0000E+00  0.0000E+00
    -18.398  0.0000E+00  0.0000E+00  0.0000E+00
    -18.296  0.0000E+00  0.0000E+00  0.0000E+00
    -18.193  0.0000E+00  0.0000E+00  0.0000E+00
    -18.090  0.0000E+00  0.0000E+00  0.0000E+00
    -17.988  0.0000E+00  0.0000E+00  0.0000E+00
    -17.885  0.0000E+00  0.0000E+00  0.0000E+00
    -17.782  0.0000E+00  0.0000E+00  0.0000E+00
    -17.679  0.0000E+00  0.0000E+00  0.0000E+00
    -17.577  0.0000E+00  0.0000E+00  0.0000E+00
    -17.474  0.0000E+00  0.0000E+00  0.0000E+00
    -17.371  0.0000E+00  0.0000E+00  0.0000E+00
    -17.268  0.0000E+00  0.0000E+00  0.0000E+00
    -17.166  0.0000E+00  0.0000E+00  0.0000E+00
    -17.063  0.0000E+00  0.0000E+00  0.0000E+00
    -16.960  0.0000E+00  0.0000E+00  0.0000E+00
    -16.857  0.1140E-04  0.6838E-05  0.1173E-05
    -16.755  0.5210E-04  0.5342E-04  0.9385E-05
    -16.652  0.4167E-04  0.2313E-04  0.2906E-05
    -16.549  0.0000E+00  0.0000E+00  0.0000E+00
    -16.447  0.0000E+00  0.0000E+00  0.0000E+00
    -16.344  0.0000E+00  0.0000E+00  0.0000E+00
    -16.241  0.0000E+00  0.0000E+00  0.0000E+00
    -16.138  0.0000E+00  0.0000E+00  0.0000E+00
    -16.036  0.0000E+00  0.0000E+00  0.0000E+00
    -15.933  0.0000E+00  0.0000E+00  0.0000E+00
    -15.830  0.0000E+00  0.0000E+00  0.0000E+00
    -15.727  0.0000E+00  0.0000E+00  0.0000E+00
    -15.625  0.0000E+00  0.0000E+00  0.0000E+00
    -15.522  0.0000E+00  0.0000E+00  0.0000E+00
    -15.419  0.0000E+00  0.0000E+00  0.0000E+00
    -15.316  0.0000E+00  0.0000E+00  0.0000E+00
    -15.214  0.0000E+00  0.0000E+00  0.0000E+00
    -15.111  0.0000E+00  0.0000E+00  0.0000E+00
    -15.008  0.0000E+00  0.0000E+00  0.0000E+00
    -14.905  0.0000E+00  0.0000E+00  0.0000E+00
    -14.803  0.0000E+00  0.0000E+00  0.0000E+00
    -14.700  0.0000E+00  0.0000E+00  0.0000E+00
    -14.597  0.0000E+00  0.0000E+00  0.0000E+00
    -14.495  0.3358E-03  0.1341E-04  0.6560E-06
    -14.392  0.3958E-02  0.2932E-02  0.1047E-03
    -14.289  0.1508E-02  0.5131E-02  0.3488E-03
    -14.186  0.7488E-13  0.1633E-02  0.4279E-04
    -14.084  0.2140E-02  0.6586E-02  0.5771E-03
    -13.981  0.1087E-02  0.2625E-02  0.3920E-03
    -13.878  0.2499E-04  0.2053E-03  0.3433E-04
    -13.775  0.0000E+00  0.0000E+00  0.0000E+00
    -13.673  0.0000E+00  0.0000E+00  0.0000E+00
    -13.570  0.0000E+00  0.0000E+00  0.0000E+00
    -13.467  0.0000E+00  0.0000E+00  0.0000E+00
    -13.364  0.0000E+00  0.0000E+00  0.0000E+00