 vasp.5.4.4.18Apr17-6-g9f103f2a35 (build Jun 29 2021 12:14:42) complex           
 executed on tx2_gcc-7.3_libsci-1 date 2021.09.21  08:32:49
 running on   64 total cores
 distrk:  each k-point on   64 cores,    1 groups
 distr:  one band on NCORES_PER_BAND=   8 cores,    8 groups


--------------------------------------------------------------------------------------------------------


 INCAR:
 POTCAR:    PAW_PBE Cs_sv 08Apr2002               
 POTCAR:    PAW_PBE Pb_d 06Sep2000                
 POTCAR:    PAW_PBE Br 06Sep2000                  
 POTCAR:    PAW_PBE Cs_sv 08Apr2002               
   SHA256 =  c1463496f0f6037ed62c6012a8013a89ee9ad6ffb38599dcd6c079e7ed31779b Cs
   COPYR  = (c) Copyright 08Apr2002 Georg Kresse                                
   COPYR  = This file is part of the software VASP. Any use, copying, and all ot
   COPYR  = If you do not have a valid VASP license, you may not use, copy or di
   VRHFIN =Cs: 5s5p6s                                                           
   LEXCH  = PE                                                                  
   EATOM  =   555.6835 eV,   40.8416 Ry                                         
                                                                                
   TITEL  = PAW_PBE Cs_sv 08Apr2002                                             
   LULTRA =        F    use ultrasoft PP ?                                      
   IUNSCR =        1    unscreen: 0-lin 1-nonlin 2-no                           
   RPACOR =    2.200    partial core radius                                     
   POMASS =  132.900; ZVAL   =    9.000    mass and valenz                      
   RCORE  =    2.500    outmost cutoff radius                                   
   RWIGS  =    2.500; RWIGS  =    1.323    wigner-seitz radius (au A)           
   ENMAX  =  220.318; ENMIN  =  165.238 eV                                      
   RCLOC  =    2.207    cutoff for local pot                                    
   LCOR   =        T    correct aug charges                                     
   LPAW   =        T    paw PP                                                  
   EAUG   =  407.933                                                            
   DEXC   =    0.000                                                            
   RMAX   =    2.554    core radius for proj-oper                               
   RAUG   =    1.300    factor for augmentation sphere                          
   RDEP   =    2.590    radius for radial grids                                 
   RDEPT  =    2.117    core radius for aug-charge                              
                                                                                
   Atomic configuration                                                         
   13 entries                                                                   
     n  l   j            E        occ.                                          
     1  0  0.50    -35790.1377   2.0000                                         
     2  0  0.50     -5613.6201   2.0000                                         
     2  1  1.50     -5035.0101   6.0000                                         
     3  0  0.50     -1167.0767   2.0000                                         
     3  1  1.50      -980.9754   6.0000                                         
     3  2  2.50      -708.0703  10.0000                                         
     4  0  0.50      -220.2386   2.0000                                         
     4  1  1.50      -160.7596   6.0000                                         
     4  2  2.50       -74.2354  10.0000                                         
     5  0  0.50       -26.7287   2.0000                                         
     6  0  0.50        -2.0862   1.0000                                         
     5  1  1.50       -13.5159   6.0000                                         
     5  2  2.50        -0.4136   0.0000                                         
   Description                                                                  
     l       E           TYP  RCUT    TYP  RCUT                                 
     0    -26.7287425     23  1.900                                             
     0     -2.0862306     23  1.900                                             
     1    -13.5158719     23  2.500                                             
     1     -2.7211652     23  2.500                                             
     2     -0.4136171     23  2.500                                             
  local pseudopotential read in
  partial core-charges read in
  partial kinetic energy density read in
  atomic valenz-charges read in
  non local Contribution for L=           0  read in
    real space projection operators read in
  non local Contribution for L=           0  read in
    real space projection operators read in
  non local Contribution for L=           1  read in
    real space projection operators read in
  non local Contribution for L=           1  read in
    real space projection operators read in
  non local Contribution for L=           2  read in
    real space projection operators read in
    PAW grid and wavefunctions read in

   number of l-projection  operators is LMAX  =           5
   number of lm-projection operators is LMMAX =          13

 POTCAR:    PAW_PBE Pb_d 06Sep2000                
   SHA256 =  fb885b08f0fba73a15f6a6b0e39bd200c13ec96ef97cf3ecd8e63bade5137abd Pb
   COPYR  = (c) Copyright 06Sep2000 Georg Kresse                                
   COPYR  = This file is part of the software VASP. Any use, copying, and all ot
   COPYR  = If you do not have a valid VASP license, you may not use, copy or di
   VRHFIN =Pb:                                                                  
   LEXCH  = PE                                                                  
   EATOM  =  1661.6185 eV,  122.1255 Ry                                         
                                                                                
   TITEL  = PAW_PBE Pb_d 06Sep2000                                              
   LULTRA =        F    use ultrasoft PP ?                                      
   IUNSCR =        1    unscreen: 0-lin 1-nonlin 2-no                           
   RPACOR =    2.200    partial core radius                                     
   POMASS =  207.200; ZVAL   =   14.000    mass and valenz                      
   RCORE  =    2.500    outmost cutoff radius                                   
   RWIGS  =    3.260; RWIGS  =    1.725    wigner-seitz radius (au A)           
   ENMAX  =  237.835; ENMIN  =  178.376 eV                                      
   ICORE  =        3    local potential                                         
   LCOR   =        T    correct aug charges                                     
   LPAW   =        T    paw PP                                                  
   EAUG   =  391.914                                                            
   DEXC   =    0.000                                                            
   RMAX   =    2.565    core radius for proj-oper                               
   RAUG   =    1.300    factor for augmentation sphere                          
   RDEP   =    2.643    radius for radial grids                                 
   RDEPT  =    2.092    core radius for aug-charge                              
                                                                                
   Atomic configuration                                                         
   16 entries                                                                   
     n  l   j            E        occ.                                          
     1  0  0.50    -88091.8466   2.0000                                         
     2  0  0.50    -15753.4197   2.0000                                         
     2  1  1.50    -13508.1797   6.0000                                         
     3  0  0.50     -3781.7194   2.0000                                         
     3  1  1.50     -3138.2529   6.0000                                         
     3  2  2.50     -2483.2977  10.0000                                         
     4  0  0.50      -856.2895   2.0000                                         
     4  1  1.50      -645.4942   6.0000                                         
     4  2  2.50      -401.8768  10.0000                                         
     4  3  3.50      -132.9059  14.0000                                         
     5  0  0.50      -144.0950   2.0000                                         
     5  1  1.50       -85.7879   6.0000                                         
     5  2  2.50       -21.1769  10.0000                                         
     6  0  0.50       -12.0372   2.0000                                         
     6  1  1.50        -3.4971   2.0000                                         
     5  3  2.50        -2.7212   0.0000                                         
   Description                                                                  
     l       E           TYP  RCUT    TYP  RCUT                                 
     2    -21.1768523     23  2.500                                             
     2      1.3605826     23  2.500                                             
     0    -12.0371562     23  2.500                                             
     0     13.6058260     23  2.500                                             
     1     -3.4971339     23  2.500                                             
     1     13.6058260     23  2.500                                             
     3     -1.3605826      7  2.500                                             
  local pseudopotential read in
  partial core-charges read in
  partial kinetic energy density read in
  atomic valenz-charges read in
  non local Contribution for L=           2  read in
    real space projection operators read in
  non local Contribution for L=           2  read in
    real space projection operators read in
  non local Contribution for L=           0  read in
    real space projection operators read in
  non local Contribution for L=           0  read in
    real space projection operators read in
  non local Contribution for L=           1  read in
    real space projection operators read in
  non local Contribution for L=           1  read in
    real space projection operators read in
    PAW grid and wavefunctions read in

   number of l-projection  operators is LMAX  =           6
   number of lm-projection operators is LMMAX =          18

 POTCAR:    PAW_PBE Br 06Sep2000                  
   SHA256 =  96a73d2954943bbee26f4990d676cc6c3bf44b8dd2c75cd4b3b825d8403f0103 Br
   COPYR  = (c) Copyright 06Sep2000 Georg Kresse                                
   COPYR  = This file is part of the software VASP. Any use, copying, and all ot
   COPYR  = If you do not have a valid VASP license, you may not use, copy or di
   VRHFIN =Br: s2p5                                                             
   LEXCH  = PE                                                                  
   EATOM  =   368.4488 eV,   27.0802 Ry                                         
                                                                                
   TITEL  = PAW_PBE Br 06Sep2000                                                
   LULTRA =        F    use ultrasoft PP ?                                      
   IUNSCR =        1    unscreen: 0-lin 1-nonlin 2-no                           
   RPACOR =    1.900    partial core radius                                     
   POMASS =   79.904; ZVAL   =    7.000    mass and valenz                      
   RCORE  =    2.100    outmost cutoff radius                                   
   RWIGS  =    2.200; RWIGS  =    1.164    wigner-seitz radius (au A)           
   ENMAX  =  216.285; ENMIN  =  162.214 eV                                      
   ICORE  =        3    local potential                                         
   LCOR   =        T    correct aug charges                                     
   LPAW   =        T    paw PP                                                  
   EAUG   =  503.852                                                            
   DEXC   =    0.000                                                            
   RMAX   =    2.139    core radius for proj-oper                               
   RAUG   =    1.300    factor for augmentation sphere                          
   RDEP   =    2.186    radius for radial grids                                 
   RDEPT  =    1.890    core radius for aug-charge                              
                                                                                
   Atomic configuration                                                         
   10 entries                                                                   
     n  l   j            E        occ.                                          
     1  0  0.50    -13316.2796   2.0000                                         
     2  0  0.50     -1732.8239   2.0000                                         
     2  1  1.50     -1528.2193   6.0000                                         
     3  0  0.50      -238.0460   2.0000                                         
     3  1  1.50      -173.4609   6.0000                                         
     3  2  2.50       -66.7132  10.0000                                         
     4  0  0.50       -20.1334   2.0000                                         
     4  1  0.50        -7.8591   5.0000                                         
     4  2  2.50        -8.1635   0.0000                                         
     4  3  2.50        -8.1635   0.0000                                         
   Description                                                                  
     l       E           TYP  RCUT    TYP  RCUT                                 
     0    -20.1333652     23  2.100                                             
     0    -21.4939478     23  2.100                                             
     1     -7.8591052     23  2.100                                             
     1     -3.1608434     23  2.100                                             
     2     -8.1634956     23  2.100                                             
     3     -1.3605826      7  2.100                                             
  local pseudopotential read in
  partial core-charges read in
  partial kinetic energy density read in
  atomic valenz-charges read in
  non local Contribution for L=           0  read in
    real space projection operators read in
  non local Contribution for L=           0  read in
    real space projection operators read in
  non local Contribution for L=           1  read in
    real space projection operators read in
  non local Contribution for L=           1  read in
    real space projection operators read in
  non local Contribution for L=           2  read in
    real space projection operators read in
    PAW grid and wavefunctions read in

   number of l-projection  operators is LMAX  =           5
   number of lm-projection operators is LMMAX =          13

 Optimization of the real space projectors (new method)

 maximal supplied QI-value         = 15.12
 optimisation between [QCUT,QGAM] = [  8.77, 17.69] = [ 21.53, 87.61] Ry 
 Optimized for a Real-space Cutoff    1.85 Angstroem

   l    n(q)    QCUT    max X(q) W(low)/X(q) W(high)/X(q)  e(spline) 
   0     10     8.768    25.322    0.81E-04    0.51E-04    0.48E-06
   0     10     8.768    99.187    0.78E-04    0.50E-04    0.47E-06
   1      9     8.768    11.761    0.21E-03    0.20E-03    0.37E-06
   1      9     8.768     8.275    0.24E-03    0.22E-03    0.41E-06
   2      9     8.768     3.829    0.23E-04    0.15E-03    0.18E-06
 Optimization of the real space projectors (new method)

 maximal supplied QI-value         = 15.12
 optimisation between [QCUT,QGAM] = [  8.77, 17.69] = [ 21.53, 87.61] Ry 
 Optimized for a Real-space Cutoff    1.59 Angstroem

   l    n(q)    QCUT    max X(q) W(low)/X(q) W(high)/X(q)  e(spline) 
   2      7     8.768     3.846    0.48E-04    0.11E-03    0.11E-06
   2      7     8.768     8.593    0.20E-03    0.22E-04    0.24E-06
   0      8     8.768    20.082    0.68E-04    0.88E-04    0.41E-07
   0      8     8.768     8.597    0.89E-04    0.13E-03    0.59E-07
   1      8     8.768    33.223    0.15E-03    0.53E-04    0.87E-07
   1      8     8.768    15.899    0.14E-03    0.44E-04    0.78E-07
 Optimization of the real space projectors (new method)

 maximal supplied QI-value         = 17.95
 optimisation between [QCUT,QGAM] = [  8.80, 17.59] = [ 21.67, 86.68] Ry 
 Optimized for a Real-space Cutoff    1.59 Angstroem

   l    n(q)    QCUT    max X(q) W(low)/X(q) W(high)/X(q)  e(spline) 
   0      8     8.797   175.082    0.82E-04    0.14E-03    0.89E-07
   0      8     8.797   174.004    0.79E-04    0.14E-03    0.86E-07
   1      8     8.797    54.315    0.16E-03    0.14E-04    0.30E-06
   1      8     8.797    42.441    0.16E-03    0.14E-04    0.30E-06
   2      7     8.797     3.596    0.92E-04    0.15E-03    0.85E-07
  PAW_PBE Cs_sv 08Apr2002               :
 energy of atom  1       EATOM= -555.6835
 kinetic energy error for atom=    0.0069 (will be added to EATOM!!)
  PAW_PBE Pb_d 06Sep2000                :
 energy of atom  2       EATOM=-1661.6185
 kinetic energy error for atom=    0.0498 (will be added to EATOM!!)
  PAW_PBE Br 06Sep2000                  :
 energy of atom  3       EATOM= -368.4488
 kinetic energy error for atom=    0.0072 (will be added to EATOM!!)


 POSCAR: Cs4 Pb4 Br12                            
  positions in direct lattice
  velocities in cartesian coordinates

 METAGGA = SCAN     LMAXTAU =  6    LMIXTAU =  F

 exchange correlation table for  LEXCH =        8
   RHO(1)=    0.500       N(1)  =     2000
   RHO(2)=  100.500       N(2)  =     4000

 VTST: version 3.2, (02/03/18)

 CHAIN: initializing optimizer
 
 OPT: Using VASP Conjugate-Gradient optimizer
 CHAIN: Read ICHAIN            0

 POSCAR: Cs4 Pb4 Br12                            
  positions in direct lattice
  velocities in cartesian coordinates



--------------------------------------------------------------------------------------------------------


 ion  position               nearest neighbor table
   1  0.055  0.250  0.482-
   2  0.445  0.750  0.982-
   3  0.555  0.250  0.018-
   4  0.945  0.750  0.518-
   5  0.000  0.000  0.000-  10 2.96  11 2.96  15 3.09  18 3.09  17 3.09  16 3.09
   6  0.500  0.000  0.500-   9 2.96  12 2.96  16 3.09  17 3.09  15 3.09  18 3.09
   7  0.500  0.500  0.500-   9 2.96  12 2.96  13 3.09  19 3.09  14 3.09  20 3.09
   8  0.000  0.500  0.000-  10 2.96  11 2.96  14 3.09  20 3.09  19 3.09  13 3.09
   9  0.525  0.750  0.415-   6 2.96   7 2.96
  10  0.975  0.250  0.915-   5 2.96   8 2.96
  11  0.025  0.750  0.085-   5 2.96   8 2.96
  12  0.475  0.250  0.585-   6 2.96   7 2.96
  13  0.282  0.461  0.216-   7 3.09   8 3.09
  14  0.218  0.539  0.716-   8 3.09   7 3.09
  15  0.782  0.039  0.284-   5 3.09   6 3.09
  16  0.718  0.961  0.784-   6 3.09   5 3.09
  17  0.282  0.039  0.216-   6 3.09   5 3.09
  18  0.218  0.961  0.716-   5 3.09   6 3.09
  19  0.718  0.539  0.784-   7 3.09   8 3.09
  20  0.782  0.461  0.284-   8 3.09   7 3.09

  LATTYP: Found a simple orthorhombic cell.
 ALAT       =     8.4010997759
 B/A-ratio  =     1.0423418999
 C/A-ratio  =     1.3647145990
  
  Lattice vectors:
  
 A1 = (   0.0000000000,   0.0000000000,   8.4010997759)
 A2 = (  -8.7568183018,   0.0000000000,   0.0000000000)
 A3 = (   0.0000000000, -11.4651035120,   0.0000000000)


Analysis of symmetry for initial positions (statically):
=====================================================================
 Subroutine PRICEL returns:
 Original cell was already a primitive cell.
 

 Routine SETGRP: Setting up the symmetry group for a 
 simple orthorhombic supercell.


 Subroutine GETGRP returns: Found  8 space group operations
 (whereof  2 operations were pure point group operations)
 out of a pool of  8 trial point group operations.


The static configuration has the point symmetry S_2 .
 The point group associated with its full space group is D_2h.


Analysis of symmetry for dynamics (positions and initial velocities):
=====================================================================
 Subroutine PRICEL returns:
 Original cell was already a primitive cell.
 

 Routine SETGRP: Setting up the symmetry group for a 
 simple orthorhombic supercell.


 Subroutine GETGRP returns: Found  8 space group operations
 (whereof  2 operations were pure point group operations)
 out of a pool of  8 trial point group operations.


The dynamic configuration has the point symmetry S_2 .
 The point group associated with its full space group is D_2h.


 Subroutine INISYM returns: Found  8 space group operations
 (whereof  2 operations are pure point group operations),
 and found     1 'primitive' translations



 KPOINTS: 1x1x1                                   

Automatic generation of k-mesh.
Space group operators:
 irot       det(A)        alpha          n_x          n_y          n_z        tau_x        tau_y        tau_z
    1     1.000000     0.000000     1.000000     0.000000     0.000000     0.000000     0.000000     0.000000
    2    -1.000000     0.000000     1.000000     0.000000     0.000000     0.000000     0.000000     0.000000
    3     1.000000   179.999999     0.000000     1.000000     0.000000     0.000000    -0.500000     0.000000
    4    -1.000000   179.999999     0.000000     1.000000     0.000000     0.000000    -0.500000     0.000000
    5     1.000000   180.000000     1.000000     0.000000     0.000000    -0.500000    -0.500000     0.500000
    6    -1.000000   180.000000     1.000000     0.000000     0.000000    -0.500000    -0.500000     0.500000
    7     1.000000   180.000000     0.000000     0.000000     1.000000    -0.500000     0.000000     0.500000
    8    -1.000000   180.000000     0.000000     0.000000     1.000000    -0.500000     0.000000     0.500000
 
 Subroutine IBZKPT returns following result:
 ===========================================
 
 Found      8 irreducible k-points:
 
 Following reciprocal coordinates:
            Coordinates               Weight
  0.000000  0.000000  0.000000      1.000000
  0.333333  0.000000  0.000000      2.000000
  0.000000  0.500000  0.000000      1.000000
  0.333333  0.500000  0.000000      2.000000
  0.000000  0.000000  0.333333      2.000000
  0.333333  0.000000  0.333333      4.000000
  0.000000  0.500000  0.333333      2.000000
  0.333333  0.500000  0.333333      4.000000
 
 Following cartesian coordinates:
            Coordinates               Weight
  0.000000  0.000000  0.000000      1.000000
  0.038066  0.000000  0.000000      2.000000
  0.000000  0.043611  0.000000      1.000000
  0.038066  0.043611  0.000000      2.000000
  0.000000  0.000000  0.039677      2.000000
  0.038066  0.000000  0.039677      4.000000
  0.000000  0.043611  0.039677      2.000000
  0.038066  0.043611  0.039677      4.000000
 


--------------------------------------------------------------------------------------------------------




 Dimension of arrays:
   k-points           NKPTS =      8   k-points in BZ     NKDIM =      8   number of bands    NBANDS=    112
   number of dos      NEDOS =    301   number of ions     NIONS =     20
   non local maximal  LDIM  =      6   non local SUM 2l+1 LMDIM =     18
   total plane-waves  NPLWV = 168000
   max r-space proj   IRMAX =   5315   max aug-charges    IRDMAX=  84790
   dimension x,y,z NGX =    50 NGY =   70 NGZ =   48
   dimension x,y,z NGXF=   100 NGYF=  140 NGZF=   96
   support grid    NGXF=   200 NGYF=  280 NGZF=  192
   ions per type =               4   4  12
   NGX,Y,Z   is equivalent  to a cutoff of   9.49, 10.15,  9.50 a.u.
   NGXF,Y,Z  is equivalent  to a cutoff of  18.98, 20.30, 19.00 a.u.

 SYSTEM =  CsPbBr3 cubic bulk                      
 POSCAR =  Cs4 Pb4 Br12                            

 Startparameter for this run:
   NWRITE =      2    write-flag & timer
   PREC   = accura    normal or accurate (medium, high low for compatibility)
   ISTART =      0    job   : 0-new  1-cont  2-samecut
   ICHARG =      2    charge: 1-file 2-atom 10-const
   ISPIN  =      1    spin polarized calculation?
   LNONCOLLINEAR =      F non collinear calculations
   LSORBIT =      F    spin-orbit coupling
   INIWAV =      1    electr: 0-lowe 1-rand  2-diag
   LASPH  =      T    aspherical Exc in radial PAW
   METAGGA=      F    non-selfconsistent MetaGGA calc.

 Electronic Relaxation 1
   ENCUT  =  300.0 eV  22.05 Ry    4.70 a.u.  12.37 16.19 11.86*2*pi/ulx,y,z
   ENINI  =  300.0     initial cutoff
   ENAUG  =  503.9 eV  augmentation charge cutoff
   NELM   =    200;   NELMIN=  2; NELMDL= -5     # of ELM steps 
   EDIFF  = 0.1E-05   stopping-criterion for ELM
   LREAL  =      T    real-space projection
   NLSPLINE    = F    spline interpolate recip. space projectors
   LCOMPAT=      F    compatible to vasp.4.4
   GGA_COMPAT  = T    GGA compatible to vasp.4.4-vasp.4.6
   LMAXPAW     = -100 max onsite density
   LMAXMIX     =    2 max onsite mixed and CHGCAR
   VOSKOWN=      0    Vosko Wilk Nusair interpolation
   ROPT   =   -0.00025  -0.00025  -0.00025
 Ionic relaxation
   EDIFFG = -.1E-01   stopping-criterion for IOM
   NSW    =      0    number of steps for IOM
   NBLOCK =      1;   KBLOCK =      1    inner block; outer block 
   IBRION =     -1    ionic relax: 0-MD 1-quasi-New 2-CG
   NFREE  =      1    steps in history (QN), initial steepest desc. (CG)
   ISIF   =      3    stress and relaxation
   IWAVPR =     10    prediction:  0-non 1-charg 2-wave 3-comb
   ISYM   =      2    0-nonsym 1-usesym 2-fastsym
   LCORR  =      T    Harris-Foulkes like correction to forces

   POTIM  = 0.5000    time-step for ionic-motion
   TEIN   =    0.0    initial temperature
   TEBEG  =    0.0;   TEEND  =   0.0 temperature during run
   SMASS  =  -3.00    Nose mass-parameter (am)
   estimated Nose-frequenzy (Omega)   =  0.10E-29 period in steps =****** mass=  -0.175E-26a.u.
   SCALEE = 1.0000    scale energy and forces
   NPACO  =    256;   APACO  = 16.0  distance and # of slots for P.C.
   PSTRESS=    0.0 pullay stress

  Mass of Ions in am
   POMASS = 132.90207.20 79.90
  Ionic Valenz
   ZVAL   =   9.00 14.00  7.00
  Atomic Wigner-Seitz radii
   RWIGS  =  -1.00 -1.00 -1.00
  virtual crystal weights 
   VCA    =   1.00  1.00  1.00
   NELECT =     176.0000    total number of electrons
   NUPDOWN=      -1.0000    fix difference up-down

 DOS related values:
   EMIN   =  10.00;   EMAX   =-10.00  energy-range for DOS
   EFERMI =   0.00
   ISMEAR =     0;   SIGMA  =   0.01  broadening in eV -4-tet -1-fermi 0-gaus

 Electronic relaxation 2 (details)
   IALGO  =     38    algorithm
   LDIAG  =      T    sub-space diagonalisation (order eigenvalues)
   LSUBROT=      F    optimize rotation matrix (better conditioning)
   TURBO    =      0    0=normal 1=particle mesh
   IRESTART =      0    0=no restart 2=restart with 2 vectors
   NREBOOT  =      0    no. of reboots
   NMIN     =      0    reboot dimension
   EREF     =   0.00    reference energy to select bands
   IMIX   =      4    mixing-type and parameters
     AMIX     =   0.40;   BMIX     =  1.00
     AMIX_MAG =   1.60;   BMIX_MAG =  1.00
     AMIN     =   0.10
     WC   =   100.;   INIMIX=   1;  MIXPRE=   1;  MAXMIX= -45

 Intra band minimization:
   WEIMIN = 0.0000     energy-eigenvalue tresh-hold
   EBREAK =  0.22E-08  absolut break condition
   DEPER  =   0.30     relativ break condition  

   TIME   =   0.40     timestep for ELM

  volume/ion in A,a.u.               =      42.17       284.59
  Fermi-wavevector in a.u.,A,eV,Ry     =   0.971014  1.834951 12.828505  0.942869
  Thomas-Fermi vector in A             =   2.101197

 Write flags
   LWAVE        =      F    write WAVECAR
   LDOWNSAMPLE  =      F    k-point downsampling of WAVECAR
   LCHARG       =      F    write CHGCAR
   LVTOT        =      F    write LOCPOT, total local potential
   LVHAR        =      T    write LOCPOT, Hartree potential only
   LELF         =      F    write electronic localiz. function (ELF)
   LORBIT       =     10    0 simple, 1 ext, 2 COOP (PROOUT), +10 PAW based schemes


 Dipole corrections
   LMONO  =      F    monopole corrections only (constant potential shift)
   LDIPOL =      F    correct potential (dipole corrections)
   IDIPOL =      0    1-x, 2-y, 3-z, 4-all directions 
   EPSILON=  1.0000000 bulk dielectric constant

 Exchange correlation treatment:
   GGA     =    --    GGA type
   LEXCH   =     8    internal setting for exchange type
   VOSKOWN=      0    Vosko Wilk Nusair interpolation
   LHFCALC =     F    Hartree Fock is set to
   LHFONE  =     F    Hartree Fock one center treatment
   AEXX    =    0.0000 exact exchange contribution

 Linear response parameters
   LEPSILON=     F    determine dielectric tensor
   LRPA    =     F    only Hartree local field effects (RPA)
   LNABLA  =     F    use nabla operator in PAW spheres
   LVEL    =     F    velocity operator in full k-point grid
   LINTERFAST=   F  fast interpolation
   KINTER  =     0    interpolate to denser k-point grid
   CSHIFT  =0.1000    complex shift for real part using Kramers Kronig
   OMEGAMAX=  -1.0    maximum frequency
   DEG_THRESHOLD= 0.2000000E-02 threshold for treating states as degnerate
   RTIME   =   -0.100 relaxation time in fs
  (WPLASMAI=    0.000 imaginary part of plasma frequency in eV, 0.658/RTIME)
   DFIELD  = 0.0000000 0.0000000 0.0000000 field for delta impulse in time

 Orbital magnetization related:
   ORBITALMAG=     F  switch on orbital magnetization
   LCHIMAG   =     F  perturbation theory with respect to B field
   DQ        =  0.001000  dq finite difference perturbation B field
   LLRAUG    =     F  two centre corrections for induced B field



--------------------------------------------------------------------------------------------------------


 Static calculation
 charge density and potential will be updated during run
 non-spin polarized calculation
 Variant of blocked Davidson
 Davidson routine will perform the subspace rotation
 perform sub-space diagonalisation
    after iterative eigenvector-optimisation
 modified Broyden-mixing scheme, WC =      100.0
 initial mixing is a Kerker type mixing with AMIX =  0.4000 and BMIX =      1.0000
 Hartree-type preconditioning will be used
 using additional bands           24
 real space projection scheme for non local part
 use partial core corrections
 calculate Harris-corrections to forces   (improved forces if not selfconsistent)
 use gradient corrections 
 use of overlap-Matrix (Vanderbilt PP)
 Gauss-broadening in eV      SIGMA  =   0.01


--------------------------------------------------------------------------------------------------------


  energy-cutoff  :      300.00
  volume of cell :      843.45
      direct lattice vectors                 reciprocal lattice vectors
     8.756818302  0.000000000  0.000000000     0.114196728  0.000000000  0.000000000
     0.000000000 11.465103512  0.000000000     0.000000000  0.087221192  0.000000000
     0.000000000  0.000000000  8.401099776     0.000000000  0.000000000  0.119032035

  length of vectors
     8.756818302 11.465103512  8.401099776     0.114196728  0.087221192  0.119032035



 k-points in units of 2pi/SCALE and weight: 1x1x1                                   
   0.00000000  0.00000000  0.00000000       0.056
   0.03806558  0.00000000  0.00000000       0.111
   0.00000000  0.04361060  0.00000000       0.056
   0.03806558  0.04361060  0.00000000       0.111
   0.00000000  0.00000000  0.03967734       0.111
   0.03806558  0.00000000  0.03967734       0.222
   0.00000000  0.04361060  0.03967734       0.111
   0.03806558  0.04361060  0.03967734       0.222

 k-points in reciprocal lattice and weights: 1x1x1                                   
   0.00000000  0.00000000  0.00000000       0.056
   0.33333333  0.00000000  0.00000000       0.111
   0.00000000  0.50000000  0.00000000       0.056
   0.33333333  0.50000000  0.00000000       0.111
   0.00000000  0.00000000  0.33333333       0.111
   0.33333333  0.00000000  0.33333333       0.222
   0.00000000  0.50000000  0.33333333       0.111
   0.33333333  0.50000000  0.33333333       0.222

 position of ions in fractional coordinates (direct lattice) 
   0.05546200  0.25000000  0.48235819
   0.44453800  0.75000000  0.98235819
   0.55546200  0.25000000  0.01764181
   0.94453800  0.75000000  0.51764181
   0.00000000  0.00000000  0.00000000
   0.50000000  0.00000000  0.50000000
   0.50000000  0.50000000  0.50000000
   0.00000000  0.50000000  0.00000000
   0.52467583  0.75000000  0.41471526
   0.97532417  0.25000000  0.91471526
   0.02467583  0.75000000  0.08528474
   0.47532417  0.25000000  0.58528474
   0.28177169  0.46141192  0.21597562
   0.21822831  0.53858808  0.71597562
   0.78177169  0.03858808  0.28402438
   0.71822831  0.96141192  0.78402438
   0.28177169  0.03858808  0.21597562
   0.21822831  0.96141192  0.71597562
   0.71822831  0.53858808  0.78402438
   0.78177169  0.46141192  0.28402438

 position of ions in cartesian coordinates  (Angst):
   0.48567068  2.86627588  4.05233925
   3.89273847  8.59882763  8.25288914
   4.86407983  2.86627588  0.14821064
   8.27114762  8.59882763  4.34876053
   0.00000000  0.00000000  0.00000000
   4.37840915  0.00000000  4.20054989
   4.37840915  5.73255176  4.20054989
   0.00000000  5.73255176  0.00000000
   4.59449093  8.59882763  3.48406430
   8.54073652  2.86627588  7.68461418
   0.21608178  8.59882763  0.71648559
   4.16232737  2.86627588  4.91703548
   2.46742349  5.29013547  1.81443273
   1.91098566  6.17496804  6.01498262
   6.84583264  0.44241628  2.38611716
   6.28939481 11.02268723  6.58666705
   2.46742349  0.44241628  1.81443273
   1.91098566 11.02268723  6.01498262
   6.28939481  6.17496804  6.58666705
   6.84583264  5.29013547  2.38611716



--------------------------------------------------------------------------------------------------------


 k-point  1 :   0.0000 0.0000 0.0000  plane waves:    9955
 k-point  2 :   0.3333 0.0000 0.0000  plane waves:    9927
 k-point  3 :   0.0000 0.5000 0.0000  plane waves:    9952
 k-point  4 :   0.3333 0.5000 0.0000  plane waves:    9960
 k-point  5 :   0.0000 0.0000 0.3333  plane waves:    9952
 k-point  6 :   0.3333 0.0000 0.3333  plane waves:    9946
 k-point  7 :   0.0000 0.5000 0.3333  plane waves:    9960
 k-point  8 :   0.3333 0.5000 0.3333  plane waves:    9948

 maximum and minimum number of plane-waves per node :      1259     1223

 maximum number of plane-waves:      9960
 maximum index in each direction: 
   IXMAX=   12   IYMAX=   16   IZMAX=   11
   IXMIN=  -12   IYMIN=  -16   IZMIN=  -12


 real space projection operators:
  total allocation   :       7907.69 KBytes
  max/ min on nodes  :       1120.91        919.50


 parallel 3D FFT for wavefunctions:
    minimum data exchange during FFTs selected (reduces bandwidth)
 parallel 3D FFT for charge:
    minimum data exchange during FFTs selected (reduces bandwidth)


 total amount of memory used by VASP MPI-rank0    43670. kBytes
=======================================================================

   base      :      30000. kBytes
   nonlr-proj:       3175. kBytes
   fftplans  :       4446. kBytes
   grid      :       3667. kBytes
   one-center:         46. kBytes
   wavefun   :       2336. kBytes

     INWAV:  cpu time    0.0000: real time    0.0000
 Broyden mixing: mesh for mixing (old mesh)
   NGX = 25   NGY = 33   NGZ = 23
  (NGX  =100   NGY  =140   NGZ  = 96)
  gives a total of  18975 points

 initial charge density was supplied:
 charge density of overlapping atoms calculated
 number of electron     176.0000000 magnetization 
 keeping initial charge density in first step


--------------------------------------------------------------------------------------------------------


 Maximum index for non-local projection operator          908
 Maximum index for augmentation-charges         4452 (set IRDMAX)


--------------------------------------------------------------------------------------------------------


 First call to EWALD:  gamma=   0.188
 Maximum number of real-space cells 3x 2x 3
 Maximum number of reciprocal cells 3x 3x 2

    FEWALD:  cpu time    0.0024: real time    0.0024


--------------------------------------- Iteration      1(   1)  ---------------------------------------


    POTLOK:  cpu time    0.1284: real time    0.1374
    SETDIJ:  cpu time    1.0961: real time    1.0962
     EDDAV:  cpu time    4.3954: real time    4.4019
       DOS:  cpu time    0.0006: real time    0.0006
    --------------------------------------------
      LOOP:  cpu time    5.6204: real time    5.6360

 eigenvalue-minimisations  :  1856
 total energy-change (2. order) : 0.6600534E+03  (-0.5597707E+04)
 number of electron     176.0000000 magnetization 
 augmentation part      176.0000000 magnetization 

 Free energy of the ion-electron system (eV)
  ---------------------------------------------------
  alpha Z        PSCENC =       427.77639978
  Ewald energy   TEWEN  =     -9059.11820441
  -Hartree energ DENC   =     -3752.38287738
  -exchange      EXHF   =         0.00000000
  -V(xc)+E(xc)   XCENC  =       460.83280516
  PAW double counting   =     10816.98087266   -11353.96092700
  entropy T*S    EENTRO =        -0.00001855
  eigenvalues    EBANDS =      -170.35474774
  atomic energy  EATOM  =     13290.28009929
  Solvation  Ediel_sol  =         0.00000000
  ---------------------------------------------------
  free energy    TOTEN  =       660.05340181 eV

  energy without entropy =      660.05342036  energy(sigma->0) =      660.05341108


--------------------------------------------------------------------------------------------------------




--------------------------------------- Iteration      1(   2)  ---------------------------------------


     EDDAV:  cpu time    4.9396: real time    4.9632
       DOS:  cpu time    0.0003: real time    0.0003
    --------------------------------------------
      LOOP:  cpu time    4.9399: real time    4.9634

 eigenvalue-minimisations  :  2224
 total energy-change (2. order) :-0.1235571E+04  (-0.1188871E+04)
 number of electron     176.0000000 magnetization 
 augmentation part      176.0000000 magnetization 

 Free energy of the ion-electron system (eV)
  ---------------------------------------------------
  alpha Z        PSCENC =       427.77639978
  Ewald energy   TEWEN  =     -9059.11820441
  -Hartree energ DENC   =     -3752.38287738
  -exchange      EXHF   =         0.00000000
  -V(xc)+E(xc)   XCENC  =       460.83280516
  PAW double counting   =     10816.98087266   -11353.96092700
  entropy T*S    EENTRO =        -0.00000000
  eigenvalues    EBANDS =     -1405.92596385
  atomic energy  EATOM  =     13290.28009929
  Solvation  Ediel_sol  =         0.00000000
  ---------------------------------------------------
  free energy    TOTEN  =      -575.51779576 eV

  energy without entropy =     -575.51779576  energy(sigma->0) =     -575.51779576


--------------------------------------------------------------------------------------------------------




--------------------------------------- Iteration      1(   3)  ---------------------------------------


     EDDAV:  cpu time    5.2449: real time    5.2923
       DOS:  cpu time    0.0003: real time    0.0003
    --------------------------------------------
      LOOP:  cpu time    5.2452: real time    5.2926

 eigenvalue-minimisations  :  2432
 total energy-change (2. order) :-0.1733388E+03  (-0.1722961E+03)
 number of electron     176.0000000 magnetization 
 augmentation part      176.0000000 magnetization 

 Free energy of the ion-electron system (eV)
  ---------------------------------------------------
  alpha Z        PSCENC =       427.77639978
  Ewald energy   TEWEN  =     -9059.11820441
  -Hartree energ DENC   =     -3752.38287738
  -exchange      EXHF   =         0.00000000
  -V(xc)+E(xc)   XCENC  =       460.83280516
  PAW double counting   =     10816.98087266   -11353.96092700
  entropy T*S    EENTRO =        -0.00000000
  eigenvalues    EBANDS =     -1579.26476138
  atomic energy  EATOM  =     13290.28009929
  Solvation  Ediel_sol  =         0.00000000
  ---------------------------------------------------
  free energy    TOTEN  =      -748.85659329 eV

  energy without entropy =     -748.85659329  energy(sigma->0) =     -748.85659329


--------------------------------------------------------------------------------------------------------




--------------------------------------- Iteration      1(   4)  ---------------------------------------


     EDDAV:  cpu time    4.9142: real time    4.9264
       DOS:  cpu time    0.0003: real time    0.0003
    --------------------------------------------
      LOOP:  cpu time    4.9145: real time    4.9267

 eigenvalue-minimisations  :  2184
 total energy-change (2. order) :-0.5674614E+01  (-0.5657831E+01)
 number of electron     176.0000000 magnetization 
 augmentation part      176.0000000 magnetization 

 Free energy of the ion-electron system (eV)
  ---------------------------------------------------
  alpha Z        PSCENC =       427.77639978
  Ewald energy   TEWEN  =     -9059.11820441
  -Hartree energ DENC   =     -3752.38287738
  -exchange      EXHF   =         0.00000000
  -V(xc)+E(xc)   XCENC  =       460.83280516
  PAW double counting   =     10816.98087266   -11353.96092700
  entropy T*S    EENTRO =        -0.00000000
  eigenvalues    EBANDS =     -1584.93937502
  atomic energy  EATOM  =     13290.28009929
  Solvation  Ediel_sol  =         0.00000000
  ---------------------------------------------------
  free energy    TOTEN  =      -754.53120693 eV

  energy without entropy =     -754.53120693  energy(sigma->0) =     -754.53120693


--------------------------------------------------------------------------------------------------------




--------------------------------------- Iteration      1(   5)  ---------------------------------------


     EDDAV:  cpu time    5.2125: real time    5.2487
       DOS:  cpu time    0.0004: real time    0.0004
    CHARGE:  cpu time    0.9553: real time    0.9553
    MIXING:  cpu time    0.0008: real time    0.0008
    --------------------------------------------
      LOOP:  cpu time    6.1690: real time    6.2052

 eigenvalue-minimisations  :  2416
 total energy-change (2. order) :-0.2434930E+00  (-0.2433461E+00)
 number of electron     176.0000005 magnetization 
 augmentation part       -3.2273655 magnetization 

 Broyden mixing:
  rms(total) = 0.68547E+00    rms(broyden)= 0.68521E+00
  rms(prec ) = 0.10032E+01
  weight for this iteration     100.00

 Free energy of the ion-electron system (eV)
  ---------------------------------------------------
  alpha Z        PSCENC =       427.77639978
  Ewald energy   TEWEN  =     -9059.11820441
  -Hartree energ DENC   =     -3752.38287738
  -exchange      EXHF   =         0.00000000
  -V(xc)+E(xc)   XCENC  =       460.83280516
  PAW double counting   =     10816.98087266   -11353.96092700
  entropy T*S    EENTRO =        -0.00000000
  eigenvalues    EBANDS =     -1585.18286804
  atomic energy  EATOM  =     13290.28009929
  Solvation  Ediel_sol  =         0.00000000
  ---------------------------------------------------
  free energy    TOTEN  =      -754.77469995 eV

  energy without entropy =     -754.77469995  energy(sigma->0) =     -754.77469995


--------------------------------------------------------------------------------------------------------




--------------------------------------- Iteration      1(   6)  ---------------------------------------


    POTLOK:  cpu time    0.1366: real time    0.1693
    SETDIJ:  cpu time    1.0982: real time    1.0983
     EDDAV:  cpu time    5.0785: real time    5.0788
       DOS:  cpu time    0.0004: real time    0.0004
    CHARGE:  cpu time    0.9263: real time    0.9263
    MIXING:  cpu time    0.0009: real time    0.0009
    --------------------------------------------
      LOOP:  cpu time    7.2409: real time    7.2740

 eigenvalue-minimisations  :  2336
 total energy-change (2. order) : 0.4003852E+02  (-0.1194281E+01)
 number of electron     176.0000006 magnetization 
 augmentation part       -2.4885246 magnetization 

 Broyden mixing:
  rms(total) = 0.48665E+00    rms(broyden)= 0.48659E+00
  rms(prec ) = 0.62767E+00
  weight for this iteration     100.00

 eigenvalues of (default mixing * dielectric matrix)
  average eigenvalue GAMMA=   1.1091
  1.1091

 Free energy of the ion-electron system (eV)
  ---------------------------------------------------
  alpha Z        PSCENC =       427.77639978
  Ewald energy   TEWEN  =     -9059.11820441
  -Hartree energ DENC   =     -3742.82058074
  -exchange      EXHF   =         0.00000000
  -V(xc)+E(xc)   XCENC  =       476.50923552
  PAW double counting   =     10925.45210707   -11461.11816712
  entropy T*S    EENTRO =        -0.00000000
  eigenvalues    EBANDS =     -1571.69706796
  atomic energy  EATOM  =     13290.28009929
  Solvation  Ediel_sol  =         0.00000000
  ---------------------------------------------------
  free energy    TOTEN  =      -714.73617857 eV

  energy without entropy =     -714.73617857  energy(sigma->0) =     -714.73617857


--------------------------------------------------------------------------------------------------------




--------------------------------------- Iteration      1(   7)  ---------------------------------------


    POTLOK:  cpu time    0.1473: real time    0.1485
    SETDIJ:  cpu time    1.0956: real time    1.0956
     EDDAV:  cpu time    5.0235: real time    5.0238
       DOS:  cpu time    0.0003: real time    0.0003
    CHARGE:  cpu time    0.9204: real time    0.9205
    MIXING:  cpu time    0.0009: real time    0.0009
    --------------------------------------------
      LOOP:  cpu time    7.1881: real time    7.1897

 eigenvalue-minimisations  :  2296
 total energy-change (2. order) : 0.2361592E+00  (-0.4245382E+00)
 number of electron     176.0000005 magnetization 
 augmentation part       -2.2093049 magnetization 

 Broyden mixing:
  rms(total) = 0.25994E+00    rms(broyden)= 0.25993E+00
  rms(prec ) = 0.28865E+00
  weight for this iteration     100.00

 eigenvalues of (default mixing * dielectric matrix)
  average eigenvalue GAMMA=   1.2984
  1.2984  1.2984

 Free energy of the ion-electron system (eV)
  ---------------------------------------------------
  alpha Z        PSCENC =       427.77639978
  Ewald energy   TEWEN  =     -9059.11820441
  -Hartree energ DENC   =     -3762.39821229
  -exchange      EXHF   =         0.00000000
  -V(xc)+E(xc)   XCENC  =       479.09390953
  PAW double counting   =     11203.99365472   -11738.38007019
  entropy T*S    EENTRO =        -0.00000000
  eigenvalues    EBANDS =     -1555.74759584
  atomic energy  EATOM  =     13290.28009929
  Solvation  Ediel_sol  =         0.00000000
  ---------------------------------------------------
  free energy    TOTEN  =      -714.50001942 eV

  energy without entropy =     -714.50001942  energy(sigma->0) =     -714.50001942


--------------------------------------------------------------------------------------------------------




--------------------------------------- Iteration      1(   8)  ---------------------------------------


    POTLOK:  cpu time    0.1285: real time    0.1504
    SETDIJ:  cpu time    1.0968: real time    1.0968
     EDDAV:  cpu time    4.7714: real time    4.7716
       DOS:  cpu time    0.0004: real time    0.0004
    CHARGE:  cpu time    0.9201: real time    0.9201
    MIXING:  cpu time    0.0009: real time    0.0009
    --------------------------------------------
      LOOP:  cpu time    6.9181: real time    6.9403

 eigenvalue-minimisations  :  2128
 total energy-change (2. order) :-0.1041787E+00  (-0.1931572E-01)
 number of electron     176.0000005 magnetization 
 augmentation part       -2.2583828 magnetization 

 Broyden mixing:
  rms(total) = 0.15047E+00    rms(broyden)= 0.15047E+00
  rms(prec ) = 0.16995E+00
  weight for this iteration     100.00

 eigenvalues of (default mixing * dielectric matrix)
  average eigenvalue GAMMA=   1.6945
  1.1208  1.2957  2.6670

 Free energy of the ion-electron system (eV)
  ---------------------------------------------------
  alpha Z        PSCENC =       427.77639978
  Ewald energy   TEWEN  =     -9059.11820441
  -Hartree energ DENC   =     -3763.82783844
  -exchange      EXHF   =         0.00000000
  -V(xc)+E(xc)   XCENC  =       479.34209762
  PAW double counting   =     11307.26128640   -11841.73305607
  entropy T*S    EENTRO =        -0.00000000
  eigenvalues    EBANDS =     -1554.58498228
  atomic energy  EATOM  =     13290.28009929
  Solvation  Ediel_sol  =         0.00000000
  ---------------------------------------------------
  free energy    TOTEN  =      -714.60419811 eV

  energy without entropy =     -714.60419811  energy(sigma->0) =     -714.60419811


--------------------------------------------------------------------------------------------------------




--------------------------------------- Iteration      1(   9)  ---------------------------------------


    POTLOK:  cpu time    0.1706: real time    0.1745
    SETDIJ:  cpu time    1.0978: real time    1.0978
     EDDAV:  cpu time    4.5624: real time    4.5627
       DOS:  cpu time    0.0006: real time    0.0006
    CHARGE:  cpu time    0.9184: real time    0.9185
    MIXING:  cpu time    0.0010: real time    0.0010
    --------------------------------------------
      LOOP:  cpu time    6.7508: real time    6.7552

 eigenvalue-minimisations  :  1984
 total energy-change (2. order) :-0.4713319E-01  (-0.1002317E-01)
 number of electron     176.0000005 magnetization 
 augmentation part       -2.2817513 magnetization 

 Broyden mixing:
  rms(total) = 0.33539E-01    rms(broyden)= 0.33536E-01
  rms(prec ) = 0.36142E-01
  weight for this iteration     100.00

 eigenvalues of (default mixing * dielectric matrix)
  average eigenvalue GAMMA=   1.4572
  2.5329  1.2381  1.2381  0.8197

 Free energy of the ion-electron system (eV)
  ---------------------------------------------------
  alpha Z        PSCENC =       427.77639978
  Ewald energy   TEWEN  =     -9059.11820441
  -Hartree energ DENC   =     -3766.11927493
  -exchange      EXHF   =         0.00000000
  -V(xc)+E(xc)   XCENC  =       480.36835151
  PAW double counting   =     11461.81164061   -11996.52359731
  entropy T*S    EENTRO =        -0.00000000
  eigenvalues    EBANDS =     -1553.12674584
  atomic energy  EATOM  =     13290.28009929
  Solvation  Ediel_sol  =         0.00000000
  ---------------------------------------------------
  free energy    TOTEN  =      -714.65133130 eV

  energy without entropy =     -714.65133130  energy(sigma->0) =     -714.65133130


--------------------------------------------------------------------------------------------------------




--------------------------------------- Iteration      1(  10)  ---------------------------------------


    POTLOK:  cpu time    0.1258: real time    0.1590
    SETDIJ:  cpu time    1.0956: real time    1.0956
     EDDAV:  cpu time    5.4523: real time    5.4524
       DOS:  cpu time    0.0004: real time    0.0004
    CHARGE:  cpu time    0.9219: real time    0.9220
    MIXING:  cpu time    0.0012: real time    0.0012
    --------------------------------------------
      LOOP:  cpu time    7.5972: real time    7.6306

 eigenvalue-minimisations  :  2592
 total energy-change (2. order) :-0.1179387E-02  (-0.6296313E-03)
 number of electron     176.0000005 magnetization 
 augmentation part       -2.2744727 magnetization 

 Broyden mixing:
  rms(total) = 0.19703E-01    rms(broyden)= 0.19703E-01
  rms(prec ) = 0.22200E-01
  weight for this iteration     100.00

 eigenvalues of (default mixing * dielectric matrix)
  average eigenvalue GAMMA=   1.6279
  2.5111  2.5111  1.1357  1.1357  0.8459

 Free energy of the ion-electron system (eV)
  ---------------------------------------------------
  alpha Z        PSCENC =       427.77639978
  Ewald energy   TEWEN  =     -9059.11820441
  -Hartree energ DENC   =     -3765.27226773
  -exchange      EXHF   =         0.00000000
  -V(xc)+E(xc)   XCENC  =       480.26918867
  PAW double counting   =     11446.69799023   -11981.47370484
  entropy T*S    EENTRO =        -0.00000000
  eigenvalues    EBANDS =     -1553.81201168
  atomic energy  EATOM  =     13290.28009929
  Solvation  Ediel_sol  =         0.00000000
  ---------------------------------------------------
  free energy    TOTEN  =      -714.65251069 eV

  energy without entropy =     -714.65251069  energy(sigma->0) =     -714.65251069


--------------------------------------------------------------------------------------------------------




--------------------------------------- Iteration      1(  11)  ---------------------------------------


    POTLOK:  cpu time    0.1614: real time    0.1689
    SETDIJ:  cpu time    1.0965: real time    1.0966
     EDDAV:  cpu time    4.5856: real time    4.5858
       DOS:  cpu time    0.0004: real time    0.0004
    CHARGE:  cpu time    0.9191: real time    0.9192
    MIXING:  cpu time    0.0009: real time    0.0009
    --------------------------------------------
      LOOP:  cpu time    6.7640: real time    6.7717

 eigenvalue-minimisations  :  2000
 total energy-change (2. order) :-0.2137861E-02  (-0.2262361E-03)
 number of electron     176.0000005 magnetization 
 augmentation part       -2.2742884 magnetization 

 Broyden mixing:
  rms(total) = 0.73519E-02    rms(broyden)= 0.73515E-02
  rms(prec ) = 0.90252E-02
  weight for this iteration     100.00

 eigenvalues of (default mixing * dielectric matrix)
  average eigenvalue GAMMA=   1.5856
  2.6441  2.6441  1.2101  1.2101  0.9026  0.9026

 Free energy of the ion-electron system (eV)
  ---------------------------------------------------
  alpha Z        PSCENC =       427.77639978
  Ewald energy   TEWEN  =     -9059.11820441
  -Hartree energ DENC   =     -3763.74524042
  -exchange      EXHF   =         0.00000000
  -V(xc)+E(xc)   XCENC  =       480.22010270
  PAW double counting   =     11431.87121699   -11966.87160369
  entropy T*S    EENTRO =        -0.00000000
  eigenvalues    EBANDS =     -1555.06741878
  atomic energy  EATOM  =     13290.28009929
  Solvation  Ediel_sol  =         0.00000000
  ---------------------------------------------------
  free energy    TOTEN  =      -714.65464855 eV

  energy without entropy =     -714.65464855  energy(sigma->0) =     -714.65464855


--------------------------------------------------------------------------------------------------------




--------------------------------------- Iteration      1(  12)  ---------------------------------------


    POTLOK:  cpu time    0.1444: real time    0.1733
    SETDIJ:  cpu time    1.0941: real time    1.0942
     EDDAV:  cpu time    4.8595: real time    4.8597
       DOS:  cpu time    0.0004: real time    0.0004
    CHARGE:  cpu time    0.9189: real time    0.9189
    MIXING:  cpu time    0.0011: real time    0.0011
    --------------------------------------------
      LOOP:  cpu time    7.0185: real time    7.0475

 eigenvalue-minimisations  :  2184
 total energy-change (2. order) : 0.3162685E-04  (-0.5090561E-04)
 number of electron     176.0000005 magnetization 
 augmentation part       -2.2763187 magnetization 

 Broyden mixing:
  rms(total) = 0.24514E-02    rms(broyden)= 0.24507E-02
  rms(prec ) = 0.28629E-02
  weight for this iteration     100.00

 eigenvalues of (default mixing * dielectric matrix)
  average eigenvalue GAMMA=   1.6332
  3.0568  2.3572  1.8588  0.9665  0.9665  1.1132  1.1132

 Free energy of the ion-electron system (eV)
  ---------------------------------------------------
  alpha Z        PSCENC =       427.77639978
  Ewald energy   TEWEN  =     -9059.11820441
  -Hartree energ DENC   =     -3763.95306926
  -exchange      EXHF   =         0.00000000
  -V(xc)+E(xc)   XCENC  =       480.28133179
  PAW double counting   =     11436.74370427   -11971.77667430
  entropy T*S    EENTRO =        -0.00000000
  eigenvalues    EBANDS =     -1554.88820408
  atomic energy  EATOM  =     13290.28009929
  Solvation  Ediel_sol  =         0.00000000
  ---------------------------------------------------
  free energy    TOTEN  =      -714.65461692 eV

  energy without entropy =     -714.65461692  energy(sigma->0) =     -714.65461692


--------------------------------------------------------------------------------------------------------




--------------------------------------- Iteration      1(  13)  ---------------------------------------


    POTLOK:  cpu time    0.1412: real time    0.1671
    SETDIJ:  cpu time    1.0967: real time    1.0967
     EDDAV:  cpu time    4.8425: real time    4.8426
       DOS:  cpu time    0.0004: real time    0.0004
    CHARGE:  cpu time    0.9223: real time    0.9223
    MIXING:  cpu time    0.0013: real time    0.0013
    --------------------------------------------
      LOOP:  cpu time    7.0043: real time    7.0304

 eigenvalue-minimisations  :  2176
 total energy-change (2. order) : 0.2280349E-04  (-0.5935023E-05)
 number of electron     176.0000005 magnetization 
 augmentation part       -2.2762701 magnetization 

 Broyden mixing:
  rms(total) = 0.66449E-03    rms(broyden)= 0.66321E-03
  rms(prec ) = 0.72689E-03
  weight for this iteration     100.00

 eigenvalues of (default mixing * dielectric matrix)
  average eigenvalue GAMMA=   1.6100
  3.0245  2.4394  2.0128  1.2320  1.2320  0.9230  1.0081  1.0081

 Free energy of the ion-electron system (eV)
  ---------------------------------------------------
  alpha Z        PSCENC =       427.77639978
  Ewald energy   TEWEN  =     -9059.11820441
  -Hartree energ DENC   =     -3764.14142282
  -exchange      EXHF   =         0.00000000
  -V(xc)+E(xc)   XCENC  =       480.29673769
  PAW double counting   =     11435.71081966   -11970.74433477
  entropy T*S    EENTRO =        -0.00000000
  eigenvalues    EBANDS =     -1554.71468853
  atomic energy  EATOM  =     13290.28009929
  Solvation  Ediel_sol  =         0.00000000
  ---------------------------------------------------
  free energy    TOTEN  =      -714.65459412 eV

  energy without entropy =     -714.65459412  energy(sigma->0) =     -714.65459412


--------------------------------------------------------------------------------------------------------




--------------------------------------- Iteration      1(  14)  ---------------------------------------


    POTLOK:  cpu time    0.1404: real time    0.1610
    SETDIJ:  cpu time    1.0964: real time    1.0965
     EDDAV:  cpu time    4.3196: real time    4.3197
       DOS:  cpu time    0.0004: real time    0.0004
    CHARGE:  cpu time    0.9191: real time    0.9191
    MIXING:  cpu time    0.0012: real time    0.0012
    --------------------------------------------
      LOOP:  cpu time    6.4770: real time    6.4979

 eigenvalue-minimisations  :  1792
 total energy-change (2. order) :-0.1135514E-04  (-0.3128727E-06)
 number of electron     176.0000005 magnetization 
 augmentation part       -2.2761075 magnetization 

 Broyden mixing:
  rms(total) = 0.19946E-03    rms(broyden)= 0.19546E-03
  rms(prec ) = 0.24055E-03
  weight for this iteration     100.00

 eigenvalues of (default mixing * dielectric matrix)
  average eigenvalue GAMMA=   1.6773
  2.9674  2.4677  2.4677  1.9300  1.1400  1.1400  0.9380  1.0223  1.0223

 Free energy of the ion-electron system (eV)
  ---------------------------------------------------
  alpha Z        PSCENC =       427.77639978
  Ewald energy   TEWEN  =     -9059.11820441
  -Hartree energ DENC   =     -3764.15083061
  -exchange      EXHF   =         0.00000000
  -V(xc)+E(xc)   XCENC  =       480.29644350
  PAW double counting   =     11435.38883782   -11970.42043360
  entropy T*S    EENTRO =        -0.00000000
  eigenvalues    EBANDS =     -1554.70691724
  atomic energy  EATOM  =     13290.28009929
  Solvation  Ediel_sol  =         0.00000000
  ---------------------------------------------------
  free energy    TOTEN  =      -714.65460547 eV

  energy without entropy =     -714.65460547  energy(sigma->0) =     -714.65460547


--------------------------------------------------------------------------------------------------------




--------------------------------------- Iteration      1(  15)  ---------------------------------------


    POTLOK:  cpu time    0.1601: real time    0.1778
    SETDIJ:  cpu time    1.0950: real time    1.0950
     EDDAV:  cpu time    3.5991: real time    3.5992
       DOS:  cpu time    0.0003: real time    0.0003
    --------------------------------------------
      LOOP:  cpu time    4.8544: real time    4.8723

 eigenvalue-minimisations  :  1280
 total energy-change (2. order) : 0.2652655E-07  (-0.5084660E-07)
 number of electron     176.0000005 magnetization 
 augmentation part       -2.2761075 magnetization 

 Free energy of the ion-electron system (eV)
  ---------------------------------------------------
  alpha Z        PSCENC =       427.77639978
  Ewald energy   TEWEN  =     -9059.11820441
  -Hartree energ DENC   =     -3764.14391926
  -exchange      EXHF   =         0.00000000
  -V(xc)+E(xc)   XCENC  =       480.29619446
  PAW double counting   =     11435.41306544   -11970.44383012
  entropy T*S    EENTRO =        -0.00000000
  eigenvalues    EBANDS =     -1554.71441063
  atomic energy  EATOM  =     13290.28009929
  Solvation  Ediel_sol  =         0.00000000
  ---------------------------------------------------
  free energy    TOTEN  =      -714.65460545 eV

  energy without entropy =     -714.65460545  energy(sigma->0) =     -714.65460545


--------------------------------------------------------------------------------------------------------




 average (electrostatic) potential at core
  the test charge radii are     1.1312  1.1541  1.0178
  (the norm of the test charge is              1.0000)
       1 -55.5863       2 -55.5864       3 -55.5863       4 -55.5864       5-102.0733
       6-102.0733       7-102.0733       8-102.0733       9 -69.3031      10 -69.3031
      11 -69.3031      12 -69.3031      13 -69.1709      14 -69.1709      15 -69.1709
      16 -69.1709      17 -69.1709      18 -69.1709      19 -69.1709      20 -69.1709



 E-fermi :   0.0167     XC(G=0):  -7.8540     alpha+bet : -6.7111


 k-point     1 :       0.0000    0.0000    0.0000
  band No.  band energies     occupation 
      1     -21.1069      2.00000
      2     -21.1055      2.00000
      3     -21.1043      2.00000
      4     -21.1033      2.00000
      5     -16.8601      2.00000
      6     -16.8462      2.00000
      7     -16.8244      2.00000
      8     -16.8243      2.00000
      9     -16.7923      2.00000
     10     -16.7748      2.00000
     11     -16.7736      2.00000
     12     -16.7736      2.00000
     13     -16.7302      2.00000
     14     -16.7299      2.00000
     15     -16.7298      2.00000
     16     -16.7295      2.00000
     17     -16.7163      2.00000
     18     -16.7161      2.00000
     19     -16.7152      2.00000
     20     -16.7150      2.00000
     21     -16.7116      2.00000
     22     -16.7113      2.00000
     23     -16.7106      2.00000
     24     -16.7100      2.00000
     25     -14.5092      2.00000
     26     -14.3507      2.00000
     27     -14.3448      2.00000
     28     -14.2741      2.00000
     29     -14.2555      2.00000
     30     -14.1468      2.00000
     31     -14.1354      2.00000
     32     -14.1333      2.00000
     33     -14.1250      2.00000
     34     -13.9979      2.00000
     35     -13.9577      2.00000
     36     -13.9468      2.00000
     37      -8.3754      2.00000
     38      -7.8298      2.00000
     39      -7.6101      2.00000
     40      -7.5350      2.00000
     41      -7.5216      2.00000
     42      -7.5127      2.00000
     43      -7.5024      2.00000
     44      -7.5022      2.00000
     45      -7.4836      2.00000
     46      -7.4747      2.00000
     47      -7.4740      2.00000
     48      -7.4713      2.00000
     49      -7.4642      2.00000
     50      -7.4577      2.00000
     51      -7.4573      2.00000
     52      -6.9446      2.00000
     53      -3.5837      2.00000
     54      -3.4771      2.00000
     55      -3.3183      2.00000
     56      -3.3060      2.00000
     57      -3.1718      2.00000
     58      -3.1193      2.00000
     59      -2.2574      2.00000
     60      -2.0986      2.00000
     61      -2.0901      2.00000
     62      -2.0750      2.00000
     63      -2.0615      2.00000
     64      -1.9682      2.00000
     65      -1.9260      2.00000
     66      -1.7754      2.00000
     67      -1.7256      2.00000
     68      -1.7141      2.00000
     69      -1.6819      2.00000
     70      -1.6749      2.00000
     71      -1.6597      2.00000
     72      -1.5823      2.00000
     73      -1.5663      2.00000
     74      -1.5613      2.00000
     75      -1.5490      2.00000
     76      -1.5027      2.00000
     77      -1.4944      2.00000
     78      -1.4412      2.00000
     79      -1.4040      2.00000
     80      -1.3631      2.00000
     81      -1.3125      2.00000
     82      -1.2508      2.00000
     83      -1.2199      2.00000
     84      -1.2175      2.00000
     85      -1.0824      2.00000
     86      -0.9573      2.00000
     87      -0.6675      2.00000
     88      -0.0413      2.00000
     89       2.2104      0.00000
     90       2.3857      0.00000
     91       2.5130      0.00000
     92       2.7028      0.00000
     93       2.8012      0.00000
     94       3.3694      0.00000
     95       4.5438      0.00000
     96       5.0163      0.00000
     97       5.1795      0.00000
     98       5.4938      0.00000
     99       5.6034      0.00000
    100       5.6052      0.00000
    101       5.7018      0.00000
    102       5.9530      0.00000
    103       6.0608      0.00000
    104       6.1158      0.00000
    105       6.1519      0.00000
    106       6.1910      0.00000
    107       6.3819      0.00000
    108       6.3990      0.00000
    109       6.4312      0.00000
    110       6.5368      0.00000
    111       6.6287      0.00000
    112       6.6625      0.00000

 k-point     2 :       0.3333    0.0000    0.0000
  band No.  band energies     occupation 
      1     -21.1062      2.00000
      2     -21.1049      2.00000
      3     -21.1049      2.00000
      4     -21.1038      2.00000
      5     -16.8566      2.00000
      6     -16.8495      2.00000
      7     -16.8121      2.00000
      8     -16.8119      2.00000
      9     -16.7879      2.00000
     10     -16.7868      2.00000
     11     -16.7865      2.00000
     12     -16.7791      2.00000
     13     -16.7301      2.00000
     14     -16.7298      2.00000
     15     -16.7298      2.00000
     16     -16.7295      2.00000
     17     -16.7162      2.00000
     18     -16.7161      2.00000
     19     -16.7152      2.00000
     20     -16.7151      2.00000
     21     -16.7115      2.00000
     22     -16.7112      2.00000
     23     -16.7105      2.00000
     24     -16.7102      2.00000
     25     -14.4694      2.00000
     26     -14.3681      2.00000
     27     -14.3484      2.00000
     28     -14.3422      2.00000
     29     -14.2268      2.00000
     30     -14.1668      2.00000
     31     -14.0902      2.00000
     32     -14.0807      2.00000
     33     -14.0787      2.00000
     34     -14.0171      2.00000
     35     -14.0024      2.00000
     36     -13.9917      2.00000
     37      -8.2077      2.00000
     38      -7.8331      2.00000
     39      -7.6677      2.00000
     40      -7.5257      2.00000
     41      -7.5209      2.00000
     42      -7.5031      2.00000
     43      -7.5012      2.00000
     44      -7.4915      2.00000
     45      -7.4861      2.00000
     46      -7.4794      2.00000
     47      -7.4719      2.00000
     48      -7.4695      2.00000
     49      -7.4644      2.00000
     50      -7.4641      2.00000
     51      -7.4442      2.00000
     52      -7.1938      2.00000
     53      -3.5555      2.00000
     54      -3.4964      2.00000
     55      -3.0529      2.00000
     56      -2.8836      2.00000
     57      -2.8596      2.00000
     58      -2.8007      2.00000
     59      -2.4119      2.00000
     60      -2.3018      2.00000
     61      -2.1783      2.00000
     62      -2.1676      2.00000
     63      -2.1227      2.00000
     64      -2.1174      2.00000
     65      -2.0372      2.00000
     66      -1.9490      2.00000
     67      -1.8493      2.00000
     68      -1.8280      2.00000
     69      -1.7468      2.00000
     70      -1.7288      2.00000
     71      -1.6704      2.00000
     72      -1.6516      2.00000
     73      -1.5164      2.00000
     74      -1.5082      2.00000
     75      -1.5064      2.00000
     76      -1.4759      2.00000
     77      -1.4697      2.00000
     78      -1.4405      2.00000
     79      -1.3741      2.00000
     80      -1.3661      2.00000
     81      -1.3545      2.00000
     82      -1.2966      2.00000
     83      -1.2786      2.00000
     84      -1.2663      2.00000
     85      -1.0956      2.00000
     86      -1.0351      2.00000
     87      -0.8791      2.00000
     88      -0.5047      2.00000
     89       2.8478      0.00000
     90       2.9742      0.00000
     91       3.0421      0.00000
     92       3.1853      0.00000
     93       3.3952      0.00000
     94       3.5292      0.00000
     95       4.3589      0.00000
     96       4.4937      0.00000
     97       4.6540      0.00000
     98       4.6804      0.00000
     99       5.2940      0.00000
    100       5.6992      0.00000
    101       5.8911      0.00000
    102       5.9179      0.00000
    103       6.0159      0.00000
    104       6.0360      0.00000
    105       6.3213      0.00000
    106       6.3218      0.00000
    107       6.3609      0.00000
    108       6.3617      0.00000
    109       6.5372      0.00000
    110       6.5833      0.00000
    111       6.6521      0.00000
    112       6.7605      0.00000

 k-point     3 :       0.0000    0.5000    0.0000
  band No.  band energies     occupation 
      1     -21.1062      2.00000
      2     -21.1062      2.00000
      3     -21.1038      2.00000
      4     -21.1038      2.00000
      5     -16.8267      2.00000
      6     -16.8267      2.00000
      7     -16.8244      2.00000
      8     -16.8244      2.00000
      9     -16.8111      2.00000
     10     -16.8111      2.00000
     11     -16.7736      2.00000
     12     -16.7736      2.00000
     13     -16.7302      2.00000
     14     -16.7302      2.00000
     15     -16.7297      2.00000
     16     -16.7297      2.00000
     17     -16.7158      2.00000
     18     -16.7158      2.00000
     19     -16.7156      2.00000
     20     -16.7156      2.00000
     21     -16.7112      2.00000
     22     -16.7112      2.00000
     23     -16.7104      2.00000
     24     -16.7104      2.00000
     25     -14.4615      2.00000
     26     -14.4615      2.00000
     27     -14.3087      2.00000
     28     -14.3087      2.00000
     29     -14.1411      2.00000
     30     -14.1411      2.00000
     31     -14.1338      2.00000
     32     -14.1338      2.00000
     33     -14.0897      2.00000
     34     -14.0897      2.00000
     35     -13.9521      2.00000
     36     -13.9521      2.00000
     37      -8.1242      2.00000
     38      -8.1242      2.00000
     39      -7.5188      2.00000
     40      -7.5188      2.00000
     41      -7.5082      2.00000
     42      -7.5082      2.00000
     43      -7.4924      2.00000
     44      -7.4924      2.00000
     45      -7.4797      2.00000
     46      -7.4797      2.00000
     47      -7.4738      2.00000
     48      -7.4738      2.00000
     49      -7.4655      2.00000
     50      -7.4655      2.00000
     51      -7.3217      2.00000
     52      -7.3217      2.00000
     53      -3.2490      2.00000
     54      -3.2490      2.00000
     55      -3.2470      2.00000
     56      -3.2470      2.00000
     57      -2.7251      2.00000
     58      -2.7251      2.00000
     59      -2.6560      2.00000
     60      -2.6560      2.00000
     61      -2.1373      2.00000
     62      -2.1373      2.00000
     63      -2.0288      2.00000
     64      -2.0288      2.00000
     65      -1.9613      2.00000
     66      -1.9613      2.00000
     67      -1.7079      2.00000
     68      -1.7079      2.00000
     69      -1.6875      2.00000
     70      -1.6875      2.00000
     71      -1.6409      2.00000
     72      -1.6409      2.00000
     73      -1.5782      2.00000
     74      -1.5782      2.00000
     75      -1.5093      2.00000
     76      -1.5093      2.00000
     77      -1.4815      2.00000
     78      -1.4815      2.00000
     79      -1.4056      2.00000
     80      -1.4056      2.00000
     81      -1.2984      2.00000
     82      -1.2984      2.00000
     83      -1.2550      2.00000
     84      -1.2550      2.00000
     85      -1.0983      2.00000
     86      -1.0983      2.00000
     87      -0.5037      2.00000
     88      -0.5037      2.00000
     89       2.4019      0.00000
     90       2.4019      0.00000
     91       2.5850      0.00000
     92       2.5850      0.00000
     93       4.1233      0.00000
     94       4.1233      0.00000
     95       4.6291      0.00000
     96       4.6291      0.00000
     97       5.2803      0.00000
     98       5.2803      0.00000
     99       5.3535      0.00000
    100       5.3535      0.00000
    101       5.3579      0.00000
    102       5.3579      0.00000
    103       5.9504      0.00000
    104       5.9504      0.00000
    105       6.1619      0.00000
    106       6.1619      0.00000
    107       6.3239      0.00000
    108       6.3239      0.00000
    109       6.6322      0.00000
    110       6.6360      0.00000
    111       6.6425      0.00000
    112       6.6543      0.00000

 k-point     4 :       0.3333    0.5000    0.0000
  band No.  band energies     occupation 
      1     -21.1056      2.00000
      2     -21.1056      2.00000
      3     -21.1044      2.00000
      4     -21.1044      2.00000
      5     -16.8227      2.00000
      6     -16.8227      2.00000
      7     -16.8151      2.00000
      8     -16.8151      2.00000
      9     -16.8120      2.00000
     10     -16.8120      2.00000
     11     -16.7867      2.00000
     12     -16.7867      2.00000
     13     -16.7300      2.00000
     14     -16.7300      2.00000
     15     -16.7297      2.00000
     16     -16.7297      2.00000
     17     -16.7158      2.00000
     18     -16.7158      2.00000
     19     -16.7157      2.00000
     20     -16.7157      2.00000
     21     -16.7110      2.00000
     22     -16.7110      2.00000
     23     -16.7107      2.00000
     24     -16.7107      2.00000
     25     -14.4303      2.00000
     26     -14.4303      2.00000
     27     -14.3568      2.00000
     28     -14.3568      2.00000
     29     -14.1207      2.00000
     30     -14.1207      2.00000
     31     -14.1052      2.00000
     32     -14.1052      2.00000
     33     -14.0801      2.00000
     34     -14.0801      2.00000
     35     -13.9967      2.00000
     36     -13.9967      2.00000
     37      -7.9548      2.00000
     38      -7.9548      2.00000
     39      -7.5824      2.00000
     40      -7.5824      2.00000
     41      -7.5082      2.00000
     42      -7.5081      2.00000
     43      -7.5064      2.00000
     44      -7.5064      2.00000
     45      -7.4873      2.00000
     46      -7.4873      2.00000
     47      -7.4724      2.00000
     48      -7.4724      2.00000
     49      -7.4713      2.00000
     50      -7.4713      2.00000
     51      -7.4504      2.00000
     52      -7.4504      2.00000
     53      -2.9735      2.00000
     54      -2.9735      2.00000
     55      -2.9633      2.00000
     56      -2.9633      2.00000
     57      -2.7328      2.00000
     58      -2.7328      2.00000
     59      -2.5879      2.00000
     60      -2.5879      2.00000
     61      -2.3056      2.00000
     62      -2.3056      2.00000
     63      -2.2166      2.00000
     64      -2.2166      2.00000
     65      -1.9100      2.00000
     66      -1.9100      2.00000
     67      -1.8371      2.00000
     68      -1.8371      2.00000
     69      -1.7420      2.00000
     70      -1.7420      2.00000
     71      -1.7181      2.00000
     72      -1.7181      2.00000
     73      -1.6264      2.00000
     74      -1.6264      2.00000
     75      -1.6174      2.00000
     76      -1.6174      2.00000
     77      -1.3829      2.00000
     78      -1.3829      2.00000
     79      -1.3795      2.00000
     80      -1.3795      2.00000
     81      -1.3072      2.00000
     82      -1.3072      2.00000
     83      -1.2760      2.00000
     84      -1.2760      2.00000
     85      -1.0942      2.00000
     86      -1.0942      2.00000
     87      -0.9192      2.00000
     88      -0.9192      2.00000
     89       3.1343      0.00000
     90       3.1343      0.00000
     91       3.3364      0.00000
     92       3.3364      0.00000
     93       4.2160      0.00000
     94       4.2160      0.00000
     95       4.5124      0.00000
     96       4.5124      0.00000
     97       4.5965      0.00000
     98       4.5965      0.00000
     99       4.6088      0.00000
    100       4.6088      0.00000
    101       5.6948      0.00000
    102       5.6948      0.00000
    103       6.1539      0.00000
    104       6.1539      0.00000
    105       6.1683      0.00000
    106       6.1683      0.00000
    107       6.2530      0.00000
    108       6.2530      0.00000
    109       6.4354      0.00000
    110       6.4354      0.00000
    111       6.5955      0.00000
    112       6.5973      0.00000

 k-point     5 :       0.0000    0.0000    0.3333
  band No.  band energies     occupation 
      1     -21.1063      2.00000
      2     -21.1052      2.00000
      3     -21.1046      2.00000
      4     -21.1038      2.00000
      5     -16.8566      2.00000
      6     -16.8496      2.00000
      7     -16.8122      2.00000
      8     -16.8120      2.00000
      9     -16.7880      2.00000
     10     -16.7868      2.00000
     11     -16.7864      2.00000
     12     -16.7791      2.00000
     13     -16.7302      2.00000
     14     -16.7299      2.00000
     15     -16.7299      2.00000
     16     -16.7297      2.00000
     17     -16.7162      2.00000
     18     -16.7162      2.00000
     19     -16.7153      2.00000
     20     -16.7151      2.00000
     21     -16.7115      2.00000
     22     -16.7113      2.00000
     23     -16.7105      2.00000
     24     -16.7101      2.00000
     25     -14.4694      2.00000
     26     -14.3696      2.00000
     27     -14.3457      2.00000
     28     -14.3429      2.00000
     29     -14.2244      2.00000
     30     -14.1592      2.00000
     31     -14.1003      2.00000
     32     -14.0886      2.00000
     33     -14.0704      2.00000
     34     -14.0145      2.00000
     35     -14.0057      2.00000
     36     -13.9943      2.00000
     37      -8.2066      2.00000
     38      -7.8290      2.00000
     39      -7.6543      2.00000
     40      -7.5227      2.00000
     41      -7.5086      2.00000
     42      -7.5057      2.00000
     43      -7.4940      2.00000
     44      -7.4936      2.00000
     45      -7.4922      2.00000
     46      -7.4791      2.00000
     47      -7.4749      2.00000
     48      -7.4676      2.00000
[...]
     60      -2.6127      2.00000
     61      -2.3562      2.00000
     62      -2.3562      2.00000
     63      -2.1912      2.00000
     64      -2.1912      2.00000
     65      -1.8851      2.00000
     66      -1.8851      2.00000
     67      -1.8373      2.00000
     68      -1.8373      2.00000
     69      -1.7673      2.00000
     70      -1.7673      2.00000
     71      -1.6939      2.00000
     72      -1.6939      2.00000
     73      -1.5413      2.00000
     74      -1.5413      2.00000
     75      -1.4862      2.00000
     76      -1.4862      2.00000
     77      -1.4542      2.00000
     78      -1.4542      2.00000
     79      -1.4128      2.00000
     80      -1.4128      2.00000
     81      -1.3235      2.00000
     82      -1.3235      2.00000
     83      -1.2523      2.00000
     84      -1.2523      2.00000
     85      -1.1579      2.00000
     86      -1.1579      2.00000
     87      -0.9878      2.00000
     88      -0.9878      2.00000
     89       3.2045      0.00000
     90       3.2045      0.00000
     91       3.2632      0.00000
     92       3.2632      0.00000
     93       4.2444      0.00000
     94       4.2444      0.00000
     95       4.4984      0.00000
     96       4.4984      0.00000
     97       4.5545      0.00000
     98       4.5545      0.00000
     99       4.6059      0.00000
    100       4.6059      0.00000
    101       5.6740      0.00000
    102       5.6740      0.00000
    103       6.0285      0.00000
    104       6.0285      0.00000
    105       6.1200      0.00000
    106       6.1200      0.00000
    107       6.4997      0.00000
    108       6.4997      0.00000
    109       6.5049      0.00000
    110       6.5049      0.00000
    111       6.5731      0.00000
    112       6.5731      0.00000

 k-point     8 :       0.3333    0.5000    0.3333
  band No.  band energies     occupation 
      1     -21.1053      2.00000
      2     -21.1053      2.00000
      3     -21.1046      2.00000
      4     -21.1046      2.00000
      5     -16.8260      2.00000
      6     -16.8260      2.00000
      7     -16.8207      2.00000
      8     -16.8207      2.00000
      9     -16.8006      2.00000
     10     -16.8006      2.00000
     11     -16.7893      2.00000
     12     -16.7893      2.00000
     13     -16.7299      2.00000
     14     -16.7299      2.00000
     15     -16.7298      2.00000
     16     -16.7298      2.00000
     17     -16.7157      2.00000
     18     -16.7157      2.00000
     19     -16.7156      2.00000
     20     -16.7156      2.00000
     21     -16.7109      2.00000
     22     -16.7109      2.00000
     23     -16.7108      2.00000
     24     -16.7108      2.00000
     25     -14.4052      2.00000
     26     -14.4052      2.00000
     27     -14.3639      2.00000
     28     -14.3639      2.00000
     29     -14.1388      2.00000
     30     -14.1388      2.00000
     31     -14.1155      2.00000
     32     -14.1155      2.00000
     33     -14.0533      2.00000
     34     -14.0533      2.00000
     35     -14.0177      2.00000
     36     -14.0177      2.00000
     37      -7.8509      2.00000
     38      -7.8509      2.00000
     39      -7.6578      2.00000
     40      -7.6578      2.00000
     41      -7.5082      2.00000
     42      -7.5082      2.00000
     43      -7.4946      2.00000
     44      -7.4946      2.00000
     45      -7.4830      2.00000
     46      -7.4830      2.00000
     47      -7.4777      2.00000
     48      -7.4777      2.00000
     49      -7.4697      2.00000
     50      -7.4697      2.00000
     51      -7.4598      2.00000
     52      -7.4598      2.00000
     53      -3.1869      2.00000
     54      -3.1869      2.00000
     55      -2.9053      2.00000
     56      -2.9053      2.00000
     57      -2.7764      2.00000
     58      -2.7764      2.00000
     59      -2.6385      2.00000
     60      -2.6385      2.00000
     61      -2.3143      2.00000
     62      -2.3143      2.00000
     63      -2.1724      2.00000
     64      -2.1724      2.00000
     65      -1.8585      2.00000
     66      -1.8585      2.00000
     67      -1.8012      2.00000
     68      -1.8012      2.00000
     69      -1.7244      2.00000
     70      -1.7244      2.00000
     71      -1.6396      2.00000
     72      -1.6396      2.00000
     73      -1.5704      2.00000
     74      -1.5704      2.00000
     75      -1.5268      2.00000
     76      -1.5268      2.00000
     77      -1.4614      2.00000
     78      -1.4614      2.00000
     79      -1.3949      2.00000
     80      -1.3949      2.00000
     81      -1.3542      2.00000
     82      -1.3542      2.00000
     83      -1.2994      2.00000
     84      -1.2994      2.00000
     85      -1.0794      2.00000
     86      -1.0794      2.00000
     87      -0.8893      2.00000
     88      -0.8893      2.00000
     89       2.7141      0.00000
     90       2.7141      0.00000
     91       3.4355      0.00000
     92       3.4355      0.00000
     93       4.3237      0.00000
     94       4.3237      0.00000
     95       4.4189      0.00000
     96       4.4189      0.00000
     97       4.4903      0.00000
     98       4.4903      0.00000
     99       5.1111      0.00000
    100       5.1111      0.00000
    101       5.8791      0.00000
    102       5.8791      0.00000
    103       6.1205      0.00000
    104       6.1205      0.00000
    105       6.2602      0.00000
    106       6.2602      0.00000
    107       6.4438      0.00000
    108       6.4439      0.00000
    109       6.5368      0.00000
    110       6.5369      0.00000
    111       6.6438      0.00000
    112       6.6441      0.00000


--------------------------------------------------------------------------------------------------------


 soft charge-density along one line, spin component           1
         0         1         2         3         4         5         6         7         8         9
 total charge-density along one line

 pseudopotential strength for first ion, spin component:           1
 18.107  -4.740   0.000   0.000  -0.002  -0.000  -0.000   0.002
 -4.740   1.250  -0.000  -0.000   0.000   0.000  -0.000  -0.000
  0.000  -0.000   2.322  -0.000  -0.000  -2.789   0.000   0.000
  0.000  -0.000  -0.000   2.321  -0.000   0.000  -2.788   0.001
 -0.002   0.000  -0.000  -0.000   2.321   0.000   0.001  -2.788
 -0.000   0.000  -2.789   0.000   0.000   3.322  -0.000  -0.000
 -0.000  -0.000   0.000  -2.788   0.001  -0.000   3.320  -0.001
  0.002  -0.000   0.000   0.001  -2.788  -0.000  -0.001   3.320
 -0.000   0.000  -0.001   0.000  -0.000   0.001  -0.000   0.000
 -0.000   0.000   0.001  -0.000   0.000  -0.002   0.000  -0.000
 -0.000   0.000  -0.000  -0.002   0.001   0.000   0.003  -0.001
 -0.001   0.000   0.000  -0.001   0.001  -0.000   0.001  -0.002
 -0.001   0.000  -0.000  -0.000  -0.001   0.000   0.000   0.002
 total augmentation occupancy for first ion, spin component:           1
  1.909  -0.143   0.000  -0.000  -0.000   0.000   0.000  -0.001   0.000   0.000  -0.000  -0.001  -0.000
 -0.143   0.108   0.000  -0.001  -0.005  -0.000  -0.001   0.003   0.000   0.000   0.001   0.002   0.002
  0.000   0.000   2.017  -0.000   0.000   0.003  -0.000   0.000  -0.001   0.003  -0.000   0.000   0.000
 -0.000  -0.001  -0.000   2.015  -0.002   0.000   0.002  -0.001   0.000  -0.000  -0.005  -0.001  -0.000
 -0.000  -0.005   0.000  -0.002   2.015  -0.000  -0.001   0.002  -0.000   0.000   0.001   0.002  -0.003
  0.000  -0.000   0.003   0.000  -0.000   0.006   0.000   0.000   0.000  -0.002   0.000   0.000   0.000
  0.000  -0.001  -0.000   0.002  -0.001   0.000   0.008   0.000  -0.000   0.000   0.003  -0.000   0.000
 -0.001   0.003   0.000  -0.001   0.002   0.000   0.000   0.007   0.000   0.000  -0.001  -0.001   0.002
  0.000   0.000  -0.001   0.000  -0.000   0.000  -0.000   0.000   0.005   0.001   0.000  -0.000   0.000
  0.000   0.000   0.003  -0.000   0.000  -0.002   0.000   0.000   0.001   0.005   0.000   0.000   0.000
 -0.000   0.001  -0.000  -0.005   0.001   0.000   0.003  -0.001   0.000   0.000   0.004  -0.002  -0.001
 -0.001   0.002   0.000  -0.001   0.002   0.000  -0.000  -0.001  -0.000   0.000  -0.002   0.004   0.001
 -0.000   0.002   0.000  -0.000  -0.003   0.000   0.000   0.002   0.000   0.000  -0.001   0.001   0.003


------------------------ aborting loop because EDIFF is reached ----------------------------------------





 total charge     

# of ion       s       p       d       tot
------------------------------------------
    1        1.784   4.719   0.016   6.519
    2        1.784   4.719   0.016   6.519
    3        1.784   4.719   0.016   6.519
    4        1.784   4.719   0.016   6.519
    5        1.551   0.399   9.829  11.780
    6        1.551   0.399   9.829  11.780
    7        1.551   0.399   9.829  11.780
    8        1.551   0.399   9.829  11.780
    9        1.615   3.285   0.007   4.907
   10        1.615   3.285   0.007   4.907
   11        1.615   3.285   0.007   4.907
   12        1.615   3.285   0.007   4.907
   13        1.613   3.262   0.005   4.880
   14        1.612   3.284   0.004   4.900
   15        1.612   3.284   0.004   4.900
   16        1.613   3.262   0.005   4.880
   17        1.613   3.262   0.005   4.880
   18        1.612   3.284   0.004   4.900
   19        1.613   3.262   0.005   4.880
   20        1.612   3.284   0.004   4.900
--------------------------------------------------
tot         32.700  59.801  39.443 131.944

    CHARGE:  cpu time    0.1400: real time    0.1400
    FORLOC:  cpu time    0.0037: real time    0.0037
    FORNL :  cpu time    0.6150: real time    0.6150
    STRESS:  cpu time   13.7709: real time   13.7716
    FORCOR:  cpu time    0.1034: real time    0.1034
    FORHAR:  cpu time    0.0111: real time    0.0111
    MIXING:  cpu time    0.0011: real time    0.0011
    OFIELD:  cpu time    0.0001: real time    0.0001

  FORCE on cell =-STRESS in cart. coord.  units (eV):
  Direction    XX          YY          ZZ          XY          YZ          ZX
  --------------------------------------------------------------------------------------
  Alpha Z   427.77640   427.77640   427.77640
  Ewald   -3109.27569 -2831.82760 -3118.03608    -0.00000     0.00000     0.00000
  Hartree  1198.81569  1381.91874  1183.41492    -0.00000    -0.00000    -0.00000
  E(xc)    -738.04618  -737.71273  -738.03448     0.00000     0.00000    -0.03762
  Local   -1333.63112 -1795.41507 -1308.58982     0.00000     0.00000     0.00000
  n-local   894.43970   899.46054   894.48123    -0.00001    -0.00001     0.18242
  augment   406.96512   406.90735   406.65700    -0.00000    -0.00002     0.00000
  Kinetic  2244.39079  2248.50118  2245.20774     0.00002     0.00003    -1.60055
  Fock        0.00000     0.00000     0.00000     0.00000     0.00000     0.00000
  -------------------------------------------------------------------------------------
  Total      -8.56530    -0.39119    -7.12310     0.00000     0.00000     0.00000
  in kB     -16.27019    -0.74309   -13.53066     0.00000     0.00000     0.00000
  external pressure =      -10.18 kB  Pullay stress =        0.00 kB


 VOLUME and BASIS-vectors are now :
 -----------------------------------------------------------------------------
  energy-cutoff  :      300.00
  volume of cell :      843.45
      direct lattice vectors                 reciprocal lattice vectors
     8.756818302  0.000000000  0.000000000     0.114196728  0.000000000  0.000000000
     0.000000000 11.465103512  0.000000000     0.000000000  0.087221192  0.000000000
     0.000000000  0.000000000  8.401099776     0.000000000  0.000000000  0.119032035

  length of vectors
     8.756818302 11.465103512  8.401099776     0.114196728  0.087221192  0.119032035


 FORCES acting on ions
    electron-ion (+dipol)            ewald-force                    non-local-force                 convergence-correction
 -----------------------------------------------------------------------------------------------
   0.319E+02 0.511E-12 -.954E+01   -.317E+02 0.355E-14 0.952E+01   -.190E+00 0.000E+00 0.187E-01   -.244E-03 -.209E-12 0.313E-03
   -.319E+02 0.148E-11 -.954E+01   0.317E+02 -.178E-13 0.952E+01   0.190E+00 0.000E+00 0.187E-01   0.244E-03 0.245E-12 0.313E-03
   0.319E+02 -.192E-11 0.954E+01   -.317E+02 0.000E+00 -.952E+01   -.190E+00 0.000E+00 -.187E-01   -.244E-03 -.210E-12 -.313E-03
   -.319E+02 0.788E-12 0.954E+01   0.317E+02 -.213E-13 -.952E+01   0.190E+00 0.000E+00 -.187E-01   0.244E-03 0.248E-12 -.313E-03
   -.116E-12 0.703E-13 0.101E-12   0.107E-13 -.604E-13 -.568E-13   0.000E+00 0.000E+00 0.819E-23   0.199E-12 -.206E-12 0.865E-13
   0.445E-12 -.176E-12 0.438E-11   -.355E-13 0.320E-13 0.568E-13   0.000E+00 0.000E+00 0.233E-23   0.113E-12 -.170E-12 0.144E-13
   -.134E-11 -.492E-11 0.194E-11   0.000E+00 -.142E-13 0.142E-13   0.000E+00 0.000E+00 -.225E-23   0.117E-12 0.116E-12 0.140E-14
   -.311E-12 0.121E-11 0.284E-13   0.000E+00 0.000E+00 0.142E-13   0.000E+00 0.000E+00 -.842E-23   0.213E-12 0.154E-12 0.716E-13
   0.156E+01 -.207E-11 0.454E+02   -.145E+01 -.142E-13 -.459E+02   -.110E+00 0.000E+00 0.408E+00   -.156E-03 0.163E-12 -.194E-03
   -.156E+01 -.171E-11 0.454E+02   0.145E+01 -.142E-13 -.459E+02   0.110E+00 0.000E+00 0.408E+00   0.156E-03 -.207E-12 -.194E-03
   0.156E+01 -.155E-14 -.454E+02   -.145E+01 0.284E-13 0.459E+02   -.110E+00 0.000E+00 -.408E+00   -.156E-03 0.170E-12 0.194E-03
   -.156E+01 0.197E-11 -.454E+02   0.145E+01 -.284E-13 0.459E+02   0.110E+00 0.000E+00 -.408E+00   0.156E-03 -.198E-12 0.194E-03
   -.132E+02 0.170E+02 0.188E+02   0.133E+02 -.171E+02 -.189E+02   -.101E+00 0.116E+00 0.130E+00   -.446E-04 0.137E-03 -.339E-04
   0.132E+02 -.170E+02 0.188E+02   -.133E+02 0.171E+02 -.189E+02   0.101E+00 -.116E+00 0.130E+00   0.446E-04 -.137E-03 -.339E-04
   -.132E+02 -.170E+02 -.188E+02   0.133E+02 0.171E+02 0.189E+02   -.101E+00 -.116E+00 -.130E+00   -.446E-04 -.137E-03 0.339E-04
   0.132E+02 0.170E+02 -.188E+02   -.133E+02 -.171E+02 0.189E+02   0.101E+00 0.116E+00 -.130E+00   0.446E-04 0.137E-03 0.339E-04
   -.132E+02 -.170E+02 0.188E+02   0.133E+02 0.171E+02 -.189E+02   -.101E+00 -.116E+00 0.130E+00   -.446E-04 -.137E-03 -.339E-04
   0.132E+02 0.170E+02 0.188E+02   -.133E+02 -.171E+02 -.189E+02   0.101E+00 0.116E+00 0.130E+00   0.446E-04 0.137E-03 -.339E-04
   0.132E+02 -.170E+02 -.188E+02   -.133E+02 0.171E+02 0.189E+02   0.101E+00 -.116E+00 -.130E+00   0.446E-04 -.137E-03 0.339E-04
   -.132E+02 0.170E+02 -.188E+02   0.133E+02 -.171E+02 0.189E+02   -.101E+00 0.116E+00 -.130E+00   -.446E-04 0.137E-03 0.339E-04
 -----------------------------------------------------------------------------------------------
   0.325E-11 -.271E-11 0.689E-12   0.000E+00 -.711E-14 -.426E-13   0.000E+00 0.000E+00 -.555E-16   0.769E-12 -.910E-13 0.224E-12


 POSITION                                       TOTAL-FORCE (eV/Angst)
 -----------------------------------------------------------------------------------
      0.48567      2.86628      4.05234        -0.003521      0.000000      0.006376
      3.89274      8.59883      8.25289         0.003521     -0.000000      0.006376
      4.86408      2.86628      0.14821        -0.003521     -0.000000     -0.006376
      8.27115      8.59883      4.34876         0.003521      0.000000     -0.006376
      0.00000      0.00000      0.00000         0.000000      0.000000      0.000000
      4.37841      0.00000      4.20055         0.000000      0.000000      0.000000
      4.37841      5.73255      4.20055         0.000000      0.000000      0.000000
      0.00000      5.73255      0.00000         0.000000      0.000000      0.000000
      4.59449      8.59883      3.48406         0.000483      0.000000     -0.000185
      8.54074      2.86628      7.68461        -0.000483      0.000000     -0.000185
      0.21608      8.59883      0.71649         0.000483      0.000000      0.000185
      4.16233      2.86628      4.91704        -0.000483      0.000000      0.000185
      2.46742      5.29014      1.81443        -0.005751     -0.001777      0.010547
      1.91099      6.17497      6.01498         0.005751      0.001777      0.010547
      6.84583      0.44242      2.38612        -0.005751      0.001777     -0.010547
      6.28939     11.02269      6.58667         0.005751     -0.001777     -0.010547
      2.46742      0.44242      1.81443        -0.005751      0.001777      0.010547
      1.91099     11.02269      6.01498         0.005751     -0.001777      0.010547
      6.28939      6.17497      6.58667         0.005751      0.001777     -0.010547
      6.84583      5.29014      2.38612        -0.005751     -0.001777     -0.010547
 -----------------------------------------------------------------------------------
    total drift:                                0.000000     -0.000000      0.000000


--------------------------------------------------------------------------------------------------------



  FREE ENERGIE OF THE ION-ELECTRON SYSTEM (eV)
  ---------------------------------------------------
  free  energy   TOTEN  =      -714.65460545 eV

  energy  without entropy=     -714.65460545  energy(sigma->0) =     -714.65460545



--------------------------------------------------------------------------------------------------------


    POTLOK:  cpu time    1.1991: real time    1.1991


--------------------------------------------------------------------------------------------------------


 stress matrix after NEB project (eV)
     -8.56530      0.00000      0.00000
      0.00000     -0.39119      0.00000
     -0.00000      0.00000     -7.12310
  FORCES: max atom, RMS     0.012143    0.008346
  FORCE total and by dimension    0.037322    0.010547
  Stress total and by dimension   11.147013    8.565300
     LOOP+:  cpu time  111.7348: real time  112.0795
    4ORBIT:  cpu time    0.0000: real time    0.0000



 total charge     

# of ion       s       p       d       tot
------------------------------------------
    1        1.784   4.719   0.016   6.519
    2        1.784   4.719   0.016   6.519
    3        1.784   4.719   0.016   6.519
    4        1.784   4.719   0.016   6.519
    5        1.551   0.399   9.829  11.780
    6        1.551   0.399   9.829  11.780
    7        1.551   0.399   9.829  11.780
    8        1.551   0.399   9.829  11.780
    9        1.615   3.285   0.007   4.907
   10        1.615   3.285   0.007   4.907
   11        1.615   3.285   0.007   4.907
   12        1.615   3.285   0.007   4.907
   13        1.613   3.262   0.005   4.880
   14        1.612   3.284   0.004   4.900
   15        1.612   3.284   0.004   4.900
   16        1.613   3.262   0.005   4.880
   17        1.613   3.262   0.005   4.880
   18        1.612   3.284   0.004   4.900
   19        1.613   3.262   0.005   4.880
   20        1.612   3.284   0.004   4.900
--------------------------------------------------
tot         32.700  59.801  39.443 131.944


 total amount of memory used by VASP MPI-rank0    43670. kBytes
=======================================================================

   base      :      30000. kBytes
   nonlr-proj:       3175. kBytes
   fftplans  :       4446. kBytes
   grid      :       3667. kBytes
   one-center:         46. kBytes
   wavefun   :       2336. kBytes

  
  
 General timing and accounting informations for this job:
 ========================================================
  
                  Total CPU time used (sec):      118.208
                            User time (sec):      117.416
                          System time (sec):        0.792
                         Elapsed time (sec):      118.896
  
                   Maximum memory used (kb):       82876.
                   Average memory used (kb):           0.
  
                          Minor page faults:        20375
                          Major page faults:            1
                 Voluntary context switches:         1500
