<?xml version="1.0" encoding="ISO-8859-1"?>
<modeling>
 <generator>
  <i name="program" type="string">vasp </i>
  <i name="version" type="string">5.4.4.18Apr17-6-g9f103f2a35  </i>
  <i name="subversion" type="string">(build Jun 29 2021 12:14:42) complex            parallel </i>
  <i name="platform" type="string">tx2_gcc-7.3_libsci-18.07_cray-fftw-3.3.8 </i>
  <i name="date" type="string">2021 09 21 </i>
  <i name="time" type="string">08:32:49 </i>
 </generator>
 <incar>
  <i type="string" name="SYSTEM"> CsPbBr3 cubic bulk</i>
  <i type="string" name="PREC">accurate</i>
  <i type="string" name="ALGO"> Normal   ! Electronic minimisation algo</i>
  <i type="logical" name="ADDGRID"> T  </i>
  <i type="int" name="NELM">   200</i>
  <i type="int" name="IBRION">     2</i>
  <i name="EDIFF">      0.00000100</i>
  <i name="EDIFFG">     -0.01000000</i>
  <i type="int" name="NSW">     0</i>
  <i type="int" name="ISIF">     3</i>
  <i type="int" name="ISYM">     2</i>
  <i name="ENCUT">    300.00000000</i>
  <i name="POTIM">      0.50000000</i>
  <i type="string" name="LREAL"> AUTO</i>
  <i type="int" name="ISMEAR">     0</i>
  <i name="SIGMA">      0.01000000</i>
  <i name="PSTRESS">      0.00000000</i>
  <i type="logical" name="LWAVE"> F  </i>
  <i type="logical" name="LCHARG"> F  </i>
  <i type="logical" name="LVHAR"> T  </i>
  <i type="int" name="LORBIT">    10</i>
  <i type="logical" name="LASPH"> T  </i>
  <v type="int" name="KPOINT_BSE">    -1     0     0     0</v>
  <i type="int" name="NELM">   200</i>
  <i type="string" name="METAGGA"> SCAN       ! PBE exchange-correlation</i>
  <i type="logical" name="LASPH"> T  </i>
 </incar>
 <structure name="primitive_cell" >
  <crystal>
   <varray name="basis" >
    <v>       8.75681830       0.00000000       0.00000000 </v>
    <v>       0.00000000      11.46510351       0.00000000 </v>
    <v>       0.00000000       0.00000000       8.40109978 </v>
   </varray>
   <i name="volume">    843.45217254 </i>
   <varray name="rec_basis" >
    <v>       0.11419673       0.00000000       0.00000000 </v>
    <v>       0.00000000       0.08722119       0.00000000 </v>
    <v>       0.00000000       0.00000000       0.11903203 </v>
   </varray>
  </crystal>
  <varray name="positions" >
   <v>       0.05546200       0.25000000       0.48235819 </v>
   <v>      -0.02467583       0.25000000      -0.08528474 </v>
   <v>       0.47532417       0.25000000      -0.41471526 </v>
   <v>      -0.21822831       0.03858808       0.28402438 </v>
   <v>      -0.21822831       0.46141192       0.28402438 </v>
   <v>       0.28177169       0.46141192       0.21597562 </v>
   <v>       0.28177169       0.03858808       0.21597562 </v>
   <v>       0.21822831      -0.46141192      -0.28402438 </v>
   <v>       0.21822831      -0.03858808      -0.28402438 </v>
   <v>      -0.50000000       0.00000000      -0.50000000 </v>
   <v>      -0.50000000      -0.50000000      -0.50000000 </v>
   <v>       0.00000000       0.00000000       0.00000000 </v>
   <v>       0.00000000      -0.50000000       0.00000000 </v>
   <v>      -0.28177169      -0.03858808      -0.21597562 </v>
   <v>      -0.28177169      -0.46141192      -0.21597562 </v>
   <v>      -0.05546200      -0.25000000      -0.48235819 </v>
   <v>      -0.44453800       0.25000000       0.01764181 </v>
   <v>       0.02467583      -0.25000000       0.08528474 </v>
   <v>      -0.47532417      -0.25000000       0.41471526 </v>
   <v>       0.44453800      -0.25000000      -0.01764181 </v>
  </varray>
 </structure>
 <varray name="primitive_index" >
  <v type="int" >        1 </v>
  <v type="int" >       10 </v>
  <v type="int" >       12 </v>
  <v type="int" >       15 </v>
  <v type="int" >       20 </v>
  <v type="int" >       13 </v>
  <v type="int" >       17 </v>
  <v type="int" >       14 </v>
  <v type="int" >       18 </v>
  <v type="int" >        6 </v>
  <v type="int" >        7 </v>
  <v type="int" >        5 </v>
  <v type="int" >        8 </v>
  <v type="int" >       16 </v>
  <v type="int" >       19 </v>
  <v type="int" >        4 </v>
  <v type="int" >        3 </v>
  <v type="int" >       11 </v>
  <v type="int" >        9 </v>
  <v type="int" >        2 </v>
 </varray>
 <kpoints>
  <generation param="Gamma">
   <v type="int" name="divisions">       3        2        3 </v>
   <v name="usershift">      0.00000000       0.00000000       0.00000000 </v>
   <v name="genvec1">      0.33333333       0.00000000       0.00000000 </v>
   <v name="genvec2">      0.00000000       0.50000000       0.00000000 </v>
   <v name="genvec3">      0.00000000       0.00000000       0.33333333 </v>
   <v name="shift">      0.00000000       0.00000000       0.00000000 </v>
  </generation>
  <varray name="kpointlist" >
   <v>       0.00000000       0.00000000       0.00000000 </v>
   <v>       0.33333333       0.00000000       0.00000000 </v>
   <v>       0.00000000       0.50000000       0.00000000 </v>
   <v>       0.33333333       0.50000000       0.00000000 </v>
   <v>       0.00000000       0.00000000       0.33333333 </v>
   <v>       0.33333333       0.00000000       0.33333333 </v>
   <v>       0.00000000       0.50000000       0.33333333 </v>
   <v>       0.33333333       0.50000000       0.33333333 </v>
  </varray>
  <varray name="weights" >
   <v>       0.05555556 </v>
   <v>       0.11111111 </v>
   <v>       0.05555556 </v>
   <v>       0.11111111 </v>
   <v>       0.11111111 </v>
   <v>       0.22222222 </v>
   <v>       0.11111111 </v>
   <v>       0.22222222 </v>
  </varray>
 </kpoints>
 <parameters>
  <separator name="general" >
   <i type="string" name="SYSTEM">CsPbBr3 cubic bulk</i>
   <i type="logical" name="LCOMPAT"> F  </i>
  </separator>
  <separator name="electronic" >
   <i type="string" name="PREC">accura</i>
   <i name="ENMAX">    300.00000000</i>
   <i name="ENAUG">    503.85200000</i>
   <i name="EDIFF">      0.00000100</i>
   <i type="int" name="IALGO">    38</i>
   <i type="int" name="IWAVPR">    10</i>
   <i type="int" name="NBANDS">   112</i>
   <i name="NELECT">    176.00000000</i>
   <i type="int" name="TURBO">     0</i>
   <i type="int" name="IRESTART">     0</i>
   <i type="int" name="NREBOOT">     0</i>
   <i type="int" name="NMIN">     0</i>
   <i name="EREF">      0.00000000</i>
   <separator name="electronic smearing" >
    <i type="int" name="ISMEAR">     0</i>
    <i name="SIGMA">      0.01000000</i>
    <i name="KSPACING">      0.50000000</i>
    <i type="logical" name="KGAMMA"> T  </i>
   </separator>
   <separator name="electronic projectors" >
    <i type="logical" name="LREAL"> T  </i>
    <v name="ROPT">     -0.00025000     -0.00025000     -0.00025000</v>
    <i type="int" name="LMAXPAW">  -100</i>
    <i type="int" name="LMAXMIX">     2</i>
    <i type="logical" name="NLSPLINE"> F  </i>
   </separator>
   <separator name="electronic startup" >
    <i type="int" name="ISTART">     0</i>
    <i type="int" name="ICHARG">     2</i>
    <i type="int" name="INIWAV">     1</i>
   </separator>
   <separator name="electronic spin" >
    <i type="int" name="ISPIN">     1</i>
    <i type="logical" name="LNONCOLLINEAR"> F  </i>
    <v name="MAGMOM">      1.00000000      1.00000000      1.00000000      1.00000000      1.00000000      1.00000000      1.00000000      1.00000000      1.00000000      1.00000000      1.00000000      1.00000000      1.00000000      1.00000000      1.00000000      1.00000000      1.00000000      1.00000000      1.00000000      1.00000000
</v>
    <i name="NUPDOWN">     -1.00000000</i>
    <i type="logical" name="LSORBIT"> F  </i>
    <v name="SAXIS">      0.00000000      0.00000000      1.00000000</v>
    <i type="logical" name="LSPIRAL"> F  </i>
    <v name="QSPIRAL">      0.00000000      0.00000000      0.00000000</v>
    <i type="logical" name="LZEROZ"> F  </i>
   </separator>
   <separator name="electronic exchange-correlation" >
    <i type="logical" name="LASPH"> T  </i>
    <i type="logical" name="LMETAGGA"> F  </i>
   </separator>
   <separator name="electronic convergence" >
    <i type="int" name="NELM">   200</i>
    <i type="int" name="NELMDL">    -5</i>
    <i type="int" name="NELMIN">     2</i>
    <i name="ENINI">    300.00000000</i>
    <separator name="electronic convergence detail" >
     <i type="logical" name="LDIAG"> T  </i>
     <i type="logical" name="LSUBROT"> F  </i>
     <i name="WEIMIN">      0.00000000</i>
     <i name="EBREAK">      0.00000000</i>
     <i name="DEPER">      0.30000000</i>
     <i type="int" name="NRMM">     4</i>
     <i name="TIME">      0.40000000</i>
    </separator>
   </separator>
   <separator name="electronic mixer" >
    <i name="AMIX">      0.40000000</i>
    <i name="BMIX">      1.00000000</i>
    <i name="AMIN">      0.10000000</i>
    <i name="AMIX_MAG">      1.60000000</i>
    <i name="BMIX_MAG">      1.00000000</i>
    <separator name="electronic mixer details" >
     <i type="int" name="IMIX">     4</i>
     <i type="logical" name="MIXFIRST"> F  </i>
     <i type="int" name="MAXMIX">   -45</i>
     <i name="WC">    100.00000000</i>
     <i type="int" name="INIMIX">     1</i>
     <i type="int" name="MIXPRE">     1</i>
     <i type="int" name="MREMOVE">     5</i>
    </separator>
   </separator>
   <separator name="electronic dipolcorrection" >
    <i type="logical" name="LDIPOL"> F  </i>
    <i type="logical" name="LMONO"> F  </i>
    <i type="int" name="IDIPOL">     0</i>
    <i name="EPSILON">      1.00000000</i>
    <v name="DIPOL">   -100.00000000   -100.00000000   -100.00000000</v>
    <i name="EFIELD">      0.00000000</i>
   </separator>
  </separator>
  <separator name="grids" >
   <i type="int" name="NGX">    50</i>
   <i type="int" name="NGY">    70</i>
   <i type="int" name="NGZ">    48</i>
   <i type="int" name="NGXF">   100</i>
   <i type="int" name="NGYF">   140</i>
   <i type="int" name="NGZF">    96</i>
   <i type="logical" name="ADDGRID"> T  </i>
  </separator>
  <separator name="ionic" >
   <i type="int" name="NSW">     0</i>
   <i type="int" name="IBRION">    -1</i>
   <i type="int" name="MDALGO">     0</i>
   <i type="int" name="ISIF">     3</i>
   <i name="PSTRESS">      0.00000000</i>
   <i name="EDIFFG">     -0.01000000</i>
   <i type="int" name="NFREE">     1</i>
   <i name="POTIM">      0.50000000</i>
   <i name="SMASS">     -3.00000000</i>
   <i name="SCALEE">      1.00000000</i>
  </separator>
  <separator name="ionic md" >
   <i name="TEBEG">      0.00010000</i>
   <i name="TEEND">      0.00010000</i>
   <i type="int" name="NBLOCK">     1</i>
   <i type="int" name="KBLOCK">     1</i>
   <i type="int" name="NPACO">   256</i>
   <i name="APACO">     16.00000000</i>
  </separator>
  <separator name="symmetry" >
   <i type="int" name="ISYM">     2</i>
   <i name="SYMPREC">      0.00001000</i>
  </separator>
  <separator name="dos" >
   <i type="int" name="LORBIT">    10</i>
   <v name="RWIGS">     -1.00000000     -1.00000000     -1.00000000</v>
   <i type="int" name="NEDOS">   301</i>
   <i name="EMIN">     10.00000000</i>
   <i name="EMAX">    -10.00000000</i>
   <i name="EFERMI">      0.00000000</i>
  </separator>
  <separator name="writing" >
   <i type="int" name="NWRITE">     2</i>
   <i type="logical" name="LWAVE"> F  </i>
   <i type="logical" name="LDOWNSAMPLE"> F  </i>
   <i type="logical" name="LCHARG"> F  </i>
   <i type="logical" name="LPARD"> F  </i>
   <i type="logical" name="LVTOT"> F  </i>
   <i type="logical" name="LVHAR"> T  </i>
   <i type="logical" name="LELF"> F  </i>
   <i type="logical" name="LOPTICS"> F  </i>
   <v name="STM">      0.00000000      0.00000000      0.00000000      0.00000000      0.00000000      0.00000000      0.00000000</v>
  </separator>
  <separator name="performance" >
   <i type="int" name="NPAR">     8</i>
   <i type="int" name="NSIM">     4</i>
   <i type="int" name="NBLK">    -1</i>
   <i type="logical" name="LPLANE"> T  </i>
   <i type="logical" name="LSCALAPACK"> T  </i>
   <i type="logical" name="LSCAAWARE"> F  </i>
   <i type="logical" name="LSCALU"> F  </i>
   <i type="logical" name="LASYNC"> F  </i>
   <i type="logical" name="LORBITALREAL"> F  </i>
  </separator>
  <separator name="miscellaneous" >
   <i type="int" name="IDIOT">     3</i>
   <i type="int" name="ISPECIAL">     0</i>
   <i type="logical" name="LMUSIC"> F  </i>
   <v name="POMASS">    132.90000000    207.20000000     79.90400000</v>
   <v name="DARWINR">      0.00000000      0.00000000      0.00000000</v>
   <v name="DARWINV">      1.00000000      1.00000000      1.00000000</v>
   <i type="logical" name="LCORR"> T  </i>
  </separator>
  <i type="logical" name="GGA_COMPAT"> T  </i>
  <i type="logical" name="LBERRY"> F  </i>
  <i type="int" name="ICORELEVEL">     0</i>
  <i type="logical" name="LDAU"> F  </i>
  <i type="int" name="I_CONSTRAINED_M">     0</i>
  <separator name="electronic exchange-correlation" >
   <i type="string" name="GGA">--</i>
   <i type="int" name="VOSKOWN">     0</i>
   <i type="logical" name="LHFCALC"> F  </i>
   <i type="string" name="PRECFOCK"></i>
   <i type="logical" name="LSYMGRAD"> F  </i>
   <i type="logical" name="LHFONE"> F  </i>
   <i type="logical" name="LRHFCALC"> F  </i>
   <i type="logical" name="LTHOMAS"> F  </i>
   <i type="logical" name="LMODELHF"> F  </i>
   <i name="ENCUT4O">     -1.00000000</i>
   <i type="int" name="EXXOEP">     0</i>
   <i type="int" name="FOURORBIT">     0</i>
   <i name="AEXX">      0.00000000</i>
   <i name="HFALPHA">      0.00000000</i>
   <i name="MCALPHA">      0.00000000</i>
   <i name="ALDAX">      1.00000000</i>
   <i name="AGGAX">      1.00000000</i>
   <i name="ALDAC">      1.00000000</i>
   <i name="AGGAC">      1.00000000</i>
   <i type="int" name="NKREDX">     1</i>
   <i type="int" name="NKREDY">     1</i>
   <i type="int" name="NKREDZ">     1</i>
   <i type="logical" name="SHIFTRED"> F  </i>
   <i type="logical" name="ODDONLY"> F  </i>
   <i type="logical" name="EVENONLY"> F  </i>
   <i type="int" name="LMAXFOCK">     0</i>
   <i type="int" name="NMAXFOCKAE">     0</i>
   <i type="logical" name="LFOCKAEDFT"> F  </i>
   <i name="HFSCREEN">      0.00000000</i>
   <i name="HFSCREENC">      0.00000000</i>
   <i type="int" name="NBANDSGWLOW">     0</i>
  </separator>
  <separator name="vdW DFT" >
   <i type="logical" name="LUSE_VDW"> F  </i>
   <i name="Zab_VDW">     -0.84910000</i>
   <i name="PARAM1">      0.12340000</i>
   <i name="PARAM2">      1.00000000</i>
   <i name="PARAM3">      0.00000000</i>
  </separator>
  <separator name="model GW" >
   <i type="int" name="MODEL_GW">     0</i>
   <i name="MODEL_EPS0">     25.30356518</i>
   <i name="MODEL_ALPHA">      1.00000000</i>
  </separator>
  <separator name="linear response parameters" >
   <i type="logical" name="LEPSILON"> F  </i>
   <i type="logical" name="LRPA"> F  </i>
   <i type="logical" name="LNABLA"> F  </i>
   <i type="logical" name="LVEL"> F  </i>
   <i type="int" name="KINTER">     0</i>
   <i name="CSHIFT">      0.10000000</i>
   <i name="OMEGAMAX">     -1.00000000</i>
   <i name="DEG_THRESHOLD">      0.00200000</i>
   <i name="RTIME">     -0.10000000</i>
   <i name="WPLASMAI">      0.00000000</i>
   <v name="DFIELD">      0.00000000      0.00000000      0.00000000</v>
   <v name="WPLASMA">      0.00000000      0.00000000      0.00000000      0.00000000      0.00000000      0.00000000      0.00000000      0.00000000      0.00000000</v>
  </separator>
  <separator name="orbital magnetization" >
   <i type="logical" name="NUCIND"> F  </i>
   <v name="MAGPOS">      0.00000000      0.00000000      0.00000000</v>
   <i type="logical" name="LNICSALL"> T  </i>
   <i type="logical" name="ORBITALMAG"> F  </i>
   <i type="logical" name="LMAGBLOCH"> F  </i>
   <i type="logical" name="LCHIMAG"> F  </i>
   <i type="logical" name="LGAUGE"> T  </i>
   <i type="int" name="MAGATOM">     0</i>
   <v name="MAGDIPOL">      0.00000000      0.00000000      0.00000000</v>
   <v name="AVECCONST">      0.00000000      0.00000000      0.00000000</v>
  </separator>
  <separator name="response functions" >
   <i type="logical" name="LADDER"> F  </i>
   <i type="logical" name="LRPAFORCE"> F  </i>
   <i type="logical" name="LFXC"> F  </i>
   <i type="logical" name="LHARTREE"> T  </i>
   <i type="int" name="IBSE">     0</i>
   <v type="int" name="KPOINT">    -1     0     0     0</v>
   <i type="logical" name="LTCTE"> F  </i>
   <i type="logical" name="LTETE"> F  </i>
   <i type="logical" name="LTRIPLET"> F  </i>
   <i type="logical" name="LFXCEPS"> F  </i>
   <i type="logical" name="LFXHEG"> F  </i>
   <i type="int" name="NATURALO">     2</i>
   <i type="logical" name="L2ORDER"> F  </i>
   <i type="logical" name="LMP2LT"> F  </i>
   <i type="logical" name="LUSEW"> F  </i>
   <i name="ENCUTGW">     -2.00000000</i>
   <i name="ENCUTGWSOFT">     -2.00000000</i>
   <i name="ENCUTLF">     -1.00000000</i>
   <i type="int" name="LMAXMP2">    -1</i>
   <i name="SCISSOR">      0.00000000</i>
   <i type="int" name="NOMEGA">     0</i>
   <i type="int" name="NOMEGAR">     0</i>
   <i type="int" name="NBANDSGW">    -1</i>
   <i type="int" name="NBANDSO">    -1</i>
   <i type="int" name="NBANDSV">    -1</i>
   <i type="int" name="NELM">   200</i>
   <i type="int" name="NELMHF">     1</i>
   <i type="int" name="DIM">     3</i>
   <i type="int" name="ANTIRES">     0</i>
   <i name="OMEGAMAX">    -30.00000000</i>
   <i name="OMEGAMIN">    -30.00000000</i>
   <i name="OMEGATL">   -200.00000000</i>
   <i type="int" name="OMEGAGRID">   140</i>
   <i name="CSHIFT">     -0.10000000</i>
   <i type="logical" name="SELFENERGY"> F  </i>
   <i type="logical" name="LSPECTRAL"> F  </i>
   <i type="logical" name="LSPECTRALGW"> F  </i>
   <i type="logical" name="LSINGLES"> F  </i>
   <i type="logical" name="LFERMIGW"> F  </i>
   <i type="logical" name="ODDONLYGW"> F  </i>
   <i type="logical" name="EVENONLYGW"> F  </i>
   <i type="int" name="NKREDLFX">     1</i>
   <i type="int" name="NKREDLFY">     1</i>
   <i type="int" name="NKREDLFZ">     1</i>
   <i type="int" name="MAXMEM">  2800</i>
   <i type="int" name="TELESCOPE">     0</i>
   <i type="int" name="TAUPAR">     1</i>
   <i type="int" name="OMEGAPAR">    -1</i>
   <i name="LAMBDA">      1.00000000</i>
  </separator>
  <separator name="External order field" >
   <i name="OFIELD_KAPPA">      0.00000000</i>
   <v name="OFIELD_K">      0.00000000      0.00000000      0.00000000</v>
   <i name="OFIELD_Q6_NEAR">      0.00000000</i>
   <i name="OFIELD_Q6_FAR">      0.00000000</i>
   <i name="OFIELD_A">      0.00000000</i>
  </separator>
 </parameters>
 <atominfo>
  <atoms>      20 </atoms>
  <types>       3 </types>
  <array name="atoms" >
   <dimension dim="1">ion</dimension>
   <field type="string">element</field>
   <field type="int">atomtype</field>
   <set>
    <rc><c>Cs</c><c>   1</c></rc>
    <rc><c>Cs</c><c>   1</c></rc>
    <rc><c>Cs</c><c>   1</c></rc>
    <rc><c>Cs</c><c>   1</c></rc>
    <rc><c>Pb</c><c>   2</c></rc>
    <rc><c>Pb</c><c>   2</c></rc>
    <rc><c>Pb</c><c>   2</c></rc>
    <rc><c>Pb</c><c>   2</c></rc>
    <rc><c>Br</c><c>   3</c></rc>
    <rc><c>Br</c><c>   3</c></rc>
    <rc><c>Br</c><c>   3</c></rc>
    <rc><c>Br</c><c>   3</c></rc>
    <rc><c>Br</c><c>   3</c></rc>
    <rc><c>Br</c><c>   3</c></rc>
    <rc><c>Br</c><c>   3</c></rc>
    <rc><c>Br</c><c>   3</c></rc>
    <rc><c>Br</c><c>   3</c></rc>
    <rc><c>Br</c><c>   3</c></rc>
    <rc><c>Br</c><c>   3</c></rc>
    <rc><c>Br</c><c>   3</c></rc>
   </set>
  </array>
  <array name="atomtypes" >
   <dimension dim="1">type</dimension>
   <field type="int">atomspertype</field>
   <field type="string">element</field>
   <field>mass</field>
   <field>valence</field>
   <field type="string">pseudopotential</field>
   <set>
    <rc><c>   4</c><c>Cs</c><c>    132.90000000</c><c>      9.00000000</c><c>  PAW_PBE Cs_sv 08Apr2002               </c></rc>
    <rc><c>   4</c><c>Pb</c><c>    207.20000000</c><c>     14.00000000</c><c>  PAW_PBE Pb_d 06Sep2000                </c></rc>
    <rc><c>  12</c><c>Br</c><c>     79.90400000</c><c>      7.00000000</c><c>  PAW_PBE Br 06Sep2000                  </c></rc>
   </set>
  </array>
 </atominfo>
 <structure name="initialpos" >
  <crystal>
   <varray name="basis" >
    <v>       8.75681830       0.00000000       0.00000000 </v>
    <v>       0.00000000      11.46510351       0.00000000 </v>
    <v>       0.00000000       0.00000000       8.40109978 </v>
   </varray>
   <i name="volume">    843.45217254 </i>
   <varray name="rec_basis" >
    <v>       0.11419673       0.00000000       0.00000000 </v>
    <v>       0.00000000       0.08722119       0.00000000 </v>
    <v>       0.00000000       0.00000000       0.11903203 </v>
   </varray>
  </crystal>
  <varray name="positions" >
   <v>       0.05546200       0.25000000       0.48235819 </v>
   <v>       0.44453800       0.75000000       0.98235819 </v>
   <v>       0.55546200       0.25000000       0.01764181 </v>
   <v>       0.94453800       0.75000000       0.51764181 </v>
   <v>       0.00000000       0.00000000       0.00000000 </v>
   <v>       0.50000000       0.00000000       0.50000000 </v>
   <v>       0.50000000       0.50000000       0.50000000 </v>
   <v>       0.00000000       0.50000000       0.00000000 </v>
   <v>       0.52467583       0.75000000       0.41471526 </v>
   <v>       0.97532417       0.25000000       0.91471526 </v>
   <v>       0.02467583       0.75000000       0.08528474 </v>
   <v>       0.47532417       0.25000000       0.58528474 </v>
   <v>       0.28177169       0.46141192       0.21597562 </v>
   <v>       0.21822831       0.53858808       0.71597562 </v>
   <v>       0.78177169       0.03858808       0.28402438 </v>
   <v>       0.71822831       0.96141192       0.78402438 </v>
   <v>       0.28177169       0.03858808       0.21597562 </v>
   <v>       0.21822831       0.96141192       0.71597562 </v>
   <v>       0.71822831       0.53858808       0.78402438 </v>
   <v>       0.78177169       0.46141192       0.28402438 </v>
  </varray>
 </structure>
 <calculation>
  <scstep>
   <time name="dav">    4.40    4.40</time>
   <time name="total">    5.62    5.64</time>
   <energy>
    <i name="alphaZ">    427.77639978 </i>
    <i name="ewald">  -9059.11820441 </i>
    <i name="hartreedc">  -3752.38287738 </i>
    <i name="XCdc">    460.83280516 </i>
    <i name="pawpsdc">  10816.98087266 </i>
    <i name="pawaedc"> -11353.96092700 </i>
    <i name="eentropy">     -0.00001855 </i>
    <i name="bandstr">   -170.35474774 </i>
    <i name="atom">  13290.28009929 </i>
    <i name="e_fr_energy">    660.05340181 </i>
    <i name="e_wo_entrp">    660.05342036 </i>
    <i name="e_0_energy">    660.05341108 </i>
   </energy>
  </scstep>
  <scstep>
   <time name="dav">    4.94    4.96</time>
   <time name="total">    4.94    4.96</time>
   <energy>
    <i name="e_fr_energy">   -575.51779576 </i>
    <i name="e_wo_entrp">   -575.51779576 </i>
    <i name="e_0_energy">   -575.51779576 </i>
   </energy>
  </scstep>
  <scstep>
   <time name="dav">    5.24    5.29</time>
   <time name="total">    5.25    5.29</time>
   <energy>
    <i name="e_fr_energy">   -748.85659329 </i>
    <i name="e_wo_entrp">   -748.85659329 </i>
    <i name="e_0_energy">   -748.85659329 </i>
   </energy>
  </scstep>
  <scstep>
   <time name="dav">    4.91    4.93</time>
   <time name="total">    4.91    4.93</time>
   <energy>
    <i name="e_fr_energy">   -754.53120693 </i>
    <i name="e_wo_entrp">   -754.53120693 </i>
    <i name="e_0_energy">   -754.53120693 </i>
   </energy>
  </scstep>
  <scstep>
   <time name="dav">    5.21    5.25</time>
   <time name="total">    6.17    6.21</time>
   <energy>
    <i name="e_fr_energy">   -754.77469995 </i>
    <i name="e_wo_entrp">   -754.77469995 </i>
    <i name="e_0_energy">   -754.77469995 </i>
   </energy>
  </scstep>
  <scstep>
   <time name="dav">    5.08    5.08</time>
   <time name="total">    7.24    7.27</time>
   <energy>
    <i name="e_fr_energy">   -714.73617857 </i>
    <i name="e_wo_entrp">   -714.73617857 </i>
    <i name="e_0_energy">   -714.73617857 </i>
   </energy>
  </scstep>
  <scstep>
   <time name="dav">    5.02    5.02</time>
   <time name="total">    7.19    7.19</time>
   <energy>
    <i name="e_fr_energy">   -714.50001942 </i>
    <i name="e_wo_entrp">   -714.50001942 </i>
    <i name="e_0_energy">   -714.50001942 </i>
   </energy>
  </scstep>
  <scstep>
   <time name="dav">    4.77    4.77</time>
   <time name="total">    6.92    6.94</time>
   <energy>
    <i name="e_fr_energy">   -714.60419811 </i>
    <i name="e_wo_entrp">   -714.60419811 </i>
    <i name="e_0_energy">   -714.60419811 </i>
   </energy>
  </scstep>
  <scstep>
   <time name="dav">    4.56    4.56</time>
   <time name="total">    6.75    6.76</time>
   <energy>
    <i name="e_fr_energy">   -714.65133130 </i>
    <i name="e_wo_entrp">   -714.65133130 </i>
    <i name="e_0_energy">   -714.65133130 </i>
   </energy>
  </scstep>
  <scstep>
   <time name="dav">    5.45    5.45</time>
   <time name="total">    7.60    7.63</time>
   <energy>
    <i name="e_fr_energy">   -714.65251069 </i>
    <i name="e_wo_entrp">   -714.65251069 </i>
    <i name="e_0_energy">   -714.65251069 </i>
   </energy>
  </scstep>
  <scstep>
   <time name="dav">    4.59    4.59</time>
   <time name="total">    6.76    6.77</time>
   <energy>
    <i name="e_fr_energy">   -714.65464855 </i>
    <i name="e_wo_entrp">   -714.65464855 </i>
    <i name="e_0_energy">   -714.65464855 </i>
   </energy>
  </scstep>
  <scstep>
   <time name="dav">    4.86    4.86</time>
   <time name="total">    7.02    7.05</time>
   <energy>
    <i name="e_fr_energy">   -714.65461692 </i>
    <i name="e_wo_entrp">   -714.65461692 </i>
    <i name="e_0_energy">   -714.65461692 </i>
   </energy>
  </scstep>
  <scstep>
   <time name="dav">    4.84    4.84</time>
   <time name="total">    7.00    7.03</time>
   <energy>
    <i name="e_fr_energy">   -714.65459412 </i>
    <i name="e_wo_entrp">   -714.65459412 </i>
    <i name="e_0_energy">   -714.65459412 </i>
   </energy>
  </scstep>
  <scstep>
   <time name="dav">    4.32    4.32</time>
   <time name="total">    6.48    6.50</time>
   <energy>
    <i name="e_fr_energy">   -714.65460547 </i>
    <i name="e_wo_entrp">   -714.65460547 </i>
    <i name="e_0_energy">   -714.65460547 </i>
   </energy>
  </scstep>
  <scstep>
   <time name="dav">    3.60    3.60</time>
   <time name="total">    4.85    4.87</time>
   <energy>
    <i name="alphaZ">    427.77639978 </i>
    <i name="ewald">  -9059.11820441 </i>
    <i name="hartreedc">  -3764.14391926 </i>
    <i name="XCdc">    480.29619446 </i>
    <i name="pawpsdc">  11435.41306544 </i>
    <i name="pawaedc"> -11970.44383012 </i>
    <i name="eentropy">     -0.00000000 </i>
    <i name="bandstr">  -1554.71441063 </i>
    <i name="atom">  13290.28009929 </i>
    <i name="e_fr_energy">   -714.65460545 </i>
    <i name="e_wo_entrp">   -714.65460545 </i>
    <i name="e_0_energy">   -714.65460545 </i>
   </energy>
  </scstep>
  <structure>
   <crystal>
    <varray name="basis" >
     <v>       8.75681830       0.00000000       0.00000000 </v>
     <v>       0.00000000      11.46510351       0.00000000 </v>
     <v>       0.00000000       0.00000000       8.40109978 </v>
    </varray>
    <i name="volume">    843.45217254 </i>
    <varray name="rec_basis" >
     <v>       0.11419673       0.00000000       0.00000000 </v>
     <v>       0.00000000       0.08722119       0.00000000 </v>
     <v>       0.00000000       0.00000000       0.11903203 </v>
    </varray>
   </crystal>
   <varray name="positions" >
    <v>       0.05546200       0.25000000       0.48235819 </v>
    <v>       0.44453800       0.75000000       0.98235819 </v>
    <v>       0.55546200       0.25000000       0.01764181 </v>
    <v>       0.94453800       0.75000000       0.51764181 </v>
    <v>       0.00000000       0.00000000       0.00000000 </v>
    <v>       0.50000000       0.00000000       0.50000000 </v>
    <v>       0.50000000       0.50000000       0.50000000 </v>
    <v>       0.00000000       0.50000000       0.00000000 </v>
    <v>       0.52467583       0.75000000       0.41471526 </v>
    <v>       0.97532417       0.25000000       0.91471526 </v>
    <v>       0.02467583       0.75000000       0.08528474 </v>
    <v>       0.47532417       0.25000000       0.58528474 </v>
    <v>       0.28177169       0.46141192       0.21597562 </v>
    <v>       0.21822831       0.53858808       0.71597562 </v>
    <v>       0.78177169       0.03858808       0.28402438 </v>
    <v>       0.71822831       0.96141192       0.78402438 </v>
    <v>       0.28177169       0.03858808       0.21597562 </v>
    <v>       0.21822831       0.96141192       0.71597562 </v>
    <v>       0.71822831       0.53858808       0.78402438 </v>
    <v>       0.78177169       0.46141192       0.28402438 </v>
   </varray>
  </structure>
  <varray name="forces" >
   <v>      -0.00352077       0.00000000       0.00637641 </v>
   <v>       0.00352077      -0.00000000       0.00637641 </v>
   <v>      -0.00352077      -0.00000000      -0.00637641 </v>
   <v>       0.00352077       0.00000000      -0.00637641 </v>
   <v>       0.00000000       0.00000000       0.00000000 </v>
   <v>       0.00000000       0.00000000       0.00000000 </v>
   <v>       0.00000000       0.00000000       0.00000000 </v>
   <v>       0.00000000       0.00000000       0.00000000 </v>
   <v>       0.00048302       0.00000000      -0.00018459 </v>
   <v>      -0.00048302       0.00000000      -0.00018459 </v>
   <v>       0.00048302       0.00000000       0.00018459 </v>
   <v>      -0.00048302       0.00000000       0.00018459 </v>
   <v>      -0.00575065      -0.00177684       0.01054661 </v>
   <v>       0.00575065       0.00177684       0.01054661 </v>
   <v>      -0.00575065       0.00177684      -0.01054661 </v>
   <v>       0.00575065      -0.00177684      -0.01054661 </v>
   <v>      -0.00575065       0.00177684       0.01054661 </v>
   <v>       0.00575065      -0.00177684       0.01054661 </v>
   <v>       0.00575065       0.00177684      -0.01054661 </v>
   <v>      -0.00575065      -0.00177684      -0.01054661 </v>
  </varray>
  <varray name="stress" >
   <v>     -16.27019246       0.00000000       0.00000000 </v>
   <v>       0.00000000      -0.74309111       0.00000000 </v>
   <v>      -0.00000000       0.00000000     -13.53065944 </v>
  </varray>
  <energy>
   <i name="e_fr_energy">   -714.65460545 </i>
   <i name="e_wo_entrp">   -714.65460545 </i>
   <i name="e_0_energy">     -0.00000000 </i>
  </energy>
  <time name="totalsc">  111.73  112.08</time>
  <eigenvalues>
   <array>
    <dimension dim="1">band</dimension>
    <dimension dim="2">kpoint</dimension>
    <dimension dim="3">spin</dimension>
    <field>eigene</field>
    <field>occ</field>
    <set>
     <set comment="spin 1">
      <set comment="kpoint 1">
       <r>  -21.1069    1.0000 </r>
       <r>  -21.1055    1.0000 </r>
       <r>  -21.1043    1.0000 </r>
       <r>  -21.1033    1.0000 </r>
       <r>  -16.8601    1.0000 </r>
       <r>  -16.8462    1.0000 </r>
       <r>  -16.8244    1.0000 </r>
       <r>  -16.8243    1.0000 </r>
       <r>  -16.7923    1.0000 </r>
       <r>  -16.7748    1.0000 </r>
       <r>  -16.7736    1.0000 </r>
       <r>  -16.7736    1.0000 </r>
       <r>  -16.7302    1.0000 </r>
       <r>  -16.7299    1.0000 </r>
       <r>  -16.7298    1.0000 </r>
       <r>  -16.7295    1.0000 </r>
       <r>  -16.7163    1.0000 </r>
       <r>  -16.7161    1.0000 </r>
       <r>  -16.7152    1.0000 </r>
       <r>  -16.7150    1.0000 </r>
       <r>  -16.7116    1.0000 </r>
       <r>  -16.7113    1.0000 </r>
       <r>  -16.7106    1.0000 </r>
       <r>  -16.7100    1.0000 </r>
       <r>  -14.5092    1.0000 </r>
       <r>  -14.3507    1.0000 </r>
       <r>  -14.3448    1.0000 </r>
       <r>  -14.2741    1.0000 </r>
       <r>  -14.2555    1.0000 </r>
       <r>  -14.1468    1.0000 </r>
       <r>  -14.1354    1.0000 </r>
       <r>  -14.1333    1.0000 </r>
       <r>  -14.1250    1.0000 </r>
       <r>  -13.9979    1.0000 </r>
       <r>  -13.9577    1.0000 </r>
       <r>  -13.9468    1.0000 </r>
       <r>   -8.3754    1.0000 </r>
       <r>   -7.8298    1.0000 </r>
       <r>   -7.6101    1.0000 </r>
       <r>   -7.5350    1.0000 </r>
       <r>   -7.5216    1.0000 </r>
       <r>   -7.5127    1.0000 </r>
       <r>   -7.5024    1.0000 </r>
       <r>   -7.5022    1.0000 </r>
       <r>   -7.4836    1.0000 </r>
       <r>   -7.4747    1.0000 </r>
       <r>   -7.4740    1.0000 </r>
       <r>   -7.4713    1.0000 </r>
       <r>   -7.4642    1.0000 </r>
       <r>   -7.4577    1.0000 </r>
       <r>   -7.4573    1.0000 </r>
       <r>   -6.9446    1.0000 </r>
       <r>   -3.5837    1.0000 </r>
       <r>   -3.4771    1.0000 </r>
       <r>   -3.3183    1.0000 </r>
       <r>   -3.3060    1.0000 </r>
       <r>   -3.1718    1.0000 </r>
       <r>   -3.1193    1.0000 </r>
       <r>   -2.2574    1.0000 </r>
       <r>   -2.0986    1.0000 </r>
       <r>   -2.0901    1.0000 </r>
       <r>   -2.0750    1.0000 </r>
       <r>   -2.0615    1.0000 </r>
       <r>   -1.9682    1.0000 </r>
       <r>   -1.9260    1.0000 </r>
       <r>   -1.7754    1.0000 </r>
       <r>   -1.7256    1.0000 </r>
       <r>   -1.7141    1.0000 </r>
       <r>   -1.6819    1.0000 </r>
       <r>   -1.6749    1.0000 </r>
       <r>   -1.6597    1.0000 </r>
       <r>   -1.5823    1.0000 </r>
       <r>   -1.5663    1.0000 </r>
       <r>   -1.5613    1.0000 </r>
       <r>   -1.5490    1.0000 </r>
       <r>   -1.5027    1.0000 </r>
       <r>   -1.4944    1.0000 </r>
       <r>   -1.4412    1.0000 </r>
       <r>   -1.4040    1.0000 </r>
       <r>   -1.3631    1.0000 </r>
       <r>   -1.3125    1.0000 </r>
       <r>   -1.2508    1.0000 </r>
       <r>   -1.2199    1.0000 </r>
       <r>   -1.2175    1.0000 </r>
       <r>   -1.0824    1.0000 </r>
       <r>   -0.9573    1.0000 </r>
       <r>   -0.6675    1.0000 </r>
       <r>   -0.0413    1.0000 </r>
       <r>    2.2104    0.0000 </r>
       <r>    2.3857    0.0000 </r>
       <r>    2.5130    0.0000 </r>
       <r>    2.7028    0.0000 </r>
       <r>    2.8012    0.0000 </r>
       <r>    3.3694    0.0000 </r>
       <r>    4.5438    0.0000 </r>
       <r>    5.0163    0.0000 </r>
       <r>    5.1795    0.0000 </r>
       <r>    5.4938    0.0000 </r>
       <r>    5.6034    0.0000 </r>
       <r>    5.6052    0.0000 </r>
       <r>    5.7018    0.0000 </r>
       <r>    5.9530    0.0000 </r>
       <r>    6.0608    0.0000 </r>
       <r>    6.1158    0.0000 </r>
       <r>    6.1519    0.0000 </r>
       <r>    6.1910    0.0000 </r>
       <r>    6.3819    0.0000 </r>
       <r>    6.3990    0.0000 </r>
       <r>    6.4312    0.0000 </r>
       <r>    6.5368    0.0000 </r>
       <r>    6.6287    0.0000 </r>
       <r>    6.6625    0.0000 </r>
      </set>
      <set comment="kpoint 2">
       <r>  -21.1062    1.0000 </r>
       <r>  -21.1049    1.0000 </r>
       <r>  -21.1049    1.0000 </r>
       <r>  -21.1038    1.0000 </r>
       <r>  -16.8566    1.0000 </r>
       <r>  -16.8495    1.0000 </r>
       <r>  -16.8121    1.0000 </r>
       <r>  -16.8119    1.0000 </r>
       <r>  -16.7879    1.0000 </r>
       <r>  -16.7868    1.0000 </r>
       <r>  -16.7865    1.0000 </r>
       <r>  -16.7791    1.0000 </r>
       <r>  -16.7301    1.0000 </r>
       <r>  -16.7298    1.0000 </r>
       <r>  -16.7298    1.0000 </r>
       <r>  -16.7295    1.0000 </r>
       <r>  -16.7162    1.0000 </r>
       <r>  -16.7161    1.0000 </r>
       <r>  -16.7152    1.0000 </r>
       <r>  -16.7151    1.0000 </r>
       <r>  -16.7115    1.0000 </r>
       <r>  -16.7112    1.0000 </r>
       <r>  -16.7105    1.0000 </r>
       <r>  -16.7102    1.0000 </r>
       <r>  -14.4694    1.0000 </r>
       <r>  -14.3681    1.0000 </r>
       <r>  -14.3484    1.0000 </r>
       <r>  -14.3422    1.0000 </r>
       <r>  -14.2268    1.0000 </r>
       <r>  -14.1668    1.0000 </r>
       <r>  -14.0902    1.0000 </r>
       <r>  -14.0807    1.0000 </r>
       <r>  -14.0787    1.0000 </r>
       <r>  -14.0171    1.0000 </r>
       <r>  -14.0024    1.0000 </r>
       <r>  -13.9917    1.0000 </r>
       <r>   -8.2077    1.0000 </r>
       <r>   -7.8331    1.0000 </r>
       <r>   -7.6677    1.0000 </r>
       <r>   -7.5257    1.0000 </r>
       <r>   -7.5209    1.0000 </r>
       <r>   -7.5031    1.0000 </r>
       <r>   -7.5012    1.0000 </r>
       <r>   -7.4915    1.0000 </r>
       <r>   -7.4861    1.0000 </r>
       <r>   -7.4794    1.0000 </r>
       <r>   -7.4719    1.0000 </r>
       <r>   -7.4695    1.0000 </r>
       <r>   -7.4644    1.0000 </r>
       <r>   -7.4641    1.0000 </r>
       <r>   -7.4442    1.0000 </r>
       <r>   -7.1938    1.0000 </r>
       <r>   -3.5555    1.0000 </r>
       <r>   -3.4964    1.0000 </r>
       <r>   -3.0529    1.0000 </r>
       <r>   -2.8836    1.0000 </r>
       <r>   -2.8596    1.0000 </r>
       <r>   -2.8007    1.0000 </r>
       <r>   -2.4119    1.0000 </r>
       <r>   -2.3018    1.0000 </r>
       <r>   -2.1783    1.0000 </r>
       <r>   -2.1676    1.0000 </r>
       <r>   -2.1227    1.0000 </r>
       <r>   -2.1174    1.0000 </r>
       <r>   -2.0372    1.0000 </r>
       <r>   -1.9490    1.0000 </r>
       <r>   -1.8493    1.0000 </r>
       <r>   -1.8280    1.0000 </r>
       <r>   -1.7468    1.0000 </r>
       <r>   -1.7288    1.0000 </r>
       <r>   -1.6704    1.0000 </r>
       <r>   -1.6516    1.0000 </r>
       <r>   -1.5164    1.0000 </r>
       <r>   -1.5082    1.0000 </r>
       <r>   -1.5064    1.0000 </r>
       <r>   -1.4759    1.0000 </r>
       <r>   -1.4697    1.0000 </r>
       <r>   -1.4405    1.0000 </r>
       <r>   -1.3741    1.0000 </r>
       <r>   -1.3661    1.0000 </r>
       <r>   -1.3545    1.0000 </r>
       <r>   -1.2966    1.0000 </r>
       <r>   -1.2786    1.0000 </r>
       <r>   -1.2663    1.0000 </r>
       <r>   -1.0956    1.0000 </r>
       <r>   -1.0351    1.0000 </r>
       <r>   -0.8791    1.0000 </r>
       <r>   -0.5047    1.0000 </r>
       <r>    2.8478    0.0000 </r>
       <r>    2.9742    0.0000 </r>
       <r>    3.0421    0.0000 </r>
       <r>    3.1853    0.0000 </r>
       <r>    3.3952    0.0000 </r>
       <r>    3.5292    0.0000 </r>
       <r>    4.3589    0.0000 </r>
       <r>    4.4937    0.0000 </r>
       <r>    4.6540    0.0000 </r>
       <r>    4.6804    0.0000 </r>
       <r>    5.2940    0.0000 </r>
       <r>    5.6992    0.0000 </r>
       <r>    5.8911    0.0000 </r>
       <r>    5.9179    0.0000 </r>
       <r>    6.0159    0.0000 </r>
       <r>    6.0360    0.0000 </r>
       <r>    6.3213    0.0000 </r>
       <r>    6.3218    0.0000 </r>
       <r>    6.3609    0.0000 </r>
       <r>    6.3617    0.0000 </r>
       <r>    6.5372    0.0000 </r>
       <r>    6.5833    0.0000 </r>
       <r>    6.6521    0.0000 </r>
       <r>    6.7605    0.0000 </r>
      </set>
      <set comment="kpoint 3">
       <r>  -21.1062    1.0000 </r>
       <r>  -21.1062    1.0000 </r>
       <r>  -21.1038    1.0000 </r>
       <r>  -21.1038    1.0000 </r>
       <r>  -16.8267    1.0000 </r>
       <r>  -16.8267    1.0000 </r>
       <r>  -16.8244    1.0000 </r>
       <r>  -16.8244    1.0000 </r>
       <r>  -16.8111    1.0000 </r>
       <r>  -16.8111    1.0000 </r>
       <r>  -16.7736    1.0000 </r>
       <r>  -16.7736    1.0000 </r>
       <r>  -16.7302    1.0000 </r>
       <r>  -16.7302    1.0000 </r>
       <r>  -16.7297    1.0000 </r>
       <r>  -16.7297    1.0000 </r>
       <r>  -16.7158    1.0000 </r>
       <r>  -16.7158    1.0000 </r>
       <r>  -16.7156    1.0000 </r>
       <r>  -16.7156    1.0000 </r>
       <r>  -16.7112    1.0000 </r>
       <r>  -16.7112    1.0000 </r>
       <r>  -16.7104    1.0000 </r>
       <r>  -16.7104    1.0000 </r>
       <r>  -14.4615    1.0000 </r>
       <r>  -14.4615    1.0000 </r>
       <r>  -14.3087    1.0000 </r>
       <r>  -14.3087    1.0000 </r>
       <r>  -14.1411    1.0000 </r>
       <r>  -14.1411    1.0000 </r>
       <r>  -14.1338    1.0000 </r>
       <r>  -14.1338    1.0000 </r>
       <r>  -14.0897    1.0000 </r>
       <r>  -14.0897    1.0000 </r>
       <r>  -13.9521    1.0000 </r>
       <r>  -13.9521    1.0000 </r>
       <r>   -8.1242    1.0000 </r>
       <r>   -8.1242    1.0000 </r>
       <r>   -7.5188    1.0000 </r>
       <r>   -7.5188    1.0000 </r>
       <r>   -7.5082    1.0000 </r>
       <r>   -7.5082    1.0000 </r>
       <r>   -7.4924    1.0000 </r>
       <r>   -7.4924    1.0000 </r>
       <r>   -7.4797    1.0000 </r>
       <r>   -7.4797    1.0000 </r>
       <r>   -7.4738    1.0000 </r>
       <r>   -7.4738    1.0000 </r>
       <r>   -7.4655    1.0000 </r>
       <r>   -7.4655    1.0000 </r>
       <r>   -7.3217    1.0000 </r>
       <r>   -7.3217    1.0000 </r>
       <r>   -3.2490    1.0000 </r>
       <r>   -3.2490    1.0000 </r>
       <r>   -3.2470    1.0000 </r>
       <r>   -3.2470    1.0000 </r>
       <r>   -2.7251    1.0000 </r>
       <r>   -2.7251    1.0000 </r>
       <r>   -2.6560    1.0000 </r>
       <r>   -2.6560    1.0000 </r>
       <r>   -2.1373    1.0000 </r>
       <r>   -2.1373    1.0000 </r>
       <r>   -2.0288    1.0000 </r>
       <r>   -2.0288    1.0000 </r>
       <r>   -1.9613    1.0000 </r>
       <r>   -1.9613    1.0000 </r>
       <r>   -1.7079    1.0000 </r>
       <r>   -1.7079    1.0000 </r>
       <r>   -1.6875    1.0000 </r>
       <r>   -1.6875    1.0000 </r>
       <r>   -1.6409    1.0000 </r>
       <r>   -1.6409    1.0000 </r>
       <r>   -1.5782    1.0000 </r>
       <r>   -1.5782    1.0000 </r>
       <r>   -1.5093    1.0000 </r>
       <r>   -1.5093    1.0000 </r>
       <r>   -1.4815    1.0000 </r>
       <r>   -1.4815    1.0000 </r>
       <r>   -1.4056    1.0000 </r>
       <r>   -1.4056    1.0000 </r>
       <r>   -1.2984    1.0000 </r>
       <r>   -1.2984    1.0000 </r>
       <r>   -1.2550    1.0000 </r>
       <r>   -1.2550    1.0000 </r>
       <r>   -1.0983    1.0000 </r>
       <r>   -1.0983    1.0000 </r>
       <r>   -0.5037    1.0000 </r>
       <r>   -0.5037    1.0000 </r>
       <r>    2.4019    0.0000 </r>
       <r>    2.4019    0.0000 </r>
       <r>    2.5850    0.0000 </r>
       <r>    2.5850    0.0000 </r>
       <r>    4.1233    0.0000 </r>
       <r>    4.1233    0.0000 </r>
       <r>    4.6291    0.0000 </r>
       <r>    4.6291    0.0000 </r>
       <r>    5.2803    0.0000 </r>
       <r>    5.2803    0.0000 </r>
       <r>    5.3535    0.0000 </r>
       <r>    5.3535    0.0000 </r>
       <r>    5.3579    0.0000 </r>
       <r>    5.3579    0.0000 </r>
       <r>    5.9504    0.0000 </r>
       <r>    5.9504    0.0000 </r>
       <r>    6.1619    0.0000 </r>
       <r>    6.1619    0.0000 </r>
       <r>    6.3239    0.0000 </r>
       <r>    6.3239    0.0000 </r>
       <r>    6.6322    0.0000 </r>
       <r>    6.6360    0.0000 </r>
       <r>    6.6425    0.0000 </r>
       <r>    6.6543    0.0000 </r>
      </set>
      <set comment="kpoint 4">
       <r>  -21.1056    1.0000 </r>
       <r>  -21.1056    1.0000 </r>
       <r>  -21.1044    1.0000 </r>
       <r>  -21.1044    1.0000 </r>
       <r>  -16.8227    1.0000 </r>
       <r>  -16.8227    1.0000 </r>
       <r>  -16.8151    1.0000 </r>
       <r>  -16.8151    1.0000 </r>
       <r>  -16.8120    1.0000 </r>
       <r>  -16.8120    1.0000 </r>
       <r>  -16.7867    1.0000 </r>
       <r>  -16.7867    1.0000 </r>
       <r>  -16.7300    1.0000 </r>
       <r>  -16.7300    1.0000 </r>
       <r>  -16.7297    1.0000 </r>
       <r>  -16.7297    1.0000 </r>
       <r>  -16.7158    1.0000 </r>
       <r>  -16.7158    1.0000 </r>
       <r>  -16.7157    1.0000 </r>
       <r>  -16.7157    1.0000 </r>
       <r>  -16.7110    1.0000 </r>
       <r>  -16.7110    1.0000 </r>
       <r>  -16.7107    1.0000 </r>
       <r>  -16.7107    1.0000 </r>
       <r>  -14.4303    1.0000 </r>
       <r>  -14.4303    1.0000 </r>
       <r>  -14.3568    1.0000 </r>
       <r>  -14.3568    1.0000 </r>
       <r>  -14.1207    1.0000 </r>
       <r>  -14.1207    1.0000 </r>
       <r>  -14.1052    1.0000 </r>
       <r>  -14.1052    1.0000 </r>
       <r>  -14.0801    1.0000 </r>
       <r>  -14.0801    1.0000 </r>
       <r>  -13.9967    1.0000 </r>
       <r>  -13.9967    1.0000 </r>
       <r>   -7.9548    1.0000 </r>
       <r>   -7.9548    1.0000 </r>
       <r>   -7.5824    1.0000 </r>
       <r>   -7.5824    1.0000 </r>
       <r>   -7.5082    1.0000 </r>
       <r>   -7.5081    1.0000 </r>
       <r>   -7.5064    1.0000 </r>
       <r>   -7.5064    1.0000 </r>
       <r>   -7.4873    1.0000 </r>
       <r>   -7.4873    1.0000 </r>
       <r>   -7.4724    1.0000 </r>
       <r>   -7.4724    1.0000 </r>
       <r>   -7.4713    1.0000 </r>
       <r>   -7.4713    1.0000 </r>
       <r>   -7.4504    1.0000 </r>
       <r>   -7.4504    1.0000 </r>
       <r>   -2.9735    1.0000 </r>
       <r>   -2.9735    1.0000 </r>
       <r>   -2.9633    1.0000 </r>
       <r>   -2.9633    1.0000 </r>
       <r>   -2.7328    1.0000 </r>
       <r>   -2.7328    1.0000 </r>
       <r>   -2.5879    1.0000 </r>
       <r>   -2.5879    1.0000 </r>
       <r>   -2.3056    1.0000 </r>
       <r>   -2.3056    1.0000 </r>
       <r>   -2.2166    1.0000 </r>
       <r>   -2.2166    1.0000 </r>
       <r>   -1.9100    1.0000 </r>
       <r>   -1.9100    1.0000 </r>
       <r>   -1.8371    1.0000 </r>
       <r>   -1.8371    1.0000 </r>
       <r>   -1.7420    1.0000 </r>
       <r>   -1.7420    1.0000 </r>
       <r>   -1.7181    1.0000 </r>
       <r>   -1.7181    1.0000 </r>
       <r>   -1.6264    1.0000 </r>
       <r>   -1.6264    1.0000 </r>
       <r>   -1.6174    1.0000 </r>
       <r>   -1.6174    1.0000 </r>
       <r>   -1.3829    1.0000 </r>
       <r>   -1.3829    1.0000 </r>
       <r>   -1.3795    1.0000 </r>
       <r>   -1.3795    1.0000 </r>
       <r>   -1.3072    1.0000 </r>
       <r>   -1.3072    1.0000 </r>
       <r>   -1.2760    1.0000 </r>
       <r>   -1.2760    1.0000 </r>
       <r>   -1.0942    1.0000 </r>
       <r>   -1.0942    1.0000 </r>
       <r>   -0.9192    1.0000 </r>
       <r>   -0.9192    1.0000 </r>
       <r>    3.1343    0.0000 </r>
       <r>    3.1343    0.0000 </r>
       <r>    3.3364    0.0000 </r>
       <r>    3.3364    0.0000 </r>
       <r>    4.2160    0.0000 </r>
       <r>    4.2160    0.0000 </r>
       <r>    4.5124    0.0000 </r>
       <r>    4.5124    0.0000 </r>
       <r>    4.5965    0.0000 </r>
       <r>    4.5965    0.0000 </r>
       <r>    4.6088    0.0000 </r>
       <r>    4.6088    0.0000 </r>
       <r>    5.6948    0.0000 </r>
       <r>    5.6948    0.0000 </r>
       <r>    6.1539    0.0000 </r>
       <r>    6.1539    0.0000 </r>
       <r>    6.1683    0.0000 </r>
       <r>    6.1683    0.0000 </r>
       <r>    6.2530    0.0000 </r>
       <r>    6.2530    0.0000 </r>
       <r>    6.4354    0.0000 </r>
       <r>    6.4354    0.0000 </r>
       <r>    6.5955    0.0000 </r>
       <r>    6.5973    0.0000 </r>
      </set>
      <set comment="kpoint 5">
       <r>  -21.1063    1.0000 </r>
       <r>  -21.1052    1.0000 </r>
       <r>  -21.1046    1.0000 </r>
       <r>  -21.1038    1.0000 </r>
       <r>  -16.8566    1.0000 </r>
       <r>  -16.8496    1.0000 </r>
       <r>  -16.8122    1.0000 </r>
       <r>  -16.8120    1.0000 </r>
       <r>  -16.7880    1.0000 </r>
       <r>  -16.7868    1.0000 </r>
       <r>  -16.7864    1.0000 </r>
       <r>  -16.7791    1.0000 </r>
       <r>  -16.7302    1.0000 </r>
       <r>  -16.7299    1.0000 </r>
       <r>  -16.7299    1.0000 </r>
       <r>  -16.7297    1.0000 </r>
       <r>  -16.7162    1.0000 </r>
       <r>  -16.7162    1.0000 </r>
       <r>  -16.7153    1.0000 </r>
       <r>  -16.7151    1.0000 </r>
       <r>  -16.7115    1.0000 </r>
       <r>  -16.7113    1.0000 </r>
       <r>  -16.7105    1.0000 </r>
       <r>  -16.7101    1.0000 </r>
       <r>  -14.4694    1.0000 </r>
       <r>  -14.3696    1.0000 </r>
       <r>  -14.3457    1.0000 </r>
       <r>  -14.3429    1.0000 </r>
       <r>  -14.2244    1.0000 </r>
       <r>  -14.1592    1.0000 </r>
       <r>  -14.1003    1.0000 </r>
       <r>  -14.0886    1.0000 </r>
       <r>  -14.0704    1.0000 </r>
       <r>  -14.0145    1.0000 </r>
       <r>  -14.0057    1.0000 </r>
       <r>  -13.9943    1.0000 </r>
       <r>   -8.2066    1.0000 </r>
       <r>   -7.8290    1.0000 </r>
       <r>   -7.6543    1.0000 </r>
       <r>   -7.5227    1.0000 </r>
       <r>   -7.5086    1.0000 </r>
       <r>   -7.5057    1.0000 </r>
       <r>   -7.4940    1.0000 </r>
       <r>   -7.4936    1.0000 </r>
       <r>   -7.4922    1.0000 </r>
       <r>   -7.4791    1.0000 </r>
       <r>   -7.4749    1.0000 </r>
       <r>   -7.4676    1.0000 </r>
       <r>   -7.4634    1.0000 </r>
       <r>   -7.4592    1.0000 </r>
       <r>   -7.4544    1.0000 </r>
       <r>   -7.2034    1.0000 </r>
       <r>   -3.5554    1.0000 </r>
       <r>   -3.4928    1.0000 </r>
       <r>   -3.0526    1.0000 </r>
       <r>   -2.9093    1.0000 </r>
       <r>   -2.8875    1.0000 </r>
       <r>   -2.7475    1.0000 </r>
       <r>   -2.4651    1.0000 </r>
       <r>   -2.3144    1.0000 </r>
       <r>   -2.1884    1.0000 </r>
       <r>   -2.1577    1.0000 </r>
       <r>   -2.1384    1.0000 </r>
       <r>   -2.0892    1.0000 </r>
       <r>   -2.0404    1.0000 </r>
       <r>   -1.9207    1.0000 </r>
       <r>   -1.8918    1.0000 </r>
       <r>   -1.8229    1.0000 </r>
       <r>   -1.7374    1.0000 </r>
       <r>   -1.5999    1.0000 </r>
       <r>   -1.5985    1.0000 </r>
       <r>   -1.5836    1.0000 </r>
       <r>   -1.5374    1.0000 </r>
       <r>   -1.5352    1.0000 </r>
       <r>   -1.5088    1.0000 </r>
       <r>   -1.5040    1.0000 </r>
       <r>   -1.4786    1.0000 </r>
       <r>   -1.4612    1.0000 </r>
       <r>   -1.4205    1.0000 </r>
       <r>   -1.3914    1.0000 </r>
       <r>   -1.3444    1.0000 </r>
       <r>   -1.3046    1.0000 </r>
       <r>   -1.2711    1.0000 </r>
       <r>   -1.2690    1.0000 </r>
       <r>   -1.1608    1.0000 </r>
       <r>   -1.0829    1.0000 </r>
       <r>   -0.8715    1.0000 </r>
       <r>   -0.5214    1.0000 </r>
       <r>    2.8375    0.0000 </r>
       <r>    3.0257    0.0000 </r>
       <r>    3.0544    0.0000 </r>
       <r>    3.0931    0.0000 </r>
       <r>    3.4577    0.0000 </r>
       <r>    3.4942    0.0000 </r>
       <r>    4.3964    0.0000 </r>
       <r>    4.4366    0.0000 </r>
       <r>    4.6513    0.0000 </r>
       <r>    4.7946    0.0000 </r>
       <r>    5.2322    0.0000 </r>
       <r>    5.6846    0.0000 </r>
       <r>    5.7168    0.0000 </r>
       <r>    5.9601    0.0000 </r>
       <r>    6.0171    0.0000 </r>
       <r>    6.0862    0.0000 </r>
       <r>    6.1472    0.0000 </r>
       <r>    6.2947    0.0000 </r>
       <r>    6.3247    0.0000 </r>
       <r>    6.4467    0.0000 </r>
       <r>    6.5428    0.0000 </r>
       <r>    6.6759    0.0000 </r>
       <r>    6.8423    0.0000 </r>
       <r>    6.8743    0.0000 </r>
      </set>
      <set comment="kpoint 6">
       <r>  -21.1059    1.0000 </r>
       <r>  -21.1053    1.0000 </r>
       <r>  -21.1046    1.0000 </r>
       <r>  -21.1041    1.0000 </r>
       <r>  -16.8566    1.0000 </r>
       <r>  -16.8529    1.0000 </r>
       <r>  -16.8108    1.0000 </r>
       <r>  -16.8042    1.0000 </r>
       <r>  -16.7998    1.0000 </r>
       <r>  -16.7918    1.0000 </r>
       <r>  -16.7806    1.0000 </r>
       <r>  -16.7745    1.0000 </r>
       <r>  -16.7301    1.0000 </r>
       <r>  -16.7299    1.0000 </r>
       <r>  -16.7297    1.0000 </r>
       <r>  -16.7296    1.0000 </r>
       <r>  -16.7162    1.0000 </r>
       <r>  -16.7162    1.0000 </r>
       <r>  -16.7152    1.0000 </r>
       <r>  -16.7151    1.0000 </r>
       <r>  -16.7114    1.0000 </r>
       <r>  -16.7112    1.0000 </r>
       <r>  -16.7104    1.0000 </r>
       <r>  -16.7102    1.0000 </r>
       <r>  -14.4366    1.0000 </r>
       <r>  -14.3787    1.0000 </r>
       <r>  -14.3477    1.0000 </r>
       <r>  -14.3457    1.0000 </r>
       <r>  -14.1929    1.0000 </r>
       <r>  -14.1402    1.0000 </r>
       <r>  -14.1349    1.0000 </r>
       <r>  -14.1077    1.0000 </r>
       <r>  -14.0878    1.0000 </r>
       <r>  -14.0353    1.0000 </r>
       <r>  -14.0070    1.0000 </r>
       <r>  -13.9780    1.0000 </r>
       <r>   -8.1081    1.0000 </r>
       <r>   -7.9196    1.0000 </r>
       <r>   -7.5641    1.0000 </r>
       <r>   -7.5112    1.0000 </r>
       <r>   -7.5079    1.0000 </r>
       <r>   -7.4988    1.0000 </r>
       <r>   -7.4938    1.0000 </r>
       <r>   -7.4908    1.0000 </r>
       <r>   -7.4870    1.0000 </r>
       <r>   -7.4826    1.0000 </r>
       <r>   -7.4724    1.0000 </r>
       <r>   -7.4696    1.0000 </r>
       <r>   -7.4670    1.0000 </r>
       <r>   -7.4629    1.0000 </r>
       <r>   -7.4320    1.0000 </r>
       <r>   -7.2949    1.0000 </r>
       <r>   -3.5467    1.0000 </r>
       <r>   -3.5150    1.0000 </r>
       <r>   -3.2666    1.0000 </r>
       <r>   -3.0817    1.0000 </r>
       <r>   -2.9433    1.0000 </r>
       <r>   -2.7476    1.0000 </r>
       <r>   -2.3920    1.0000 </r>
       <r>   -2.2582    1.0000 </r>
       <r>   -2.2468    1.0000 </r>
       <r>   -2.1949    1.0000 </r>
       <r>   -2.1606    1.0000 </r>
       <r>   -1.9628    1.0000 </r>
       <r>   -1.8892    1.0000 </r>
       <r>   -1.8417    1.0000 </r>
       <r>   -1.7633    1.0000 </r>
       <r>   -1.7513    1.0000 </r>
       <r>   -1.7325    1.0000 </r>
       <r>   -1.6734    1.0000 </r>
       <r>   -1.6182    1.0000 </r>
       <r>   -1.5937    1.0000 </r>
       <r>   -1.5511    1.0000 </r>
       <r>   -1.5384    1.0000 </r>
       <r>   -1.5330    1.0000 </r>
       <r>   -1.4922    1.0000 </r>
       <r>   -1.4797    1.0000 </r>
       <r>   -1.4633    1.0000 </r>
       <r>   -1.4339    1.0000 </r>
       <r>   -1.4076    1.0000 </r>
       <r>   -1.3919    1.0000 </r>
       <r>   -1.3561    1.0000 </r>
       <r>   -1.3421    1.0000 </r>
       <r>   -1.2993    1.0000 </r>
       <r>   -1.0916    1.0000 </r>
       <r>   -1.0152    1.0000 </r>
       <r>   -0.7317    1.0000 </r>
       <r>   -0.4671    1.0000 </r>
       <r>    2.5228    0.0000 </r>
       <r>    2.8863    0.0000 </r>
       <r>    2.9159    0.0000 </r>
       <r>    3.0795    0.0000 </r>
       <r>    3.2776    0.0000 </r>
       <r>    3.6205    0.0000 </r>
       <r>    4.2427    0.0000 </r>
       <r>    4.5963    0.0000 </r>
       <r>    4.9382    0.0000 </r>
       <r>    5.3017    0.0000 </r>
       <r>    5.4846    0.0000 </r>
       <r>    5.7682    0.0000 </r>
       <r>    5.9078    0.0000 </r>
       <r>    5.9517    0.0000 </r>
       <r>    6.0617    0.0000 </r>
       <r>    6.1390    0.0000 </r>
       <r>    6.1979    0.0000 </r>
       <r>    6.3863    0.0000 </r>
       <r>    6.4276    0.0000 </r>
       <r>    6.5098    0.0000 </r>
       <r>    6.5361    0.0000 </r>
       <r>    6.6475    0.0000 </r>
       <r>    6.6911    0.0000 </r>
       <r>    6.9116    0.0000 </r>
      </set>
      <set comment="kpoint 7">
       <r>  -21.1057    1.0000 </r>
       <r>  -21.1057    1.0000 </r>
       <r>  -21.1043    1.0000 </r>
       <r>  -21.1043    1.0000 </r>
       <r>  -16.8227    1.0000 </r>
       <r>  -16.8227    1.0000 </r>
       <r>  -16.8150    1.0000 </r>
       <r>  -16.8150    1.0000 </r>
       <r>  -16.8121    1.0000 </r>
       <r>  -16.8121    1.0000 </r>
       <r>  -16.7867    1.0000 </r>
       <r>  -16.7867    1.0000 </r>
       <r>  -16.7300    1.0000 </r>
       <r>  -16.7300    1.0000 </r>
       <r>  -16.7298    1.0000 </r>
       <r>  -16.7298    1.0000 </r>
       <r>  -16.7158    1.0000 </r>
       <r>  -16.7158    1.0000 </r>
       <r>  -16.7156    1.0000 </r>
       <r>  -16.7156    1.0000 </r>
       <r>  -16.7109    1.0000 </r>
       <r>  -16.7109    1.0000 </r>
       <r>  -16.7106    1.0000 </r>
       <r>  -16.7106    1.0000 </r>
       <r>  -14.4308    1.0000 </r>
       <r>  -14.4308    1.0000 </r>
       <r>  -14.3556    1.0000 </r>
       <r>  -14.3556    1.0000 </r>
       <r>  -14.1181    1.0000 </r>
       <r>  -14.1181    1.0000 </r>
       <r>  -14.0972    1.0000 </r>
       <r>  -14.0972    1.0000 </r>
       <r>  -14.0896    1.0000 </r>
       <r>  -14.0896    1.0000 </r>
       <r>  -13.9995    1.0000 </r>
       <r>  -13.9995    1.0000 </r>
       <r>   -7.9519    1.0000 </r>
       <r>   -7.9519    1.0000 </r>
       <r>   -7.5658    1.0000 </r>
       <r>   -7.5658    1.0000 </r>
       <r>   -7.5175    1.0000 </r>
       <r>   -7.5175    1.0000 </r>
       <r>   -7.4949    1.0000 </r>
       <r>   -7.4948    1.0000 </r>
       <r>   -7.4867    1.0000 </r>
       <r>   -7.4867    1.0000 </r>
       <r>   -7.4796    1.0000 </r>
       <r>   -7.4796    1.0000 </r>
       <r>   -7.4673    1.0000 </r>
       <r>   -7.4672    1.0000 </r>
       <r>   -7.4609    1.0000 </r>
       <r>   -7.4609    1.0000 </r>
       <r>   -2.9965    1.0000 </r>
       <r>   -2.9965    1.0000 </r>
       <r>   -2.9349    1.0000 </r>
       <r>   -2.9349    1.0000 </r>
       <r>   -2.7424    1.0000 </r>
       <r>   -2.7424    1.0000 </r>
       <r>   -2.6127    1.0000 </r>
       <r>   -2.6127    1.0000 </r>
       <r>   -2.3562    1.0000 </r>
       <r>   -2.3562    1.0000 </r>
       <r>   -2.1912    1.0000 </r>
       <r>   -2.1912    1.0000 </r>
       <r>   -1.8851    1.0000 </r>
       <r>   -1.8851    1.0000 </r>
       <r>   -1.8373    1.0000 </r>
       <r>   -1.8373    1.0000 </r>
       <r>   -1.7673    1.0000 </r>
       <r>   -1.7673    1.0000 </r>
       <r>   -1.6939    1.0000 </r>
       <r>   -1.6939    1.0000 </r>
       <r>   -1.5413    1.0000 </r>
       <r>   -1.5413    1.0000 </r>
       <r>   -1.4862    1.0000 </r>
       <r>   -1.4862    1.0000 </r>
       <r>   -1.4542    1.0000 </r>
       <r>   -1.4542    1.0000 </r>
       <r>   -1.4128    1.0000 </r>
       <r>   -1.4128    1.0000 </r>
       <r>   -1.3235    1.0000 </r>
       <r>   -1.3235    1.0000 </r>
       <r>   -1.2523    1.0000 </r>
       <r>   -1.2523    1.0000 </r>
       <r>   -1.1579    1.0000 </r>
       <r>   -1.1579    1.0000 </r>
       <r>   -0.9878    1.0000 </r>
       <r>   -0.9878    1.0000 </r>
       <r>    3.2045    0.0000 </r>
       <r>    3.2045    0.0000 </r>
       <r>    3.2632    0.0000 </r>
       <r>    3.2632    0.0000 </r>
       <r>    4.2444    0.0000 </r>
       <r>    4.2444    0.0000 </r>
       <r>    4.4984    0.0000 </r>
       <r>    4.4984    0.0000 </r>
       <r>    4.5545    0.0000 </r>
       <r>    4.5545    0.0000 </r>
       <r>    4.6059    0.0000 </r>
       <r>    4.6059    0.0000 </r>
       <r>    5.6740    0.0000 </r>
       <r>    5.6740    0.0000 </r>
       <r>    6.0285    0.0000 </r>
       <r>    6.0285    0.0000 </r>
       <r>    6.1200    0.0000 </r>
       <r>    6.1200    0.0000 </r>
       <r>    6.4997    0.0000 </r>
       <r>    6.4997    0.0000 </r>
       <r>    6.5049    0.0000 </r>
       <r>    6.5049    0.0000 </r>
       <r>    6.5731    0.0000 </r>
       <r>    6.5731    0.0000 </r>
      </set>
      <set comment="kpoint 8">
       <r>  -21.1053    1.0000 </r>
       <r>  -21.1053    1.0000 </r>
       <r>  -21.1046    1.0000 </r>
       <r>  -21.1046    1.0000 </r>
       <r>  -16.8260    1.0000 </r>
       <r>  -16.8260    1.0000 </r>
       <r>  -16.8207    1.0000 </r>
       <r>  -16.8207    1.0000 </r>
       <r>  -16.8006    1.0000 </r>
       <r>  -16.8006    1.0000 </r>
       <r>  -16.7893    1.0000 </r>
       <r>  -16.7893    1.0000 </r>
       <r>  -16.7299    1.0000 </r>
       <r>  -16.7299    1.0000 </r>
       <r>  -16.7298    1.0000 </r>
       <r>  -16.7298    1.0000 </r>
       <r>  -16.7157    1.0000 </r>
       <r>  -16.7157    1.0000 </r>
       <r>  -16.7156    1.0000 </r>
       <r>  -16.7156    1.0000 </r>
       <r>  -16.7109    1.0000 </r>
       <r>  -16.7109    1.0000 </r>
       <r>  -16.7108    1.0000 </r>
       <r>  -16.7108    1.0000 </r>
       <r>  -14.4052    1.0000 </r>
       <r>  -14.4052    1.0000 </r>
       <r>  -14.3639    1.0000 </r>
       <r>  -14.3639    1.0000 </r>
       <r>  -14.1388    1.0000 </r>
       <r>  -14.1388    1.0000 </r>
       <r>  -14.1155    1.0000 </r>
       <r>  -14.1155    1.0000 </r>
       <r>  -14.0533    1.0000 </r>
       <r>  -14.0533    1.0000 </r>
       <r>  -14.0177    1.0000 </r>
       <r>  -14.0177    1.0000 </r>
       <r>   -7.8509    1.0000 </r>
       <r>   -7.8509    1.0000 </r>
       <r>   -7.6578    1.0000 </r>
       <r>   -7.6578    1.0000 </r>
       <r>   -7.5082    1.0000 </r>
       <r>   -7.5082    1.0000 </r>
       <r>   -7.4946    1.0000 </r>
       <r>   -7.4946    1.0000 </r>
       <r>   -7.4830    1.0000 </r>
       <r>   -7.4830    1.0000 </r>
       <r>   -7.4777    1.0000 </r>
       <r>   -7.4777    1.0000 </r>
       <r>   -7.4697    1.0000 </r>
       <r>   -7.4697    1.0000 </r>
       <r>   -7.4598    1.0000 </r>
       <r>   -7.4598    1.0000 </r>
       <r>   -3.1869    1.0000 </r>
       <r>   -3.1869    1.0000 </r>
       <r>   -2.9053    1.0000 </r>
       <r>   -2.9053    1.0000 </r>
       <r>   -2.7764    1.0000 </r>
       <r>   -2.7764    1.0000 </r>
       <r>   -2.6385    1.0000 </r>
       <r>   -2.6385    1.0000 </r>
       <r>   -2.3143    1.0000 </r>
       <r>   -2.3143    1.0000 </r>
       <r>   -2.1724    1.0000 </r>
       <r>   -2.1724    1.0000 </r>
       <r>   -1.8585    1.0000 </r>
       <r>   -1.8585    1.0000 </r>
       <r>   -1.8012    1.0000 </r>
       <r>   -1.8012    1.0000 </r>
       <r>   -1.7244    1.0000 </r>
       <r>   -1.7244    1.0000 </r>
       <r>   -1.6396    1.0000 </r>
       <r>   -1.6396    1.0000 </r>
       <r>   -1.5704    1.0000 </r>
       <r>   -1.5704    1.0000 </r>
       <r>   -1.5268    1.0000 </r>
       <r>   -1.5268    1.0000 </r>
       <r>   -1.4614    1.0000 </r>
       <r>   -1.4614    1.0000 </r>
       <r>   -1.3949    1.0000 </r>
       <r>   -1.3949    1.0000 </r>
       <r>   -1.3542    1.0000 </r>
       <r>   -1.3542    1.0000 </r>
       <r>   -1.2994    1.0000 </r>
       <r>   -1.2994    1.0000 </r>
       <r>   -1.0794    1.0000 </r>
       <r>   -1.0794    1.0000 </r>
       <r>   -0.8893    1.0000 </r>
       <r>   -0.8893    1.0000 </r>
       <r>    2.7141    0.0000 </r>
       <r>    2.7141    0.0000 </r>
       <r>    3.4355    0.0000 </r>
       <r>    3.4355    0.0000 </r>
       <r>    4.3237    0.0000 </r>
       <r>    4.3237    0.0000 </r>
       <r>    4.4189    0.0000 </r>
       <r>    4.4189    0.0000 </r>
       <r>    4.4903    0.0000 </r>
       <r>    4.4903    0.0000 </r>
       <r>    5.1111    0.0000 </r>
       <r>    5.1111    0.0000 </r>
       <r>    5.8791    0.0000 </r>
       <r>    5.8791    0.0000 </r>
       <r>    6.1205    0.0000 </r>
       <r>    6.1205    0.0000 </r>
       <r>    6.2602    0.0000 </r>
       <r>    6.2602    0.0000 </r>
       <r>    6.4438    0.0000 </r>
       <r>    6.4439    0.0000 </r>
       <r>    6.5368    0.0000 </r>
       <r>    6.5369    0.0000 </r>
       <r>    6.6438    0.0000 </r>
       <r>    6.6441    0.0000 </r>
      </set>
     </set>
    </set>
   </array>
  </eigenvalues>
  <separator name="orbital magnetization" >
   <v name="MAGDIPOLOUT">      0.00000000      0.00000000      0.00000000</v>
  </separator>
  <dos>
   <i name="efermi">      0.01668097 </i>
   <total>
    <array>
     <dimension dim="1">gridpoints</dimension>
     <dimension dim="2">spin</dimension>
     <field>energy</field>
     <field>total</field>
     <field>integrated</field>
     <set>
      <set comment="spin 1">
       <r>   -22.5078     0.0000     0.0000 </r>
       <r>   -22.4051     0.0000     0.0000 </r>
       <r>   -22.3024     0.0000     0.0000 </r>
       <r>   -22.1996     0.0000     0.0000 </r>
       <r>   -22.0969     0.0000     0.0000 </r>
       <r>   -21.9942     0.0000     0.0000 </r>
       <r>   -21.8914     0.0000     0.0000 </r>
       <r>   -21.7887     0.0000     0.0000 </r>
       <r>   -21.6860     0.0000     0.0000 </r>
       <r>   -21.5832     0.0000     0.0000 </r>
       <r>   -21.4805     0.0000     0.0000 </r>
       <r>   -21.3778     0.0000     0.0000 </r>
       <r>   -21.2750     0.0000     0.0000 </r>
       <r>   -21.1723     0.0000     0.0000 </r>
       <r>   -21.0695    77.8707     8.0000 </r>
       <r>   -20.9668     0.0000     8.0000 </r>
       <r>   -20.8641     0.0000     8.0000 </r>
       <r>   -20.7613     0.0000     8.0000 </r>
       <r>   -20.6586     0.0000     8.0000 </r>
       <r>   -20.5559     0.0000     8.0000 </r>
       <r>   -20.4531     0.0000     8.0000 </r>
       <r>   -20.3504     0.0000     8.0000 </r>
       <r>   -20.2477     0.0000     8.0000 </r>
       <r>   -20.1449     0.0000     8.0000 </r>
       <r>   -20.0422     0.0000     8.0000 </r>
       <r>   -19.9395     0.0000     8.0000 </r>
       <r>   -19.8367     0.0000     8.0000 </r>
       <r>   -19.7340     0.0000     8.0000 </r>
       <r>   -19.6313     0.0000     8.0000 </r>
       <r>   -19.5285     0.0000     8.0000 </r>
       <r>   -19.4258     0.0000     8.0000 </r>
       <r>   -19.3231     0.0000     8.0000 </r>
       <r>   -19.2203     0.0000     8.0000 </r>
       <r>   -19.1176     0.0000     8.0000 </r>
       <r>   -19.0149     0.0000     8.0000 </r>
       <r>   -18.9121     0.0000     8.0000 </r>
       <r>   -18.8094     0.0000     8.0000 </r>
       <r>   -18.7067     0.0000     8.0000 </r>
       <r>   -18.6039     0.0000     8.0000 </r>
       <r>   -18.5012     0.0000     8.0000 </r>
       <r>   -18.3985     0.0000     8.0000 </r>
       <r>   -18.2957     0.0000     8.0000 </r>
       <r>   -18.1930     0.0000     8.0000 </r>
       <r>   -18.0903     0.0000     8.0000 </r>
       <r>   -17.9875     0.0000     8.0000 </r>
       <r>   -17.8848     0.0000     8.0000 </r>
       <r>   -17.7820     0.0000     8.0000 </r>
       <r>   -17.6793     0.0000     8.0000 </r>
       <r>   -17.5766     0.0000     8.0000 </r>
       <r>   -17.4738     0.0000     8.0000 </r>
       <r>   -17.3711     0.0000     8.0000 </r>
       <r>   -17.2684     0.0000     8.0000 </r>
       <r>   -17.1656     0.0000     8.0000 </r>
       <r>   -17.0629     0.0000     8.0000 </r>
       <r>   -16.9602     0.0000     8.0000 </r>
       <r>   -16.8574     6.3603     8.6534 </r>
       <r>   -16.7547   136.2596    23.9985 </r>
       <r>   -16.6520   233.5949    48.0000 </r>
       <r>   -16.5492     0.0000    48.0000 </r>
       <r>   -16.4465     0.0000    48.0000 </r>
       <r>   -16.3438     0.0000    48.0000 </r>
       <r>   -16.2410     0.0000    48.0000 </r>
       <r>   -16.1383     0.0000    48.0000 </r>
       <r>   -16.0356     0.0000    48.0000 </r>
       <r>   -15.9328     0.0000    48.0000 </r>
       <r>   -15.8301     0.0000    48.0000 </r>
       <r>   -15.7274     0.0000    48.0000 </r>
       <r>   -15.6246     0.0000    48.0000 </r>
       <r>   -15.5219     0.0000    48.0000 </r>
       <r>   -15.4192     0.0000    48.0000 </r>
       <r>   -15.3164     0.0000    48.0000 </r>
       <r>   -15.2137     0.0000    48.0000 </r>
       <r>   -15.1110     0.0000    48.0000 </r>
       <r>   -15.0082     0.0000    48.0000 </r>
       <r>   -14.9055     0.0000    48.0000 </r>
       <r>   -14.8028     0.0000    48.0000 </r>
       <r>   -14.7000     0.0000    48.0000 </r>
       <r>   -14.5973     0.0000    48.0000 </r>
       <r>   -14.4945     1.0613    48.1090 </r>
       <r>   -14.3918    28.0075    50.9885 </r>
       <r>   -14.2891    41.1095    55.8902 </r>
       <r>   -14.1863     8.9667    56.9212 </r>
       <r>   -14.0836    74.8508    64.9120 </r>
       <r>   -13.9809    49.8569    71.2331 </r>
       <r>   -13.8781     4.3255    72.0000 </r>
       <r>   -13.7754     0.0000    72.0000 </r>
       <r>   -13.6727     0.0000    72.0000 </r>
       <r>   -13.5699     0.0000    72.0000 </r>
       <r>   -13.4672     0.0000    72.0000 </r>
       <r>   -13.3645     0.0000    72.0000 </r>
       <r>   -13.2617     0.0000    72.0000 </r>
       <r>   -13.1590     0.0000    72.0000 </r>
       <r>   -13.0563     0.0000    72.0000 </r>
       <r>   -12.9535     0.0000    72.0000 </r>
       <r>   -12.8508     0.0000    72.0000 </r>
       <r>   -12.7481     0.0000    72.0000 </r>
       <r>   -12.6453     0.0000    72.0000 </r>
       <r>   -12.5426     0.0000    72.0000 </r>
       <r>   -12.4399     0.0000    72.0000 </r>
       <r>   -12.3371     0.0000    72.0000 </r>
       <r>   -12.2344     0.0000    72.0000 </r>
       <r>   -12.1317     0.0000    72.0000 </r>
       <r>   -12.0289     0.0000    72.0000 </r>
       <r>   -11.9262     0.0000    72.0000 </r>
       <r>   -11.8235     0.0000    72.0000 </r>
       <r>   -11.7207     0.0000    72.0000 </r>
       <r>   -11.6180     0.0000    72.0000 </r>
       <r>   -11.5153     0.0000    72.0000 </r>
       <r>   -11.4125     0.0000    72.0000 </r>
       <r>   -11.3098     0.0000    72.0000 </r>
       <r>   -11.2070     0.0000    72.0000 </r>
       <r>   -11.1043     0.0000    72.0000 </r>
       <r>   -11.0016     0.0000    72.0000 </r>
       <r>   -10.8988     0.0000    72.0000 </r>
       <r>   -10.7961     0.0000    72.0000 </r>
       <r>   -10.6934     0.0000    72.0000 </r>
       <r>   -10.5906     0.0000    72.0000 </r>
       <r>   -10.4879     0.0000    72.0000 </r>
       <r>   -10.3852     0.0000    72.0000 </r>
       <r>   -10.2824     0.0000    72.0000 </r>
       <r>   -10.1797     0.0000    72.0000 </r>
       <r>   -10.0770     0.0000    72.0000 </r>
       <r>    -9.9742     0.0000    72.0000 </r>
       <r>    -9.8715     0.0000    72.0000 </r>
       <r>    -9.7688     0.0000    72.0000 </r>
       <r>    -9.6660     0.0000    72.0000 </r>
       <r>    -9.5633     0.0000    72.0000 </r>
       <r>    -9.4606     0.0000    72.0000 </r>
       <r>    -9.3578     0.0000    72.0000 </r>
       <r>    -9.2551     0.0000    72.0000 </r>
       <r>    -9.1524     0.0000    72.0000 </r>
       <r>    -9.0496     0.0000    72.0000 </r>
       <r>    -8.9469     0.0000    72.0000 </r>
       <r>    -8.8442     0.0000    72.0000 </r>
       <r>    -8.7414     0.0000    72.0000 </r>
       <r>    -8.6387     0.0000    72.0000 </r>
       <r>    -8.5360     0.0000    72.0000 </r>
       <r>    -8.4332     0.0000    72.0000 </r>
       <r>    -8.3305     1.0815    72.1111 </r>
       <r>    -8.2278     0.0079    72.1119 </r>
       <r>    -8.1250     1.0150    72.6598 </r>
       <r>    -8.0223     0.0000    73.2222 </r>
       <r>    -7.9195    10.8318    74.3350 </r>
       <r>    -7.8168    13.9086    75.9844 </r>
       <r>    -7.7141     0.0000    76.0000 </r>
       <r>    -7.6113    13.4408    77.3808 </r>
       <r>    -7.5086    45.6404    82.1333 </r>
       <r>    -7.4059   126.5372   102.7777 </r>
       <r>    -7.3031     2.6810   103.0532 </r>
       <r>    -7.2004     1.8169   103.6311 </r>
       <r>    -7.0977     0.0000   103.8889 </r>
       <r>    -6.9949     0.0000   103.8889 </r>
       <r>    -6.8922     1.0815   104.0000 </r>
       <r>    -6.7895     0.0000   104.0000 </r>
       <r>    -6.6867     0.0000   104.0000 </r>
       <r>    -6.5840     0.0000   104.0000 </r>
       <r>    -6.4813     0.0000   104.0000 </r>
       <r>    -6.3785     0.0000   104.0000 </r>
       <r>    -6.2758     0.0000   104.0000 </r>
       <r>    -6.1731     0.0000   104.0000 </r>
       <r>    -6.0703     0.0000   104.0000 </r>
       <r>    -5.9676     0.0000   104.0000 </r>
       <r>    -5.8649     0.0000   104.0000 </r>
       <r>    -5.7621     0.0000   104.0000 </r>
       <r>    -5.6594     0.0000   104.0000 </r>
       <r>    -5.5567     0.0000   104.0000 </r>
       <r>    -5.4539     0.0000   104.0000 </r>
       <r>    -5.3512     0.0000   104.0000 </r>
       <r>    -5.2485     0.0000   104.0000 </r>
       <r>    -5.1457     0.0000   104.0000 </r>
       <r>    -5.0430     0.0000   104.0000 </r>
       <r>    -4.9403     0.0000   104.0000 </r>
       <r>    -4.8375     0.0000   104.0000 </r>
       <r>    -4.7348     0.0000   104.0000 </r>
       <r>    -4.6320     0.0000   104.0000 </r>
       <r>    -4.5293     0.0000   104.0000 </r>
       <r>    -4.4266     0.0000   104.0000 </r>
       <r>    -4.3238     0.0000   104.0000 </r>
       <r>    -4.2211     0.0000   104.0000 </r>
       <r>    -4.1184     0.0000   104.0000 </r>
       <r>    -4.0156     0.0000   104.0000 </r>
       <r>    -3.9129     0.0000   104.0000 </r>
       <r>    -3.8102     0.0000   104.0000 </r>
       <r>    -3.7074     0.0000   104.0000 </r>
       <r>    -3.6047     0.0016   104.0002 </r>
       <r>    -3.5020    13.5146   105.4995 </r>
       <r>    -3.3992     1.0813   106.0000 </r>
       <r>    -3.2965     2.0640   106.2120 </r>
       <r>    -3.1938    10.0906   107.2589 </r>
       <r>    -3.0910     1.4848   108.2636 </r>
       <r>    -2.9883     8.1984   109.5089 </r>
       <r>    -2.8856    25.9296   112.6639 </r>
       <r>    -2.7828     5.8760   113.4926 </r>
       <r>    -2.6801    17.3053   116.0001 </r>
       <r>    -2.5774    19.1710   117.9696 </r>
       <r>    -2.4746     0.1915   118.0197 </r>
       <r>    -2.3719     6.5364   118.8937 </r>
       <r>    -2.2692    17.6198   121.1435 </r>
       <r>    -2.1664    26.4956   124.8331 </r>
       <r>    -2.0637    14.4110   127.1472 </r>
       <r>    -1.9610    11.2238   128.3754 </r>
       <r>    -1.8582    23.1293   131.2651 </r>
       <r>    -1.7555    23.4927   135.6357 </r>
       <r>    -1.6528    41.1363   141.1153 </r>
       <r>    -1.5500    41.5128   146.5982 </r>
       <r>    -1.4473    64.5755   155.1901 </r>
       <r>    -1.3445    59.9030   162.1541 </r>
       <r>    -1.2418    44.9456   167.7286 </r>
       <r>    -1.1391     7.5511   168.6647 </r>
       <r>    -1.0363    25.8133   171.3186 </r>
       <r>    -0.9336     5.4964   172.4536 </r>
       <r>    -0.8309    12.9785   174.2222 </r>
       <r>    -0.7281     3.0023   174.5307 </r>
       <r>    -0.6254     1.0815   174.7778 </r>
       <r>    -0.5227     0.9507   174.8754 </r>
       <r>    -0.4199     4.3262   175.8889 </r>
       <r>    -0.3172     0.0000   175.8889 </r>
       <r>    -0.2145     0.0000   175.8889 </r>
       <r>    -0.1117     0.0000   175.8889 </r>
       <r>    -0.0090     1.0815   176.0000 </r>
       <r>     0.0937     0.0000   176.0000 </r>
       <r>     0.1965     0.0000   176.0000 </r>
       <r>     0.2992     0.0000   176.0000 </r>
       <r>     0.4019     0.0000   176.0000 </r>
       <r>     0.5047     0.0000   176.0000 </r>
       <r>     0.6074     0.0000   176.0000 </r>
       <r>     0.7101     0.0000   176.0000 </r>
       <r>     0.8129     0.0000   176.0000 </r>
       <r>     0.9156     0.0000   176.0000 </r>
       <r>     1.0183     0.0000   176.0000 </r>
       <r>     1.1211     0.0000   176.0000 </r>
       <r>     1.2238     0.0000   176.0000 </r>
       <r>     1.3265     0.0000   176.0000 </r>
       <r>     1.4293     0.0000   176.0000 </r>
       <r>     1.5320     0.0000   176.0000 </r>
       <r>     1.6347     0.0000   176.0000 </r>
       <r>     1.7375     0.0000   176.0000 </r>
       <r>     1.8402     0.0000   176.0000 </r>
       <r>     1.9430     0.0000   176.0000 </r>
       <r>     2.0457     0.0000   176.0000 </r>
       <r>     2.1484     0.0000   176.0000 </r>
       <r>     2.2512     1.0815   176.1111 </r>
       <r>     2.3539     0.0000   176.1111 </r>
       <r>     2.4566     3.2446   176.4444 </r>
       <r>     2.5594     5.4080   177.0000 </r>
       <r>     2.6621     2.1628   177.2222 </r>
       <r>     2.7648     9.7338   178.2222 </r>
       <r>     2.8676     5.4197   178.7790 </r>
       <r>     2.9703     4.9491   179.7307 </r>
       <r>     3.0730     7.2692   180.6357 </r>
       <r>     3.1758     4.5169   181.6863 </r>
       <r>     3.2785    10.9596   183.0148 </r>
       <r>     3.3812     5.4079   183.7778 </r>
       <r>     3.4840    10.9762   185.1276 </r>
       <r>     3.5867     2.1631   185.5556 </r>
       <r>     3.6894     4.3261   186.0000 </r>
       <r>     3.7922     0.0000   186.0000 </r>
       <r>     3.8949     0.0000   186.0000 </r>
       <r>     3.9976     0.0000   186.0000 </r>
       <r>     4.1004     0.0013   186.0001 </r>
       <r>     4.2031     2.3078   186.2372 </r>
       <r>     4.3058     8.7021   187.5607 </r>
       <r>     4.4086     4.8511   188.9428 </r>
       <r>     4.5113    19.0239   191.7322 </r>
       <r>     4.6140    21.1714   194.1750 </r>
       <r>     4.7168     6.4892   195.2222 </r>
       <r>     4.8195     2.1626   195.4444 </r>
       <r>     4.9222     0.0520   195.4498 </r>
       <r>     5.0250     0.9626   195.9878 </r>
       <r>     5.1277     8.5723   196.8807 </r>
       <r>     5.2305     1.9500   197.0892 </r>
       <r>     5.3332     8.6572   198.1116 </r>
       <r>     5.4359     2.1626   198.5556 </r>
       <r>     5.5387     5.4077   199.1111 </r>
       <r>     5.6414     2.1631   199.3333 </r>
       <r>     5.7441    16.2243   201.0001 </r>
       <r>     5.8469     4.3248   201.4444 </r>
       <r>     5.9496    20.4346   203.5438 </r>
       <r>     6.0523    11.3155   205.3847 </r>
       <r>     6.1551    26.0335   208.5634 </r>
       <r>     6.2578    11.8352   210.6603 </r>
       <r>     6.3605    12.7953   212.6479 </r>
       <r>     6.4633    25.9091   215.6618 </r>
       <r>     6.5660    32.0589   218.9602 </r>
       <r>     6.6687    26.0424   222.2310 </r>
       <r>     6.7715     2.0340   223.0978 </r>
       <r>     6.8742     3.2326   223.4432 </r>
       <r>     6.9769     4.3262   224.0000 </r>
       <r>     7.0797     0.0000   224.0000 </r>
       <r>     7.1824     0.0000   224.0000 </r>
       <r>     7.2851     0.0000   224.0000 </r>
       <r>     7.3879     0.0000   224.0000 </r>
       <r>     7.4906     0.0000   224.0000 </r>
       <r>     7.5933     0.0000   224.0000 </r>
       <r>     7.6961     0.0000   224.0000 </r>
       <r>     7.7988     0.0000   224.0000 </r>
       <r>     7.9015     0.0000   224.0000 </r>
       <r>     8.0043     0.0000   224.0000 </r>
       <r>     8.1070     0.0000   224.0000 </r>
       <r>     8.2097     0.0000   224.0000 </r>
       <r>     8.3125     0.0000   224.0000 </r>
      </set>
     </set>
    </array>
   </total>
   <partial>
    <array>
     <dimension dim="1">gridpoints</dimension>
     <dimension dim="2">spin</dimension>
     <dimension dim="3">ion</dimension>
     <field>energy</field>
     <field>  s  </field>
     <field>  p  </field>
     <field>  d  </field>
     <set>
      <set comment="ion 1">
       <set comment="spin 1">
        <r>   -22.5078     0.0000     0.0000     0.0000 </r>
        <r>   -22.4051     0.0000     0.0000     0.0000 </r>
        <r>   -22.3024     0.0000     0.0000     0.0000 </r>
        <r>   -22.1996     0.0000     0.0000     0.0000 </r>
        <r>   -22.0969     0.0000     0.0000     0.0000 </r>
        <r>   -21.9942     0.0000     0.0000     0.0000 </r>
        <r>   -21.8914     0.0000     0.0000     0.0000 </r>
        <r>   -21.7887     0.0000     0.0000     0.0000 </r>
        <r>   -21.6860     0.0000     0.0000     0.0000 </r>
        <r>   -21.5832     0.0000     0.0000     0.0000 </r>
        <r>   -21.4805     0.0000     0.0000     0.0000 </r>
        <r>   -21.3778     0.0000     0.0000     0.0000 </r>
        <r>   -21.2750     0.0000     0.0000     0.0000 </r>
        <r>   -21.1723     0.0000     0.0000     0.0000 </r>
[...]
        <r>  0.0000  0.0004  0.0001 </r>
        <r>  0.0016  0.0894  0.0008 </r>
        <r>  0.0016  0.0865  0.0008 </r>
        <r>  0.0016  0.0886  0.0008 </r>
        <r>  0.0016  0.0915  0.0008 </r>
        <r>  0.0004  0.0090  0.0002 </r>
        <r>  0.0000  0.0013  0.0020 </r>
        <r>  0.0006  0.0095  0.0003 </r>
        <r>  0.0000  0.0008  0.0021 </r>
        <r>  0.0058  0.0183  0.0034 </r>
        <r>  0.0002  0.0066  0.0003 </r>
        <r>  0.0001  0.0052  0.0002 </r>
        <r>  0.0070  0.0176  0.0030 </r>
        <r>  0.0056  0.0179  0.0034 </r>
        <r>  0.0002  0.0064  0.0003 </r>
        <r>  0.0071  0.0180  0.0031 </r>
        <r>  0.0001  0.0054  0.0002 </r>
       </set>
       <set comment="band 93">
        <r>  0.0000  0.0001  0.0006 </r>
        <r>  0.0002  0.0001  0.0002 </r>
        <r>  0.0001  0.0000  0.0002 </r>
        <r>  0.0001  0.0003  0.0012 </r>
        <r>  0.0005  0.0486  0.0012 </r>
        <r>  0.0019  0.0326  0.0025 </r>
        <r>  0.0002  0.1641  0.0008 </r>
        <r>  0.0000  0.0782  0.0016 </r>
        <r>  0.0073  0.0149  0.0040 </r>
        <r>  0.0016  0.0266  0.0020 </r>
        <r>  0.0051  0.0099  0.0029 </r>
        <r>  0.0022  0.0418  0.0019 </r>
        <r>  0.0015  0.0245  0.0016 </r>
        <r>  0.0000  0.0009  0.0024 </r>
        <r>  0.0000  0.0005  0.0009 </r>
        <r>  0.0011  0.0076  0.0007 </r>
        <r>  0.0002  0.0101  0.0009 </r>
        <r>  0.0000  0.0004  0.0008 </r>
        <r>  0.0024  0.0220  0.0013 </r>
        <r>  0.0000  0.0010  0.0025 </r>
       </set>
       <set comment="band 94">
        <r>  0.0001  0.0003  0.0012 </r>
        <r>  0.0001  0.0000  0.0002 </r>
        <r>  0.0002  0.0001  0.0002 </r>
        <r>  0.0000  0.0001  0.0006 </r>
        <r>  0.0000  0.0782  0.0016 </r>
        <r>  0.0002  0.1641  0.0008 </r>
        <r>  0.0019  0.0326  0.0025 </r>
        <r>  0.0005  0.0486  0.0012 </r>
        <r>  0.0022  0.0418  0.0019 </r>
        <r>  0.0051  0.0099  0.0029 </r>
        <r>  0.0016  0.0266  0.0020 </r>
        <r>  0.0073  0.0149  0.0040 </r>
        <r>  0.0011  0.0076  0.0007 </r>
        <r>  0.0000  0.0005  0.0009 </r>
        <r>  0.0000  0.0009  0.0024 </r>
        <r>  0.0015  0.0245  0.0016 </r>
        <r>  0.0024  0.0220  0.0013 </r>
        <r>  0.0000  0.0010  0.0025 </r>
        <r>  0.0002  0.0101  0.0009 </r>
        <r>  0.0000  0.0004  0.0008 </r>
       </set>
       <set comment="band 95">
        <r>  0.0000  0.0008  0.0002 </r>
        <r>  0.0000  0.0000  0.0018 </r>
        <r>  0.0001  0.0007  0.0008 </r>
        <r>  0.0000  0.0000  0.0011 </r>
        <r>  0.0042  0.1205  0.0008 </r>
        <r>  0.0027  0.0518  0.0006 </r>
        <r>  0.0023  0.0475  0.0005 </r>
        <r>  0.0052  0.0892  0.0009 </r>
        <r>  0.0000  0.0081  0.0021 </r>
        <r>  0.0078  0.0026  0.0033 </r>
        <r>  0.0001  0.0454  0.0015 </r>
        <r>  0.0018  0.0026  0.0003 </r>
        <r>  0.0012  0.0275  0.0015 </r>
        <r>  0.0000  0.0006  0.0016 </r>
        <r>  0.0000  0.0002  0.0017 </r>
        <r>  0.0034  0.0274  0.0012 </r>
        <r>  0.0016  0.0325  0.0019 </r>
        <r>  0.0000  0.0007  0.0020 </r>
        <r>  0.0030  0.0223  0.0008 </r>
        <r>  0.0000  0.0002  0.0013 </r>
       </set>
       <set comment="band 96">
        <r>  0.0000  0.0000  0.0011 </r>
        <r>  0.0001  0.0007  0.0008 </r>
        <r>  0.0000  0.0000  0.0018 </r>
        <r>  0.0000  0.0008  0.0002 </r>
        <r>  0.0052  0.0892  0.0009 </r>
        <r>  0.0023  0.0475  0.0005 </r>
        <r>  0.0027  0.0518  0.0006 </r>
        <r>  0.0042  0.1205  0.0008 </r>
        <r>  0.0018  0.0026  0.0003 </r>
        <r>  0.0001  0.0454  0.0015 </r>
        <r>  0.0078  0.0026  0.0033 </r>
        <r>  0.0000  0.0081  0.0021 </r>
        <r>  0.0034  0.0274  0.0012 </r>
        <r>  0.0000  0.0002  0.0017 </r>
        <r>  0.0000  0.0006  0.0016 </r>
        <r>  0.0012  0.0275  0.0015 </r>
        <r>  0.0030  0.0223  0.0008 </r>
        <r>  0.0000  0.0002  0.0013 </r>
        <r>  0.0016  0.0325  0.0019 </r>
        <r>  0.0000  0.0007  0.0020 </r>
       </set>
       <set comment="band 97">
        <r>  0.0000  0.0001  0.0004 </r>
        <r>  0.0004  0.0008  0.0010 </r>
        <r>  0.0000  0.0002  0.0004 </r>
        <r>  0.0005  0.0003  0.0003 </r>
        <r>  0.0013  0.0788  0.0011 </r>
        <r>  0.0027  0.0995  0.0012 </r>
        <r>  0.0032  0.0833  0.0014 </r>
        <r>  0.0015  0.0658  0.0013 </r>
        <r>  0.0140  0.0032  0.0048 </r>
        <r>  0.0000  0.0463  0.0020 </r>
        <r>  0.0105  0.0028  0.0039 </r>
        <r>  0.0000  0.0644  0.0028 </r>
        <r>  0.0000  0.0055  0.0014 </r>
        <r>  0.0001  0.0023  0.0002 </r>
        <r>  0.0005  0.0086  0.0002 </r>
        <r>  0.0005  0.0038  0.0009 </r>
        <r>  0.0000  0.0060  0.0016 </r>
        <r>  0.0001  0.0031  0.0002 </r>
        <r>  0.0005  0.0034  0.0008 </r>
        <r>  0.0005  0.0078  0.0002 </r>
       </set>
       <set comment="band 98">
        <r>  0.0005  0.0003  0.0003 </r>
        <r>  0.0000  0.0002  0.0004 </r>
        <r>  0.0004  0.0008  0.0010 </r>
        <r>  0.0000  0.0001  0.0004 </r>
        <r>  0.0015  0.0658  0.0013 </r>
        <r>  0.0032  0.0833  0.0014 </r>
        <r>  0.0027  0.0995  0.0012 </r>
        <r>  0.0013  0.0788  0.0011 </r>
        <r>  0.0000  0.0644  0.0028 </r>
        <r>  0.0105  0.0028  0.0039 </r>
        <r>  0.0000  0.0463  0.0020 </r>
        <r>  0.0140  0.0032  0.0048 </r>
        <r>  0.0005  0.0038  0.0009 </r>
        <r>  0.0005  0.0086  0.0002 </r>
        <r>  0.0001  0.0023  0.0002 </r>
        <r>  0.0000  0.0055  0.0014 </r>
        <r>  0.0005  0.0034  0.0008 </r>
        <r>  0.0005  0.0078  0.0002 </r>
        <r>  0.0000  0.0060  0.0016 </r>
        <r>  0.0001  0.0031  0.0002 </r>
       </set>
       <set comment="band 99">
        <r>  0.0000  0.0000  0.0010 </r>
        <r>  0.0000  0.0001  0.0009 </r>
        <r>  0.0000  0.0001  0.0009 </r>
        <r>  0.0000  0.0000  0.0006 </r>
        <r>  0.0000  0.0057  0.0004 </r>
        <r>  0.0001  0.0058  0.0003 </r>
        <r>  0.0000  0.1618  0.0002 </r>
        <r>  0.0000  0.1566  0.0002 </r>
        <r>  0.0000  0.0023  0.0013 </r>
        <r>  0.0000  0.0017  0.0026 </r>
        <r>  0.0001  0.0032  0.0014 </r>
        <r>  0.0000  0.0014  0.0021 </r>
        <r>  0.0000  0.0015  0.0035 </r>
        <r>  0.0000  0.1031  0.0015 </r>
        <r>  0.0000  0.0035  0.0001 </r>
        <r>  0.0000  0.0003  0.0002 </r>
        <r>  0.0000  0.0004  0.0001 </r>
        <r>  0.0000  0.0041  0.0003 </r>
        <r>  0.0000  0.0015  0.0036 </r>
        <r>  0.0000  0.1025  0.0013 </r>
       </set>
       <set comment="band 100">
        <r>  0.0000  0.0000  0.0006 </r>
        <r>  0.0000  0.0001  0.0009 </r>
        <r>  0.0000  0.0001  0.0009 </r>
        <r>  0.0000  0.0000  0.0010 </r>
        <r>  0.0000  0.1566  0.0002 </r>
        <r>  0.0000  0.1618  0.0002 </r>
        <r>  0.0001  0.0058  0.0003 </r>
        <r>  0.0000  0.0057  0.0004 </r>
        <r>  0.0000  0.0014  0.0021 </r>
        <r>  0.0001  0.0032  0.0014 </r>
        <r>  0.0000  0.0017  0.0026 </r>
        <r>  0.0000  0.0023  0.0013 </r>
        <r>  0.0000  0.0003  0.0002 </r>
        <r>  0.0000  0.0035  0.0001 </r>
        <r>  0.0000  0.1031  0.0015 </r>
        <r>  0.0000  0.0015  0.0035 </r>
        <r>  0.0000  0.0015  0.0036 </r>
        <r>  0.0000  0.1025  0.0013 </r>
        <r>  0.0000  0.0004  0.0001 </r>
        <r>  0.0000  0.0041  0.0003 </r>
       </set>
       <set comment="band 101">
        <r>  0.0000  0.0032  0.0066 </r>
        <r>  0.0122  0.0021  0.0058 </r>
        <r>  0.0000  0.0023  0.0152 </r>
        <r>  0.0138  0.0023  0.0105 </r>
        <r>  0.0003  0.0047  0.0002 </r>
        <r>  0.0003  0.0078  0.0003 </r>
        <r>  0.0003  0.0078  0.0003 </r>
        <r>  0.0003  0.0047  0.0002 </r>
        <r>  0.0006  0.0036  0.0018 </r>
        <r>  0.0000  0.0037  0.0001 </r>
        <r>  0.0011  0.0051  0.0018 </r>
        <r>  0.0000  0.0054  0.0003 </r>
        <r>  0.0014  0.0046  0.0013 </r>
        <r>  0.0055  0.0047  0.0016 </r>
        <r>  0.0025  0.0028  0.0018 </r>
        <r>  0.0028  0.0028  0.0025 </r>
        <r>  0.0014  0.0046  0.0013 </r>
        <r>  0.0054  0.0047  0.0016 </r>
        <r>  0.0028  0.0027  0.0025 </r>
        <r>  0.0025  0.0028  0.0018 </r>
       </set>
       <set comment="band 102">
        <r>  0.0138  0.0023  0.0105 </r>
        <r>  0.0000  0.0023  0.0152 </r>
        <r>  0.0122  0.0021  0.0058 </r>
        <r>  0.0000  0.0032  0.0066 </r>
        <r>  0.0003  0.0047  0.0002 </r>
        <r>  0.0003  0.0078  0.0003 </r>
        <r>  0.0003  0.0078  0.0003 </r>
        <r>  0.0003  0.0047  0.0002 </r>
        <r>  0.0000  0.0054  0.0003 </r>
        <r>  0.0011  0.0051  0.0018 </r>
        <r>  0.0000  0.0037  0.0001 </r>
        <r>  0.0006  0.0036  0.0018 </r>
        <r>  0.0028  0.0028  0.0025 </r>
        <r>  0.0025  0.0028  0.0018 </r>
        <r>  0.0055  0.0047  0.0016 </r>
        <r>  0.0014  0.0046  0.0013 </r>
        <r>  0.0028  0.0027  0.0025 </r>
        <r>  0.0025  0.0028  0.0018 </r>
        <r>  0.0014  0.0046  0.0013 </r>
        <r>  0.0054  0.0047  0.0016 </r>
       </set>
       <set comment="band 103">
        <r>  0.0055  0.0018  0.0125 </r>
        <r>  0.0000  0.0002  0.0039 </r>
        <r>  0.0051  0.0026  0.0571 </r>
        <r>  0.0000  0.0007  0.0104 </r>
        <r>  0.0000  0.0092  0.0006 </r>
        <r>  0.0000  0.0045  0.0005 </r>
        <r>  0.0000  0.0045  0.0005 </r>
        <r>  0.0000  0.0091  0.0006 </r>
        <r>  0.0000  0.0016  0.0007 </r>
        <r>  0.0025  0.0034  0.0053 </r>
        <r>  0.0000  0.0014  0.0011 </r>
        <r>  0.0009  0.0091  0.0055 </r>
        <r>  0.0001  0.0066  0.0017 </r>
        <r>  0.0016  0.0009  0.0015 </r>
        <r>  0.0006  0.0009  0.0022 </r>
        <r>  0.0001  0.0043  0.0014 </r>
        <r>  0.0001  0.0066  0.0017 </r>
        <r>  0.0016  0.0009  0.0015 </r>
        <r>  0.0001  0.0043  0.0014 </r>
        <r>  0.0006  0.0009  0.0022 </r>
       </set>
       <set comment="band 104">
        <r>  0.0000  0.0007  0.0104 </r>
        <r>  0.0051  0.0026  0.0571 </r>
        <r>  0.0000  0.0002  0.0039 </r>
        <r>  0.0055  0.0018  0.0125 </r>
        <r>  0.0000  0.0091  0.0006 </r>
        <r>  0.0000  0.0045  0.0005 </r>
        <r>  0.0000  0.0045  0.0005 </r>
        <r>  0.0000  0.0092  0.0006 </r>
        <r>  0.0009  0.0091  0.0055 </r>
        <r>  0.0000  0.0014  0.0011 </r>
        <r>  0.0025  0.0034  0.0053 </r>
        <r>  0.0000  0.0016  0.0007 </r>
        <r>  0.0001  0.0043  0.0014 </r>
        <r>  0.0006  0.0009  0.0022 </r>
        <r>  0.0016  0.0009  0.0015 </r>
        <r>  0.0001  0.0066  0.0017 </r>
        <r>  0.0001  0.0043  0.0014 </r>
        <r>  0.0006  0.0009  0.0022 </r>
        <r>  0.0001  0.0066  0.0017 </r>
        <r>  0.0016  0.0009  0.0015 </r>
       </set>
       <set comment="band 105">
        <r>  0.0004  0.0023  0.0691 </r>
        <r>  0.0000  0.0014  0.0134 </r>
        <r>  0.0013  0.0022  0.0169 </r>
        <r>  0.0000  0.0002  0.0132 </r>
        <r>  0.0000  0.0022  0.0011 </r>
        <r>  0.0000  0.0044  0.0012 </r>
        <r>  0.0000  0.0060  0.0010 </r>
        <r>  0.0001  0.0021  0.0011 </r>
        <r>  0.0000  0.0006  0.0011 </r>
        <r>  0.0001  0.0075  0.0049 </r>
        <r>  0.0000  0.0016  0.0006 </r>
        <r>  0.0024  0.0042  0.0062 </r>
        <r>  0.0002  0.0034  0.0019 </r>
        <r>  0.0014  0.0017  0.0014 </r>
        <r>  0.0004  0.0029  0.0025 </r>
        <r>  0.0018  0.0017  0.0014 </r>
        <r>  0.0002  0.0037  0.0019 </r>
        <r>  0.0012  0.0020  0.0015 </r>
        <r>  0.0018  0.0014  0.0014 </r>
        <r>  0.0006  0.0025  0.0024 </r>
       </set>
       <set comment="band 106">
        <r>  0.0000  0.0002  0.0132 </r>
        <r>  0.0013  0.0022  0.0169 </r>
        <r>  0.0000  0.0014  0.0134 </r>
        <r>  0.0004  0.0023  0.0691 </r>
        <r>  0.0001  0.0021  0.0011 </r>
        <r>  0.0000  0.0060  0.0010 </r>
        <r>  0.0000  0.0044  0.0012 </r>
        <r>  0.0000  0.0022  0.0011 </r>
        <r>  0.0024  0.0042  0.0062 </r>
        <r>  0.0000  0.0016  0.0006 </r>
        <r>  0.0001  0.0075  0.0049 </r>
        <r>  0.0000  0.0006  0.0011 </r>
        <r>  0.0018  0.0017  0.0014 </r>
        <r>  0.0004  0.0029  0.0025 </r>
        <r>  0.0014  0.0017  0.0014 </r>
        <r>  0.0002  0.0034  0.0019 </r>
        <r>  0.0018  0.0014  0.0014 </r>
        <r>  0.0006  0.0026  0.0024 </r>
        <r>  0.0002  0.0037  0.0019 </r>
        <r>  0.0012  0.0020  0.0015 </r>
       </set>
       <set comment="band 107">
        <r>  0.0003  0.0021  0.0394 </r>
        <r>  0.0026  0.0020  0.0154 </r>
        <r>  0.0019  0.0019  0.0126 </r>
        <r>  0.0004  0.0025  0.0433 </r>
        <r>  0.0000  0.0003  0.0006 </r>
        <r>  0.0000  0.0014  0.0014 </r>
        <r>  0.0001  0.0053  0.0010 </r>
        <r>  0.0003  0.0058  0.0009 </r>
        <r>  0.0013  0.0038  0.0020 </r>
        <r>  0.0005  0.0038  0.0016 </r>
        <r>  0.0006  0.0050  0.0018 </r>
        <r>  0.0010  0.0032  0.0017 </r>
        <r>  0.0004  0.0035  0.0023 </r>
        <r>  0.0015  0.0033  0.0041 </r>
        <r>  0.0000  0.0028  0.0026 </r>
        <r>  0.0000  0.0043  0.0019 </r>
        <r>  0.0000  0.0033  0.0017 </r>
        <r>  0.0001  0.0030  0.0029 </r>
        <r>  0.0004  0.0045  0.0025 </r>
        <r>  0.0014  0.0031  0.0038 </r>
       </set>
       <set comment="band 108">
        <r>  0.0004  0.0025  0.0436 </r>
        <r>  0.0019  0.0019  0.0126 </r>
        <r>  0.0026  0.0020  0.0154 </r>
        <r>  0.0003  0.0021  0.0392 </r>
        <r>  0.0003  0.0058  0.0009 </r>
        <r>  0.0001  0.0053  0.0010 </r>
        <r>  0.0000  0.0014  0.0014 </r>
        <r>  0.0000  0.0003  0.0006 </r>
        <r>  0.0010  0.0033  0.0017 </r>
        <r>  0.0006  0.0050  0.0018 </r>
        <r>  0.0005  0.0038  0.0016 </r>
        <r>  0.0013  0.0038  0.0020 </r>
        <r>  0.0000  0.0043  0.0020 </r>
        <r>  0.0000  0.0028  0.0026 </r>
        <r>  0.0015  0.0033  0.0041 </r>
        <r>  0.0004  0.0035  0.0023 </r>
        <r>  0.0004  0.0045  0.0025 </r>
        <r>  0.0014  0.0031  0.0038 </r>
        <r>  0.0000  0.0033  0.0017 </r>
        <r>  0.0001  0.0030  0.0029 </r>
       </set>
       <set comment="band 109">
        <r>  0.0014  0.0015  0.0203 </r>
        <r>  0.0011  0.0007  0.0398 </r>
        <r>  0.0003  0.0007  0.0292 </r>
        <r>  0.0054  0.0039  0.0196 </r>
        <r>  0.0001  0.0117  0.0005 </r>
        <r>  0.0000  0.0037  0.0012 </r>
        <r>  0.0000  0.0041  0.0008 </r>
        <r>  0.0000  0.0018  0.0008 </r>
        <r>  0.0002  0.0036  0.0018 </r>
        <r>  0.0002  0.0051  0.0014 </r>
        <r>  0.0008  0.0077  0.0027 </r>
        <r>  0.0000  0.0019  0.0017 </r>
        <r>  0.0005  0.0034  0.0017 </r>
        <r>  0.0010  0.0054  0.0032 </r>
        <r>  0.0008  0.0014  0.0015 </r>
        <r>  0.0028  0.0019  0.0042 </r>
        <r>  0.0020  0.0007  0.0026 </r>
        <r>  0.0014  0.0048  0.0028 </r>
        <r>  0.0013  0.0046  0.0033 </r>
        <r>  0.0004  0.0020  0.0018 </r>
       </set>
       <set comment="band 110">
        <r>  0.0053  0.0039  0.0193 </r>
        <r>  0.0003  0.0007  0.0294 </r>
        <r>  0.0010  0.0007  0.0397 </r>
        <r>  0.0014  0.0016  0.0207 </r>
        <r>  0.0000  0.0018  0.0009 </r>
        <r>  0.0000  0.0041  0.0008 </r>
        <r>  0.0000  0.0037  0.0012 </r>
        <r>  0.0001  0.0118  0.0005 </r>
        <r>  0.0000  0.0018  0.0017 </r>
        <r>  0.0008  0.0077  0.0027 </r>
        <r>  0.0002  0.0052  0.0014 </r>
        <r>  0.0002  0.0035  0.0018 </r>
        <r>  0.0028  0.0019  0.0042 </r>
        <r>  0.0008  0.0014  0.0014 </r>
        <r>  0.0010  0.0053  0.0032 </r>
        <r>  0.0005  0.0033  0.0017 </r>
        <r>  0.0014  0.0046  0.0033 </r>
        <r>  0.0004  0.0021  0.0018 </r>
        <r>  0.0020  0.0007  0.0026 </r>
        <r>  0.0014  0.0047  0.0028 </r>
       </set>
       <set comment="band 111">
        <r>  0.0007  0.0015  0.0219 </r>
        <r>  0.0010  0.0041  0.0386 </r>
        <r>  0.0009  0.0034  0.0335 </r>
        <r>  0.0008  0.0016  0.0233 </r>
        <r>  0.0000  0.0010  0.0005 </r>
        <r>  0.0003  0.0098  0.0001 </r>
        <r>  0.0002  0.0007  0.0004 </r>
        <r>  0.0001  0.0067  0.0002 </r>
        <r>  0.0003  0.0058  0.0014 </r>
        <r>  0.0001  0.0033  0.0016 </r>
        <r>  0.0001  0.0038  0.0018 </r>
        <r>  0.0002  0.0050  0.0012 </r>
        <r>  0.0000  0.0017  0.0019 </r>
        <r>  0.0013  0.0015  0.0035 </r>
        <r>  0.0013  0.0062  0.0011 </r>
        <r>  0.0036  0.0049  0.0030 </r>
        <r>  0.0036  0.0045  0.0028 </r>
        <r>  0.0014  0.0066  0.0015 </r>
        <r>  0.0000  0.0020  0.0021 </r>
        <r>  0.0011  0.0010  0.0031 </r>
       </set>
       <set comment="band 112">
        <r>  0.0010  0.0018  0.0230 </r>
        <r>  0.0009  0.0033  0.0347 </r>
        <r>  0.0013  0.0040  0.0366 </r>
        <r>  0.0007  0.0014  0.0215 </r>
        <r>  0.0001  0.0068  0.0002 </r>
        <r>  0.0002  0.0008  0.0004 </r>
        <r>  0.0003  0.0099  0.0001 </r>
        <r>  0.0000  0.0010  0.0005 </r>
        <r>  0.0002  0.0050  0.0012 </r>
        <r>  0.0001  0.0037  0.0017 </r>
        <r>  0.0001  0.0034  0.0016 </r>
        <r>  0.0003  0.0057  0.0013 </r>
        <r>  0.0039  0.0047  0.0032 </r>
        <r>  0.0013  0.0061  0.0011 </r>
        <r>  0.0013  0.0016  0.0034 </r>
        <r>  0.0000  0.0015  0.0020 </r>
        <r>  0.0001  0.0018  0.0022 </r>
        <r>  0.0012  0.0011  0.0031 </r>
        <r>  0.0037  0.0046  0.0028 </r>
        <r>  0.0015  0.0067  0.0015 </r>
       </set>
      </set>
     </set>
    </set>
   </array>
  </projected>
 </calculation>
 <structure name="finalpos" >
  <crystal>
   <varray name="basis" >
    <v>       8.75681830       0.00000000       0.00000000 </v>
    <v>       0.00000000      11.46510351       0.00000000 </v>
    <v>       0.00000000       0.00000000       8.40109978 </v>
   </varray>
   <i name="volume">    843.45217254 </i>
   <varray name="rec_basis" >
    <v>       0.11419673       0.00000000       0.00000000 </v>
    <v>       0.00000000       0.08722119       0.00000000 </v>
    <v>       0.00000000       0.00000000       0.11903203 </v>
   </varray>
  </crystal>
  <varray name="positions" >
   <v>       0.05546200       0.25000000       0.48235819 </v>
   <v>       0.44453800       0.75000000       0.98235819 </v>
   <v>       0.55546200       0.25000000       0.01764181 </v>
   <v>       0.94453800       0.75000000       0.51764181 </v>
   <v>       0.00000000       0.00000000       0.00000000 </v>
   <v>       0.50000000       0.00000000       0.50000000 </v>
   <v>       0.50000000       0.50000000       0.50000000 </v>
   <v>       0.00000000       0.50000000       0.00000000 </v>
   <v>       0.52467583       0.75000000       0.41471526 </v>
   <v>       0.97532417       0.25000000       0.91471526 </v>
   <v>       0.02467583       0.75000000       0.08528474 </v>
   <v>       0.47532417       0.25000000       0.58528474 </v>
   <v>       0.28177169       0.46141192       0.21597562 </v>
   <v>       0.21822831       0.53858808       0.71597562 </v>
   <v>       0.78177169       0.03858808       0.28402438 </v>
   <v>       0.71822831       0.96141192       0.78402438 </v>
   <v>       0.28177169       0.03858808       0.21597562 </v>
   <v>       0.21822831       0.96141192       0.71597562 </v>
   <v>       0.71822831       0.53858808       0.78402438 </v>
   <v>       0.78177169       0.46141192       0.28402438 </v>
  </varray>
 </structure>
</modeling>
