CsPbBr3 cubic bulk                      
           1
     8.756818    0.000000    0.000000
     0.000000   11.465104    0.000000
     0.000000    0.000000    8.401100
   Cs   Pb   Br
   4   4  12
Direct configuration=     1
   0.05546200  0.25000000  0.48235819
   0.44453800  0.75000000  0.98235819
   0.55546200  0.25000000  0.01764181
   0.94453800  0.75000000  0.51764181
   0.00000000  0.00000000  0.00000000
   0.50000000  0.00000000  0.50000000
   0.50000000  0.50000000  0.50000000
   0.00000000  0.50000000  0.00000000
   0.52467583  0.75000000  0.41471526
   0.97532417  0.25000000  0.91471526
   0.02467583  0.75000000  0.08528474
   0.47532417  0.25000000  0.58528474
   0.28177169  0.46141192  0.21597562
   0.21822831  0.53858808  0.71597562
   0.78177169  0.03858808  0.28402438
   0.71822831  0.96141192  0.78402438
   0.28177169  0.03858808  0.21597562
   0.21822831  0.96141192  0.71597562
   0.71822831  0.53858808  0.78402438
   0.78177169  0.46141192  0.28402438
