  39  39   1   0
  0.4089970E+02  0.1166870E-08  0.1172985E-08  0.1166870E-08  0.5000000E-15
   1.0000000000000000E-004
  CAR 
 CsPbBr3 cubic bulk                      
      8.11037372    -22.29258149  301      0.45896332      1.00000000
    -22.293  0.0000E+00  0.0000E+00
    -22.191  0.0000E+00  0.0000E+00
    -22.090  0.0000E+00  0.0000E+00
    -21.989  0.0000E+00  0.0000E+00
    -21.887  0.0000E+00  0.0000E+00
    -21.786  0.0000E+00  0.0000E+00
    -21.685  0.0000E+00  0.0000E+00
    -21.583  0.0000E+00  0.0000E+00
    -21.482  0.0000E+00  0.0000E+00
    -21.380  0.0000E+00  0.0000E+00
    -21.279  0.0000E+00  0.0000E+00
    -21.178  0.0000E+00  0.0000E+00
    -21.076  0.0000E+00  0.0000E+00
    -20.975  0.0000E+00  0.0000E+00
    -20.874  0.3896E+02  0.3948E+01
    -20.772  0.1424E+02  0.7443E+01
    -20.671  0.5948E+02  0.1403E+02
    -20.570  0.0000E+00  0.1600E+02
    -20.468  0.0000E+00  0.1600E+02
    -20.367  0.0000E+00  0.1600E+02
    -20.266  0.0000E+00  0.1600E+02
    -20.164  0.0000E+00  0.1600E+02
    -20.063  0.0000E+00  0.1600E+02
    -19.962  0.0000E+00  0.1600E+02
    -19.860  0.0000E+00  0.1600E+02
    -19.759  0.0000E+00  0.1600E+02
    -19.658  0.0000E+00  0.1600E+02
    -19.556  0.0000E+00  0.1600E+02
    -19.455  0.0000E+00  0.1600E+02
    -19.354  0.0000E+00  0.1600E+02
    -19.252  0.0000E+00  0.1600E+02
    -19.151  0.0000E+00  0.1600E+02
    -19.050  0.0000E+00  0.1600E+02
    -18.948  0.0000E+00  0.1600E+02
    -18.847  0.0000E+00  0.1600E+02
    -18.746  0.0000E+00  0.1600E+02
    -18.644  0.0000E+00  0.1600E+02
    -18.543  0.0000E+00  0.1600E+02
    -18.442  0.0000E+00  0.1600E+02
    -18.340  0.0000E+00  0.1600E+02
    -18.239  0.0000E+00  0.1600E+02
    -18.138  0.0000E+00  0.1600E+02
    -18.036  0.0000E+00  0.1600E+02
    -17.935  0.0000E+00  0.1600E+02
    -17.833  0.0000E+00  0.1600E+02
    -17.732  0.0000E+00  0.1600E+02
    -17.631  0.0000E+00  0.1600E+02
    -17.529  0.0000E+00  0.1600E+02
    -17.428  0.0000E+00  0.1600E+02
    -17.327  0.0000E+00  0.1600E+02
    -17.225  0.0000E+00  0.1600E+02
    -17.124  0.0000E+00  0.1600E+02
    -17.023  0.0000E+00  0.1600E+02
    -16.921  0.0000E+00  0.1600E+02
    -16.820  0.0000E+00  0.1600E+02
    -16.719  0.1590E+02  0.1761E+02
    -16.617  0.7896E+02  0.2600E+02
    -16.516  0.1184E+03  0.3800E+02
    -16.415  0.6376E+02  0.4446E+02
    -16.313  0.1677E+03  0.6675E+02
    -16.212  0.2163E+03  0.9192E+02
    -16.111  0.0000E+00  0.9600E+02
    -16.009  0.0000E+00  0.9600E+02
    -15.908  0.0000E+00  0.9600E+02
    -15.807  0.0000E+00  0.9600E+02
    -15.705  0.0000E+00  0.9600E+02
    -15.604  0.0000E+00  0.9600E+02
    -15.503  0.0000E+00  0.9600E+02
    -15.401  0.0000E+00  0.9600E+02
    -15.300  0.0000E+00  0.9600E+02
    -15.199  0.0000E+00  0.9600E+02
    -15.097  0.0000E+00  0.9600E+02
    -14.996  0.0000E+00  0.9600E+02
    -14.895  0.0000E+00  0.9600E+02
    -14.793  0.0000E+00  0.9600E+02
    -14.692  0.0000E+00  0.9600E+02
    -14.590  0.0000E+00  0.9600E+02
    -14.489  0.1973E+02  0.9800E+02
    -14.388  0.2818E+01  0.9829E+02
    -14.286  0.2237E+02  0.1023E+03
    -14.185  0.2922E+02  0.1065E+03
    -14.084  0.3905E+02  0.1110E+03
    -13.982  0.7710E+02  0.1223E+03
    -13.881  0.7854E+02  0.1307E+03
    -13.780  0.5300E+02  0.1376E+03
    -13.678  0.1471E+02  0.1417E+03
    -13.577  0.0000E+00  0.1420E+03
    -13.476  0.0000E+00  0.1420E+03
    -13.374  0.0000E+00  0.1420E+03
    -13.273  0.0000E+00  0.1420E+03
    -13.172  0.0000E+00  0.1420E+03
    -13.070  0.0000E+00  0.1420E+03
    -12.969  0.0000E+00  0.1420E+03
    -12.868  0.0000E+00  0.1420E+03
    -12.766  0.0000E+00  0.1420E+03
    -12.665  0.0000E+00  0.1420E+03
    -12.564  0.0000E+00  0.1420E+03
    -12.462  0.0000E+00  0.1420E+03
    -12.361  0.0000E+00  0.1420E+03
    -12.260  0.0000E+00  0.1420E+03
    -12.158  0.0000E+00  0.1420E+03
    -12.057  0.0000E+00  0.1420E+03
    -11.956  0.0000E+00  0.1420E+03
    -11.854  0.0000E+00  0.1420E+03
    -11.753  0.0000E+00  0.1420E+03
    -11.652  0.0000E+00  0.1420E+03
    -11.550  0.0000E+00  0.1420E+03
    -11.449  0.0000E+00  0.1420E+03
    -11.348  0.0000E+00  0.1420E+03
    -11.246  0.0000E+00  0.1420E+03
    -11.145  0.0000E+00  0.1420E+03
    -11.043  0.0000E+00  0.1420E+03
    -10.942  0.0000E+00  0.1420E+03
    -10.841  0.0000E+00  0.1420E+03
    -10.739  0.0000E+00  0.1420E+03
    -10.638  0.0000E+00  0.1420E+03
    -10.537  0.0000E+00  0.1420E+03
    -10.435  0.0000E+00  0.1420E+03
    -10.334  0.0000E+00  0.1420E+03
    -10.233  0.0000E+00  0.1420E+03
    -10.131  0.0000E+00  0.1420E+03
    -10.030  0.0000E+00  0.1420E+03
     -9.929  0.0000E+00  0.1420E+03
     -9.827  0.0000E+00  0.1420E+03
     -9.726  0.0000E+00  0.1420E+03
     -9.625  0.0000E+00  0.1420E+03
     -9.523  0.0000E+00  0.1420E+03
     -9.422  0.0000E+00  0.1420E+03
     -9.321  0.0000E+00  0.1420E+03
     -9.219  0.0000E+00  0.1420E+03
     -9.118  0.0000E+00  0.1420E+03
     -9.017  0.0000E+00  0.1420E+03
     -8.915  0.0000E+00  0.1420E+03
     -8.814  0.0000E+00  0.1420E+03
     -8.713  0.0000E+00  0.1420E+03
     -8.611  0.0000E+00  0.1420E+03
     -8.510  0.0000E+00  0.1420E+03
     -8.409  0.0000E+00  0.1420E+03
     -8.307  0.0000E+00  0.1420E+03
     -8.206  0.3422E+00  0.1420E+03
     -8.105  0.1369E-15  0.1422E+03
     -8.003  0.6678E+01  0.1429E+03
     -7.902  0.1297E+02  0.1443E+03
     -7.801  0.3689E+01  0.1449E+03
     -7.699  0.1925E+02  0.1472E+03
     -7.598  0.1473E+02  0.1490E+03
     -7.496  0.1704E+02  0.1507E+03
     -7.395  0.1720E+02  0.1530E+03
     -7.294  0.7063E+02  0.1602E+03
     -7.192  0.1024E+03  0.1741E+03
     -7.091  0.1563E+03  0.1928E+03
     -6.990  0.6670E+02  0.2043E+03
     -6.888  0.5065E+01  0.2050E+03
     -6.787  0.4903E+01  0.2057E+03
     -6.686  0.0000E+00  0.2058E+03
     -6.584  0.3585E+00  0.2058E+03
     -6.483  0.0000E+00  0.2060E+03
     -6.382  0.0000E+00  0.2060E+03
     -6.280  0.0000E+00  0.2060E+03
     -6.179  0.0000E+00  0.2060E+03
     -6.078  0.0000E+00  0.2060E+03
     -5.976  0.0000E+00  0.2060E+03
     -5.875  0.0000E+00  0.2060E+03
     -5.774  0.0000E+00  0.2060E+03
     -5.672  0.0000E+00  0.2060E+03
     -5.571  0.0000E+00  0.2060E+03
     -5.470  0.0000E+00  0.2060E+03
     -5.368  0.0000E+00  0.2060E+03
     -5.267  0.0000E+00  0.2060E+03
     -5.166  0.0000E+00  0.2060E+03
     -5.064  0.0000E+00  0.2060E+03
     -4.963  0.0000E+00  0.2060E+03
     -4.862  0.0000E+00  0.2060E+03
     -4.760  0.0000E+00  0.2060E+03
     -4.659  0.0000E+00  0.2060E+03
     -4.558  0.0000E+00  0.2060E+03
     -4.456  0.0000E+00  0.2060E+03
     -4.355  0.0000E+00  0.2060E+03
     -4.253  0.0000E+00  0.2060E+03
     -4.152  0.0000E+00  0.2060E+03
     -4.051  0.0000E+00  0.2060E+03
     -3.949  0.0000E+00  0.2060E+03
     -3.848  0.0000E+00  0.2060E+03
     -3.747  0.0000E+00  0.2060E+03
     -3.645  0.0000E+00  0.2060E+03
     -3.544  0.0000E+00  0.2060E+03
     -3.443  0.0000E+00  0.2060E+03
     -3.341  0.4615E+01  0.2065E+03
     -3.240  0.3984E+02  0.2108E+03
     -3.139  0.4116E+02  0.2162E+03
     -3.037  0.1398E+02  0.2182E+03
     -2.936  0.1232E+02  0.2197E+03
     -2.835  0.2467E+01  0.2200E+03
     -2.733  0.5870E+01  0.2206E+03
     -2.632  0.2399E+02  0.2232E+03
     -2.531  0.3758E+02  0.2276E+03
     -2.429  0.2655E+02  0.2312E+03
     -2.328  0.3522E+02  0.2351E+03
     -2.227  0.3434E+02  0.2395E+03
     -2.125  0.2292E+02  0.2421E+03
     -2.024  0.3067E+02  0.2464E+03
     -1.923  0.3318E+02  0.2511E+03
     -1.821  0.2855E+02  0.2546E+03
     -1.720  0.5126E+02  0.2607E+03
     -1.619  0.4936E+02  0.2663E+03
     -1.517  0.5963E+02  0.2743E+03
     -1.416  0.8526E+02  0.2846E+03
     -1.315  0.9491E+02  0.2969E+03
     -1.213  0.8263E+02  0.3084E+03
     -1.112  0.8750E+02  0.3191E+03
     -1.011  0.5183E+02  0.3270E+03
     -0.909  0.2206E+02  0.3300E+03
     -0.808  0.2724E+02  0.3335E+03
     -0.706  0.1149E+02  0.3352E+03
     -0.605  0.8817E+01  0.3364E+03
     -0.504  0.1180E+02  0.3379E+03
     -0.402  0.1276E+02  0.3395E+03
     -0.301  0.9724E+01  0.3407E+03
     -0.200  0.9345E+01  0.3419E+03
     -0.098  0.7363E-04  0.3420E+03
      0.003  0.9629E+01  0.3430E+03
      0.104  0.6781E+01  0.3437E+03
      0.206  0.0000E+00  0.3438E+03
      0.307  0.0000E+00  0.3438E+03
      0.408  0.1505E+01  0.3439E+03
      0.510  0.0000E+00  0.3440E+03
      0.611  0.0000E+00  0.3440E+03
      0.712  0.0000E+00  0.3440E+03
      0.814  0.0000E+00  0.3440E+03
      0.915  0.0000E+00  0.3440E+03
      1.016  0.0000E+00  0.3440E+03
      1.118  0.0000E+00  0.3440E+03
      1.219  0.0000E+00  0.3440E+03
      1.320  0.0000E+00  0.3440E+03
      1.422  0.0000E+00  0.3440E+03
      1.523  0.0000E+00  0.3440E+03
      1.624  0.0000E+00  0.3440E+03
      1.726  0.0000E+00  0.3440E+03
      1.827  0.0000E+00  0.3440E+03
      1.928  0.0000E+00  0.3440E+03
      2.030  0.0000E+00  0.3440E+03
      2.131  0.0000E+00  0.3440E+03
      2.232  0.0000E+00  0.3440E+03
      2.334  0.0000E+00  0.3440E+03
      2.435  0.0000E+00  0.3440E+03
      2.536  0.2136E+01  0.3442E+03
      2.638  0.5242E+01  0.3448E+03
      2.739  0.1216E+02  0.3462E+03
      2.841  0.1112E+00  0.3463E+03
      2.942  0.8195E+01  0.3473E+03
      3.043  0.1079E+02  0.3491E+03
      3.145  0.1232E+02  0.3507E+03
      3.246  0.1686E+02  0.3530E+03
      3.347  0.2091E+02  0.3554E+03
      3.449  0.1225E+02  0.3567E+03
      3.550  0.9884E+01  0.3578E+03
      3.651  0.0000E+00  0.3580E+03
      3.753  0.0000E+00  0.3580E+03
      3.854  0.0000E+00  0.3580E+03
      3.955  0.6847E-15  0.3580E+03
      4.057  0.8100E+01  0.3588E+03
      4.158  0.1887E+01  0.3597E+03
      4.259  0.5373E+01  0.3603E+03
      4.361  0.2730E+02  0.3633E+03
      4.462  0.1950E+02  0.3662E+03
      4.563  0.2555E+02  0.3693E+03
      4.665  0.2483E+02  0.3728E+03
      4.766  0.2376E+02  0.3757E+03
      4.867  0.2280E+02  0.3786E+03
      4.969  0.7400E+01  0.3802E+03
      5.070  0.0000E+00  0.3802E+03
      5.171  0.3476E+01  0.3806E+03
      5.273  0.2938E+01  0.3810E+03
      5.374  0.7401E+01  0.3820E+03
      5.475  0.7393E+01  0.3827E+03
      5.577  0.7312E+01  0.3835E+03
      5.678  0.1117E+02  0.3849E+03
      5.779  0.1645E+02  0.3869E+03
      5.881  0.9809E+01  0.3885E+03
      5.982  0.2959E+02  0.3917E+03
      6.084  0.1978E+02  0.3943E+03
      6.185  0.2986E+02  0.3983E+03
      6.286  0.3176E+02  0.4022E+03
      6.388  0.2725E+02  0.4060E+03
      6.489  0.2740E+02  0.4100E+03
      6.590  0.3048E+02  0.4136E+03
      6.692  0.9865E+01  0.4157E+03
      6.793  0.2467E+01  0.4160E+03
      6.894  0.0000E+00  0.4160E+03
      6.996  0.0000E+00  0.4160E+03
      7.097  0.0000E+00  0.4160E+03
      7.198  0.0000E+00  0.4160E+03
      7.300  0.0000E+00  0.4160E+03
      7.401  0.0000E+00  0.4160E+03
      7.502  0.0000E+00  0.4160E+03
      7.604  0.0000E+00  0.4160E+03
      7.705  0.0000E+00  0.4160E+03
      7.806  0.0000E+00  0.4160E+03
      7.908  0.0000E+00  0.4160E+03
      8.009  0.0000E+00  0.4160E+03
      8.110  0.0000E+00  0.4160E+03
      8.11037372    -22.29258149  301      0.45896332      1.00000000
    -22.293  0.0000E+00  0.0000E+00  0.0000E+00
    -22.191  0.0000E+00  0.0000E+00  0.0000E+00
    -22.090  0.0000E+00  0.0000E+00  0.0000E+00
    -21.989  0.0000E+00  0.0000E+00  0.0000E+00
    -21.887  0.0000E+00  0.0000E+00  0.0000E+00
    -21.786  0.0000E+00  0.0000E+00  0.0000E+00
    -21.685  0.0000E+00  0.0000E+00  0.0000E+00
    -21.583  0.0000E+00  0.0000E+00  0.0000E+00
    -21.482  0.0000E+00  0.0000E+00  0.0000E+00
    -21.380  0.0000E+00  0.0000E+00  0.0000E+00
    -21.279  0.0000E+00  0.0000E+00  0.0000E+00
    -21.178  0.0000E+00  0.0000E+00  0.0000E+00
    -21.076  0.0000E+00  0.0000E+00  0.0000E+00
    -20.975  0.0000E+00  0.0000E+00  0.0000E+00
    -20.874  0.2018E-04  0.4588E-08  0.7256E-09
    -20.772  0.1264E+02  0.7640E-05  0.3505E-05
    -20.671  0.1872E-02  0.6492E-07  0.9197E-08
    -20.570  0.0000E+00  0.0000E+00  0.0000E+00
    -20.468  0.0000E+00  0.0000E+00  0.0000E+00
    -20.367  0.0000E+00  0.0000E+00  0.0000E+00
    -20.266  0.0000E+00  0.0000E+00  0.0000E+00
    -20.164  0.0000E+00  0.0000E+00  0.0000E+00
    -20.063  0.0000E+00  0.0000E+00  0.0000E+00
    -19.962  0.0000E+00  0.0000E+00  0.0000E+00
    -19.860  0.0000E+00  0.0000E+00  0.0000E+00
    -19.759  0.0000E+00  0.0000E+00  0.0000E+00
    -19.658  0.0000E+00  0.0000E+00  0.0000E+00
    -19.556  0.0000E+00  0.0000E+00  0.0000E+00
    -19.455  0.0000E+00  0.0000E+00  0.0000E+00
    -19.354  0.0000E+00  0.0000E+00  0.0000E+00
    -19.252  0.0000E+00  0.0000E+00  0.0000E+00
    -19.151  0.0000E+00  0.0000E+00  0.0000E+00
    -19.050  0.0000E+00  0.0000E+00  0.0000E+00
    -18.948  0.0000E+00  0.0000E+00  0.0000E+00
    -18.847  0.0000E+00  0.0000E+00  0.0000E+00
    -18.746  0.0000E+00  0.0000E+00  0.0000E+00
    -18.644  0.0000E+00  0.0000E+00  0.0000E+00
    -18.543  0.0000E+00  0.0000E+00  0.0000E+00
    -18.442  0.0000E+00  0.0000E+00  0.0000E+00
    -18.340  0.0000E+00  0.0000E+00  0.0000E+00
    -18.239  0.0000E+00  0.0000E+00  0.0000E+00
    -18.138  0.0000E+00  0.0000E+00  0.0000E+00
    -18.036  0.0000E+00  0.0000E+00  0.0000E+00
    -17.935  0.0000E+00  0.0000E+00  0.0000E+00
    -17.833  0.0000E+00  0.0000E+00  0.0000E+00
    -17.732  0.0000E+00  0.0000E+00  0.0000E+00
    -17.631  0.0000E+00  0.0000E+00  0.0000E+00
    -17.529  0.0000E+00  0.0000E+00  0.0000E+00
    -17.428  0.0000E+00  0.0000E+00  0.0000E+00
    -17.327  0.0000E+00  0.0000E+00  0.0000E+00
    -17.225  0.0000E+00  0.0000E+00  0.0000E+00
    -17.124  0.0000E+00  0.0000E+00  0.0000E+00
    -17.023  0.0000E+00  0.0000E+00  0.0000E+00
    -16.921  0.0000E+00  0.0000E+00  0.0000E+00
    -16.820  0.0000E+00  0.0000E+00  0.0000E+00
    -16.719  0.7015E-05  0.3424E-05  0.4030E-06
    -16.617  0.3471E-04  0.2921E-04  0.6498E-05
    -16.516  0.2260E-04  0.1083E-04  0.1444E-05
    -16.415  0.4284E-04  0.3409E-04  0.7148E-05
    -16.313  0.5890E-04  0.6354E-04  0.9694E-05
    -16.212  0.2636E-04  0.1612E-04  0.2035E-05
    -16.111  0.0000E+00  0.0000E+00  0.0000E+00
    -16.009  0.0000E+00  0.0000E+00  0.0000E+00
    -15.908  0.0000E+00  0.0000E+00  0.0000E+00
    -15.807  0.0000E+00  0.0000E+00  0.0000E+00
    -15.705  0.0000E+00  0.0000E+00  0.0000E+00
    -15.604  0.0000E+00  0.0000E+00  0.0000E+00
    -15.503  0.0000E+00  0.0000E+00  0.0000E+00
    -15.401  0.0000E+00  0.0000E+00  0.0000E+00
    -15.300  0.0000E+00  0.0000E+00  0.0000E+00
    -15.199  0.0000E+00  0.0000E+00  0.0000E+00
    -15.097  0.0000E+00  0.0000E+00  0.0000E+00
    -14.996  0.0000E+00  0.0000E+00  0.0000E+00
    -14.895  0.0000E+00  0.0000E+00  0.0000E+00
    -14.793  0.0000E+00  0.0000E+00  0.0000E+00
    -14.692  0.0000E+00  0.0000E+00  0.0000E+00
    -14.590  0.0000E+00  0.0000E+00  0.0000E+00
    -14.489  0.1069E-02  0.5508E-03  0.1834E-04
    -14.388  0.3075E-03  0.1581E-03  0.7672E-05
    -14.286  0.1035E-02  0.2042E-02  0.9234E-04
    -14.185  0.1345E-02  0.2474E-02  0.1062E-03
    -14.084  0.3637E-03  0.2915E-02  0.1344E-03
    -13.982  0.1659E-02  0.3816E-02  0.3663E-03
    -13.881  0.1256E-02  0.3985E-02  0.4524E-03
    -13.780  0.1182E-02  0.2453E-02  0.3161E-03
    -13.678  0.4116E-03  0.7180E-03  0.5309E-04
    -13.577  0.0000E+00  0.0000E+00  0.0000E+00
    -13.476  0.0000E+00  0.0000E+00  0.0000E+00
    -13.374  0.0000E+00  0.0000E+00  0.0000E+00
    -13.273  0.0000E+00  0.0000E+00  0.0000E+00
    -13.172  0.0000E+00  0.0000E+00  0.0000E+00
    -13.070  0.0000E+00  0.0000E+00  0.0000E+00
    -12.969  0.0000E+00  0.0000E+00  0.0000E+00
    -12.868  0.0000E+00  0.0000E+00  0.0000E+00
    -12.766  0.0000E+00  0.0000E+00  0.0000E+00
    -12.665  0.0000E+00  0.0000E+00  0.0000E+00
    -12.564  0.0000E+00  0.0000E+00  0.0000E+00
    -12.462  0.0000E+00  0.0000E+00  0.0000E+00
    -12.361  0.0000E+00  0.0000E+00  0.0000E+00
    -12.260  0.0000E+00  0.0000E+00  0.0000E+00
    -12.158  0.0000E+00  0.0000E+00  0.0000E+00
    -12.057  0.0000E+00  0.0000E+00  0.0000E+00
    -11.956  0.0000E+00  0.0000E+00  0.0000E+00
    -11.854  0.0000E+00  0.0000E+00  0.0000E+00
    -11.753  0.0000E+00  0.0000E+00  0.0000E+00
    -11.652  0.0000E+00  0.0000E+00  0.0000E+00
    -11.550  0.0000E+00  0.0000E+00  0.0000E+00
    -11.449  0.0000E+00  0.0000E+00  0.0000E+00
    -11.348  0.0000E+00  0.0000E+00  0.0000E+00
    -11.246  0.0000E+00  0.0000E+00  0.0000E+00
    -11.145  0.0000E+00  0.0000E+00  0.0000E+00
    -11.043  0.0000E+00  0.0000E+00  0.0000E+00
    -10.942  0.0000E+00  0.0000E+00  0.0000E+00
    -10.841  0.0000E+00  0.0000E+00  0.0000E+00
    -10.739  0.0000E+00  0.0000E+00  0.0000E+00
    -10.638  0.0000E+00  0.0000E+00  0.0000E+00
    -10.537  0.0000E+00  0.0000E+00  0.0000E+00
    -10.435  0.0000E+00  0.0000E+00  0.0000E+00
    -10.334  0.0000E+00  0.0000E+00  0.0000E+00
    -10.233  0.0000E+00  0.0000E+00  0.0000E+00
    -10.131  0.0000E+00  0.0000E+00  0.0000E+00
    -10.030  0.0000E+00  0.0000E+00  0.0000E+00
     -9.929  0.0000E+00  0.0000E+00  0.0000E+00
     -9.827  0.0000E+00  0.0000E+00  0.0000E+00
     -9.726  0.0000E+00  0.0000E+00  0.0000E+00
     -9.625  0.0000E+00  0.0000E+00  0.0000E+00
     -9.523  0.0000E+00  0.0000E+00  0.0000E+00
     -9.422  0.0000E+00  0.0000E+00  0.0000E+00
     -9.321  0.0000E+00  0.0000E+00  0.0000E+00
     -9.219  0.0000E+00  0.0000E+00  0.0000E+00
     -9.118  0.0000E+00  0.0000E+00  0.0000E+00
     -9.017  0.0000E+00  0.0000E+00  0.0000E+00
     -8.915  0.0000E+00  0.0000E+00  0.0000E+00
     -8.814  0.0000E+00  0.0000E+00  0.0000E+00
     -8.713  0.0000E+00  0.0000E+00  0.0000E+00
     -8.611  0.0000E+00  0.0000E+00  0.0000E+00
     -8.510  0.0000E+00  0.0000E+00  0.0000E+00
     -8.409  0.0000E+00  0.0000E+00  0.0000E+00
     -8.307  0.0000E+00  0.0000E+00  0.0000E+00
     -8.206  0.6206E-07  0.2230E-04  0.1078E-05
     -8.105  0.1968E-22  0.1279E-19  0.4585E-21
     -8.003  0.1538E-05  0.1020E-02  0.2386E-04
     -7.902  0.1494E-05  0.6720E-02  0.2919E-04
     -7.801  0.7797E-06  0.2175E-02  0.6891E-05
     -7.699  0.4418E-05  0.2457E-01  0.4545E-04
     -7.598  0.5374E-05  0.2086E-01  0.2774E-04
     -7.496  0.1336E-04  0.5121E-01  0.5602E-04
     -7.395  0.2173E-04  0.1414E+00  0.3924E-04
     -7.294  0.1567E-04  0.2811E+00  0.3035E-04
     -7.192  0.2323E-04  0.8606E+01  0.5785E-04
     -7.091  0.5822E-04  0.1930E+02  0.6226E-04
     -6.990  0.1982E-04  0.4648E+00  0.3145E-04
     -6.888  0.1994E-04  0.2232E-01  0.1657E-04
     -6.787  0.2284E-04  0.2356E-01  0.1112E-04
     -6.686  0.0000E+00  0.0000E+00  0.0000E+00
     -6.584  0.1751E-05  0.8228E-03  0.4544E-06
     -6.483  0.0000E+00  0.0000E+00  0.0000E+00
     -6.382  0.0000E+00  0.0000E+00  0.0000E+00
     -6.280  0.0000E+00  0.0000E+00  0.0000E+00
     -6.179  0.0000E+00  0.0000E+00  0.0000E+00
     -6.078  0.0000E+00  0.0000E+00  0.0000E+00
     -5.976  0.0000E+00  0.0000E+00  0.0000E+00
     -5.875  0.0000E+00  0.0000E+00  0.0000E+00
     -5.774  0.0000E+00  0.0000E+00  0.0000E+00
     -5.672  0.0000E+00  0.0000E+00  0.0000E+00
     -5.571  0.0000E+00  0.0000E+00  0.0000E+00
     -5.470  0.0000E+00  0.0000E+00  0.0000E+00
     -5.368  0.0000E+00  0.0000E+00  0.0000E+00
     -5.267  0.0000E+00  0.0000E+00  0.0000E+00
     -5.166  0.0000E+00  0.0000E+00  0.0000E+00
     -5.064  0.0000E+00  0.0000E+00  0.0000E+00
     -4.963  0.0000E+00  0.0000E+00  0.0000E+00
     -4.862  0.0000E+00  0.0000E+00  0.0000E+00
     -4.760  0.0000E+00  0.0000E+00  0.0000E+00
     -4.659  0.0000E+00  0.0000E+00  0.0000E+00
     -4.558  0.0000E+00  0.0000E+00  0.0000E+00
     -4.456  0.0000E+00  0.0000E+00  0.0000E+00
     -4.355  0.0000E+00  0.0000E+00  0.0000E+00
     -4.253  0.0000E+00  0.0000E+00  0.0000E+00
     -4.152  0.0000E+00  0.0000E+00  0.0000E+00
     -4.051  0.0000E+00  0.0000E+00  0.0000E+00
     -3.949  0.0000E+00  0.0000E+00  0.0000E+00
     -3.848  0.0000E+00  0.0000E+00  0.0000E+00
     -3.747  0.0000E+00  0.0000E+00  0.0000E+00
     -3.645  0.0000E+00  0.0000E+00  0.0000E+00
     -3.544  0.0000E+00  0.0000E+00  0.0000E+00
     -3.443  0.0000E+00  0.0000E+00  0.0000E+00
     -3.341  0.4009E-06  0.4122E-02  0.4757E-04
     -3.240  0.8724E-04  0.2213E-01  0.1931E-02
     -3.139  0.1952E-03  0.1238E-01  0.2208E-02
     -3.037  0.1271E-03  0.8780E-02  0.4893E-03
     -2.936  0.2321E-04  0.8608E-02  0.4087E-03
     -2.835  0.2180E-05  0.8331E-03  0.1087E-03
     -2.733  0.1367E-04  0.2630E-02  0.1009E-03
     -2.632  0.9628E-03  0.2602E-01  0.1120E-02
     -2.531  0.2202E-02  0.2441E-01  0.1623E-02
     -2.429  0.2625E-02  0.2019E-01  0.1322E-02
     -2.328  0.3300E-02  0.1254E-01  0.2801E-02
     -2.227  0.5730E-02  0.1599E-01  0.2484E-02
     -2.125  0.8075E-02  0.1274E-01  0.3632E-02
     -2.024  0.1493E-01  0.1929E-01  0.2982E-02
     -1.923  0.3953E-02  0.5656E-01  0.2826E-02
     -1.821  0.1129E-02  0.8413E-01  0.5671E-02
     -1.720  0.2340E-02  0.1217E+00  0.8227E-02
     -1.619  0.3450E-02  0.8083E-01  0.9654E-02
     -1.517  0.2875E-02  0.5966E-01  0.1269E-01
     -1.416  0.5698E-02  0.6371E-01  0.1656E-01
     -1.315  0.3766E-02  0.6028E-01  0.1470E-01
     -1.213  0.3117E-02  0.6743E-01  0.1040E-01
     -1.112  0.1148E-02  0.6388E-01  0.1334E-01
     -1.011  0.7763E-03  0.2883E-01  0.4453E-02
     -0.909  0.6454E-03  0.4189E-02  0.1772E-02
     -0.808  0.1287E-02  0.2642E-01  0.4478E-02
     -0.706  0.3483E-03  0.7831E-02  0.2002E-02
     -0.605  0.1244E-03  0.1635E-02  0.3475E-03
     -0.504  0.6721E-04  0.1736E-02  0.1104E-02
     -0.402  0.6128E-04  0.2043E-02  0.6127E-03
     -0.301  0.3769E-04  0.5038E-03  0.5197E-03
     -0.200  0.4321E-04  0.1277E-02  0.4933E-03
     -0.098  0.1470E-09  0.5420E-08  0.2079E-08
      0.003  0.3246E-04  0.1131E-02  0.4041E-03
      0.104  0.2219E-04  0.3446E-03  0.4012E-03
      0.206  0.0000E+00  0.0000E+00  0.0000E+00
      0.307  0.0000E+00  0.0000E+00  0.0000E+00
      0.408  0.5934E-06  0.4288E-04  0.1117E-03
      0.510  0.0000E+00  0.0000E+00  0.0000E+00
      0.611  0.0000E+00  0.0000E+00  0.0000E+00
      0.712  0.0000E+00  0.0000E+00  0.0000E+00
      0.814  0.0000E+00  0.0000E+00  0.0000E+00
      0.915  0.0000E+00  0.0000E+00  0.0000E+00
      1.016  0.0000E+00  0.0000E+00  0.0000E+00
      1.118  0.0000E+00  0.0000E+00  0.0000E+00
      1.219  0.0000E+00  0.0000E+00  0.0000E+00
      1.320  0.0000E+00  0.0000E+00  0.0000E+00
      1.422  0.0000E+00  0.0000E+00  0.0000E+00
      1.523  0.0000E+00  0.0000E+00  0.0000E+00
      1.624  0.0000E+00  0.0000E+00  0.0000E+00
      1.726  0.0000E+00  0.0000E+00  0.0000E+00
      1.827  0.0000E+00  0.0000E+00  0.0000E+00
      1.928  0.0000E+00  0.0000E+00  0.0000E+00
      2.030  0.0000E+00  0.0000E+00  0.0000E+00
      2.131  0.0000E+00  0.0000E+00  0.0000E+00
      2.232  0.0000E+00  0.0000E+00  0.0000E+00
      2.334  0.0000E+00  0.0000E+00  0.0000E+00
      2.435  0.0000E+00  0.0000E+00  0.0000E+00
      2.536  0.5285E-04  0.7743E-04  0.2862E-03
      2.638  0.5470E-04  0.1481E-03  0.1158E-02
      2.739  0.2241E-03  0.8348E-03  0.2726E-02
      2.841  0.5400E-05  0.3656E-05  0.3866E-04
      2.942  0.2105E-03  0.4675E-03  0.2607E-02
      3.043  0.3308E-04  0.1280E-02  0.2742E-02
      3.145  0.1184E-03  0.1559E-02  0.1828E-02
      3.246  0.8153E-03  0.3446E-02  0.4095E-02
      3.347  0.5691E-03  0.3855E-02  0.3392E-02
      3.449  0.6657E-03  0.1440E-02  0.1562E-02
      3.550  0.5314E-03  0.1656E-02  0.1408E-02
      3.651  0.0000E+00  0.0000E+00  0.0000E+00
      3.753  0.0000E+00  0.0000E+00  0.0000E+00
      3.854  0.0000E+00  0.0000E+00  0.0000E+00
      3.955  0.1592E-21  0.1162E-18  0.1207E-18
      4.057  0.1051E-04  0.1153E-02  0.2143E-02
      4.158  0.1387E-06  0.2893E-03  0.2732E-03
      4.259  0.6300E-05  0.5078E-03  0.1403E-02
      4.361  0.4119E-03  0.1909E-02  0.1344E-01
      4.462  0.1223E-02  0.2342E-02  0.1073E-01
      4.563  0.6841E-03  0.4404E-02  0.1352E-01
      4.665  0.4211E-02  0.5722E-02  0.9911E-02
      4.766  0.2670E-02  0.3168E-02  0.5122E-02
      4.867  0.1795E-01  0.5962E-02  0.8236E-02
      4.969  0.3498E-02  0.1182E-02  0.2923E-02
      5.070  0.0000E+00  0.0000E+00  0.0000E+00
      5.171  0.2355E-02  0.3485E-03  0.2962E-02
      5.273  0.2164E-02  0.1271E-02  0.1531E-02
      5.374  0.1787E-01  0.1911E-02  0.8170E-02
      5.475  0.1220E-01  0.4375E-02  0.1372E-01
      5.577  0.1752E-01  0.4431E-02  0.1191E-01
      5.678  0.5389E-02  0.3902E-02  0.1037E-01
      5.779  0.7550E-02  0.6928E-02  0.1366E-01
      5.881  0.3897E-03  0.2422E-02  0.1832E-01
      5.982  0.1863E-01  0.9055E-02  0.6583E-01
      6.084  0.4473E-01  0.9020E-02  0.1017E+00
      6.185  0.3409E-01  0.1205E-01  0.1842E+00
      6.286  0.3607E-01  0.8556E-02  0.3084E+00
      6.388  0.2755E-01  0.1631E-01  0.3975E+00
      6.489  0.2845E-01  0.1567E-01  0.2858E+00
      6.590  0.2252E-01  0.1738E-01  0.4009E+00
      6.692  0.1897E-01  0.5909E-02  0.1330E+00
      6.793  0.4815E-03  0.2436E-02  0.2516E-01
      6.894  0.0000E+00  0.0000E+00  0.0000E+00
      6.996  0.0000E+00  0.0000E+00  0.0000E+00
      7.097  0.0000E+00  0.0000E+00  0.0000E+00
      7.198  0.0000E+00  0.0000E+00  0.0000E+00
      7.300  0.0000E+00  0.0000E+00  0.0000E+00
      7.401  0.0000E+00  0.0000E+00  0.0000E+00
      7.502  0.0000E+00  0.0000E+00  0.0000E+00
      7.604  0.0000E+00  0.0000E+00  0.0000E+00
      7.705  0.0000E+00  0.0000E+00  0.0000E+00
      7.806  0.0000E+00  0.0000E+00  0.0000E+00
      7.908  0.0000E+00  0.0000E+00  0.0000E+00
      8.009  0.0000E+00  0.0000E+00  0.0000E+00
      8.110  0.0000E+00  0.0000E+00  0.0000E+00
      8.11037372    -22.29258149  301      0.45896332      1.00000000
    -22.293  0.0000E+00  0.0000E+00  0.0000E+00
    -22.191  0.0000E+00  0.0000E+00  0.0000E+00
    -22.090  0.0000E+00  0.0000E+00  0.0000E+00
    -21.989  0.0000E+00  0.0000E+00  0.0000E+00
    -21.887  0.0000E+00  0.0000E+00  0.0000E+00
    -21.786  0.0000E+00  0.0000E+00  0.0000E+00
    -21.685  0.0000E+00  0.0000E+00  0.0000E+00
    -21.583  0.0000E+00  0.0000E+00  0.0000E+00
    -21.482  0.0000E+00  0.0000E+00  0.0000E+00
    -21.380  0.0000E+00  0.0000E+00  0.0000E+00
    -21.279  0.0000E+00  0.0000E+00  0.0000E+00
    -21.178  0.0000E+00  0.0000E+00  0.0000E+00
    -21.076  0.0000E+00  0.0000E+00  0.0000E+00
    -20.975  0.0000E+00  0.0000E+00  0.0000E+00
    -20.874  0.1751E+02  0.3484E-03  0.1600E-04
    -20.772  0.1005E-05  0.1127E-08  0.9560E-10
    -20.671  0.1453E-03  0.7747E-07  0.9988E-08
    -20.570  0.0000E+00  0.0000E+00  0.0000E+00
    -20.468  0.0000E+00  0.0000E+00  0.0000E+00
    -20.367  0.0000E+00  0.0000E+00  0.0000E+00
    -20.266  0.0000E+00  0.0000E+00  0.0000E+00
    -20.164  0.0000E+00  0.0000E+00  0.0000E+00
    -20.063  0.0000E+00  0.0000E+00  0.0000E+00
    -19.962  0.0000E+00  0.0000E+00  0.0000E+00
    -19.860  0.0000E+00  0.0000E+00  0.0000E+00
    -19.759  0.0000E+00  0.0000E+00  0.0000E+00
    -19.658  0.0000E+00  0.0000E+00  0.0000E+00
    -19.556  0.0000E+00  0.0000E+00  0.0000E+00
    -19.455  0.0000E+00  0.0000E+00  0.0000E+00
    -19.354  0.0000E+00  0.0000E+00  0.0000E+00
    -19.252  0.0000E+00  0.0000E+00  0.0000E+00
    -19.151  0.0000E+00  0.0000E+00  0.0000E+00
    -19.050  0.0000E+00  0.0000E+00  0.0000E+00
    -18.948  0.0000E+00  0.0000E+00  0.0000E+00
    -18.847  0.0000E+00  0.0000E+00  0.0000E+00
    -18.746  0.0000E+00  0.0000E+00  0.0000E+00
    -18.644  0.0000E+00  0.0000E+00  0.0000E+00
    -18.543  0.0000E+00  0.0000E+00  0.0000E+00
    -18.442  0.0000E+00  0.0000E+00  0.0000E+00
    -18.340  0.0000E+00  0.0000E+00  0.0000E+00
    -18.239  0.0000E+00  0.0000E+00  0.0000E+00
    -18.138  0.0000E+00  0.0000E+00  0.0000E+00
    -18.036  0.0000E+00  0.0000E+00  0.0000E+00
    -17.935  0.0000E+00  0.0000E+00  0.0000E+00
    -17.833  0.0000E+00  0.0000E+00  0.0000E+00
    -17.732  0.0000E+00  0.0000E+00  0.0000E+00
    -17.631  0.0000E+00  0.0000E+00  0.0000E+00
    -17.529  0.0000E+00  0.0000E+00  0.0000E+00
    -17.428  0.0000E+00  0.0000E+00  0.0000E+00
    -17.327  0.0000E+00  0.0000E+00  0.0000E+00
    -17.225  0.0000E+00  0.0000E+00  0.0000E+00
    -17.124  0.0000E+00  0.0000E+00  0.0000E+00
    -17.023  0.0000E+00  0.0000E+00  0.0000E+00
    -16.921  0.0000E+00  0.0000E+00  0.0000E+00
    -16.820  0.0000E+00  0.0000E+00  0.0000E+00
    -16.719  0.7481E-06  0.3723E-06  0.6750E-07
    -16.617  0.1295E-04  0.1425E-04  0.3252E-05
    -16.516  0.1132E-04  0.6318E-05  0.8572E-06
    -16.415  0.4502E-04  0.3593E-04  0.7365E-05
    -16.313  0.2683E-04  0.3899E-04  0.5806E-05
    -16.212  0.5612E-04  0.3394E-04  0.3690E-05
    -16.111  0.0000E+00  0.0000E+00  0.0000E+00
    -16.009  0.0000E+00  0.0000E+00  0.0000E+00
    -15.908  0.0000E+00  0.0000E+00  0.0000E+00
    -15.807  0.0000E+00  0.0000E+00  0.0000E+00
    -15.705  0.0000E+00  0.0000E+00  0.0000E+00
    -15.604  0.0000E+00  0.0000E+00  0.0000E+00
    -15.503  0.0000E+00  0.0000E+00  0.0000E+00
    -15.401  0.0000E+00  0.0000E+00  0.0000E+00
    -15.300  0.0000E+00  0.0000E+00  0.0000E+00
    -15.199  0.0000E+00  0.0000E+00  0.0000E+00
    -15.097  0.0000E+00  0.0000E+00  0.0000E+00
    -14.996  0.0000E+00  0.0000E+00  0.0000E+00
    -14.895  0.0000E+00  0.0000E+00  0.0000E+00
    -14.793  0.0000E+00  0.0000E+00  0.0000E+00
    -14.692  0.0000E+00  0.0000E+00  0.0000E+00
    -14.590  0.0000E+00  0.0000E+00  0.0000E+00
    -14.489  0.5146E-03  0.2385E-03  0.5825E-05
    -14.388  0.1129E-03  0.9534E-04  0.2707E-05
    -14.286  0.8348E-03  0.5380E-03  0.1060E-04
    -14.185  0.2077E-02  0.2541E-02  0.8583E-04
    -14.084  0.9233E-03  0.4367E-02  0.1955E-03
    -13.982  0.1990E-02  0.5409E-02  0.3931E-03
    -13.881  0.1306E-02  0.4317E-02  0.4105E-03
    -13.780  0.4135E-03  0.1975E-02  0.3552E-03
    -13.678  0.1234E-04  0.2200E-03  0.8255E-04
    -13.577  0.0000E+00  0.0000E+00  0.0000E+00
    -13.476  0.0000E+00  0.0000E+00  0.0000E+00
    -13.374  0.0000E+00  0.0000E+00  0.0000E+00
    -13.273  0.0000E+00  0.0000E+00  0.0000E+00