 vasp.5.4.4.18Apr17-6-g9f103f2a35 (build Jun 22 2020 09:27:21) complex           
 executed on tx2_gcc-7.3_libsci-1 date 2021.10.12  03:11:44
 running on   64 total cores
 distrk:  each k-point on   64 cores,    1 groups
 distr:  one band on NCORES_PER_BAND=   8 cores,    8 groups


--------------------------------------------------------------------------------------------------------


 INCAR:
 POTCAR:    PAW_PBE Cs_sv 08Apr2002               
 POTCAR:    PAW_PBE Pb_d 06Sep2000                
 POTCAR:    PAW_PBE Br 06Sep2000                  
 POTCAR:    PAW_PBE Cs_sv 08Apr2002               
   SHA256 =  c1463496f0f6037ed62c6012a8013a89ee9ad6ffb38599dcd6c079e7ed31779b Cs
   COPYR  = (c) Copyright 08Apr2002 Georg Kresse                                
   COPYR  = This file is part of the software VASP. Any use, copying, and all ot
   COPYR  = If you do not have a valid VASP license, you may not use, copy or di
   VRHFIN =Cs: 5s5p6s                                                           
   LEXCH  = PE                                                                  
   EATOM  =   555.6835 eV,   40.8416 Ry                                         
                                                                                
   TITEL  = PAW_PBE Cs_sv 08Apr2002                                             
   LULTRA =        F    use ultrasoft PP ?                                      
   IUNSCR =        1    unscreen: 0-lin 1-nonlin 2-no                           
   RPACOR =    2.200    partial core radius                                     
   POMASS =  132.900; ZVAL   =    9.000    mass and valenz                      
   RCORE  =    2.500    outmost cutoff radius                                   
   RWIGS  =    2.500; RWIGS  =    1.323    wigner-seitz radius (au A)           
   ENMAX  =  220.318; ENMIN  =  165.238 eV                                      
   RCLOC  =    2.207    cutoff for local pot                                    
   LCOR   =        T    correct aug charges                                     
   LPAW   =        T    paw PP                                                  
   EAUG   =  407.933                                                            
   DEXC   =    0.000                                                            
   RMAX   =    2.554    core radius for proj-oper                               
   RAUG   =    1.300    factor for augmentation sphere                          
   RDEP   =    2.590    radius for radial grids                                 
   RDEPT  =    2.117    core radius for aug-charge                              
                                                                                
   Atomic configuration                                                         
   13 entries                                                                   
     n  l   j            E        occ.                                          
     1  0  0.50    -35790.1377   2.0000                                         
     2  0  0.50     -5613.6201   2.0000                                         
     2  1  1.50     -5035.0101   6.0000                                         
     3  0  0.50     -1167.0767   2.0000                                         
     3  1  1.50      -980.9754   6.0000                                         
     3  2  2.50      -708.0703  10.0000                                         
     4  0  0.50      -220.2386   2.0000                                         
     4  1  1.50      -160.7596   6.0000                                         
     4  2  2.50       -74.2354  10.0000                                         
     5  0  0.50       -26.7287   2.0000                                         
     6  0  0.50        -2.0862   1.0000                                         
     5  1  1.50       -13.5159   6.0000                                         
     5  2  2.50        -0.4136   0.0000                                         
   Description                                                                  
     l       E           TYP  RCUT    TYP  RCUT                                 
     0    -26.7287425     23  1.900                                             
     0     -2.0862306     23  1.900                                             
     1    -13.5158719     23  2.500                                             
     1     -2.7211652     23  2.500                                             
     2     -0.4136171     23  2.500                                             
  local pseudopotential read in
  partial core-charges read in
  partial kinetic energy density read in
  atomic valenz-charges read in
  non local Contribution for L=           0  read in
    real space projection operators read in
  non local Contribution for L=           0  read in
    real space projection operators read in
  non local Contribution for L=           1  read in
    real space projection operators read in
  non local Contribution for L=           1  read in
    real space projection operators read in
  non local Contribution for L=           2  read in
    real space projection operators read in
    PAW grid and wavefunctions read in

   number of l-projection  operators is LMAX  =           5
   number of lm-projection operators is LMMAX =          13

 POTCAR:    PAW_PBE Pb_d 06Sep2000                
   SHA256 =  fb885b08f0fba73a15f6a6b0e39bd200c13ec96ef97cf3ecd8e63bade5137abd Pb
   COPYR  = (c) Copyright 06Sep2000 Georg Kresse                                
   COPYR  = This file is part of the software VASP. Any use, copying, and all ot
   COPYR  = If you do not have a valid VASP license, you may not use, copy or di
   VRHFIN =Pb:                                                                  
   LEXCH  = PE                                                                  
   EATOM  =  1661.6185 eV,  122.1255 Ry                                         
                                                                                
   TITEL  = PAW_PBE Pb_d 06Sep2000                                              
   LULTRA =        F    use ultrasoft PP ?                                      
   IUNSCR =        1    unscreen: 0-lin 1-nonlin 2-no                           
   RPACOR =    2.200    partial core radius                                     
   POMASS =  207.200; ZVAL   =   14.000    mass and valenz                      
   RCORE  =    2.500    outmost cutoff radius                                   
   RWIGS  =    3.260; RWIGS  =    1.725    wigner-seitz radius (au A)           
   ENMAX  =  237.835; ENMIN  =  178.376 eV                                      
   ICORE  =        3    local potential                                         
   LCOR   =        T    correct aug charges                                     
   LPAW   =        T    paw PP                                                  
   EAUG   =  391.914                                                            
   DEXC   =    0.000                                                            
   RMAX   =    2.565    core radius for proj-oper                               
   RAUG   =    1.300    factor for augmentation sphere                          
   RDEP   =    2.643    radius for radial grids                                 
   RDEPT  =    2.092    core radius for aug-charge                              
                                                                                
   Atomic configuration                                                         
   16 entries                                                                   
     n  l   j            E        occ.                                          
     1  0  0.50    -88091.8466   2.0000                                         
     2  0  0.50    -15753.4197   2.0000                                         
     2  1  1.50    -13508.1797   6.0000                                         
     3  0  0.50     -3781.7194   2.0000                                         
     3  1  1.50     -3138.2529   6.0000                                         
     3  2  2.50     -2483.2977  10.0000                                         
     4  0  0.50      -856.2895   2.0000                                         
     4  1  1.50      -645.4942   6.0000                                         
     4  2  2.50      -401.8768  10.0000                                         
     4  3  3.50      -132.9059  14.0000                                         
     5  0  0.50      -144.0950   2.0000                                         
     5  1  1.50       -85.7879   6.0000                                         
     5  2  2.50       -21.1769  10.0000                                         
     6  0  0.50       -12.0372   2.0000                                         
     6  1  1.50        -3.4971   2.0000                                         
     5  3  2.50        -2.7212   0.0000                                         
   Description                                                                  
     l       E           TYP  RCUT    TYP  RCUT                                 
     2    -21.1768523     23  2.500                                             
     2      1.3605826     23  2.500                                             
     0    -12.0371562     23  2.500                                             
     0     13.6058260     23  2.500                                             
     1     -3.4971339     23  2.500                                             
     1     13.6058260     23  2.500                                             
     3     -1.3605826      7  2.500                                             
  local pseudopotential read in
  partial core-charges read in
  partial kinetic energy density read in
  atomic valenz-charges read in
  non local Contribution for L=           2  read in
    real space projection operators read in
  non local Contribution for L=           2  read in
    real space projection operators read in
  non local Contribution for L=           0  read in
    real space projection operators read in
  non local Contribution for L=           0  read in
    real space projection operators read in
  non local Contribution for L=           1  read in
    real space projection operators read in
  non local Contribution for L=           1  read in
    real space projection operators read in
    PAW grid and wavefunctions read in

   number of l-projection  operators is LMAX  =           6
   number of lm-projection operators is LMMAX =          18

 POTCAR:    PAW_PBE Br 06Sep2000                  
   SHA256 =  96a73d2954943bbee26f4990d676cc6c3bf44b8dd2c75cd4b3b825d8403f0103 Br
   COPYR  = (c) Copyright 06Sep2000 Georg Kresse                                
   COPYR  = This file is part of the software VASP. Any use, copying, and all ot
   COPYR  = If you do not have a valid VASP license, you may not use, copy or di
   VRHFIN =Br: s2p5                                                             
   LEXCH  = PE                                                                  
   EATOM  =   368.4488 eV,   27.0802 Ry                                         
                                                                                
   TITEL  = PAW_PBE Br 06Sep2000                                                
   LULTRA =        F    use ultrasoft PP ?                                      
   IUNSCR =        1    unscreen: 0-lin 1-nonlin 2-no                           
   RPACOR =    1.900    partial core radius                                     
   POMASS =   79.904; ZVAL   =    7.000    mass and valenz                      
   RCORE  =    2.100    outmost cutoff radius                                   
   RWIGS  =    2.200; RWIGS  =    1.164    wigner-seitz radius (au A)           
   ENMAX  =  216.285; ENMIN  =  162.214 eV                                      
   ICORE  =        3    local potential                                         
   LCOR   =        T    correct aug charges                                     
   LPAW   =        T    paw PP                                                  
   EAUG   =  503.852                                                            
   DEXC   =    0.000                                                            
   RMAX   =    2.139    core radius for proj-oper                               
   RAUG   =    1.300    factor for augmentation sphere                          
   RDEP   =    2.186    radius for radial grids                                 
   RDEPT  =    1.890    core radius for aug-charge                              
                                                                                
   Atomic configuration                                                         
   10 entries                                                                   
     n  l   j            E        occ.                                          
     1  0  0.50    -13316.2796   2.0000                                         
     2  0  0.50     -1732.8239   2.0000                                         
     2  1  1.50     -1528.2193   6.0000                                         
     3  0  0.50      -238.0460   2.0000                                         
     3  1  1.50      -173.4609   6.0000                                         
     3  2  2.50       -66.7132  10.0000                                         
     4  0  0.50       -20.1334   2.0000                                         
     4  1  0.50        -7.8591   5.0000                                         
     4  2  2.50        -8.1635   0.0000                                         
     4  3  2.50        -8.1635   0.0000                                         
   Description                                                                  
     l       E           TYP  RCUT    TYP  RCUT                                 
     0    -20.1333652     23  2.100                                             
     0    -21.4939478     23  2.100                                             
     1     -7.8591052     23  2.100                                             
     1     -3.1608434     23  2.100                                             
     2     -8.1634956     23  2.100                                             
     3     -1.3605826      7  2.100                                             
  local pseudopotential read in
  partial core-charges read in
  partial kinetic energy density read in
  atomic valenz-charges read in
  non local Contribution for L=           0  read in
    real space projection operators read in
  non local Contribution for L=           0  read in
    real space projection operators read in
  non local Contribution for L=           1  read in
    real space projection operators read in
  non local Contribution for L=           1  read in
    real space projection operators read in
  non local Contribution for L=           2  read in
    real space projection operators read in
    PAW grid and wavefunctions read in

   number of l-projection  operators is LMAX  =           5
   number of lm-projection operators is LMMAX =          13

 Optimization of the real space projectors (new method)

 maximal supplied QI-value         = 15.12
 optimisation between [QCUT,QGAM] = [  8.77, 17.69] = [ 21.53, 87.61] Ry 
 Optimized for a Real-space Cutoff    1.85 Angstroem

   l    n(q)    QCUT    max X(q) W(low)/X(q) W(high)/X(q)  e(spline) 
   0     10     8.768    25.322    0.81E-04    0.51E-04    0.48E-06
   0     10     8.768    99.187    0.78E-04    0.50E-04    0.47E-06
   1      9     8.768    11.761    0.21E-03    0.20E-03    0.37E-06
   1      9     8.768     8.275    0.24E-03    0.22E-03    0.41E-06
   2      9     8.768     3.829    0.23E-04    0.15E-03    0.18E-06
 Optimization of the real space projectors (new method)

 maximal supplied QI-value         = 15.12
 optimisation between [QCUT,QGAM] = [  8.77, 17.69] = [ 21.53, 87.61] Ry 
 Optimized for a Real-space Cutoff    1.59 Angstroem

   l    n(q)    QCUT    max X(q) W(low)/X(q) W(high)/X(q)  e(spline) 
   2      7     8.768     3.846    0.48E-04    0.11E-03    0.11E-06
   2      7     8.768     8.593    0.20E-03    0.22E-04    0.24E-06
   0      8     8.768    20.082    0.68E-04    0.88E-04    0.41E-07
   0      8     8.768     8.597    0.89E-04    0.13E-03    0.59E-07
   1      8     8.768    33.223    0.15E-03    0.53E-04    0.87E-07
   1      8     8.768    15.899    0.14E-03    0.44E-04    0.78E-07
 Optimization of the real space projectors (new method)

 maximal supplied QI-value         = 17.95
 optimisation between [QCUT,QGAM] = [  8.80, 17.59] = [ 21.67, 86.68] Ry 
 Optimized for a Real-space Cutoff    1.59 Angstroem

   l    n(q)    QCUT    max X(q) W(low)/X(q) W(high)/X(q)  e(spline) 
   0      8     8.797   175.082    0.82E-04    0.14E-03    0.89E-07
   0      8     8.797   174.004    0.79E-04    0.14E-03    0.86E-07
   1      8     8.797    54.315    0.16E-03    0.14E-04    0.30E-06
   1      8     8.797    42.441    0.16E-03    0.14E-04    0.30E-06
   2      7     8.797     3.596    0.92E-04    0.15E-03    0.85E-07
  PAW_PBE Cs_sv 08Apr2002               :
 energy of atom  1       EATOM= -555.6835
 kinetic energy error for atom=    0.0069 (will be added to EATOM!!)
  PAW_PBE Pb_d 06Sep2000                :
 energy of atom  2       EATOM=-1661.6185
 kinetic energy error for atom=    0.0498 (will be added to EATOM!!)
  PAW_PBE Br 06Sep2000                  :
 energy of atom  3       EATOM= -368.4488
 kinetic energy error for atom=    0.0072 (will be added to EATOM!!)


 POSCAR: Cs8 Pb8 Br23                            
  positions in direct lattice
  No initial velocities read in

 METAGGA = SCAN     LMAXTAU =  6    LMIXTAU =  F

 exchange correlation table for  LEXCH =        8
   RHO(1)=    0.500       N(1)  =     2000
   RHO(2)=  100.500       N(2)  =     4000

 VTST: version 3.2, (02/03/18)

 CHAIN: initializing optimizer
 
 OPT: Using VASP Conjugate-Gradient optimizer
 CHAIN: Read ICHAIN            0

 POSCAR: Cs8 Pb8 Br23                            
  positions in direct lattice
  No initial velocities read in



--------------------------------------------------------------------------------------------------------


 ion  position               nearest neighbor table
   1  0.271  0.248  0.207-
   2  0.775  0.247  0.706-
   3  0.714  0.752  0.265-
   4  0.212  0.747  0.774-
   5  0.259  0.237  0.732-
   6  0.801  0.250  0.228-
   7  0.750  0.764  0.809-
   8  0.216  0.754  0.280-
   9  0.003  0.003  0.001-  29 2.96  19 2.97  21 2.97  32 2.98  30 3.01  35 3.02
  10  0.500  0.999  0.506-  20 2.91  31 2.97  34 2.97  28 3.00  33 3.01
  11  0.504  0.003  0.005-  30 2.98  32 2.99  17 2.99  28 3.00  22 3.01  34 3.06
  12  0.999  0.997  0.497-  35 2.96  18 2.97  23 2.98  33 3.00  29 3.01  31 3.05
  13  0.499  0.505  0.003-  26 2.94  17 2.95  24 2.97  22 2.97  36 2.99
  14  0.998  0.500  0.497-  18 2.97  23 2.97  37 2.99  27 2.99  38 3.02  25 3.07
  15  0.001  0.499  0.997-  19 2.96  21 2.98  38 2.99  36 3.01  27 3.01  24 3.04
  16  0.494  0.491  0.490-  39 2.46  20 2.95  25 2.95  26 2.96  37 3.01
  17  0.478  0.752  0.964-  13 2.95  11 2.99
  18  0.966  0.749  0.461-  14 2.97  12 2.97
  19  0.969  0.251  0.964-  15 2.96   9 2.97
  20  0.456  0.242  0.488-  10 2.91  16 2.95
  21  0.027  0.751  0.022-   9 2.97  15 2.98
  22  0.532  0.256  0.041-  13 2.97  11 3.01
  23  0.022  0.249  0.522-  14 2.97  12 2.98
  24  0.251  0.467  0.946-  13 2.97  15 3.04
  25  0.740  0.465  0.447-  16 2.95  14 3.07
  26  0.449  0.544  0.244-  13 2.94  16 2.96
  27  0.946  0.530  0.744-  14 2.99  15 3.01
  28  0.554  0.032  0.758-  11 3.00  10 3.00
  29  0.055  0.035  0.250-   9 2.96  12 3.01
  30  0.755  0.974  0.056-  11 2.98   9 3.01
  31  0.255  0.956  0.548-  10 2.97  12 3.05
  32  0.251  0.029  0.957-   9 2.98  11 2.99
  33  0.746  0.031  0.450-  12 3.00  10 3.01
  34  0.453  0.959  0.256-  10 2.97  11 3.06
  35  0.960  0.978  0.745-  12 2.96   9 3.02
  36  0.752  0.533  0.046-  13 2.99  15 3.01
  37  0.250  0.531  0.548-  14 2.99  16 3.01
  38  0.053  0.468  0.249-  15 2.99  14 3.02
  39  0.539  0.620  0.652-  16 2.46


IMPORTANT INFORMATION: All symmetrisations will be switched off!
NOSYMM: (Re-)initialisation of all symmetry stuff for point group C_1.



 KPOINTS: 1x1x1                                   

Automatic generation of k-mesh.
Space group operators:
 irot       det(A)        alpha          n_x          n_y          n_z        tau_x        tau_y        tau_z
    1     1.000000     0.000001     1.000000     0.000000     0.000000     0.000000     0.000000     0.000000
 
 Subroutine IBZKPT returns following result:
 ===========================================
 
 Found      8 irreducible k-points:
 
 Following reciprocal coordinates:
            Coordinates               Weight
  0.000000  0.000000  0.000000      1.000000
  0.500000  0.000000  0.000000      1.000000
  0.000000  0.500000  0.000000      1.000000
  0.500000  0.500000  0.000000      1.000000
  0.000000  0.000000  0.500000      1.000000
  0.500000  0.000000  0.500000      1.000000
  0.000000  0.500000  0.500000      1.000000
  0.500000  0.500000  0.500000      1.000000
 
 Following cartesian coordinates:
            Coordinates               Weight
 -0.000000  0.000000  0.000000      1.000000
  0.029563  0.000000  0.031093      1.000000
 -0.000000  0.042626  0.000000      1.000000
  0.029563  0.042626  0.031093      1.000000
 -0.029563  0.000000  0.031093      1.000000
  0.000000  0.000000  0.062187      1.000000
 -0.029563  0.042626  0.031093      1.000000
  0.000000  0.042626  0.062187      1.000000
 


--------------------------------------------------------------------------------------------------------




 Dimension of arrays:
   k-points           NKPTS =      8   k-points in BZ     NKDIM =      8   number of bands    NBANDS=    208
   number of dos      NEDOS =    301   number of ions     NIONS =     39
   non local maximal  LDIM  =      6   non local SUM 2l+1 LMDIM =     18
   total plane-waves  NPLWV = 343000
   max r-space proj   IRMAX =   5734   max aug-charges    IRDMAX=  91523
   dimension x,y,z NGX =    70 NGY =   70 NGZ =   70
   dimension x,y,z NGXF=   140 NGYF=  140 NGZF=  140
   support grid    NGXF=   280 NGYF=  280 NGZF=  280
   ions per type =               8   8  23
   NGX,Y,Z   is equivalent  to a cutoff of   9.97,  9.92,  9.97 a.u.
   NGXF,Y,Z  is equivalent  to a cutoff of  19.95, 19.84, 19.95 a.u.

 SYSTEM =  CsPbBr3 cubic bulk                      
 POSCAR =  Cs8 Pb8 Br23                            

 Startparameter for this run:
   NWRITE =      2    write-flag & timer
   PREC   = accura    normal or accurate (medium, high low for compatibility)
   ISTART =      0    job   : 0-new  1-cont  2-samecut
   ICHARG =      2    charge: 1-file 2-atom 10-const
   ISPIN  =      1    spin polarized calculation?
   LNONCOLLINEAR =      F non collinear calculations
   LSORBIT =      F    spin-orbit coupling
   INIWAV =      1    electr: 0-lowe 1-rand  2-diag
   LASPH  =      T    aspherical Exc in radial PAW
   METAGGA=      F    non-selfconsistent MetaGGA calc.

 Electronic Relaxation 1
   ENCUT  =  300.0 eV  22.05 Ry    4.70 a.u.  16.48 16.57 16.48*2*pi/ulx,y,z
   ENINI  =  300.0     initial cutoff
   ENAUG  =  503.9 eV  augmentation charge cutoff
   NELM   =    200;   NELMIN=  2; NELMDL= -5     # of ELM steps 
   EDIFF  = 0.1E-05   stopping-criterion for ELM
   LREAL  =      T    real-space projection
   NLSPLINE    = F    spline interpolate recip. space projectors
   LCOMPAT=      F    compatible to vasp.4.4
   GGA_COMPAT  = T    GGA compatible to vasp.4.4-vasp.4.6
   LMAXPAW     = -100 max onsite density
   LMAXMIX     =    2 max onsite mixed and CHGCAR
   VOSKOWN=      0    Vosko Wilk Nusair interpolation
   ROPT   =   -0.00025  -0.00025  -0.00025
 Ionic relaxation
   EDIFFG = -.1E-01   stopping-criterion for IOM
   NSW    =      0    number of steps for IOM
   NBLOCK =      1;   KBLOCK =      1    inner block; outer block 
   IBRION =     -1    ionic relax: 0-MD 1-quasi-New 2-CG
   NFREE  =      1    steps in history (QN), initial steepest desc. (CG)
   ISIF   =      2    stress and relaxation
   IWAVPR =     10    prediction:  0-non 1-charg 2-wave 3-comb
   ISYM   =      0    0-nonsym 1-usesym 2-fastsym
   LCORR  =      T    Harris-Foulkes like correction to forces

   POTIM  = 0.5000    time-step for ionic-motion
   TEIN   =    0.0    initial temperature
   TEBEG  =    0.0;   TEEND  =   0.0 temperature during run
   SMASS  =  -3.00    Nose mass-parameter (am)
   estimated Nose-frequenzy (Omega)   =  0.10E-29 period in steps =****** mass=  -0.311E-26a.u.
   SCALEE = 1.0000    scale energy and forces
   NPACO  =    256;   APACO  = 16.0  distance and # of slots for P.C.
   PSTRESS=    0.0 pullay stress

  Mass of Ions in am
   POMASS = 132.90207.20 79.90
  Ionic Valenz
   ZVAL   =   9.00 14.00  7.00
  Atomic Wigner-Seitz radii
   RWIGS  =  -1.00 -1.00 -1.00
  virtual crystal weights 
   VCA    =   1.00  1.00  1.00
   NELECT =     344.0000    total number of electrons
   NUPDOWN=       0.0000    fix difference up-down

 DOS related values:
   EMIN   =  10.00;   EMAX   =-10.00  energy-range for DOS
   EFERMI =   0.00
   ISMEAR =     0;   SIGMA  =   0.01  broadening in eV -4-tet -1-fermi 0-gaus

 Electronic relaxation 2 (details)
   IALGO  =     38    algorithm
   LDIAG  =      T    sub-space diagonalisation (order eigenvalues)
   LSUBROT=      F    optimize rotation matrix (better conditioning)
   TURBO    =      0    0=normal 1=particle mesh
   IRESTART =      0    0=no restart 2=restart with 2 vectors
   NREBOOT  =      0    no. of reboots
   NMIN     =      0    reboot dimension
   EREF     =   0.00    reference energy to select bands
   IMIX   =      4    mixing-type and parameters
     AMIX     =   0.40;   BMIX     =  1.00
     AMIX_MAG =   1.60;   BMIX_MAG =  1.00
     AMIN     =   0.10
     WC   =   100.;   INIMIX=   1;  MIXPRE=   1;  MAXMIX= -45

 Intra band minimization:
   WEIMIN = 0.0000     energy-eigenvalue tresh-hold
   EBREAK =  0.12E-08  absolut break condition
   DEPER  =   0.30     relativ break condition  

   TIME   =   0.40     timestep for ELM

  volume/ion in A,a.u.               =      40.90       276.00
  Fermi-wavevector in a.u.,A,eV,Ry     =   0.981747  1.855232 13.113654  0.963826
  Thomas-Fermi vector in A             =   2.112777

 Write flags
   LWAVE        =      F    write WAVECAR
   LDOWNSAMPLE  =      F    k-point downsampling of WAVECAR
   LCHARG       =      F    write CHGCAR
   LVTOT        =      F    write LOCPOT, total local potential
   LVHAR        =      T    write LOCPOT, Hartree potential only
   LELF         =      F    write electronic localiz. function (ELF)
   LORBIT       =     10    0 simple, 1 ext, 2 COOP (PROOUT), +10 PAW based schemes


 Dipole corrections
   LMONO  =      F    monopole corrections only (constant potential shift)
   LDIPOL =      F    correct potential (dipole corrections)
   IDIPOL =      0    1-x, 2-y, 3-z, 4-all directions 
   EPSILON=  1.0000000 bulk dielectric constant

 Exchange correlation treatment:
   GGA     =    --    GGA type
   LEXCH   =     8    internal setting for exchange type
   VOSKOWN=      0    Vosko Wilk Nusair interpolation
   LHFCALC =     F    Hartree Fock is set to
   LHFONE  =     F    Hartree Fock one center treatment
   AEXX    =    0.0000 exact exchange contribution

 Linear response parameters
   LEPSILON=     F    determine dielectric tensor
   LRPA    =     F    only Hartree local field effects (RPA)
   LNABLA  =     F    use nabla operator in PAW spheres
   LVEL    =     F    velocity operator in full k-point grid
   LINTERFAST=   F  fast interpolation
   KINTER  =     0    interpolate to denser k-point grid
   CSHIFT  =0.1000    complex shift for real part using Kramers Kronig
   OMEGAMAX=  -1.0    maximum frequency
   DEG_THRESHOLD= 0.2000000E-02 threshold for treating states as degnerate
   RTIME   =   -0.100 relaxation time in fs
  (WPLASMAI=    0.000 imaginary part of plasma frequency in eV, 0.658/RTIME)
   DFIELD  = 0.0000000 0.0000000 0.0000000 field for delta impulse in time

 Orbital magnetization related:
   ORBITALMAG=     F  switch on orbital magnetization
   LCHIMAG   =     F  perturbation theory with respect to B field
   DQ        =  0.001000  dq finite difference perturbation B field
   LLRAUG    =     F  two centre corrections for induced B field



--------------------------------------------------------------------------------------------------------


 Static calculation
 charge density and potential will be updated during run
 non-spin polarized calculation
 Variant of blocked Davidson
 Davidson routine will perform the subspace rotation
 perform sub-space diagonalisation
    after iterative eigenvector-optimisation
 modified Broyden-mixing scheme, WC =      100.0
 initial mixing is a Kerker type mixing with AMIX =  0.4000 and BMIX =      1.0000
 Hartree-type preconditioning will be used
 using additional bands           36
 real space projection scheme for non local part
 use partial core corrections
 calculate Harris-corrections to forces   (improved forces if not selfconsistent)
 use gradient corrections 
 use of overlap-Matrix (Vanderbilt PP)
 Gauss-broadening in eV      SIGMA  =   0.01


--------------------------------------------------------------------------------------------------------


  energy-cutoff  :      300.00
  volume of cell :     1595.09
      direct lattice vectors                 reciprocal lattice vectors
     8.456489000  0.000000000  8.040301000     0.059126193 -0.000000000  0.062186727
     0.000000000 11.729847000  0.000000000     0.000000000  0.085252604 -0.000000000
    -8.456489000  0.000000000  8.040301000    -0.059126193  0.000000000  0.062186727

  length of vectors
    11.668703715 11.729847000 11.668703715     0.085808482  0.085252604  0.085808482



 k-points in units of 2pi/SCALE and weight: 1x1x1                                   
  -0.00000000  0.00000000  0.00000000       0.125
   0.02956310  0.00000000  0.03109336       0.125
  -0.00000000  0.04262630  0.00000000       0.125
   0.02956310  0.04262630  0.03109336       0.125
  -0.02956310  0.00000000  0.03109336       0.125
   0.00000000  0.00000000  0.06218673       0.125
  -0.02956310  0.04262630  0.03109336       0.125
   0.00000000  0.04262630  0.06218673       0.125

 k-points in reciprocal lattice and weights: 1x1x1                                   
   0.00000000  0.00000000  0.00000000       0.125
   0.50000000  0.00000000  0.00000000       0.125
   0.00000000  0.50000000  0.00000000       0.125
   0.50000000  0.50000000  0.00000000       0.125
   0.00000000  0.00000000  0.50000000       0.125
   0.50000000  0.00000000  0.50000000       0.125
   0.00000000  0.50000000  0.50000000       0.125
   0.50000000  0.50000000  0.50000000       0.125

 position of ions in fractional coordinates (direct lattice) 
   0.27121400  0.24826000  0.20721400
   0.77533400  0.24684400  0.70622400
   0.71417000  0.75183400  0.26451900
   0.21160300  0.74727800  0.77379300
   0.25915900  0.23732100  0.73201900
   0.80105200  0.24966800  0.22792700
   0.74971700  0.76355300  0.80852100
   0.21612200  0.75416500  0.28028700
   0.00305200  0.00281300  0.00080300
   0.49966800  0.99884100  0.50569000
   0.50366400  0.00310900  0.00541500
   0.99947700  0.99740800  0.49668000
   0.49917600  0.50458700  0.00327300
   0.99787300  0.50038900  0.49701900
   0.00071200  0.49943500  0.99735300
   0.49445600  0.49050200  0.49027700
   0.47784900  0.75245300  0.96438400
   0.96556600  0.74893700  0.46075500
   0.96925200  0.25130300  0.96436200
   0.45637900  0.24228800  0.48765000
   0.02712100  0.75112100  0.02180800
   0.53164400  0.25570400  0.04067000
   0.02186400  0.24905800  0.52193000
   0.25100900  0.46674400  0.94575100
   0.73994100  0.46518900  0.44678300
   0.44885400  0.54429900  0.24430400
   0.94598800  0.52977100  0.74394500
   0.55407900  0.03178000  0.75780800
   0.05458100  0.03463300  0.25013300
   0.75523900  0.97366600  0.05594400
   0.25459500  0.95633100  0.54794200
   0.25096900  0.02883600  0.95696600
   0.74643300  0.03098700  0.45046000
   0.45289900  0.95905700  0.25637000
   0.96035300  0.97793300  0.74492100
   0.75209500  0.53251500  0.04574600
   0.24963000  0.53102000  0.54843600
   0.05301400  0.46776600  0.24869300
   0.53891300  0.61992400  0.65231800

 position of ions in cartesian coordinates  (Angst):
   0.54121530  2.91205182  3.84670513
   0.58442795  2.89544235 11.91217227
   3.80246874  8.81889779  7.86895415
  -4.75415355  8.76545661  7.92288044
  -3.99873539  2.78373902  7.96936946
   4.84662526  2.92856744  8.27330088
  -0.49727538  8.95635987 12.52870255
  -0.54261062  8.84624006  3.99127778
   0.01901864  0.03299606  0.03099536
  -0.05092498 11.71625211  8.08338093
   4.21343719  0.03646809  4.09314839
   4.25189730 11.69944324 12.02955262
   4.19359826  5.91872831  4.03984120
   4.23546634  5.86948641 12.01938164
  -8.42808365  5.85829614  8.02474302
   0.03533967  5.75351341  7.91754972
  -4.11437788  8.82615856 11.59598743
   4.26892867  8.78491642 11.46805016
   0.04135223  2.94774574 15.54683858
  -0.26444287  2.84200117  7.59027731
   0.04492933  8.81053441  0.39340389
   4.15191623  2.99936880  4.60157683
  -4.22880263  2.92141223  4.37226744
  -5.87507808  5.47483571  9.62231062
   2.47908740  5.45659580  9.54161816
   1.72977482  6.38454399  5.57319896
   1.70857441  6.21413278 13.58756999
  -1.72283205  0.37277454 10.54796636
  -1.65368334  0.40623979  2.44999228
   5.91358048 11.42095321  6.52215549
  -2.48068568 11.21761631  6.45263904
  -5.97025586  0.33824187  9.71216099
   2.50289242  0.36347277  9.62337998
   1.66194533 11.24959187  5.70273625
   1.82179834 11.47100447 13.71091625
   5.97323255  6.24631948  6.41488179
  -2.52684965  6.22878335  6.41669086
  -1.65475731  5.48682361  2.42581509
  -0.95900814  7.27161367  9.57785580



--------------------------------------------------------------------------------------------------------


 k-point  1 :   0.0000 0.0000 0.0000  plane waves:   18809
 k-point  2 :   0.5000 0.0000 0.0000  plane waves:   18808
 k-point  3 :   0.0000 0.5000 0.0000  plane waves:   18794
 k-point  4 :   0.5000 0.5000 0.0000  plane waves:   18804
 k-point  5 :   0.0000 0.0000 0.5000  plane waves:   18808
 k-point  6 :   0.5000 0.0000 0.5000  plane waves:   18790
 k-point  7 :   0.0000 0.5000 0.5000  plane waves:   18804
 k-point  8 :   0.5000 0.5000 0.5000  plane waves:   18800

 maximum and minimum number of plane-waves per node :      2389     2304

 maximum number of plane-waves:     18809
 maximum index in each direction: 
   IXMAX=   16   IYMAX=   16   IZMAX=   16
   IXMIN=  -16   IYMIN=  -17   IZMIN=  -16


 real space projection operators:
  total allocation   :      16740.89 KBytes
  max/ min on nodes  :       2188.52       1827.87


 parallel 3D FFT for wavefunctions:
    minimum data exchange during FFTs selected (reduces bandwidth)
 parallel 3D FFT for charge:
    minimum data exchange during FFTs selected (reduces bandwidth)


 total amount of memory used by VASP MPI-rank0    60651. kBytes
=======================================================================

   base      :      30000. kBytes
   nonlr-proj:       6486. kBytes
   fftplans  :       8423. kBytes
   grid      :       7465. kBytes
   one-center:         77. kBytes
   wavefun   :       8200. kBytes

     INWAV:  cpu time    0.0000: real time    0.0000
 Broyden mixing: mesh for mixing (old mesh)
   NGX = 33   NGY = 33   NGZ = 33
  (NGX  =140   NGY  =140   NGZ  =140)
  gives a total of  35937 points

 initial charge density was supplied:
 charge density of overlapping atoms calculated
 number of electron     345.0000000 magnetization 
 keeping initial charge density in first step


--------------------------------------------------------------------------------------------------------


 Maximum index for non-local projection operator          726
 Maximum index for augmentation-charges         3083 (set IRDMAX)


--------------------------------------------------------------------------------------------------------


 First call to EWALD:  gamma=   0.152
 Maximum number of real-space cells 3x 3x 3
 Maximum number of reciprocal cells 3x 3x 3

    FEWALD:  cpu time    0.0038: real time    0.0038


--------------------------------------- Iteration      1(   1)  ---------------------------------------


    POTLOK:  cpu time    0.2624: real time    0.2786
    SETDIJ:  cpu time    1.2277: real time    1.2277
     EDDAV:  cpu time   16.6791: real time   16.6857
       DOS:  cpu time    0.0008: real time    0.0008
    --------------------------------------------
      LOOP:  cpu time   18.1700: real time   18.1929

 eigenvalue-minimisations  :  3480
 total energy-change (2. order) : 0.1333523E+04  (-0.1105770E+05)
 number of electron     345.0000000 magnetization 
 augmentation part      345.0000000 magnetization 

 Free energy of the ion-electron system (eV)
  ---------------------------------------------------
  alpha Z        PSCENC =       872.70583573
  Ewald energy   TEWEN  =    -17909.55527211
  -Hartree energ DENC   =     -7444.93650761
  -exchange      EXHF   =         0.00000000
  -V(xc)+E(xc)   XCENC  =       908.40549092
  PAW double counting   =     21345.28103884   -22405.85761495
  entropy T*S    EENTRO =        -0.00086237
  eigenvalues    EBANDS =      -244.63776826
  atomic energy  EATOM  =     26212.11861568
  Solvation  Ediel_sol  =         0.00000000
  ---------------------------------------------------
  free energy    TOTEN  =      1333.52295587 eV

  energy without entropy =     1333.52381824  energy(sigma->0) =     1333.52338705


--------------------------------------------------------------------------------------------------------




--------------------------------------- Iteration      1(   2)  ---------------------------------------


     EDDAV:  cpu time   18.5823: real time   18.5986
       DOS:  cpu time    0.0004: real time    0.0004
    --------------------------------------------
      LOOP:  cpu time   18.5826: real time   18.5990

 eigenvalue-minimisations  :  4112
 total energy-change (2. order) :-0.2448538E+04  (-0.2366333E+04)
 number of electron     345.0000000 magnetization 
 augmentation part      345.0000000 magnetization 

 Free energy of the ion-electron system (eV)
  ---------------------------------------------------
  alpha Z        PSCENC =       872.70583573
  Ewald energy   TEWEN  =    -17909.55527211
  -Hartree energ DENC   =     -7444.93650761
  -exchange      EXHF   =         0.00000000
  -V(xc)+E(xc)   XCENC  =       908.40549092
  PAW double counting   =     21345.28103884   -22405.85761495
  entropy T*S    EENTRO =        -0.00000000
  eigenvalues    EBANDS =     -2693.17636700
  atomic energy  EATOM  =     26212.11861568
  Solvation  Ediel_sol  =         0.00000000
  ---------------------------------------------------
  free energy    TOTEN  =     -1115.01478050 eV

  energy without entropy =    -1115.01478050  energy(sigma->0) =    -1115.01478050


--------------------------------------------------------------------------------------------------------




--------------------------------------- Iteration      1(   3)  ---------------------------------------


     EDDAV:  cpu time   19.4041: real time   19.4529
       DOS:  cpu time    0.0004: real time    0.0004
    --------------------------------------------
      LOOP:  cpu time   19.4045: real time   19.4532

 eigenvalue-minimisations  :  4408
 total energy-change (2. order) :-0.3590482E+03  (-0.3571208E+03)
 number of electron     345.0000000 magnetization 
 augmentation part      345.0000000 magnetization 

 Free energy of the ion-electron system (eV)
  ---------------------------------------------------
  alpha Z        PSCENC =       872.70583573
  Ewald energy   TEWEN  =    -17909.55527211
  -Hartree energ DENC   =     -7444.93650761
  -exchange      EXHF   =         0.00000000
  -V(xc)+E(xc)   XCENC  =       908.40549092
  PAW double counting   =     21345.28103884   -22405.85761495
  entropy T*S    EENTRO =        -0.00000000
  eigenvalues    EBANDS =     -3052.22460566
  atomic energy  EATOM  =     26212.11861568
  Solvation  Ediel_sol  =         0.00000000
  ---------------------------------------------------
  free energy    TOTEN  =     -1474.06301916 eV

  energy without entropy =    -1474.06301916  energy(sigma->0) =    -1474.06301916


--------------------------------------------------------------------------------------------------------




--------------------------------------- Iteration      1(   4)  ---------------------------------------


     EDDAV:  cpu time   18.0229: real time   18.0829
       DOS:  cpu time    0.0004: real time    0.0004
    --------------------------------------------
      LOOP:  cpu time   18.0233: real time   18.0833

 eigenvalue-minimisations  :  3928
 total energy-change (2. order) :-0.1216028E+02  (-0.1212546E+02)
 number of electron     345.0000000 magnetization 
 augmentation part      345.0000000 magnetization 

 Free energy of the ion-electron system (eV)
  ---------------------------------------------------
  alpha Z        PSCENC =       872.70583573
  Ewald energy   TEWEN  =    -17909.55527211
  -Hartree energ DENC   =     -7444.93650761
  -exchange      EXHF   =         0.00000000
  -V(xc)+E(xc)   XCENC  =       908.40549092
  PAW double counting   =     21345.28103884   -22405.85761495
  entropy T*S    EENTRO =        -0.00000000
  eigenvalues    EBANDS =     -3064.38488382
  atomic energy  EATOM  =     26212.11861568
  Solvation  Ediel_sol  =         0.00000000
  ---------------------------------------------------
  free energy    TOTEN  =     -1486.22329732 eV

  energy without entropy =    -1486.22329732  energy(sigma->0) =    -1486.22329732


--------------------------------------------------------------------------------------------------------




--------------------------------------- Iteration      1(   5)  ---------------------------------------


     EDDAV:  cpu time   19.5104: real time   19.5240
       DOS:  cpu time    0.0006: real time    0.0006
    CHARGE:  cpu time    2.7003: real time    2.7004
    MIXING:  cpu time    0.0014: real time    0.0014
    --------------------------------------------
      LOOP:  cpu time   22.2128: real time   22.2264

 eigenvalue-minimisations  :  4432
 total energy-change (2. order) :-0.5623155E+00  (-0.5620461E+00)
 number of electron     343.9999999 magnetization 
 augmentation part       -5.0625551 magnetization 

 Broyden mixing:
  rms(total) = 0.10562E+01    rms(broyden)= 0.10556E+01
  rms(prec ) = 0.14281E+01
  weight for this iteration     100.00

 Free energy of the ion-electron system (eV)
  ---------------------------------------------------
  alpha Z        PSCENC =       872.70583573
  Ewald energy   TEWEN  =    -17909.55527211
  -Hartree energ DENC   =     -7444.93650761
  -exchange      EXHF   =         0.00000000
  -V(xc)+E(xc)   XCENC  =       908.40549092
  PAW double counting   =     21345.28103884   -22405.85761495
  entropy T*S    EENTRO =        -0.00000000
  eigenvalues    EBANDS =     -3064.94719934
  atomic energy  EATOM  =     26212.11861568
  Solvation  Ediel_sol  =         0.00000000
  ---------------------------------------------------
  free energy    TOTEN  =     -1486.78561284 eV

  energy without entropy =    -1486.78561284  energy(sigma->0) =    -1486.78561284


--------------------------------------------------------------------------------------------------------




--------------------------------------- Iteration      1(   6)  ---------------------------------------


    POTLOK:  cpu time    0.2961: real time    0.3146
    SETDIJ:  cpu time    1.2266: real time    1.2267
     EDDAV:  cpu time   19.1636: real time   19.1645
       DOS:  cpu time    0.0005: real time    0.0005
    CHARGE:  cpu time    2.6908: real time    2.6909
    MIXING:  cpu time    0.0016: real time    0.0016
    --------------------------------------------
      LOOP:  cpu time   23.3792: real time   23.3988

 eigenvalue-minimisations  :  4312
 total energy-change (2. order) : 0.7762829E+02  (-0.2355501E+01)
 number of electron     343.9999999 magnetization 
 augmentation part       -3.6710711 magnetization 

 Broyden mixing:
  rms(total) = 0.74758E+00    rms(broyden)= 0.74750E+00
  rms(prec ) = 0.92169E+00
  weight for this iteration     100.00

 eigenvalues of (default mixing * dielectric matrix)
  average eigenvalue GAMMA=   1.2547
  1.2547

 Free energy of the ion-electron system (eV)
  ---------------------------------------------------
  alpha Z        PSCENC =       872.70583573
  Ewald energy   TEWEN  =    -17909.55527211
  -Hartree energ DENC   =     -7426.31441467
  -exchange      EXHF   =         0.00000000
  -V(xc)+E(xc)   XCENC  =       936.40684562
  PAW double counting   =     21660.72424031   -22719.84216249
  entropy T*S    EENTRO =        -0.00000000
  eigenvalues    EBANDS =     -3035.40101340
  atomic energy  EATOM  =     26212.11861568
  Solvation  Ediel_sol  =         0.00000000
  ---------------------------------------------------
  free energy    TOTEN  =     -1409.15732534 eV

  energy without entropy =    -1409.15732534  energy(sigma->0) =    -1409.15732534


--------------------------------------------------------------------------------------------------------




--------------------------------------- Iteration      1(   7)  ---------------------------------------


    POTLOK:  cpu time    0.2872: real time    0.3173
    SETDIJ:  cpu time    1.2222: real time    1.2222
     EDDAV:  cpu time   18.6904: real time   18.6911
       DOS:  cpu time    0.0004: real time    0.0004
    CHARGE:  cpu time    2.6878: real time    2.6878
    MIXING:  cpu time    0.0015: real time    0.0015
    --------------------------------------------
      LOOP:  cpu time   22.8895: real time   22.9204

 eigenvalue-minimisations  :  4152
 total energy-change (2. order) : 0.5137359E+00  (-0.8586329E+00)
 number of electron     343.9999999 magnetization 
 augmentation part       -3.1137491 magnetization 

 Broyden mixing:
  rms(total) = 0.37414E+00    rms(broyden)= 0.37412E+00
  rms(prec ) = 0.41551E+00
  weight for this iteration     100.00

 eigenvalues of (default mixing * dielectric matrix)
  average eigenvalue GAMMA=   1.3171
  1.3171  1.3171

 Free energy of the ion-electron system (eV)
  ---------------------------------------------------
  alpha Z        PSCENC =       872.70583573
  Ewald energy   TEWEN  =    -17909.55527211
  -Hartree energ DENC   =     -7469.83928335
  -exchange      EXHF   =         0.00000000
  -V(xc)+E(xc)   XCENC  =       941.58543542
  PAW double counting   =     22311.97580320   -23369.46602928
  entropy T*S    EENTRO =        -0.00000000
  eigenvalues    EBANDS =     -2998.16869470
  atomic energy  EATOM  =     26212.11861568
  Solvation  Ediel_sol  =         0.00000000
  ---------------------------------------------------
  free energy    TOTEN  =     -1408.64358942 eV

  energy without entropy =    -1408.64358942  energy(sigma->0) =    -1408.64358942


--------------------------------------------------------------------------------------------------------




--------------------------------------- Iteration      1(   8)  ---------------------------------------


    POTLOK:  cpu time    0.2986: real time    0.3149
    SETDIJ:  cpu time    1.2220: real time    1.2221
     EDDAV:  cpu time   18.3504: real time   18.3510
       DOS:  cpu time    0.0004: real time    0.0004
    CHARGE:  cpu time    2.6944: real time    2.6945
    MIXING:  cpu time    0.0015: real time    0.0015
    --------------------------------------------
      LOOP:  cpu time   22.5674: real time   22.5844

 eigenvalue-minimisations  :  4032
 total energy-change (2. order) :-0.1700578E+00  (-0.4450111E-01)
 number of electron     343.9999999 magnetization 
 augmentation part       -3.2022954 magnetization 

 Broyden mixing:
  rms(total) = 0.21609E+00    rms(broyden)= 0.21609E+00
  rms(prec ) = 0.24473E+00
  weight for this iteration     100.00

 eigenvalues of (default mixing * dielectric matrix)
  average eigenvalue GAMMA=   1.6943
  1.1159  1.3186  2.6484

 Free energy of the ion-electron system (eV)
  ---------------------------------------------------
  alpha Z        PSCENC =       872.70583573
  Ewald energy   TEWEN  =    -17909.55527211
  -Hartree energ DENC   =     -7475.87388809
  -exchange      EXHF   =         0.00000000
  -V(xc)+E(xc)   XCENC  =       942.29161653
  PAW double counting   =     22556.62726731   -23614.59272763
  entropy T*S    EENTRO =        -0.00000000
  eigenvalues    EBANDS =     -2992.53509467
  atomic energy  EATOM  =     26212.11861568
  Solvation  Ediel_sol  =         0.00000000
  ---------------------------------------------------
  free energy    TOTEN  =     -1408.81364727 eV

  energy without entropy =    -1408.81364727  energy(sigma->0) =    -1408.81364727


--------------------------------------------------------------------------------------------------------




--------------------------------------- Iteration      1(   9)  ---------------------------------------


    POTLOK:  cpu time    0.2942: real time    0.3106
    SETDIJ:  cpu time    1.2196: real time    1.2196
     EDDAV:  cpu time   17.8077: real time   17.8083
       DOS:  cpu time    0.0005: real time    0.0005
    CHARGE:  cpu time    2.6936: real time    2.6937
    MIXING:  cpu time    0.0015: real time    0.0015
    --------------------------------------------
      LOOP:  cpu time   22.0170: real time   22.0342

 eigenvalue-minimisations  :  3848
 total energy-change (2. order) :-0.6334640E-01  (-0.1655920E-01)
 number of electron     343.9999999 magnetization 
 augmentation part       -3.2422373 magnetization 

 Broyden mixing:
  rms(total) = 0.45004E-01    rms(broyden)= 0.45000E-01
  rms(prec ) = 0.55240E-01
  weight for this iteration     100.00

 eigenvalues of (default mixing * dielectric matrix)
  average eigenvalue GAMMA=   1.4741
  2.5352  1.2545  1.2545  0.8521

 Free energy of the ion-electron system (eV)
  ---------------------------------------------------
  alpha Z        PSCENC =       872.70583573
  Ewald energy   TEWEN  =    -17909.55527211
  -Hartree energ DENC   =     -7483.01688679
  -exchange      EXHF   =         0.00000000
  -V(xc)+E(xc)   XCENC  =       944.12338557
  PAW double counting   =     22895.75625253   -23954.68164904
  entropy T*S    EENTRO =        -0.00000000
  eigenvalues    EBANDS =     -2986.32727523
  atomic energy  EATOM  =     26212.11861568
  Solvation  Ediel_sol  =         0.00000000
  ---------------------------------------------------
  free energy    TOTEN  =     -1408.87699366 eV

  energy without entropy =    -1408.87699366  energy(sigma->0) =    -1408.87699366


--------------------------------------------------------------------------------------------------------




--------------------------------------- Iteration      1(  10)  ---------------------------------------


    POTLOK:  cpu time    0.2595: real time    0.2985
    SETDIJ:  cpu time    1.2226: real time    1.2227
     EDDAV:  cpu time   19.9143: real time   19.9150
       DOS:  cpu time    0.0004: real time    0.0004
    CHARGE:  cpu time    2.6849: real time    2.6850
    MIXING:  cpu time    0.0017: real time    0.0017
    --------------------------------------------
      LOOP:  cpu time   24.0834: real time   24.1232

 eigenvalue-minimisations  :  4576
 total energy-change (2. order) :-0.3245220E-02  (-0.2288664E-02)
 number of electron     343.9999999 magnetization 
 augmentation part       -3.2287291 magnetization 

 Broyden mixing:
  rms(total) = 0.32152E-01    rms(broyden)= 0.32150E-01
  rms(prec ) = 0.41130E-01
  weight for this iteration     100.00

 eigenvalues of (default mixing * dielectric matrix)
  average eigenvalue GAMMA=   1.3206
  2.4265  1.3367  1.3367  0.8497  0.6536

 Free energy of the ion-electron system (eV)
  ---------------------------------------------------
  alpha Z        PSCENC =       872.70583573
  Ewald energy   TEWEN  =    -17909.55527211
  -Hartree energ DENC   =     -7481.39869120
  -exchange      EXHF   =         0.00000000
  -V(xc)+E(xc)   XCENC  =       943.99306426
  PAW double counting   =     22865.78421014   -23924.74763677
  entropy T*S    EENTRO =        -0.00000000
  eigenvalues    EBANDS =     -2987.78036461
  atomic energy  EATOM  =     26212.11861568
  Solvation  Ediel_sol  =         0.00000000
  ---------------------------------------------------
  free energy    TOTEN  =     -1408.88023888 eV

  energy without entropy =    -1408.88023888  energy(sigma->0) =    -1408.88023888


--------------------------------------------------------------------------------------------------------




--------------------------------------- Iteration      1(  11)  ---------------------------------------


    POTLOK:  cpu time    0.3010: real time    0.3099
    SETDIJ:  cpu time    1.2290: real time    1.2290
     EDDAV:  cpu time   17.7839: real time   17.7847
       DOS:  cpu time    0.0005: real time    0.0005
    CHARGE:  cpu time    2.7074: real time    2.7075
    MIXING:  cpu time    0.0017: real time    0.0017
    --------------------------------------------
      LOOP:  cpu time   22.0235: real time   22.0332

 eigenvalue-minimisations  :  3832
 total energy-change (2. order) :-0.2044756E-02  (-0.3043581E-03)
 number of electron     343.9999999 magnetization 
 augmentation part       -3.2269996 magnetization 

 Broyden mixing:
  rms(total) = 0.14188E-01    rms(broyden)= 0.14187E-01
  rms(prec ) = 0.22561E-01
  weight for this iteration     100.00

 eigenvalues of (default mixing * dielectric matrix)
  average eigenvalue GAMMA=   1.6084
  2.7746  2.7746  1.2082  1.2082  0.8424  0.8424

 Free energy of the ion-electron system (eV)
  ---------------------------------------------------
  alpha Z        PSCENC =       872.70583573
  Ewald energy   TEWEN  =    -17909.55527211
  -Hartree energ DENC   =     -7480.05081926
  -exchange      EXHF   =         0.00000000
  -V(xc)+E(xc)   XCENC  =       943.93316491
  PAW double counting   =     22847.31144589   -23906.43303867
  entropy T*S    EENTRO =        -0.00000000
  eigenvalues    EBANDS =     -2988.91221581
  atomic energy  EATOM  =     26212.11861568
  Solvation  Ediel_sol  =         0.00000000
  ---------------------------------------------------
  free energy    TOTEN  =     -1408.88228364 eV

  energy without entropy =    -1408.88228364  energy(sigma->0) =    -1408.88228364


--------------------------------------------------------------------------------------------------------




--------------------------------------- Iteration      1(  12)  ---------------------------------------


    POTLOK:  cpu time    0.2524: real time    0.3122
    SETDIJ:  cpu time    1.2280: real time    1.2281
     EDDAV:  cpu time   17.1103: real time   17.1109
       DOS:  cpu time    0.0005: real time    0.0005
    CHARGE:  cpu time    2.7123: real time    2.7126
    MIXING:  cpu time    0.0021: real time    0.0021
    --------------------------------------------
      LOOP:  cpu time   21.3056: real time   21.3664

 eigenvalue-minimisations  :  3600
 total energy-change (2. order) :-0.2421377E-02  (-0.5070635E-03)
 number of electron     343.9999999 magnetization 
 augmentation part       -3.2303632 magnetization 

 Broyden mixing:
  rms(total) = 0.10604E-01    rms(broyden)= 0.10603E-01
  rms(prec ) = 0.13468E-01
  weight for this iteration     100.00

 eigenvalues of (default mixing * dielectric matrix)
  average eigenvalue GAMMA=   1.5962
  2.8516  2.8516  1.3178  1.3178  0.8950  0.9696  0.9696

 Free energy of the ion-electron system (eV)
  ---------------------------------------------------
  alpha Z        PSCENC =       872.70583573
  Ewald energy   TEWEN  =    -17909.55527211
  -Hartree energ DENC   =     -7479.44915591
  -exchange      EXHF   =         0.00000000
  -V(xc)+E(xc)   XCENC  =       943.97691596
  PAW double counting   =     22841.37637769   -23900.74110714
  entropy T*S    EENTRO =        -0.00000000
  eigenvalues    EBANDS =     -2989.31691492
  atomic energy  EATOM  =     26212.11861568
  Solvation  Ediel_sol  =         0.00000000
  ---------------------------------------------------
  free energy    TOTEN  =     -1408.88470502 eV

  energy without entropy =    -1408.88470502  energy(sigma->0) =    -1408.88470502


--------------------------------------------------------------------------------------------------------




--------------------------------------- Iteration      1(  13)  ---------------------------------------


    POTLOK:  cpu time    0.2654: real time    0.3104
    SETDIJ:  cpu time    1.2277: real time    1.2277
     EDDAV:  cpu time   19.5424: real time   19.5434
       DOS:  cpu time    0.0004: real time    0.0004
    CHARGE:  cpu time    2.7106: real time    2.7106
    MIXING:  cpu time    0.0019: real time    0.0019
    --------------------------------------------
      LOOP:  cpu time   23.7484: real time   23.7945

 eigenvalue-minimisations  :  4432
 total energy-change (2. order) : 0.4606077E-03  (-0.1649324E-03)
 number of electron     343.9999999 magnetization 
 augmentation part       -3.2314372 magnetization 

 Broyden mixing:
  rms(total) = 0.48559E-02    rms(broyden)= 0.48552E-02
  rms(prec ) = 0.56735E-02
  weight for this iteration     100.00

 eigenvalues of (default mixing * dielectric matrix)
  average eigenvalue GAMMA=   1.5589
  3.2325  2.4168  1.7062  1.0744  1.0744  1.1818  1.0034  0.7817

 Free energy of the ion-electron system (eV)
  ---------------------------------------------------
  alpha Z        PSCENC =       872.70583573
  Ewald energy   TEWEN  =    -17909.55527211
  -Hartree energ DENC   =     -7480.55319548
  -exchange      EXHF   =         0.00000000
  -V(xc)+E(xc)   XCENC  =       944.04436480
  PAW double counting   =     22842.57002959   -23901.89095584
  entropy T*S    EENTRO =        -0.00000000
  eigenvalues    EBANDS =     -2988.32366677
  atomic energy  EATOM  =     26212.11861568
  Solvation  Ediel_sol  =         0.00000000
  ---------------------------------------------------
  free energy    TOTEN  =     -1408.88424441 eV

  energy without entropy =    -1408.88424441  energy(sigma->0) =    -1408.88424441


--------------------------------------------------------------------------------------------------------




--------------------------------------- Iteration      1(  14)  ---------------------------------------


    POTLOK:  cpu time    0.2849: real time    0.3192
    SETDIJ:  cpu time    1.2276: real time    1.2276
     EDDAV:  cpu time   18.2865: real time   18.2871
       DOS:  cpu time    0.0004: real time    0.0004
    CHARGE:  cpu time    2.7019: real time    2.7019
    MIXING:  cpu time    0.0017: real time    0.0017
    --------------------------------------------
      LOOP:  cpu time   22.5030: real time   22.5381

 eigenvalue-minimisations  :  4000
 total energy-change (2. order) : 0.5318761E-04  (-0.4550783E-04)
 number of electron     343.9999999 magnetization 
 augmentation part       -3.2308470 magnetization 

 Broyden mixing:
  rms(total) = 0.27581E-02    rms(broyden)= 0.27570E-02
  rms(prec ) = 0.35196E-02
  weight for this iteration     100.00

 eigenvalues of (default mixing * dielectric matrix)
  average eigenvalue GAMMA=   1.5641
  3.3031  2.2910  2.2910  1.1619  1.1619  0.8742  0.8742  1.0600  1.0600

 Free energy of the ion-electron system (eV)
  ---------------------------------------------------
  alpha Z        PSCENC =       872.70583573
  Ewald energy   TEWEN  =    -17909.55527211
  -Hartree energ DENC   =     -7480.82989098
  -exchange      EXHF   =         0.00000000
  -V(xc)+E(xc)   XCENC  =       944.05764855
  PAW double counting   =     22844.14424787   -23903.44444198
  entropy T*S    EENTRO =        -0.00000000
  eigenvalues    EBANDS =     -2988.08093398
  atomic energy  EATOM  =     26212.11861568
  Solvation  Ediel_sol  =         0.00000000
  ---------------------------------------------------
  free energy    TOTEN  =     -1408.88419122 eV

  energy without entropy =    -1408.88419122  energy(sigma->0) =    -1408.88419122


--------------------------------------------------------------------------------------------------------




--------------------------------------- Iteration      1(  15)  ---------------------------------------


    POTLOK:  cpu time    0.2503: real time    0.3035
    SETDIJ:  cpu time    1.2271: real time    1.2272
     EDDAV:  cpu time   17.7163: real time   17.7169
       DOS:  cpu time    0.0004: real time    0.0004
    CHARGE:  cpu time    2.7020: real time    2.7021
    MIXING:  cpu time    0.0018: real time    0.0018
    --------------------------------------------
      LOOP:  cpu time   21.8979: real time   21.9519

 eigenvalue-minimisations  :  3808
 total energy-change (2. order) : 0.1477577E-04  (-0.3506376E-05)
 number of electron     343.9999999 magnetization 
 augmentation part       -3.2307991 magnetization 

 Broyden mixing:
  rms(total) = 0.16567E-02    rms(broyden)= 0.16555E-02
  rms(prec ) = 0.21934E-02
  weight for this iteration     100.00

 eigenvalues of (default mixing * dielectric matrix)
  average eigenvalue GAMMA=   1.6458
  3.8357  2.4594  2.4594  1.3834  1.3834  1.1176  1.1176  0.8153  0.9430  0.9430

 Free energy of the ion-electron system (eV)
  ---------------------------------------------------
  alpha Z        PSCENC =       872.70583573
  Ewald energy   TEWEN  =    -17909.55527211
  -Hartree energ DENC   =     -7480.96305165
  -exchange      EXHF   =         0.00000000
  -V(xc)+E(xc)   XCENC  =       944.06159385
  PAW double counting   =     22844.43974242   -23903.73431076
  entropy T*S    EENTRO =        -0.00000000
  eigenvalues    EBANDS =     -2987.95732961
  atomic energy  EATOM  =     26212.11861568
  Solvation  Ediel_sol  =         0.00000000
  ---------------------------------------------------
  free energy    TOTEN  =     -1408.88417645 eV

  energy without entropy =    -1408.88417645  energy(sigma->0) =    -1408.88417645


--------------------------------------------------------------------------------------------------------




--------------------------------------- Iteration      1(  16)  ---------------------------------------


    POTLOK:  cpu time    0.2983: real time    0.3107
    SETDIJ:  cpu time    1.2276: real time    1.2277
     EDDAV:  cpu time   17.8310: real time   17.8318
       DOS:  cpu time    0.0006: real time    0.0006
    CHARGE:  cpu time    2.6938: real time    2.6940
    MIXING:  cpu time    0.0021: real time    0.0021
    --------------------------------------------
      LOOP:  cpu time   22.0535: real time   22.0669

 eigenvalue-minimisations  :  3848
 total energy-change (2. order) :-0.6436153E-04  (-0.3698183E-05)
 number of electron     343.9999999 magnetization 
 augmentation part       -3.2303427 magnetization 

 Broyden mixing:
  rms(total) = 0.68247E-03    rms(broyden)= 0.67948E-03
  rms(prec ) = 0.80232E-03
  weight for this iteration     100.00

 eigenvalues of (default mixing * dielectric matrix)
  average eigenvalue GAMMA=   1.6914
  4.2338  2.7967  2.4085  1.9723  1.0704  1.0704  1.1450  1.1450  0.9753  0.9753
  0.8128

 Free energy of the ion-electron system (eV)
  ---------------------------------------------------
  alpha Z        PSCENC =       872.70583573
  Ewald energy   TEWEN  =    -17909.55527211
  -Hartree energ DENC   =     -7480.93766780
  -exchange      EXHF   =         0.00000000
  -V(xc)+E(xc)   XCENC  =       944.05015764
  PAW double counting   =     22843.49603135   -23902.78785810
  entropy T*S    EENTRO =        -0.00000000
  eigenvalues    EBANDS =     -2987.97408319
  atomic energy  EATOM  =     26212.11861568
  Solvation  Ediel_sol  =         0.00000000
  ---------------------------------------------------
  free energy    TOTEN  =     -1408.88424081 eV

  energy without entropy =    -1408.88424081  energy(sigma->0) =    -1408.88424081


--------------------------------------------------------------------------------------------------------




--------------------------------------- Iteration      1(  17)  ---------------------------------------


    POTLOK:  cpu time    0.2502: real time    0.3160
    SETDIJ:  cpu time    1.2240: real time    1.2240
     EDDAV:  cpu time   17.7375: real time   17.7382
       DOS:  cpu time    0.0008: real time    0.0008
    CHARGE:  cpu time    2.6973: real time    2.6974
    MIXING:  cpu time    0.0019: real time    0.0019
    --------------------------------------------
      LOOP:  cpu time   21.9117: real time   21.9784

 eigenvalue-minimisations  :  3800
 total energy-change (2. order) : 0.4535972E-05  (-0.7398023E-06)
 number of electron     343.9999999 magnetization 
 augmentation part       -3.2303215 magnetization 

 Broyden mixing:
  rms(total) = 0.49691E-03    rms(broyden)= 0.49284E-03
  rms(prec ) = 0.54934E-03
  weight for this iteration     100.00

 eigenvalues of (default mixing * dielectric matrix)
  average eigenvalue GAMMA=   1.6242
  4.2514  2.8342  2.3078  2.0983  1.1193  1.1193  1.1514  1.1514  0.9615  0.9615
  0.7668  0.7668

 Free energy of the ion-electron system (eV)
  ---------------------------------------------------
  alpha Z        PSCENC =       872.70583573
  Ewald energy   TEWEN  =    -17909.55527211
  -Hartree energ DENC   =     -7480.93467935
  -exchange      EXHF   =         0.00000000
  -V(xc)+E(xc)   XCENC  =       944.04785450
  PAW double counting   =     22843.68769433   -23902.97661680
  entropy T*S    EENTRO =        -0.00000000
  eigenvalues    EBANDS =     -2987.97766825
  atomic energy  EATOM  =     26212.11861568
  Solvation  Ediel_sol  =         0.00000000
  ---------------------------------------------------
  free energy    TOTEN  =     -1408.88423627 eV

  energy without entropy =    -1408.88423627  energy(sigma->0) =    -1408.88423627


--------------------------------------------------------------------------------------------------------




--------------------------------------- Iteration      1(  18)  ---------------------------------------


    POTLOK:  cpu time    0.2987: real time    0.3161
    SETDIJ:  cpu time    1.2271: real time    1.2271
     EDDAV:  cpu time   14.0881: real time   14.0887
       DOS:  cpu time    0.0005: real time    0.0005
    CHARGE:  cpu time    2.7033: real time    2.7034
    MIXING:  cpu time    0.0020: real time    0.0020
    --------------------------------------------
      LOOP:  cpu time   18.3196: real time   18.3378

 eigenvalue-minimisations  :  2528
 total energy-change (2. order) : 0.1986150E-05  (-0.1329322E-06)
 number of electron     343.9999999 magnetization 
 augmentation part       -3.2303525 magnetization 

 Broyden mixing:
  rms(total) = 0.25562E-03    rms(broyden)= 0.24763E-03
  rms(prec ) = 0.28064E-03
  weight for this iteration     100.00

 eigenvalues of (default mixing * dielectric matrix)
  average eigenvalue GAMMA=   1.6828
  4.6418  2.9993  2.2725  2.2725  1.3580  1.3580  1.1575  1.1575  0.9911  0.9911
  0.8038  0.9370  0.9370

 Free energy of the ion-electron system (eV)
  ---------------------------------------------------
  alpha Z        PSCENC =       872.70583573
  Ewald energy   TEWEN  =    -17909.55527211
  -Hartree energ DENC   =     -7480.93443640
  -exchange      EXHF   =         0.00000000
  -V(xc)+E(xc)   XCENC  =       944.04776407
  PAW double counting   =     22843.69517571   -23902.98383436
  entropy T*S    EENTRO =        -0.00000000
  eigenvalues    EBANDS =     -2987.97808260
  atomic energy  EATOM  =     26212.11861568
  Solvation  Ediel_sol  =         0.00000000
  ---------------------------------------------------
  free energy    TOTEN  =     -1408.88423429 eV

  energy without entropy =    -1408.88423429  energy(sigma->0) =    -1408.88423429


--------------------------------------------------------------------------------------------------------




--------------------------------------- Iteration      1(  19)  ---------------------------------------


    POTLOK:  cpu time    0.2564: real time    0.3187
    SETDIJ:  cpu time    1.2258: real time    1.2258
     EDDAV:  cpu time   13.1312: real time   13.1319
       DOS:  cpu time    0.0004: real time    0.0004
    CHARGE:  cpu time    2.7003: real time    2.7004
    MIXING:  cpu time    0.0024: real time    0.0024
    --------------------------------------------
      LOOP:  cpu time   17.3164: real time   17.3796

 eigenvalue-minimisations  :  2192
 total energy-change (2. order) : 0.3947117E-05  (-0.3729777E-07)
 number of electron     343.9999999 magnetization 
 augmentation part       -3.2303747 magnetization 

 Broyden mixing:
  rms(total) = 0.13910E-03    rms(broyden)= 0.12383E-03
  rms(prec ) = 0.14331E-03
  weight for this iteration     100.00
  WARNING: grid for Broyden might be to small

 eigenvalues of (default mixing * dielectric matrix)
  average eigenvalue GAMMA=   1.6566
  4.6437  3.0188  2.2781  2.2781  1.1725  1.1725  1.3804  1.3804  1.1338  1.1338
  0.9764  0.9764  0.8237  0.8237

 Free energy of the ion-electron system (eV)
  ---------------------------------------------------
  alpha Z        PSCENC =       872.70583573
  Ewald energy   TEWEN  =    -17909.55527211
  -Hartree energ DENC   =     -7480.93789782
  -exchange      EXHF   =         0.00000000
  -V(xc)+E(xc)   XCENC  =       944.04765097
  PAW double counting   =     22843.74959783   -23903.03771063
  entropy T*S    EENTRO =        -0.00000000
  eigenvalues    EBANDS =     -2987.97504998
  atomic energy  EATOM  =     26212.11861568
  Solvation  Ediel_sol  =         0.00000000
  ---------------------------------------------------
  free energy    TOTEN  =     -1408.88423034 eV

  energy without entropy =    -1408.88423034  energy(sigma->0) =    -1408.88423034


--------------------------------------------------------------------------------------------------------




--------------------------------------- Iteration      1(  20)  ---------------------------------------


    POTLOK:  cpu time    0.2817: real time    0.3098
    SETDIJ:  cpu time    1.2258: real time    1.2259
     EDDAV:  cpu time   12.7487: real time   12.7493
       DOS:  cpu time    0.0004: real time    0.0004
    CHARGE:  cpu time    2.6987: real time    2.6988
    MIXING:  cpu time    0.0021: real time    0.0021
    --------------------------------------------
      LOOP:  cpu time   16.9574: real time   16.9862

 eigenvalue-minimisations  :  2064
 total energy-change (2. order) : 0.2807896E-05  (-0.3159104E-07)
 number of electron     343.9999999 magnetization 
 augmentation part       -3.2303945 magnetization 

 Broyden mixing:
  rms(total) = 0.92781E-04    rms(broyden)= 0.67779E-04
  rms(prec ) = 0.79196E-04
  weight for this iteration     100.00
  WARNING: grid for Broyden might be to small

 eigenvalues of (default mixing * dielectric matrix)
  average eigenvalue GAMMA=   1.6083
  4.6915  3.0500  2.3210  2.3210  1.1815  1.1815  1.3286  1.3286  1.2228  1.2228
  0.9297  0.9297  0.8373  0.8373  0.7418

 Free energy of the ion-electron system (eV)
  ---------------------------------------------------
  alpha Z        PSCENC =       872.70583573
  Ewald energy   TEWEN  =    -17909.55527211
  -Hartree energ DENC   =     -7480.94253494
  -exchange      EXHF   =         0.00000000
  -V(xc)+E(xc)   XCENC  =       944.04793988
  PAW double counting   =     22843.75754500   -23903.04510490
  entropy T*S    EENTRO =        -0.00000000
  eigenvalues    EBANDS =     -2987.97125187
  atomic energy  EATOM  =     26212.11861568
  Solvation  Ediel_sol  =         0.00000000
  ---------------------------------------------------
  free energy    TOTEN  =     -1408.88422753 eV

  energy without entropy =    -1408.88422753  energy(sigma->0) =    -1408.88422753


--------------------------------------------------------------------------------------------------------




--------------------------------------- Iteration      1(  21)  ---------------------------------------


    POTLOK:  cpu time    0.2637: real time    0.2871
    SETDIJ:  cpu time    1.2288: real time    1.2288
     EDDAV:  cpu time   12.6459: real time   12.6465
       DOS:  cpu time    0.0004: real time    0.0004
    --------------------------------------------
      LOOP:  cpu time   14.1388: real time   14.1628

 eigenvalue-minimisations  :  2024
 total energy-change (2. order) :-0.3243554E-06  (-0.1360430E-07)
 number of electron     343.9999999 magnetization 
 augmentation part       -3.2303945 magnetization 

 Free energy of the ion-electron system (eV)
  ---------------------------------------------------
  alpha Z        PSCENC =       872.70583573
  Ewald energy   TEWEN  =    -17909.55527211
  -Hartree energ DENC   =     -7480.94202984
  -exchange      EXHF   =         0.00000000
  -V(xc)+E(xc)   XCENC  =       944.04794690
  PAW double counting   =     22843.76274349   -23903.05056342
  entropy T*S    EENTRO =        -0.00000000
  eigenvalues    EBANDS =     -2987.97150427
  atomic energy  EATOM  =     26212.11861568
  Solvation  Ediel_sol  =         0.00000000
  ---------------------------------------------------
  free energy    TOTEN  =     -1408.88422785 eV

  energy without entropy =    -1408.88422785  energy(sigma->0) =    -1408.88422785


--------------------------------------------------------------------------------------------------------




 average (electrostatic) potential at core
  the test charge radii are     1.1312  1.1541  1.0178
  (the norm of the test charge is              1.0000)
       1 -55.2494       2 -55.3874       3 -55.3598       4 -55.1611       5 -55.3302
       6 -55.1260       7 -55.1727       8 -55.1901       9-101.5976      10-101.9249
      11-101.6802      12-101.6219      13-101.9284      14-101.5570      15-101.6184
      16-101.5536      17 -69.0342      18 -68.9850      19 -69.0304      20 -69.3803
      21 -69.0190      22 -69.0462      23 -68.9778      24 -69.0516      25 -68.8796
      26 -69.3066      27 -68.9187      28 -69.0390      29 -68.9862      30 -68.9854
      31 -69.0377      32 -69.0046      33 -69.0246      34 -69.0325      35 -68.9896
      36 -69.0478      37 -68.8775      38 -68.9050      39 -69.4289



 E-fermi :   0.4590     XC(G=0):  -7.9539     alpha+bet : -6.9586


 k-point     1 :       0.0000    0.0000    0.0000
  band No.  band energies     occupation 
      1     -20.9106      2.00000
      2     -20.8864      2.00000
      3     -20.8576      2.00000
      4     -20.7766      2.00000
      5     -20.7232      2.00000
      6     -20.7205      2.00000
      7     -20.6896      2.00000
      8     -20.6563      2.00000
      9     -16.7252      2.00000
     10     -16.6914      2.00000
     11     -16.6879      2.00000
     12     -16.6746      2.00000
     13     -16.6664      2.00000
     14     -16.5949      2.00000
     15     -16.5911      2.00000
     16     -16.5893      2.00000
     17     -16.5827      2.00000
     18     -16.5469      2.00000
     19     -16.5464      2.00000
     20     -16.4578      2.00000
     21     -16.4437      2.00000
     22     -16.4370      2.00000
     23     -16.4182      2.00000
     24     -16.4079      2.00000
     25     -16.3982      2.00000
     26     -16.3907      2.00000
     27     -16.3587      2.00000
     28     -16.3580      2.00000
     29     -16.3548      2.00000
     30     -16.3464      2.00000
     31     -16.3377      2.00000
     32     -16.3298      2.00000
     33     -16.3200      2.00000
     34     -16.3043      2.00000
     35     -16.3020      2.00000
     36     -16.2893      2.00000
     37     -16.2861      2.00000
     38     -16.2843      2.00000
     39     -16.2800      2.00000
     40     -16.2766      2.00000
     41     -16.2685      2.00000
     42     -16.2680      2.00000
     43     -16.2633      2.00000
     44     -16.2551      2.00000
     45     -16.2215      2.00000
     46     -16.2173      2.00000
     47     -16.2074      2.00000
     48     -16.1966      2.00000
     49     -14.5291      2.00000
     50     -14.3823      2.00000
     51     -14.3281      2.00000
     52     -14.2734      2.00000
     53     -14.1498      2.00000
     54     -14.1136      2.00000
     55     -14.0846      2.00000
     56     -14.0738      2.00000
     57     -14.0672      2.00000
     58     -14.0527      2.00000
     59     -14.0507      2.00000
     60     -14.0426      2.00000
     61     -14.0367      2.00000
     62     -14.0276      2.00000
     63     -14.0163      2.00000
     64     -13.9370      2.00000
     65     -13.9290      2.00000
     66     -13.9011      2.00000
     67     -13.8992      2.00000
     68     -13.7757      2.00000
     69     -13.7661      2.00000
     70     -13.7134      2.00000
     71     -13.6772      2.00000
     72      -8.1982      2.00000
     73      -7.7875      2.00000
     74      -7.7678      2.00000
     75      -7.7093      2.00000
     76      -7.3615      2.00000
     77      -7.3389      2.00000
     78      -7.3245      2.00000
     79      -7.3038      2.00000
     80      -7.2854      2.00000
     81      -7.2806      2.00000
     82      -7.2658      2.00000
     83      -7.2512      2.00000
     84      -7.2480      2.00000
     85      -7.2348      2.00000
     86      -7.2120      2.00000
     87      -7.1924      2.00000
     88      -7.1763      2.00000
     89      -7.1624      2.00000
     90      -7.1571      2.00000
     91      -7.1446      2.00000
     92      -7.1289      2.00000
     93      -7.1265      2.00000
     94      -7.1128      2.00000
     95      -7.1015      2.00000
     96      -7.0968      2.00000
     97      -7.0847      2.00000
     98      -7.0786      2.00000
     99      -7.0709      2.00000
    100      -7.0651      2.00000
    101      -7.0489      2.00000
    102      -7.0278      2.00000
    103      -6.5769      2.00000
    104      -3.3581      2.00000
    105      -3.3270      2.00000
    106      -3.2957      2.00000
    107      -3.2865      2.00000
    108      -3.2385      2.00000
    109      -3.2143      2.00000
    110      -3.1962      2.00000
    111      -3.1776      2.00000
    112      -3.1484      2.00000
    113      -3.0695      2.00000
    114      -3.0419      2.00000
    115      -2.8954      2.00000
    116      -2.2485      2.00000
    117      -2.1827      2.00000
    118      -2.1513      2.00000
    119      -2.1264      2.00000
    120      -2.0373      2.00000
    121      -1.9883      2.00000
    122      -1.9482      2.00000
    123      -1.9101      2.00000
    124      -1.8825      2.00000
    125      -1.8556      2.00000
    126      -1.7948      2.00000
    127      -1.7358      2.00000
    128      -1.7160      2.00000
    129      -1.6777      2.00000
    130      -1.6575      2.00000
    131      -1.6128      2.00000
    132      -1.5812      2.00000
    133      -1.5678      2.00000
    134      -1.5452      2.00000
    135      -1.5186      2.00000
    136      -1.5072      2.00000
    137      -1.4958      2.00000
    138      -1.4860      2.00000
    139      -1.4698      2.00000
    140      -1.4609      2.00000
    141      -1.4288      2.00000
    142      -1.4157      2.00000
    143      -1.4056      2.00000
    144      -1.3899      2.00000
    145      -1.3653      2.00000
    146      -1.3633      2.00000
    147      -1.3513      2.00000
    148      -1.3422      2.00000
    149      -1.3315      2.00000
    150      -1.3283      2.00000
    151      -1.3141      2.00000
    152      -1.3008      2.00000
    153      -1.2787      2.00000
[...]


--------------------------------------------------------------------------------------------------------


 soft charge-density along one line, spin component           1
         0         1         2         3         4         5         6         7         8         9
 total charge-density along one line

 pseudopotential strength for first ion, spin component:           1
 17.957  -4.701   0.000   0.001   0.000  -0.000  -0.002  -0.000
 -4.701   1.239  -0.000  -0.000  -0.000   0.000   0.000   0.000
  0.000  -0.000   2.258   0.000   0.000  -2.699  -0.000  -0.000
  0.001  -0.000   0.000   2.259  -0.001  -0.000  -2.701   0.001
  0.000  -0.000   0.000  -0.001   2.258  -0.000   0.001  -2.699
 -0.000   0.000  -2.699  -0.000  -0.000   3.194   0.000   0.000
 -0.002   0.000  -0.000  -2.701   0.001   0.000   3.197  -0.002
 -0.000   0.000  -0.000   0.001  -2.699   0.000  -0.002   3.194
  0.000  -0.000   0.001  -0.000   0.000  -0.002   0.000  -0.001
  0.000  -0.000   0.002   0.001  -0.000  -0.002  -0.001   0.000
  0.001  -0.000   0.000  -0.000   0.000  -0.000   0.001  -0.000
 -0.001   0.000  -0.000   0.000   0.001   0.000  -0.000  -0.002
 -0.000   0.000   0.000  -0.000  -0.001  -0.000   0.000   0.001
 total augmentation occupancy for first ion, spin component:           1
  1.912  -0.138  -0.000   0.000   0.000   0.000   0.001   0.000  -0.000   0.000   0.001  -0.001  -0.000
 -0.138   0.113   0.002   0.003   0.001  -0.002  -0.003   0.001   0.000   0.001  -0.004   0.005   0.001
 -0.000   0.002   2.016   0.000  -0.000   0.003   0.000  -0.000   0.003   0.004  -0.000  -0.000  -0.001
  0.000   0.003   0.000   2.020  -0.003   0.000   0.006  -0.002  -0.000   0.001  -0.002   0.000  -0.001
  0.000   0.001  -0.000  -0.003   2.016  -0.000  -0.002   0.003   0.000  -0.000  -0.000   0.003  -0.002
  0.000  -0.002   0.003   0.000  -0.000   0.008   0.000   0.000  -0.002  -0.003   0.000   0.000   0.000
  0.001  -0.003   0.000   0.006  -0.002   0.000   0.006   0.002   0.000  -0.000   0.002  -0.001   0.001
  0.000   0.001  -0.000  -0.002   0.003   0.000   0.002   0.009  -0.000   0.000  -0.001  -0.001   0.003
 -0.000   0.000   0.003  -0.000   0.000  -0.002   0.000  -0.000   0.006   0.002  -0.000   0.000   0.000
  0.000   0.001   0.004   0.001  -0.000  -0.003  -0.000   0.000   0.002   0.005  -0.000  -0.000   0.000
  0.001  -0.004  -0.000  -0.002  -0.000   0.000   0.002  -0.001  -0.000  -0.000   0.004  -0.002  -0.001
 -0.001   0.005  -0.000   0.000   0.003   0.000  -0.001  -0.001   0.000  -0.000  -0.002   0.004   0.001
 -0.000   0.001  -0.001  -0.001  -0.002   0.000   0.001   0.003   0.000   0.000  -0.001   0.001   0.004


------------------------ aborting loop because EDIFF is reached ----------------------------------------





 total charge     

# of ion       s       p       d       tot
------------------------------------------
    1        1.785   4.716   0.017   6.519
    2        1.785   4.716   0.017   6.518
    3        1.785   4.716   0.017   6.519
    4        1.785   4.716   0.018   6.520
    5        1.785   4.717   0.017   6.519
    6        1.786   4.717   0.018   6.520
    7        1.788   4.718   0.022   6.527
    8        1.786   4.717   0.019   6.521
    9        1.554   0.423   9.835  11.811
   10        1.531   0.436   9.829  11.796
   11        1.553   0.412   9.833  11.798
   12        1.554   0.418   9.834  11.805
   13        1.534   0.430   9.830  11.795
   14        1.554   0.415   9.833  11.801
   15        1.554   0.417   9.834  11.804
   16        1.531   0.554   9.849  11.934
   17        1.615   3.281   0.007   4.902
   18        1.614   3.285   0.007   4.906
   19        1.615   3.285   0.007   4.906
   20        1.618   3.266   0.008   4.892
   21        1.614   3.287   0.007   4.908
   22        1.614   3.280   0.006   4.900
   23        1.614   3.287   0.007   4.908
   24        1.614   3.279   0.006   4.899
   25        1.614   3.280   0.006   4.901
   26        1.617   3.268   0.007   4.893
   27        1.614   3.280   0.006   4.899
   28        1.614   3.278   0.006   4.897
   29        1.614   3.284   0.006   4.905
   30        1.614   3.285   0.006   4.905
   31        1.614   3.279   0.006   4.899
   32        1.614   3.284   0.006   4.905
   33        1.614   3.278   0.006   4.898
   34        1.614   3.277   0.006   4.897
   35        1.614   3.284   0.006   4.904
   36        1.614   3.280   0.006   4.900
   37        1.615   3.279   0.006   4.900
   38        1.614   3.280   0.006   4.900
   39        1.622   3.315   0.017   4.954
--------------------------------------------------
tot         63.792 116.716  78.980 259.488

    CHARGE:  cpu time    0.3950: real time    0.3950
    FORLOC:  cpu time    0.0111: real time    0.0111
    FORNL :  cpu time    1.9138: real time    1.9139
    STRESS:  cpu time   49.7444: real time   49.7460
    FORCOR:  cpu time    0.2412: real time    0.2413
    FORHAR:  cpu time    0.0276: real time    0.0276
    MIXING:  cpu time    0.0021: real time    0.0021
    OFIELD:  cpu time    0.0000: real time    0.0000

  FORCE on cell =-STRESS in cart. coord.  units (eV):
  Direction    XX          YY          ZZ          XY          YZ          ZX
  --------------------------------------------------------------------------------------
  Alpha Z   872.70584   872.70584   872.70584
  Ewald   -5970.44372 -5956.79019 -5982.40051   -71.71451   171.00426   134.81525
  Hartree  2517.22349  2473.32965  2490.39103   -37.71036    90.43590   100.76385
  E(xc)   -1449.79535 -1449.63209 -1449.59049    -0.02672     0.22671     0.02385
  Local   -2939.82203 -2906.36354 -2901.96997   108.55369  -260.37158  -237.54212
  n-local  1749.53979  1751.41856  1751.10621    -2.27208     3.89098    -0.73844
  augment   818.25853   816.95152   817.29516    -0.16934     0.17463     0.50873
  Kinetic  4396.52838  4396.88604  4401.55710     2.31260    -1.40383     0.69635
  Fock        0.00000     0.00000     0.00000     0.00000     0.00000     0.00000
  -------------------------------------------------------------------------------------
  Total      -5.80508    -1.49420    -0.90563    -1.02671     3.95708    -1.47253
  in kB      -5.83088    -1.50084    -0.90965    -1.03127     3.97467    -1.47908
  external pressure =       -2.75 kB  Pullay stress =        0.00 kB


 VOLUME and BASIS-vectors are now :
 -----------------------------------------------------------------------------
  energy-cutoff  :      300.00
  volume of cell :     1595.09
      direct lattice vectors                 reciprocal lattice vectors
     8.456489000  0.000000000  8.040301000     0.059126193 -0.000000000  0.062186727
     0.000000000 11.729847000  0.000000000     0.000000000  0.085252604 -0.000000000
    -8.456489000  0.000000000  8.040301000    -0.059126193  0.000000000  0.062186727

  length of vectors
    11.668703715 11.729847000 11.668703715     0.085808482  0.085252604  0.085808482


 FORCES acting on ions
    electron-ion (+dipol)            ewald-force                    non-local-force                 convergence-correction
 -----------------------------------------------------------------------------------------------
   0.145E+02 -.809E+01 -.322E+02   -.145E+02 0.802E+01 0.320E+02   0.230E-02 0.899E-01 0.156E+00   -.325E-04 0.168E-03 0.196E-03
   0.689E+02 -.329E+02 0.217E+02   -.683E+02 0.325E+02 -.214E+02   -.542E+00 0.390E+00 -.350E+00   0.736E-04 0.171E-03 -.237E-03
   0.286E+02 0.737E+01 -.182E+02   -.281E+02 -.730E+01 0.182E+02   -.430E+00 -.927E-01 -.125E-01   -.142E-03 -.185E-03 -.172E-04
   -.468E+02 0.595E+01 -.128E+02   0.467E+02 -.600E+01 0.128E+02   0.388E-01 0.296E-01 -.677E-01   0.204E-03 -.137E-03 -.174E-04
   -.175E+02 -.270E+02 -.282E+02   0.174E+02 0.268E+02 0.279E+02   0.163E+00 0.164E+00 0.264E+00   0.244E-03 0.120E-03 -.456E-04
   0.441E+02 -.851E+01 0.274E+02   -.440E+02 0.851E+01 -.274E+02   -.952E-01 0.597E-02 0.160E-01   -.246E-03 0.186E-03 0.215E-04
   -.289E+02 0.168E+02 0.588E+02   0.288E+02 -.168E+02 -.585E+02   0.133E+00 0.868E-01 -.641E-01   0.224E-04 -.166E-03 -.114E-03
   -.347E+02 0.897E+01 -.288E+02   0.345E+02 -.892E+01 0.285E+02   0.165E+00 -.848E-01 0.243E+00   0.845E-06 -.179E-03 0.167E-03
   -.141E+01 0.192E+00 0.837E+01   0.142E+01 -.429E+00 -.917E+01   -.353E-01 0.221E+00 0.764E+00   0.213E-04 0.501E-04 -.113E-03
   -.389E+01 0.101E+03 -.327E+02   0.413E+01 -.106E+03 0.343E+02   -.322E+00 0.545E+01 -.166E+01   -.528E-04 0.819E-03 -.783E-04
   -.273E+01 -.191E+02 0.499E+01   0.201E+01 0.194E+02 -.465E+01   0.695E+00 -.297E+00 -.291E+00   0.628E-04 0.679E-04 -.318E-04
   0.554E+01 0.166E+02 0.131E+00   -.480E+01 -.166E+02 0.118E-01   -.706E+00 0.259E-01 -.152E+00   -.712E-04 0.986E-04 0.336E-04
   -.911E+02 0.349E+02 0.573E+02   0.952E+02 -.356E+02 -.600E+02   -.435E+01 0.859E+00 0.283E+01   -.418E-03 0.470E-04 0.374E-03
   0.159E+02 -.121E+02 0.131E+01   -.161E+02 0.119E+02 -.215E+01   0.291E+00 0.182E+00 0.856E+00   -.162E-03 -.111E-03 -.763E-04
   -.433E+01 0.121E+01 0.999E+01   0.468E+01 -.880E+00 -.991E+01   -.360E+00 -.324E+00 -.535E-01   -.941E-05 -.391E-04 -.989E-04
   -.136E+01 0.117E+02 -.364E+01   0.455E+01 -.178E+02 -.349E+01   -.214E+01 0.457E+01 0.533E+01   0.175E-03 -.436E-03 -.144E-03
   -.364E+01 0.842E+01 0.405E+02   0.366E+01 -.839E+01 -.408E+02   -.346E-01 0.476E-02 0.343E+00   0.337E-04 -.994E-04 0.203E-05
   0.256E+02 0.413E+01 0.361E+02   -.257E+02 -.412E+01 -.364E+02   0.848E-01 0.287E-01 0.257E+00   -.121E-03 -.129E-03 0.209E-04
   -.657E+01 -.688E+01 0.461E+02   0.669E+01 0.684E+01 -.465E+02   -.101E+00 0.247E-01 0.299E+00   0.253E-05 0.977E-04 -.935E-04
   0.967E+01 -.154E+02 0.122E+02   -.966E+01 0.157E+02 -.125E+02   -.592E-01 -.102E+01 0.421E+00   0.232E-04 0.193E-03 0.180E-03
   0.601E+01 0.751E+01 -.299E+02   -.611E+01 -.755E+01 0.301E+02   0.847E-01 0.257E-01 -.190E+00   0.106E-04 -.991E-04 -.167E-04
   -.257E+02 -.106E+02 -.197E+02   0.258E+02 0.106E+02 0.200E+02   -.777E-01 -.182E-02 -.301E+00   0.657E-04 0.116E-03 -.436E-04
   -.119E+02 -.640E+01 -.282E+02   0.120E+02 0.642E+01 0.283E+02   -.134E+00 -.350E-01 -.126E+00   -.243E-04 0.124E-03 0.558E-05
   -.472E+02 0.194E+02 0.209E+02   0.473E+02 -.196E+02 -.212E+02   -.145E+00 0.187E+00 0.274E+00   0.146E-03 0.124E-04 0.585E-04
   -.518E+01 0.703E+01 0.197E+02   0.548E+01 -.715E+01 -.198E+02   -.136E+00 0.809E-01 0.133E+00   -.216E-03 -.898E-05 -.438E-04
   0.302E+02 -.347E+02 0.806E+01   -.306E+02 0.348E+02 -.819E+01   0.897E+00 0.296E-01 -.333E+00   -.342E-04 -.104E-03 0.207E-03
   0.294E+02 -.150E+02 0.404E+02   -.296E+02 0.152E+02 -.406E+02   0.198E+00 -.159E+00 0.246E+00   0.136E-04 -.101E-03 -.190E-03
   -.288E+02 -.219E+02 -.842E+01   0.291E+02 0.221E+02 0.864E+01   -.234E+00 -.152E+00 -.217E+00   0.782E-05 0.145E-03 -.136E-03
   -.155E+02 -.171E+02 -.367E+02   0.156E+02 0.173E+02 0.370E+02   -.144E+00 -.215E+00 -.326E+00   -.711E-04 0.413E-04 0.814E-04
   0.286E+02 0.834E+01 -.176E+02   -.288E+02 -.845E+01 0.179E+02   0.170E+00 0.114E+00 -.308E+00   -.798E-04 0.494E-04 -.103E-03
   0.435E+01 0.359E+02 -.374E+02   -.459E+01 -.361E+02 0.375E+02   0.235E+00 0.203E+00 -.115E+00   0.895E-04 0.320E-04 0.865E-04
   -.353E+02 -.115E+02 0.123E+02   0.356E+02 0.116E+02 -.125E+02   -.195E+00 -.887E-01 0.208E+00   0.128E-03 0.245E-04 0.595E-04
   0.427E+01 -.281E+01 0.365E+02   -.405E+01 0.300E+01 -.368E+02   -.210E+00 -.184E+00 0.278E+00   -.149E-03 0.973E-04 -.260E-04
   0.214E+02 0.316E+02 0.955E+01   -.215E+02 -.318E+02 -.987E+01   0.136E+00 0.209E+00 0.299E+00   0.290E-05 0.276E-04 0.140E-03
   0.187E+02 0.165E+02 0.276E+02   -.189E+02 -.166E+02 -.277E+02   0.177E+00 0.838E-01 0.101E+00   0.479E-04 0.703E-04 -.109E-03
   0.200E+02 -.212E+01 0.161E+01   -.202E+02 0.227E+01 -.138E+01   0.171E+00 -.145E+00 -.230E+00   -.846E-04 -.105E-03 -.121E-03
   0.949E+01 -.202E+02 -.459E+02   -.964E+01 0.204E+02 0.463E+02   -.184E-01 -.224E+00 -.520E+00   0.162E-03 -.115E-03 0.119E-03
   -.183E+02 0.126E+02 -.327E+02   0.185E+02 -.128E+02 0.331E+02   -.136E+00 0.171E+00 -.317E+00   -.822E-04 0.930E-05 0.107E-03
   0.526E+02 -.943E+02 -.966E+02   -.538E+02 0.959E+02 0.983E+02   -.185E+00 0.355E+00 0.458E+00   0.881E-04 -.257E-03 -.106E-03
 -----------------------------------------------------------------------------------------------
   0.710E+01 -.106E+02 -.814E+01   0.284E-13 -.142E-12 -.142E-13   -.715E+01 0.106E+02 0.814E+01   -.370E-03 0.498E-03 -.100E-03


 POSITION                                       TOTAL-FORCE (eV/Angst)
 -----------------------------------------------------------------------------------
      0.54122      2.91205      3.84671        -0.013532      0.035390      0.028208
      0.58443      2.89544     11.91217         0.028183      0.016566     -0.004342
      3.80247      8.81890      7.86895         0.008575     -0.037180     -0.006719
     -4.75415      8.76546      7.92288         0.012150     -0.007265     -0.008717
     -3.99874      2.78374      7.96937        -0.006369     -0.019550     -0.046855
      4.84663      2.92857      8.27330        -0.017410      0.018226      0.014845
     -0.49728      8.95636     12.52870         0.039016      0.118831      0.203928
     -0.54261      8.84624      3.99128        -0.007280     -0.021623     -0.022100
      0.01902      0.03300      0.03100        -0.019579     -0.008026     -0.013306
     -0.05092     11.71625      8.08338        -0.065698      0.281072     -0.044692
      4.21344      0.03647      4.09315        -0.009745     -0.020491      0.031812
      4.25190     11.69944     12.02955         0.018277      0.007481     -0.011769
      4.19360      5.91873      4.03984        -0.231843      0.094942      0.123220
      4.23547      5.86949     12.01938         0.027826     -0.004167      0.012646
     -8.42808      5.85830      8.02474        -0.002976      0.000426      0.025214
      0.03534      5.75351      7.91755         1.084701     -1.650297     -1.845214
     -4.11438      8.82616     11.59599        -0.004582      0.043793      0.014437
      4.26893      8.78492     11.46805        -0.004506      0.026299     -0.008958
      0.04135      2.94775     15.54684         0.007605      0.000300     -0.008542
     -0.26444      2.84200      7.59028        -0.046974     -0.756558      0.107210
      0.04493      8.81053      0.39340        -0.001885      0.007206     -0.009329
      4.15192      2.99937      4.60158         0.011620     -0.014043     -0.004904
     -4.22880      2.92141      4.37227        -0.004899     -0.028170      0.002043
     -5.87508      5.47484      9.62231         0.020888     -0.000028      0.012396
      2.47909      5.45660      9.54162         0.137639     -0.032131      0.071548
      1.72977      6.38454      5.57320         0.527834      0.098777     -0.453501
      1.70857      6.21413     13.58757        -0.031977      0.001531      0.027522
     -1.72283      0.37277     10.54797        -0.002854      0.009543     -0.009652
     -1.65368      0.40624      2.44999         0.006819     -0.005668     -0.008870
      5.91358     11.42095      6.52216        -0.013939     -0.002834     -0.024451
     -2.48069     11.21762      6.45264         0.001769     -0.005690      0.010694
     -5.97026      0.33824      9.71216         0.007243     -0.005862      0.024734
      2.50289      0.36347      9.62338        -0.012123     -0.006274     -0.007283
      1.66195     11.24959      5.70274         0.007303      0.001718      0.003127
      1.82180     11.47100     13.71092        -0.011840     -0.002492      0.011013
      5.97323      6.24632      6.41488         0.000986     -0.001719     -0.013189
     -2.52685      6.22878      6.41669        -0.161943     -0.004737     -0.163120
     -1.65476      5.48682      2.42582         0.031063      0.002790     -0.022620
     -0.95901      7.27161      9.57786        -1.307542      1.869915      2.013537
 -----------------------------------------------------------------------------------
    total drift:                               -0.048050     -0.018346      0.004044


--------------------------------------------------------------------------------------------------------



  FREE ENERGIE OF THE ION-ELECTRON SYSTEM (eV)
  ---------------------------------------------------
  free  energy   TOTEN  =     -1408.88422785 eV

  energy  without entropy=    -1408.88422785  energy(sigma->0) =    -1408.88422785



--------------------------------------------------------------------------------------------------------


    POTLOK:  cpu time    1.4636: real time    1.4636


--------------------------------------------------------------------------------------------------------


 stress matrix after NEB project (eV)
     -5.80508     -1.02660     -1.47253
     -1.02671     -1.49420      3.95696
     -1.47266      3.95708     -0.90563
  FORCES: max atom, RMS     3.043120    0.678778
  FORCE total and by dimension    4.238968    2.013537
  Stress total and by dimension    8.632084    5.805080
     LOOP+:  cpu time  488.6448: real time  489.3953
    4ORBIT:  cpu time    0.0000: real time    0.0000



 total charge     

# of ion       s       p       d       tot
------------------------------------------
    1        1.785   4.716   0.017   6.519
    2        1.785   4.716   0.017   6.518
    3        1.785   4.716   0.017   6.519
    4        1.785   4.716   0.018   6.520
    5        1.785   4.717   0.017   6.519
    6        1.786   4.717   0.018   6.520
    7        1.788   4.718   0.022   6.527
    8        1.786   4.717   0.019   6.521
    9        1.554   0.423   9.835  11.811
   10        1.531   0.436   9.829  11.796
   11        1.553   0.412   9.833  11.798
   12        1.554   0.418   9.834  11.805
   13        1.534   0.430   9.830  11.795
   14        1.554   0.415   9.833  11.801
   15        1.554   0.417   9.834  11.804
   16        1.531   0.554   9.849  11.934
   17        1.615   3.281   0.007   4.902
   18        1.614   3.285   0.007   4.906
   19        1.615   3.285   0.007   4.906
   20        1.618   3.266   0.008   4.892
   21        1.614   3.287   0.007   4.908
   22        1.614   3.280   0.006   4.900
   23        1.614   3.287   0.007   4.908
   24        1.614   3.279   0.006   4.899
   25        1.614   3.280   0.006   4.901
   26        1.617   3.268   0.007   4.893
   27        1.614   3.280   0.006   4.899
   28        1.614   3.278   0.006   4.897
   29        1.614   3.284   0.006   4.905
   30        1.614   3.285   0.006   4.905
   31        1.614   3.279   0.006   4.899
   32        1.614   3.284   0.006   4.905
   33        1.614   3.278   0.006   4.898
   34        1.614   3.277   0.006   4.897
   35        1.614   3.284   0.006   4.904
   36        1.614   3.280   0.006   4.900
   37        1.615   3.279   0.006   4.900
   38        1.614   3.280   0.006   4.900
   39        1.622   3.315   0.017   4.954
--------------------------------------------------
tot         63.792 116.716  78.980 259.488


 total amount of memory used by VASP MPI-rank0    60651. kBytes
=======================================================================

   base      :      30000. kBytes
   nonlr-proj:       6486. kBytes
   fftplans  :       8423. kBytes
   grid      :       7465. kBytes
   one-center:         77. kBytes
   wavefun   :       8200. kBytes

  
  
 General timing and accounting informations for this job:
 ========================================================
  
                  Total CPU time used (sec):      501.057
                            User time (sec):      499.513
                          System time (sec):        1.544
                         Elapsed time (sec):      502.583
  
                   Maximum memory used (kb):       78536.
                   Average memory used (kb):           0.
  
                          Minor page faults:        20970
                          Major page faults:            1
                 Voluntary context switches:         1788
