<?xml version="1.0" encoding="ISO-8859-1"?>
<modeling>
 <generator>
  <i name="program" type="string">vasp </i>
  <i name="version" type="string">5.4.4.18Apr17-6-g9f103f2a35  </i>
  <i name="subversion" type="string">(build Jun 22 2020 09:27:21) complex            parallel </i>
  <i name="platform" type="string">tx2_gcc-7.3_libsci-18.07_cray-fftw-3.3.8 </i>
  <i name="date" type="string">2021 10 12 </i>
  <i name="time" type="string">03:11:44 </i>
 </generator>
 <incar>
  <i type="string" name="SYSTEM"> CsPbBr3 cubic bulk</i>
  <i type="string" name="PREC">accurate</i>
  <i type="string" name="ALGO"> NORMAL   ! Electronic minimisation algo</i>
  <i type="logical" name="ADDGRID"> T  </i>
  <i type="int" name="ISPIN">     1</i>
  <i type="int" name="NELM">   200</i>
  <i type="int" name="IBRION">     2</i>
  <i name="EDIFF">      0.00000100</i>
  <i name="EDIFFG">     -0.01000000</i>
  <i type="int" name="NSW">     0</i>
  <i type="int" name="ISIF">     2</i>
  <i type="int" name="ISYM">     0</i>
  <i name="ENCUT">    300.00000000</i>
  <i name="POTIM">      0.50000000</i>
  <i name="NUPDOWN">      0.00000000</i>
  <i name="NELECT">    344.00000000</i>
  <i type="string" name="LREAL"> AUTO</i>
  <i type="int" name="ISMEAR">     0</i>
  <i name="SIGMA">      0.01000000</i>
  <i type="logical" name="LWAVE"> F  </i>
  <i type="logical" name="LCHARG"> F  </i>
  <i type="logical" name="LVHAR"> T  </i>
  <i type="int" name="LORBIT">    10</i>
  <i type="logical" name="LASPH"> T  </i>
  <v type="int" name="KPOINT_BSE">    -1     0     0     0</v>
  <i type="int" name="NELM">   200</i>
  <i type="string" name="METAGGA"> SCAN       ! PBE exchange-correlation</i>
  <i type="logical" name="LASPH"> T  </i>
 </incar>
 <structure name="primitive_cell" >
  <crystal>
   <varray name="basis" >
    <v>       8.45648900       0.00000000       8.04030100 </v>
    <v>       0.00000000      11.72984700       0.00000000 </v>
    <v>      -8.45648900       0.00000000       8.04030100 </v>
   </varray>
   <i name="volume">   1595.08833419 </i>
   <varray name="rec_basis" >
    <v>       0.05912619      -0.00000000       0.06218673 </v>
    <v>       0.00000000       0.08525260      -0.00000000 </v>
    <v>      -0.05912619       0.00000000       0.06218673 </v>
   </varray>
  </crystal>
  <varray name="positions" >
   <v>       0.27121400       0.24826000       0.20721400 </v>
   <v>       0.05458100       0.03463300       0.25013300 </v>
   <v>       0.05301400       0.46776600       0.24869300 </v>
   <v>      -0.46835600       0.25570400       0.04067000 </v>
   <v>       0.45637900       0.24228800       0.48765000 </v>
   <v>       0.25096900       0.02883600      -0.04303400 </v>
   <v>       0.25100900       0.46674400      -0.05424900 </v>
   <v>       0.45289900      -0.04094300       0.25637000 </v>
   <v>       0.44885400      -0.45570100       0.24430400 </v>
   <v>      -0.03074800       0.25130300      -0.03563800 </v>
   <v>      -0.49633600       0.00310900       0.00541500 </v>
   <v>       0.49917600      -0.49541300       0.00327300 </v>
   <v>       0.02186400       0.24905800      -0.47807000 </v>
   <v>       0.00305200       0.00281300       0.00080300 </v>
   <v>       0.00071200       0.49943500      -0.00264700 </v>
   <v>       0.49445600       0.49050200       0.49027700 </v>
   <v>       0.49966800      -0.00115900      -0.49431000 </v>
   <v>       0.24963000      -0.46898000      -0.45156400 </v>
   <v>       0.25459500      -0.04366900      -0.45205800 </v>
   <v>      -0.19894800       0.24966800       0.22792700 </v>
   <v>       0.25915900       0.23732100      -0.26798100 </v>
   <v>      -0.00052300      -0.00259200       0.49668000 </v>
   <v>      -0.00212700      -0.49961100       0.49701900 </v>
   <v>       0.21612200      -0.24583500       0.28028700 </v>
   <v>      -0.26005900       0.46518900       0.44678300 </v>
   <v>      -0.25356700       0.03098700       0.45046000 </v>
   <v>       0.02712100      -0.24887900       0.02180800 </v>
   <v>      -0.24476100      -0.02633400       0.05594400 </v>
   <v>      -0.44592100       0.03178000      -0.24219200 </v>
   <v>      -0.24790500      -0.46748500       0.04574600 </v>
   <v>       0.47784900      -0.24754700      -0.03561600 </v>
   <v>      -0.03964700      -0.02206700      -0.25507900 </v>
   <v>      -0.05401200      -0.47022900      -0.25605500 </v>
   <v>      -0.46108700      -0.38007600      -0.34768200 </v>
   <v>      -0.03443400      -0.25106300       0.46075500 </v>
   <v>       0.21160300      -0.25272200      -0.22620700 </v>
   <v>      -0.28583000      -0.24816600       0.26451900 </v>
   <v>      -0.22466600       0.24684400      -0.29377600 </v>
   <v>      -0.25028300      -0.23644700      -0.19147900 </v>
  </varray>
 </structure>
 <varray name="primitive_index" >
  <v type="int" >        1 </v>
  <v type="int" >       29 </v>
  <v type="int" >       38 </v>
  <v type="int" >       22 </v>
  <v type="int" >       20 </v>
  <v type="int" >       32 </v>
  <v type="int" >       24 </v>
  <v type="int" >       34 </v>
  <v type="int" >       26 </v>
  <v type="int" >       19 </v>
  <v type="int" >       11 </v>
  <v type="int" >       13 </v>
  <v type="int" >       23 </v>
  <v type="int" >        9 </v>
  <v type="int" >       15 </v>
  <v type="int" >       16 </v>
  <v type="int" >       10 </v>
  <v type="int" >       37 </v>
  <v type="int" >       31 </v>
  <v type="int" >        6 </v>
  <v type="int" >        5 </v>
  <v type="int" >       12 </v>
  <v type="int" >       14 </v>
  <v type="int" >        8 </v>
  <v type="int" >       25 </v>
  <v type="int" >       33 </v>
  <v type="int" >       21 </v>
  <v type="int" >       30 </v>
  <v type="int" >       28 </v>
  <v type="int" >       36 </v>
  <v type="int" >       17 </v>
  <v type="int" >       35 </v>
  <v type="int" >       27 </v>
  <v type="int" >       39 </v>
  <v type="int" >       18 </v>
  <v type="int" >        4 </v>
  <v type="int" >        3 </v>
  <v type="int" >        2 </v>
  <v type="int" >        7 </v>
 </varray>
 <kpoints>
  <generation param="Gamma">
   <v type="int" name="divisions">       2        2        2 </v>
   <v name="usershift">      0.00000000       0.00000000       0.00000000 </v>
   <v name="genvec1">      0.50000000       0.00000000       0.00000000 </v>
   <v name="genvec2">      0.00000000       0.50000000       0.00000000 </v>
   <v name="genvec3">      0.00000000       0.00000000       0.50000000 </v>
   <v name="shift">      0.00000000       0.00000000       0.00000000 </v>
  </generation>
  <varray name="kpointlist" >
   <v>       0.00000000       0.00000000       0.00000000 </v>
   <v>       0.50000000       0.00000000       0.00000000 </v>
   <v>       0.00000000       0.50000000       0.00000000 </v>
   <v>       0.50000000       0.50000000       0.00000000 </v>
   <v>       0.00000000       0.00000000       0.50000000 </v>
   <v>       0.50000000       0.00000000       0.50000000 </v>
   <v>       0.00000000       0.50000000       0.50000000 </v>
   <v>       0.50000000       0.50000000       0.50000000 </v>
  </varray>
  <varray name="weights" >
   <v>       0.12500000 </v>
   <v>       0.12500000 </v>
   <v>       0.12500000 </v>
   <v>       0.12500000 </v>
   <v>       0.12500000 </v>
   <v>       0.12500000 </v>
   <v>       0.12500000 </v>
   <v>       0.12500000 </v>
  </varray>
 </kpoints>
 <parameters>
  <separator name="general" >
   <i type="string" name="SYSTEM">CsPbBr3 cubic bulk</i>
   <i type="logical" name="LCOMPAT"> F  </i>
  </separator>
  <separator name="electronic" >
   <i type="string" name="PREC">accura</i>
   <i name="ENMAX">    300.00000000</i>
   <i name="ENAUG">    503.85200000</i>
   <i name="EDIFF">      0.00000100</i>
   <i type="int" name="IALGO">    38</i>
   <i type="int" name="IWAVPR">    10</i>
   <i type="int" name="NBANDS">   208</i>
   <i name="NELECT">    344.00000000</i>
   <i type="int" name="TURBO">     0</i>
   <i type="int" name="IRESTART">     0</i>
   <i type="int" name="NREBOOT">     0</i>
   <i type="int" name="NMIN">     0</i>
   <i name="EREF">      0.00000000</i>
   <separator name="electronic smearing" >
    <i type="int" name="ISMEAR">     0</i>
    <i name="SIGMA">      0.01000000</i>
    <i name="KSPACING">      0.50000000</i>
    <i type="logical" name="KGAMMA"> T  </i>
   </separator>
   <separator name="electronic projectors" >
    <i type="logical" name="LREAL"> T  </i>
    <v name="ROPT">     -0.00025000     -0.00025000     -0.00025000</v>
    <i type="int" name="LMAXPAW">  -100</i>
    <i type="int" name="LMAXMIX">     2</i>
    <i type="logical" name="NLSPLINE"> F  </i>
   </separator>
   <separator name="electronic startup" >
    <i type="int" name="ISTART">     0</i>
    <i type="int" name="ICHARG">     2</i>
    <i type="int" name="INIWAV">     1</i>
   </separator>
   <separator name="electronic spin" >
    <i type="int" name="ISPIN">     1</i>
    <i type="logical" name="LNONCOLLINEAR"> F  </i>
    <v name="MAGMOM">      0.00000000      0.00000000      0.00000000      0.00000000      0.00000000      0.00000000      0.00000000      0.00000000      0.00000000      0.00000000      0.00000000      0.00000000      0.00000000      0.00000000      0.00000000      0.00000000      0.00000000      0.00000000      0.00000000      0.00000000
      0.00000000      0.00000000      0.00000000      0.00000000      0.00000000      0.00000000      0.00000000      0.00000000      0.00000000      0.00000000      0.00000000      0.00000000      0.00000000      0.00000000      0.00000000      0.00000000      0.00000000      0.00000000      0.00000000</v>
    <i name="NUPDOWN">      0.00000000</i>
    <i type="logical" name="LSORBIT"> F  </i>
    <v name="SAXIS">      0.00000000      0.00000000      1.00000000</v>
    <i type="logical" name="LSPIRAL"> F  </i>
    <v name="QSPIRAL">      0.00000000      0.00000000      0.00000000</v>
    <i type="logical" name="LZEROZ"> F  </i>
   </separator>
   <separator name="electronic exchange-correlation" >
    <i type="logical" name="LASPH"> T  </i>
    <i type="logical" name="LMETAGGA"> F  </i>
   </separator>
   <separator name="electronic convergence" >
    <i type="int" name="NELM">   200</i>
    <i type="int" name="NELMDL">    -5</i>
    <i type="int" name="NELMIN">     2</i>
    <i name="ENINI">    300.00000000</i>
    <separator name="electronic convergence detail" >
     <i type="logical" name="LDIAG"> T  </i>
     <i type="logical" name="LSUBROT"> F  </i>
     <i name="WEIMIN">      0.00000000</i>
     <i name="EBREAK">      0.00000000</i>
     <i name="DEPER">      0.30000000</i>
     <i type="int" name="NRMM">     4</i>
     <i name="TIME">      0.40000000</i>
    </separator>
   </separator>
   <separator name="electronic mixer" >
    <i name="AMIX">      0.40000000</i>
    <i name="BMIX">      1.00000000</i>
    <i name="AMIN">      0.10000000</i>
    <i name="AMIX_MAG">      1.60000000</i>
    <i name="BMIX_MAG">      1.00000000</i>
    <separator name="electronic mixer details" >
     <i type="int" name="IMIX">     4</i>
     <i type="logical" name="MIXFIRST"> F  </i>
     <i type="int" name="MAXMIX">   -45</i>
     <i name="WC">    100.00000000</i>
     <i type="int" name="INIMIX">     1</i>
     <i type="int" name="MIXPRE">     1</i>
     <i type="int" name="MREMOVE">     5</i>
    </separator>
   </separator>
   <separator name="electronic dipolcorrection" >
    <i type="logical" name="LDIPOL"> F  </i>
    <i type="logical" name="LMONO"> F  </i>
    <i type="int" name="IDIPOL">     0</i>
    <i name="EPSILON">      1.00000000</i>
    <v name="DIPOL">   -100.00000000   -100.00000000   -100.00000000</v>
    <i name="EFIELD">      0.00000000</i>
   </separator>
  </separator>
  <separator name="grids" >
   <i type="int" name="NGX">    70</i>
   <i type="int" name="NGY">    70</i>
   <i type="int" name="NGZ">    70</i>
   <i type="int" name="NGXF">   140</i>
   <i type="int" name="NGYF">   140</i>
   <i type="int" name="NGZF">   140</i>
   <i type="logical" name="ADDGRID"> T  </i>
  </separator>
  <separator name="ionic" >
   <i type="int" name="NSW">     0</i>
   <i type="int" name="IBRION">    -1</i>
   <i type="int" name="MDALGO">     0</i>
   <i type="int" name="ISIF">     2</i>
   <i name="PSTRESS">      0.00000000</i>
   <i name="EDIFFG">     -0.01000000</i>
   <i type="int" name="NFREE">     1</i>
   <i name="POTIM">      0.50000000</i>
   <i name="SMASS">     -3.00000000</i>
   <i name="SCALEE">      1.00000000</i>
  </separator>
  <separator name="ionic md" >
   <i name="TEBEG">      0.00010000</i>
   <i name="TEEND">      0.00010000</i>
   <i type="int" name="NBLOCK">     1</i>
   <i type="int" name="KBLOCK">     1</i>
   <i type="int" name="NPACO">   256</i>
   <i name="APACO">     16.00000000</i>
  </separator>
  <separator name="symmetry" >
   <i type="int" name="ISYM">     0</i>
   <i name="SYMPREC">      0.00001000</i>
  </separator>
  <separator name="dos" >
   <i type="int" name="LORBIT">    10</i>
   <v name="RWIGS">     -1.00000000     -1.00000000     -1.00000000</v>
   <i type="int" name="NEDOS">   301</i>
   <i name="EMIN">     10.00000000</i>
   <i name="EMAX">    -10.00000000</i>
   <i name="EFERMI">      0.00000000</i>
  </separator>
  <separator name="writing" >
   <i type="int" name="NWRITE">     2</i>
   <i type="logical" name="LWAVE"> F  </i>
   <i type="logical" name="LDOWNSAMPLE"> F  </i>
   <i type="logical" name="LCHARG"> F  </i>
   <i type="logical" name="LPARD"> F  </i>
   <i type="logical" name="LVTOT"> F  </i>
   <i type="logical" name="LVHAR"> T  </i>
   <i type="logical" name="LELF"> F  </i>
   <i type="logical" name="LOPTICS"> F  </i>
   <v name="STM">      0.00000000      0.00000000      0.00000000      0.00000000      0.00000000      0.00000000      0.00000000</v>
  </separator>
  <separator name="performance" >
   <i type="int" name="NPAR">     8</i>
   <i type="int" name="NSIM">     4</i>
   <i type="int" name="NBLK">    -1</i>
   <i type="logical" name="LPLANE"> T  </i>
   <i type="logical" name="LSCALAPACK"> T  </i>
   <i type="logical" name="LSCAAWARE"> F  </i>
   <i type="logical" name="LSCALU"> F  </i>
   <i type="logical" name="LASYNC"> F  </i>
   <i type="logical" name="LORBITALREAL"> F  </i>
  </separator>
  <separator name="miscellaneous" >
   <i type="int" name="IDIOT">     3</i>
   <i type="int" name="ISPECIAL">     0</i>
   <i type="logical" name="LMUSIC"> F  </i>
   <v name="POMASS">    132.90000000    207.20000000     79.90400000</v>
   <v name="DARWINR">      0.00000000      0.00000000      0.00000000</v>
   <v name="DARWINV">      1.00000000      1.00000000      1.00000000</v>
   <i type="logical" name="LCORR"> T  </i>
  </separator>
  <i type="logical" name="GGA_COMPAT"> T  </i>
  <i type="logical" name="LBERRY"> F  </i>
  <i type="int" name="ICORELEVEL">     0</i>
  <i type="logical" name="LDAU"> F  </i>
  <i type="int" name="I_CONSTRAINED_M">     0</i>
  <separator name="electronic exchange-correlation" >
   <i type="string" name="GGA">--</i>
   <i type="int" name="VOSKOWN">     0</i>
   <i type="logical" name="LHFCALC"> F  </i>
   <i type="string" name="PRECFOCK"></i>
   <i type="logical" name="LSYMGRAD"> F  </i>
   <i type="logical" name="LHFONE"> F  </i>
   <i type="logical" name="LRHFCALC"> F  </i>
   <i type="logical" name="LTHOMAS"> F  </i>
   <i type="logical" name="LMODELHF"> F  </i>
   <i name="ENCUT4O">     -1.00000000</i>
   <i type="int" name="EXXOEP">     0</i>
   <i type="int" name="FOURORBIT">     0</i>
   <i name="AEXX">      0.00000000</i>
   <i name="HFALPHA">      0.00000000</i>
   <i name="MCALPHA">      0.00000000</i>
   <i name="ALDAX">      1.00000000</i>
   <i name="AGGAX">      1.00000000</i>
   <i name="ALDAC">      1.00000000</i>
   <i name="AGGAC">      1.00000000</i>
   <i type="int" name="NKREDX">     1</i>
   <i type="int" name="NKREDY">     1</i>
   <i type="int" name="NKREDZ">     1</i>
   <i type="logical" name="SHIFTRED"> F  </i>
   <i type="logical" name="ODDONLY"> F  </i>
   <i type="logical" name="EVENONLY"> F  </i>
   <i type="int" name="LMAXFOCK">     0</i>
   <i type="int" name="NMAXFOCKAE">     0</i>
   <i type="logical" name="LFOCKAEDFT"> F  </i>
   <i name="HFSCREEN">      0.00000000</i>
   <i name="HFSCREENC">      0.00000000</i>
   <i type="int" name="NBANDSGWLOW">     0</i>
  </separator>
  <separator name="vdW DFT" >
   <i type="logical" name="LUSE_VDW"> F  </i>
   <i name="Zab_VDW">     -0.84910000</i>
   <i name="PARAM1">      0.12340000</i>
   <i name="PARAM2">      1.00000000</i>
   <i name="PARAM3">      0.00000000</i>
  </separator>
  <separator name="model GW" >
   <i type="int" name="MODEL_GW">     0</i>
   <i name="MODEL_EPS0">     24.53982053</i>
   <i name="MODEL_ALPHA">      1.00000000</i>
  </separator>
  <separator name="linear response parameters" >
   <i type="logical" name="LEPSILON"> F  </i>
   <i type="logical" name="LRPA"> F  </i>
   <i type="logical" name="LNABLA"> F  </i>
   <i type="logical" name="LVEL"> F  </i>
   <i type="int" name="KINTER">     0</i>
   <i name="CSHIFT">      0.10000000</i>
   <i name="OMEGAMAX">     -1.00000000</i>
   <i name="DEG_THRESHOLD">      0.00200000</i>
   <i name="RTIME">     -0.10000000</i>
   <i name="WPLASMAI">      0.00000000</i>
   <v name="DFIELD">      0.00000000      0.00000000      0.00000000</v>
   <v name="WPLASMA">      0.00000000      0.00000000      0.00000000      0.00000000      0.00000000      0.00000000      0.00000000      0.00000000      0.00000000</v>
  </separator>
  <separator name="orbital magnetization" >
   <i type="logical" name="NUCIND"> F  </i>
   <v name="MAGPOS">      0.00000000      0.00000000      0.00000000</v>
   <i type="logical" name="LNICSALL"> T  </i>
   <i type="logical" name="ORBITALMAG"> F  </i>
   <i type="logical" name="LMAGBLOCH"> F  </i>
   <i type="logical" name="LCHIMAG"> F  </i>
   <i type="logical" name="LGAUGE"> T  </i>
   <i type="int" name="MAGATOM">     0</i>
   <v name="MAGDIPOL">      0.00000000      0.00000000      0.00000000</v>
   <v name="AVECCONST">      0.00000000      0.00000000      0.00000000</v>
  </separator>
  <separator name="response functions" >
   <i type="logical" name="LADDER"> F  </i>
   <i type="logical" name="LRPAFORCE"> F  </i>
   <i type="logical" name="LFXC"> F  </i>
   <i type="logical" name="LHARTREE"> T  </i>
   <i type="int" name="IBSE">     0</i>
   <v type="int" name="KPOINT">    -1     0     0     0</v>
   <i type="logical" name="LTCTE"> F  </i>
   <i type="logical" name="LTETE"> F  </i>
   <i type="logical" name="LTRIPLET"> F  </i>
   <i type="logical" name="LFXCEPS"> F  </i>
   <i type="logical" name="LFXHEG"> F  </i>
   <i type="int" name="NATURALO">     2</i>
   <i type="logical" name="L2ORDER"> F  </i>
   <i type="logical" name="LMP2LT"> F  </i>
   <i type="logical" name="LUSEW"> F  </i>
   <i name="ENCUTGW">     -2.00000000</i>
   <i name="ENCUTGWSOFT">     -2.00000000</i>
   <i name="ENCUTLF">     -1.00000000</i>
   <i type="int" name="LMAXMP2">    -1</i>
   <i name="SCISSOR">      0.00000000</i>
   <i type="int" name="NOMEGA">     0</i>
   <i type="int" name="NOMEGAR">     0</i>
   <i type="int" name="NBANDSGW">    -1</i>
   <i type="int" name="NBANDSO">    -1</i>
   <i type="int" name="NBANDSV">    -1</i>
   <i type="int" name="NELM">   200</i>
   <i type="int" name="NELMHF">     1</i>
   <i type="int" name="DIM">     3</i>
   <i type="int" name="ANTIRES">     0</i>
   <i name="OMEGAMAX">    -30.00000000</i>
   <i name="OMEGAMIN">    -30.00000000</i>
   <i name="OMEGATL">   -200.00000000</i>
   <i type="int" name="OMEGAGRID">   140</i>
   <i name="CSHIFT">     -0.10000000</i>
   <i type="logical" name="SELFENERGY"> F  </i>
   <i type="logical" name="LSPECTRAL"> F  </i>
   <i type="logical" name="LSPECTRALGW"> F  </i>
   <i type="logical" name="LSINGLES"> F  </i>
   <i type="logical" name="LFERMIGW"> F  </i>
   <i type="logical" name="ODDONLYGW"> F  </i>
   <i type="logical" name="EVENONLYGW"> F  </i>
   <i type="int" name="NKREDLFX">     1</i>
   <i type="int" name="NKREDLFY">     1</i>
   <i type="int" name="NKREDLFZ">     1</i>
   <i type="int" name="MAXMEM">  2800</i>
   <i type="int" name="TELESCOPE">     0</i>
   <i type="int" name="TAUPAR">     1</i>
   <i type="int" name="OMEGAPAR">    -1</i>
   <i name="LAMBDA">      1.00000000</i>
  </separator>
  <separator name="External order field" >
   <i name="OFIELD_KAPPA">      0.00000000</i>
   <v name="OFIELD_K">      0.00000000      0.00000000      0.00000000</v>
   <i name="OFIELD_Q6_NEAR">      0.00000000</i>
   <i name="OFIELD_Q6_FAR">      0.00000000</i>
   <i name="OFIELD_A">      0.00000000</i>
  </separator>
 </parameters>
 <atominfo>
  <atoms>      39 </atoms>
  <types>       3 </types>
  <array name="atoms" >
   <dimension dim="1">ion</dimension>
   <field type="string">element</field>
   <field type="int">atomtype</field>
   <set>
    <rc><c>Cs</c><c>   1</c></rc>
    <rc><c>Cs</c><c>   1</c></rc>
    <rc><c>Cs</c><c>   1</c></rc>
    <rc><c>Cs</c><c>   1</c></rc>
    <rc><c>Cs</c><c>   1</c></rc>
    <rc><c>Cs</c><c>   1</c></rc>
    <rc><c>Cs</c><c>   1</c></rc>
    <rc><c>Cs</c><c>   1</c></rc>
    <rc><c>Pb</c><c>   2</c></rc>
    <rc><c>Pb</c><c>   2</c></rc>
    <rc><c>Pb</c><c>   2</c></rc>
    <rc><c>Pb</c><c>   2</c></rc>
    <rc><c>Pb</c><c>   2</c></rc>
    <rc><c>Pb</c><c>   2</c></rc>
    <rc><c>Pb</c><c>   2</c></rc>
    <rc><c>Pb</c><c>   2</c></rc>
    <rc><c>Br</c><c>   3</c></rc>
    <rc><c>Br</c><c>   3</c></rc>
    <rc><c>Br</c><c>   3</c></rc>
    <rc><c>Br</c><c>   3</c></rc>
    <rc><c>Br</c><c>   3</c></rc>
    <rc><c>Br</c><c>   3</c></rc>
    <rc><c>Br</c><c>   3</c></rc>
    <rc><c>Br</c><c>   3</c></rc>
    <rc><c>Br</c><c>   3</c></rc>
    <rc><c>Br</c><c>   3</c></rc>
    <rc><c>Br</c><c>   3</c></rc>
    <rc><c>Br</c><c>   3</c></rc>
    <rc><c>Br</c><c>   3</c></rc>
    <rc><c>Br</c><c>   3</c></rc>
    <rc><c>Br</c><c>   3</c></rc>
    <rc><c>Br</c><c>   3</c></rc>
    <rc><c>Br</c><c>   3</c></rc>
    <rc><c>Br</c><c>   3</c></rc>
    <rc><c>Br</c><c>   3</c></rc>
    <rc><c>Br</c><c>   3</c></rc>
    <rc><c>Br</c><c>   3</c></rc>
    <rc><c>Br</c><c>   3</c></rc>
    <rc><c>Br</c><c>   3</c></rc>
   </set>
  </array>
  <array name="atomtypes" >
   <dimension dim="1">type</dimension>
   <field type="int">atomspertype</field>
   <field type="string">element</field>
   <field>mass</field>
   <field>valence</field>
   <field type="string">pseudopotential</field>
   <set>
    <rc><c>   8</c><c>Cs</c><c>    132.90000000</c><c>      9.00000000</c><c>  PAW_PBE Cs_sv 08Apr2002               </c></rc>
    <rc><c>   8</c><c>Pb</c><c>    207.20000000</c><c>     14.00000000</c><c>  PAW_PBE Pb_d 06Sep2000                </c></rc>
    <rc><c>  23</c><c>Br</c><c>     79.90400000</c><c>      7.00000000</c><c>  PAW_PBE Br 06Sep2000                  </c></rc>
   </set>
  </array>
 </atominfo>
 <structure name="initialpos" >
  <crystal>
   <varray name="basis" >
    <v>       8.45648900       0.00000000       8.04030100 </v>
    <v>       0.00000000      11.72984700       0.00000000 </v>
    <v>      -8.45648900       0.00000000       8.04030100 </v>
   </varray>
   <i name="volume">   1595.08833419 </i>
   <varray name="rec_basis" >
    <v>       0.05912619      -0.00000000       0.06218673 </v>
    <v>       0.00000000       0.08525260      -0.00000000 </v>
    <v>      -0.05912619       0.00000000       0.06218673 </v>
   </varray>
  </crystal>
  <varray name="positions" >
   <v>       0.27121400       0.24826000       0.20721400 </v>
   <v>       0.77533400       0.24684400       0.70622400 </v>
   <v>       0.71417000       0.75183400       0.26451900 </v>
   <v>       0.21160300       0.74727800       0.77379300 </v>
   <v>       0.25915900       0.23732100       0.73201900 </v>
   <v>       0.80105200       0.24966800       0.22792700 </v>
   <v>       0.74971700       0.76355300       0.80852100 </v>
   <v>       0.21612200       0.75416500       0.28028700 </v>
   <v>       0.00305200       0.00281300       0.00080300 </v>
   <v>       0.49966800       0.99884100       0.50569000 </v>
   <v>       0.50366400       0.00310900       0.00541500 </v>
   <v>       0.99947700       0.99740800       0.49668000 </v>
   <v>       0.49917600       0.50458700       0.00327300 </v>
   <v>       0.99787300       0.50038900       0.49701900 </v>
   <v>       0.00071200       0.49943500       0.99735300 </v>
   <v>       0.49445600       0.49050200       0.49027700 </v>
   <v>       0.47784900       0.75245300       0.96438400 </v>
   <v>       0.96556600       0.74893700       0.46075500 </v>
   <v>       0.96925200       0.25130300       0.96436200 </v>
   <v>       0.45637900       0.24228800       0.48765000 </v>
   <v>       0.02712100       0.75112100       0.02180800 </v>
   <v>       0.53164400       0.25570400       0.04067000 </v>
   <v>       0.02186400       0.24905800       0.52193000 </v>
   <v>       0.25100900       0.46674400       0.94575100 </v>
   <v>       0.73994100       0.46518900       0.44678300 </v>
   <v>       0.44885400       0.54429900       0.24430400 </v>
   <v>       0.94598800       0.52977100       0.74394500 </v>
   <v>       0.55407900       0.03178000       0.75780800 </v>
   <v>       0.05458100       0.03463300       0.25013300 </v>
   <v>       0.75523900       0.97366600       0.05594400 </v>
   <v>       0.25459500       0.95633100       0.54794200 </v>
   <v>       0.25096900       0.02883600       0.95696600 </v>
   <v>       0.74643300       0.03098700       0.45046000 </v>
   <v>       0.45289900       0.95905700       0.25637000 </v>
   <v>       0.96035300       0.97793300       0.74492100 </v>
   <v>       0.75209500       0.53251500       0.04574600 </v>
   <v>       0.24963000       0.53102000       0.54843600 </v>
   <v>       0.05301400       0.46776600       0.24869300 </v>
   <v>       0.53891300       0.61992400       0.65231800 </v>
  </varray>
 </structure>
 <calculation>
  <scstep>
   <time name="dav">   16.68   16.69</time>
   <time name="total">   18.17   18.19</time>
   <energy>
    <i name="alphaZ">    872.70583573 </i>
    <i name="ewald"> -17909.55527211 </i>
    <i name="hartreedc">  -7444.93650761 </i>
    <i name="XCdc">    908.40549092 </i>
    <i name="pawpsdc">  21345.28103884 </i>
    <i name="pawaedc"> -22405.85761495 </i>
    <i name="eentropy">     -0.00086237 </i>
    <i name="bandstr">   -244.63776826 </i>
    <i name="atom">  26212.11861568 </i>
    <i name="e_fr_energy">   1333.52295587 </i>
    <i name="e_wo_entrp">   1333.52381824 </i>
    <i name="e_0_energy">   1333.52338705 </i>
   </energy>
  </scstep>
  <scstep>
   <time name="dav">   18.58   18.60</time>
   <time name="total">   18.58   18.60</time>
   <energy>
    <i name="e_fr_energy">  -1115.01478050 </i>
    <i name="e_wo_entrp">  -1115.01478050 </i>
    <i name="e_0_energy">  -1115.01478050 </i>
   </energy>
  </scstep>
  <scstep>
   <time name="dav">   19.40   19.45</time>
   <time name="total">   19.40   19.45</time>
   <energy>
    <i name="e_fr_energy">  -1474.06301916 </i>
    <i name="e_wo_entrp">  -1474.06301916 </i>
    <i name="e_0_energy">  -1474.06301916 </i>
   </energy>
  </scstep>
  <scstep>
   <time name="dav">   18.02   18.08</time>
   <time name="total">   18.02   18.08</time>
   <energy>
    <i name="e_fr_energy">  -1486.22329732 </i>
    <i name="e_wo_entrp">  -1486.22329732 </i>
    <i name="e_0_energy">  -1486.22329732 </i>
   </energy>
  </scstep>
  <scstep>
   <time name="dav">   19.51   19.52</time>
   <time name="total">   22.21   22.23</time>
   <energy>
    <i name="e_fr_energy">  -1486.78561284 </i>
    <i name="e_wo_entrp">  -1486.78561284 </i>
    <i name="e_0_energy">  -1486.78561284 </i>
   </energy>
  </scstep>
  <scstep>
   <time name="dav">   19.16   19.16</time>
   <time name="total">   23.38   23.40</time>
   <energy>
    <i name="e_fr_energy">  -1409.15732534 </i>
    <i name="e_wo_entrp">  -1409.15732534 </i>
    <i name="e_0_energy">  -1409.15732534 </i>
   </energy>
  </scstep>
  <scstep>
   <time name="dav">   18.69   18.69</time>
   <time name="total">   22.89   22.92</time>
   <energy>
    <i name="e_fr_energy">  -1408.64358942 </i>
    <i name="e_wo_entrp">  -1408.64358942 </i>
    <i name="e_0_energy">  -1408.64358942 </i>
   </energy>
  </scstep>
  <scstep>
   <time name="dav">   18.35   18.35</time>
   <time name="total">   22.57   22.58</time>
   <energy>
    <i name="e_fr_energy">  -1408.81364727 </i>
    <i name="e_wo_entrp">  -1408.81364727 </i>
    <i name="e_0_energy">  -1408.81364727 </i>
   </energy>
  </scstep>
  <scstep>
   <time name="dav">   17.81   17.81</time>
   <time name="total">   22.02   22.03</time>
   <energy>
    <i name="e_fr_energy">  -1408.87699366 </i>
    <i name="e_wo_entrp">  -1408.87699366 </i>
    <i name="e_0_energy">  -1408.87699366 </i>
   </energy>
  </scstep>
  <scstep>
   <time name="dav">   19.91   19.91</time>
   <time name="total">   24.08   24.12</time>
   <energy>
    <i name="e_fr_energy">  -1408.88023888 </i>
    <i name="e_wo_entrp">  -1408.88023888 </i>
    <i name="e_0_energy">  -1408.88023888 </i>
   </energy>
  </scstep>
  <scstep>
   <time name="dav">   17.78   17.78</time>
   <time name="total">   22.02   22.03</time>
   <energy>
    <i name="e_fr_energy">  -1408.88228364 </i>
    <i name="e_wo_entrp">  -1408.88228364 </i>
    <i name="e_0_energy">  -1408.88228364 </i>
   </energy>
  </scstep>
  <scstep>
   <time name="dav">   17.11   17.11</time>
   <time name="total">   21.31   21.37</time>
   <energy>
    <i name="e_fr_energy">  -1408.88470502 </i>
    <i name="e_wo_entrp">  -1408.88470502 </i>
    <i name="e_0_energy">  -1408.88470502 </i>
   </energy>
  </scstep>
  <scstep>
   <time name="dav">   19.54   19.54</time>
   <time name="total">   23.75   23.79</time>
   <energy>
    <i name="e_fr_energy">  -1408.88424441 </i>
    <i name="e_wo_entrp">  -1408.88424441 </i>
    <i name="e_0_energy">  -1408.88424441 </i>
   </energy>
  </scstep>
  <scstep>
   <time name="dav">   18.29   18.29</time>
   <time name="total">   22.50   22.54</time>
   <energy>
    <i name="e_fr_energy">  -1408.88419122 </i>
    <i name="e_wo_entrp">  -1408.88419122 </i>
    <i name="e_0_energy">  -1408.88419122 </i>
   </energy>
  </scstep>
  <scstep>
   <time name="dav">   17.72   17.72</time>
   <time name="total">   21.90   21.95</time>
   <energy>
    <i name="e_fr_energy">  -1408.88417645 </i>
    <i name="e_wo_entrp">  -1408.88417645 </i>
    <i name="e_0_energy">  -1408.88417645 </i>
   </energy>
  </scstep>
  <scstep>
   <time name="dav">   17.83   17.83</time>
   <time name="total">   22.05   22.07</time>
   <energy>
    <i name="e_fr_energy">  -1408.88424081 </i>
    <i name="e_wo_entrp">  -1408.88424081 </i>
    <i name="e_0_energy">  -1408.88424081 </i>
   </energy>
  </scstep>
  <scstep>
   <time name="dav">   17.74   17.74</time>
   <time name="total">   21.91   21.98</time>
   <energy>
    <i name="e_fr_energy">  -1408.88423627 </i>
    <i name="e_wo_entrp">  -1408.88423627 </i>
    <i name="e_0_energy">  -1408.88423627 </i>
   </energy>
  </scstep>
  <scstep>
   <time name="dav">   14.09   14.09</time>
   <time name="total">   18.32   18.34</time>
   <energy>
    <i name="e_fr_energy">  -1408.88423429 </i>
    <i name="e_wo_entrp">  -1408.88423429 </i>
    <i name="e_0_energy">  -1408.88423429 </i>
   </energy>
  </scstep>
  <scstep>
   <time name="dav">   13.13   13.13</time>
   <time name="total">   17.32   17.38</time>
   <energy>
    <i name="e_fr_energy">  -1408.88423034 </i>
    <i name="e_wo_entrp">  -1408.88423034 </i>
    <i name="e_0_energy">  -1408.88423034 </i>
   </energy>
  </scstep>
  <scstep>
   <time name="dav">   12.75   12.75</time>
   <time name="total">   16.96   16.99</time>
   <energy>
    <i name="e_fr_energy">  -1408.88422753 </i>
    <i name="e_wo_entrp">  -1408.88422753 </i>
    <i name="e_0_energy">  -1408.88422753 </i>
   </energy>
  </scstep>
  <scstep>
   <time name="dav">   12.65   12.65</time>
   <time name="total">   14.14   14.16</time>
   <energy>
    <i name="alphaZ">    872.70583573 </i>
    <i name="ewald"> -17909.55527211 </i>
    <i name="hartreedc">  -7480.94202984 </i>
    <i name="XCdc">    944.04794690 </i>
    <i name="pawpsdc">  22843.76274349 </i>
    <i name="pawaedc"> -23903.05056342 </i>
    <i name="eentropy">     -0.00000000 </i>
    <i name="bandstr">  -2987.97150427 </i>
    <i name="atom">  26212.11861568 </i>
    <i name="e_fr_energy">  -1408.88422785 </i>
    <i name="e_wo_entrp">  -1408.88422785 </i>
    <i name="e_0_energy">  -1408.88422785 </i>
   </energy>
  </scstep>
  <structure>
   <crystal>
    <varray name="basis" >
     <v>       8.45648900       0.00000000       8.04030100 </v>
     <v>       0.00000000      11.72984700       0.00000000 </v>
     <v>      -8.45648900       0.00000000       8.04030100 </v>
    </varray>
    <i name="volume">   1595.08833419 </i>
    <varray name="rec_basis" >
     <v>       0.05912619      -0.00000000       0.06218673 </v>
     <v>       0.00000000       0.08525260      -0.00000000 </v>
     <v>      -0.05912619       0.00000000       0.06218673 </v>
    </varray>
   </crystal>
   <varray name="positions" >
    <v>       0.27121400       0.24826000       0.20721400 </v>
    <v>       0.77533400       0.24684400       0.70622400 </v>
    <v>       0.71417000       0.75183400       0.26451900 </v>
    <v>       0.21160300       0.74727800       0.77379300 </v>
    <v>       0.25915900       0.23732100       0.73201900 </v>
    <v>       0.80105200       0.24966800       0.22792700 </v>
    <v>       0.74971700       0.76355300       0.80852100 </v>
    <v>       0.21612200       0.75416500       0.28028700 </v>
    <v>       0.00305200       0.00281300       0.00080300 </v>
    <v>       0.49966800       0.99884100       0.50569000 </v>
    <v>       0.50366400       0.00310900       0.00541500 </v>
    <v>       0.99947700       0.99740800       0.49668000 </v>
    <v>       0.49917600       0.50458700       0.00327300 </v>
    <v>       0.99787300       0.50038900       0.49701900 </v>
    <v>       0.00071200       0.49943500       0.99735300 </v>
    <v>       0.49445600       0.49050200       0.49027700 </v>
    <v>       0.47784900       0.75245300       0.96438400 </v>
    <v>       0.96556600       0.74893700       0.46075500 </v>
    <v>       0.96925200       0.25130300       0.96436200 </v>
    <v>       0.45637900       0.24228800       0.48765000 </v>
    <v>       0.02712100       0.75112100       0.02180800 </v>
    <v>       0.53164400       0.25570400       0.04067000 </v>
    <v>       0.02186400       0.24905800       0.52193000 </v>
    <v>       0.25100900       0.46674400       0.94575100 </v>
    <v>       0.73994100       0.46518900       0.44678300 </v>
    <v>       0.44885400       0.54429900       0.24430400 </v>
    <v>       0.94598800       0.52977100       0.74394500 </v>
    <v>       0.55407900       0.03178000       0.75780800 </v>
    <v>       0.05458100       0.03463300       0.25013300 </v>
    <v>       0.75523900       0.97366600       0.05594400 </v>
    <v>       0.25459500       0.95633100       0.54794200 </v>
    <v>       0.25096900       0.02883600       0.95696600 </v>
    <v>       0.74643300       0.03098700       0.45046000 </v>
    <v>       0.45289900       0.95905700       0.25637000 </v>
    <v>       0.96035300       0.97793300       0.74492100 </v>
    <v>       0.75209500       0.53251500       0.04574600 </v>
    <v>       0.24963000       0.53102000       0.54843600 </v>
    <v>       0.05301400       0.46776600       0.24869300 </v>
    <v>       0.53891300       0.61992400       0.65231800 </v>
   </varray>
  </structure>
  <varray name="forces" >
   <v>      -0.01353153       0.03539014       0.02820769 </v>
   <v>       0.02818338       0.01656565      -0.00434164 </v>
   <v>       0.00857519      -0.03718015      -0.00671915 </v>
   <v>       0.01215013      -0.00726505      -0.00871710 </v>
   <v>      -0.00636879      -0.01955023      -0.04685461 </v>
   <v>      -0.01740984       0.01822594       0.01484451 </v>
   <v>       0.03901565       0.11883105       0.20392752 </v>
   <v>      -0.00728050      -0.02162295      -0.02210015 </v>
   <v>      -0.01957924      -0.00802599      -0.01330642 </v>
   <v>      -0.06569796       0.28107242      -0.04469203 </v>
   <v>      -0.00974540      -0.02049065       0.03181178 </v>
   <v>       0.01827651       0.00748085      -0.01176858 </v>
   <v>      -0.23184334       0.09494166       0.12322005 </v>
   <v>       0.02782594      -0.00416653       0.01264644 </v>
   <v>      -0.00297640       0.00042612       0.02521353 </v>
   <v>       1.08470077      -1.65029677      -1.84521358 </v>
   <v>      -0.00458241       0.04379290       0.01443747 </v>
   <v>      -0.00450625       0.02629948      -0.00895791 </v>
   <v>       0.00760452       0.00030000      -0.00854229 </v>
   <v>      -0.04697371      -0.75655801       0.10720984 </v>
   <v>      -0.00188477       0.00720589      -0.00932920 </v>
   <v>       0.01161987      -0.01404339      -0.00490377 </v>
   <v>      -0.00489917      -0.02816995       0.00204260 </v>
   <v>       0.02088801      -0.00002796       0.01239623 </v>
   <v>       0.13763931      -0.03213128       0.07154815 </v>
   <v>       0.52783360       0.09877740      -0.45350097 </v>
   <v>      -0.03197675       0.00153076       0.02752224 </v>
   <v>      -0.00285365       0.00954263      -0.00965233 </v>
   <v>       0.00681906      -0.00566840      -0.00887001 </v>
   <v>      -0.01393888      -0.00283413      -0.02445122 </v>
   <v>       0.00176897      -0.00569017       0.01069439 </v>
   <v>       0.00724336      -0.00586171       0.02473377 </v>
   <v>      -0.01212251      -0.00627374      -0.00728334 </v>
   <v>       0.00730314       0.00171789       0.00312710 </v>
   <v>      -0.01184018      -0.00249238       0.01101250 </v>
   <v>       0.00098573      -0.00171924      -0.01318882 </v>
   <v>      -0.16194300      -0.00473654      -0.16311970 </v>
   <v>       0.03106338       0.00278973      -0.02261973 </v>
   <v>      -1.30754224       1.86991469       2.01353675 </v>
  </varray>
  <varray name="stress" >
   <v>      -5.83087936      -1.03116058      -1.47907556 </v>
   <v>      -1.03127278      -1.50084237       3.97454467 </v>
   <v>      -1.47920113       3.97466773      -0.90965337 </v>
  </varray>
  <energy>
   <i name="e_fr_energy">  -1408.88422785 </i>
   <i name="e_wo_entrp">  -1408.88422785 </i>
   <i name="e_0_energy">     -0.00000000 </i>
  </energy>
  <time name="totalsc">  488.64  489.40</time>
  <eigenvalues>
   <array>
    <dimension dim="1">band</dimension>
    <dimension dim="2">kpoint</dimension>
    <dimension dim="3">spin</dimension>
    <field>eigene</field>
    <field>occ</field>
    <set>
     <set comment="spin 1">
      <set comment="kpoint 1">
       <r>  -20.9106    1.0000 </r>
       <r>  -20.8864    1.0000 </r>
       <r>  -20.8576    1.0000 </r>
       <r>  -20.7766    1.0000 </r>
       <r>  -20.7232    1.0000 </r>
       <r>  -20.7205    1.0000 </r>
       <r>  -20.6896    1.0000 </r>
       <r>  -20.6563    1.0000 </r>
       <r>  -16.7252    1.0000 </r>
       <r>  -16.6914    1.0000 </r>
       <r>  -16.6879    1.0000 </r>
       <r>  -16.6746    1.0000 </r>
       <r>  -16.6664    1.0000 </r>
       <r>  -16.5949    1.0000 </r>
       <r>  -16.5911    1.0000 </r>
       <r>  -16.5893    1.0000 </r>
       <r>  -16.5827    1.0000 </r>
       <r>  -16.5469    1.0000 </r>
       <r>  -16.5464    1.0000 </r>
       <r>  -16.4578    1.0000 </r>
       <r>  -16.4437    1.0000 </r>
       <r>  -16.4370    1.0000 </r>
       <r>  -16.4182    1.0000 </r>
       <r>  -16.4079    1.0000 </r>
       <r>  -16.3982    1.0000 </r>
       <r>  -16.3907    1.0000 </r>
       <r>  -16.3587    1.0000 </r>
       <r>  -16.3580    1.0000 </r>
       <r>  -16.3548    1.0000 </r>
       <r>  -16.3464    1.0000 </r>
       <r>  -16.3377    1.0000 </r>
       <r>  -16.3298    1.0000 </r>
       <r>  -16.3200    1.0000 </r>
       <r>  -16.3043    1.0000 </r>
       <r>  -16.3020    1.0000 </r>
       <r>  -16.2893    1.0000 </r>
       <r>  -16.2861    1.0000 </r>
       <r>  -16.2843    1.0000 </r>
       <r>  -16.2800    1.0000 </r>
       <r>  -16.2766    1.0000 </r>
       <r>  -16.2685    1.0000 </r>
       <r>  -16.2680    1.0000 </r>
       <r>  -16.2633    1.0000 </r>
       <r>  -16.2551    1.0000 </r>
       <r>  -16.2215    1.0000 </r>
       <r>  -16.2173    1.0000 </r>
       <r>  -16.2074    1.0000 </r>
       <r>  -16.1966    1.0000 </r>
       <r>  -14.5291    1.0000 </r>
       <r>  -14.3823    1.0000 </r>
       <r>  -14.3281    1.0000 </r>
       <r>  -14.2734    1.0000 </r>
       <r>  -14.1498    1.0000 </r>
       <r>  -14.1136    1.0000 </r>
       <r>  -14.0846    1.0000 </r>
       <r>  -14.0738    1.0000 </r>
       <r>  -14.0672    1.0000 </r>
       <r>  -14.0527    1.0000 </r>
       <r>  -14.0507    1.0000 </r>
       <r>  -14.0426    1.0000 </r>
       <r>  -14.0367    1.0000 </r>
       <r>  -14.0276    1.0000 </r>
       <r>  -14.0163    1.0000 </r>
       <r>  -13.9370    1.0000 </r>
       <r>  -13.9290    1.0000 </r>
       <r>  -13.9011    1.0000 </r>
       <r>  -13.8992    1.0000 </r>
       <r>  -13.7757    1.0000 </r>
       <r>  -13.7661    1.0000 </r>
       <r>  -13.7134    1.0000 </r>
       <r>  -13.6772    1.0000 </r>
       <r>   -8.1982    1.0000 </r>
       <r>   -7.7875    1.0000 </r>
       <r>   -7.7678    1.0000 </r>
       <r>   -7.7093    1.0000 </r>
       <r>   -7.3615    1.0000 </r>
       <r>   -7.3389    1.0000 </r>
       <r>   -7.3245    1.0000 </r>
       <r>   -7.3038    1.0000 </r>
       <r>   -7.2854    1.0000 </r>
       <r>   -7.2806    1.0000 </r>
       <r>   -7.2658    1.0000 </r>
       <r>   -7.2512    1.0000 </r>
       <r>   -7.2480    1.0000 </r>
       <r>   -7.2348    1.0000 </r>
       <r>   -7.2120    1.0000 </r>
       <r>   -7.1924    1.0000 </r>
       <r>   -7.1763    1.0000 </r>
       <r>   -7.1624    1.0000 </r>
       <r>   -7.1571    1.0000 </r>
       <r>   -7.1446    1.0000 </r>
       <r>   -7.1289    1.0000 </r>
       <r>   -7.1265    1.0000 </r>
       <r>   -7.1128    1.0000 </r>
       <r>   -7.1015    1.0000 </r>
       <r>   -7.0968    1.0000 </r>
       <r>   -7.0847    1.0000 </r>
       <r>   -7.0786    1.0000 </r>
       <r>   -7.0709    1.0000 </r>
       <r>   -7.0651    1.0000 </r>
       <r>   -7.0489    1.0000 </r>
       <r>   -7.0278    1.0000 </r>
       <r>   -6.5769    1.0000 </r>
       <r>   -3.3581    1.0000 </r>
       <r>   -3.3270    1.0000 </r>
       <r>   -3.2957    1.0000 </r>
       <r>   -3.2865    1.0000 </r>
       <r>   -3.2385    1.0000 </r>
       <r>   -3.2143    1.0000 </r>
       <r>   -3.1962    1.0000 </r>
       <r>   -3.1776    1.0000 </r>
       <r>   -3.1484    1.0000 </r>
       <r>   -3.0695    1.0000 </r>
       <r>   -3.0419    1.0000 </r>
       <r>   -2.8954    1.0000 </r>
       <r>   -2.2485    1.0000 </r>
       <r>   -2.1827    1.0000 </r>
       <r>   -2.1513    1.0000 </r>
       <r>   -2.1264    1.0000 </r>
       <r>   -2.0373    1.0000 </r>
       <r>   -1.9883    1.0000 </r>
       <r>   -1.9482    1.0000 </r>
       <r>   -1.9101    1.0000 </r>
       <r>   -1.8825    1.0000 </r>
       <r>   -1.8556    1.0000 </r>
       <r>   -1.7948    1.0000 </r>
       <r>   -1.7358    1.0000 </r>
       <r>   -1.7160    1.0000 </r>
       <r>   -1.6777    1.0000 </r>
       <r>   -1.6575    1.0000 </r>
       <r>   -1.6128    1.0000 </r>
       <r>   -1.5812    1.0000 </r>
       <r>   -1.5678    1.0000 </r>
       <r>   -1.5452    1.0000 </r>
       <r>   -1.5186    1.0000 </r>
       <r>   -1.5072    1.0000 </r>
       <r>   -1.4958    1.0000 </r>
       <r>   -1.4860    1.0000 </r>
       <r>   -1.4698    1.0000 </r>
       <r>   -1.4609    1.0000 </r>
       <r>   -1.4288    1.0000 </r>
       <r>   -1.4157    1.0000 </r>
       <r>   -1.4056    1.0000 </r>
       <r>   -1.3899    1.0000 </r>
       <r>   -1.3653    1.0000 </r>
       <r>   -1.3633    1.0000 </r>
       <r>   -1.3513    1.0000 </r>
       <r>   -1.3422    1.0000 </r>
       <r>   -1.3315    1.0000 </r>
       <r>   -1.3283    1.0000 </r>
       <r>   -1.3141    1.0000 </r>
       <r>   -1.3008    1.0000 </r>
       <r>   -1.2787    1.0000 </r>
       <r>   -1.2616    1.0000 </r>
       <r>   -1.2240    1.0000 </r>
       <r>   -1.2029    1.0000 </r>
       <r>   -1.1747    1.0000 </r>
       <r>   -1.1534    1.0000 </r>
       <r>   -1.1306    1.0000 </r>
       <r>   -1.0985    1.0000 </r>
       <r>   -1.0785    1.0000 </r>
       <r>   -1.0338    1.0000 </r>
       <r>   -1.0045    1.0000 </r>
       <r>   -0.9398    1.0000 </r>
       <r>   -0.8389    1.0000 </r>
       <r>   -0.8052    1.0000 </r>
       <r>   -0.7321    1.0000 </r>
       <r>   -0.5786    1.0000 </r>
       <r>   -0.2529    1.0000 </r>
       <r>   -0.2321    1.0000 </r>
       <r>   -0.0569    1.0000 </r>
       <r>    0.4063    1.0000 </r>
       <r>    2.6111    0.0000 </r>
       <r>    2.7068    0.0000 </r>
       <r>    2.9107    0.0000 </r>
       <r>    2.9513    0.0000 </r>
       <r>    3.0458    0.0000 </r>
       <r>    3.1320    0.0000 </r>
       <r>    3.1615    0.0000 </r>
       <r>    3.1759    0.0000 </r>
       <r>    3.3695    0.0000 </r>
       <r>    3.4752    0.0000 </r>
       <r>    3.5262    0.0000 </r>
       <r>    3.5669    0.0000 </r>
       <r>    4.2110    0.0000 </r>
       <r>    4.8120    0.0000 </r>
       <r>    5.4134    0.0000 </r>
       <r>    5.5149    0.0000 </r>
       <r>    5.6813    0.0000 </r>
       <r>    5.7581    0.0000 </r>
       <r>    5.8111    0.0000 </r>
       <r>    5.8438    0.0000 </r>
       <r>    5.9068    0.0000 </r>
       <r>    5.9853    0.0000 </r>
       <r>    6.0621    0.0000 </r>
       <r>    6.1044    0.0000 </r>
       <r>    6.1192    0.0000 </r>
       <r>    6.1477    0.0000 </r>
       <r>    6.1980    0.0000 </r>
       <r>    6.2213    0.0000 </r>
       <r>    6.3199    0.0000 </r>
       <r>    6.3357    0.0000 </r>
       <r>    6.3819    0.0000 </r>
       <r>    6.4528    0.0000 </r>
       <r>    6.5048    0.0000 </r>
       <r>    6.5778    0.0000 </r>
       <r>    6.6013    0.0000 </r>
       <r>    6.7284    0.0000 </r>
      </set>
      <set comment="kpoint 2">
       <r>  -20.9106    1.0000 </r>
       <r>  -20.8864    1.0000 </r>
       <r>  -20.8576    1.0000 </r>
       <r>  -20.7766    1.0000 </r>
       <r>  -20.7232    1.0000 </r>
       <r>  -20.7205    1.0000 </r>
       <r>  -20.6896    1.0000 </r>
       <r>  -20.6563    1.0000 </r>
       <r>  -16.7251    1.0000 </r>
       <r>  -16.6910    1.0000 </r>
       <r>  -16.6873    1.0000 </r>
       <r>  -16.6724    1.0000 </r>
       <r>  -16.6645    1.0000 </r>
       <r>  -16.5949    1.0000 </r>
       <r>  -16.5911    1.0000 </r>
       <r>  -16.5893    1.0000 </r>
       <r>  -16.5827    1.0000 </r>
       <r>  -16.5469    1.0000 </r>
       <r>  -16.5465    1.0000 </r>
       <r>  -16.4456    1.0000 </r>
       <r>  -16.4420    1.0000 </r>
       <r>  -16.4378    1.0000 </r>
       <r>  -16.4214    1.0000 </r>
       <r>  -16.4117    1.0000 </r>
       <r>  -16.3950    1.0000 </r>
       <r>  -16.3899    1.0000 </r>
       <r>  -16.3675    1.0000 </r>
       <r>  -16.3582    1.0000 </r>
       <r>  -16.3560    1.0000 </r>
       <r>  -16.3466    1.0000 </r>
       <r>  -16.3378    1.0000 </r>
       <r>  -16.3299    1.0000 </r>
       <r>  -16.3221    1.0000 </r>
       <r>  -16.3095    1.0000 </r>
       <r>  -16.3021    1.0000 </r>
       <r>  -16.2894    1.0000 </r>
       <r>  -16.2861    1.0000 </r>
       <r>  -16.2844    1.0000 </r>
       <r>  -16.2800    1.0000 </r>
       <r>  -16.2766    1.0000 </r>
       <r>  -16.2685    1.0000 </r>
       <r>  -16.2680    1.0000 </r>
       <r>  -16.2633    1.0000 </r>
       <r>  -16.2551    1.0000 </r>
       <r>  -16.2215    1.0000 </r>
       <r>  -16.2173    1.0000 </r>
       <r>  -16.2074    1.0000 </r>
       <r>  -16.1966    1.0000 </r>
       <r>  -14.5261    1.0000 </r>
       <r>  -14.3765    1.0000 </r>
       <r>  -14.3166    1.0000 </r>
       <r>  -14.3019    1.0000 </r>
       <r>  -14.1875    1.0000 </r>
       <r>  -14.1533    1.0000 </r>
       <r>  -14.1033    1.0000 </r>
       <r>  -14.0779    1.0000 </r>
       <r>  -14.0741    1.0000 </r>
       <r>  -14.0522    1.0000 </r>
       <r>  -14.0375    1.0000 </r>
       <r>  -14.0358    1.0000 </r>
       <r>  -14.0303    1.0000 </r>
       <r>  -13.9999    1.0000 </r>
       <r>  -13.9762    1.0000 </r>
       <r>  -13.9341    1.0000 </r>
       <r>  -13.8685    1.0000 </r>
       <r>  -13.8607    1.0000 </r>
       <r>  -13.8377    1.0000 </r>
       <r>  -13.8269    1.0000 </r>
       <r>  -13.7742    1.0000 </r>
       <r>  -13.7617    1.0000 </r>
       <r>  -13.7099    1.0000 </r>
       <r>   -8.0070    1.0000 </r>
       <r>   -7.9535    1.0000 </r>
       <r>   -7.6478    1.0000 </r>
       <r>   -7.6111    1.0000 </r>
       <r>   -7.4573    1.0000 </r>
       <r>   -7.4092    1.0000 </r>
       <r>   -7.3338    1.0000 </r>
       <r>   -7.3220    1.0000 </r>
       <r>   -7.3000    1.0000 </r>
       <r>   -7.2910    1.0000 </r>
       <r>   -7.2800    1.0000 </r>
       <r>   -7.2611    1.0000 </r>
       <r>   -7.2494    1.0000 </r>
       <r>   -7.2397    1.0000 </r>
       <r>   -7.2260    1.0000 </r>
       <r>   -7.1932    1.0000 </r>
       <r>   -7.1809    1.0000 </r>
       <r>   -7.1635    1.0000 </r>
       <r>   -7.1568    1.0000 </r>
       <r>   -7.1453    1.0000 </r>
       <r>   -7.1381    1.0000 </r>
       <r>   -7.1274    1.0000 </r>
       <r>   -7.1180    1.0000 </r>
       <r>   -7.1030    1.0000 </r>
       <r>   -7.0974    1.0000 </r>
       <r>   -7.0816    1.0000 </r>
       <r>   -7.0723    1.0000 </r>
       <r>   -7.0712    1.0000 </r>
       <r>   -7.0514    1.0000 </r>
       <r>   -7.0413    1.0000 </r>
       <r>   -7.0137    1.0000 </r>
       <r>   -6.8029    1.0000 </r>
       <r>   -3.3176    1.0000 </r>
       <r>   -3.2948    1.0000 </r>
       <r>   -3.2910    1.0000 </r>
       <r>   -3.2232    1.0000 </r>
       <r>   -3.2159    1.0000 </r>
       <r>   -3.1636    1.0000 </r>
       <r>   -3.0579    1.0000 </r>
       <r>   -2.9549    1.0000 </r>
       <r>   -2.6723    1.0000 </r>
       <r>   -2.5598    1.0000 </r>
       <r>   -2.5346    1.0000 </r>
       <r>   -2.5038    1.0000 </r>
       <r>   -2.4586    1.0000 </r>
       <r>   -2.3910    1.0000 </r>
       <r>   -2.3839    1.0000 </r>
       <r>   -2.3165    1.0000 </r>
       <r>   -2.2527    1.0000 </r>
       <r>   -2.1139    1.0000 </r>
       <r>   -2.0508    1.0000 </r>
       <r>   -2.0312    1.0000 </r>
       <r>   -1.9888    1.0000 </r>
       <r>   -1.9467    1.0000 </r>
       <r>   -1.8931    1.0000 </r>
       <r>   -1.8556    1.0000 </r>
       <r>   -1.8222    1.0000 </r>
       <r>   -1.7838    1.0000 </r>
       <r>   -1.7569    1.0000 </r>
       <r>   -1.6946    1.0000 </r>
       <r>   -1.6620    1.0000 </r>
       <r>   -1.5980    1.0000 </r>
       <r>   -1.5557    1.0000 </r>
       <r>   -1.5151    1.0000 </r>
       <r>   -1.4977    1.0000 </r>
       <r>   -1.4863    1.0000 </r>
       <r>   -1.4759    1.0000 </r>
       <r>   -1.4639    1.0000 </r>
       <r>   -1.4464    1.0000 </r>
       <r>   -1.4303    1.0000 </r>
       <r>   -1.4051    1.0000 </r>
       <r>   -1.3925    1.0000 </r>
       <r>   -1.3845    1.0000 </r>
       <r>   -1.3745    1.0000 </r>
       <r>   -1.3644    1.0000 </r>
       <r>   -1.3485    1.0000 </r>
       <r>   -1.3276    1.0000 </r>
       <r>   -1.3028    1.0000 </r>
       <r>   -1.2876    1.0000 </r>
       <r>   -1.2850    1.0000 </r>
       <r>   -1.2620    1.0000 </r>
       <r>   -1.2518    1.0000 </r>
       <r>   -1.2405    1.0000 </r>
       <r>   -1.2247    1.0000 </r>
       <r>   -1.2105    1.0000 </r>
       <r>   -1.1789    1.0000 </r>
       <r>   -1.1390    1.0000 </r>
       <r>   -1.1356    1.0000 </r>
       <r>   -1.1250    1.0000 </r>
       <r>   -1.1152    1.0000 </r>
       <r>   -1.0893    1.0000 </r>
       <r>   -1.0379    1.0000 </r>
       <r>   -1.0005    1.0000 </r>
       <r>   -0.9413    1.0000 </r>
       <r>   -0.8535    1.0000 </r>
       <r>   -0.7864    1.0000 </r>
       <r>   -0.5494    1.0000 </r>
       <r>   -0.4566    1.0000 </r>
       <r>   -0.4164    1.0000 </r>
       <r>   -0.2054    1.0000 </r>
       <r>    0.0857    1.0000 </r>
       <r>    2.7287    0.0000 </r>
       <r>    2.9523    0.0000 </r>
       <r>    2.9894    0.0000 </r>
       <r>    3.0031    0.0000 </r>
       <r>    3.0760    0.0000 </r>
       <r>    3.2922    0.0000 </r>
       <r>    3.3476    0.0000 </r>
       <r>    3.4358    0.0000 </r>
       <r>    4.1529    0.0000 </r>
       <r>    4.1851    0.0000 </r>
       <r>    4.2856    0.0000 </r>
       <r>    4.4950    0.0000 </r>
       <r>    4.5216    0.0000 </r>
       <r>    4.6209    0.0000 </r>
       <r>    4.6952    0.0000 </r>
       <r>    4.7560    0.0000 </r>
       <r>    4.8723    0.0000 </r>
       <r>    5.2789    0.0000 </r>
       <r>    5.5189    0.0000 </r>
       <r>    5.5965    0.0000 </r>
       <r>    5.7185    0.0000 </r>
       <r>    5.7972    0.0000 </r>
       <r>    5.9396    0.0000 </r>
       <r>    5.9899    0.0000 </r>
       <r>    6.0387    0.0000 </r>
       <r>    6.1073    0.0000 </r>
       <r>    6.1488    0.0000 </r>
       <r>    6.2066    0.0000 </r>
       <r>    6.2346    0.0000 </r>
       <r>    6.3264    0.0000 </r>
       <r>    6.3405    0.0000 </r>
       <r>    6.3953    0.0000 </r>
       <r>    6.4652    0.0000 </r>
       <r>    6.5402    0.0000 </r>
       <r>    6.5745    0.0000 </r>
       <r>    6.6520    0.0000 </r>
      </set>
      <set comment="kpoint 3">
       <r>  -20.9106    1.0000 </r>
       <r>  -20.8864    1.0000 </r>
       <r>  -20.8576    1.0000 </r>
       <r>  -20.7766    1.0000 </r>
       <r>  -20.7232    1.0000 </r>
       <r>  -20.7205    1.0000 </r>
       <r>  -20.6896    1.0000 </r>
       <r>  -20.6563    1.0000 </r>
       <r>  -16.7249    1.0000 </r>
       <r>  -16.6902    1.0000 </r>
       <r>  -16.6882    1.0000 </r>
       <r>  -16.6719    1.0000 </r>
       <r>  -16.6665    1.0000 </r>
       <r>  -16.5949    1.0000 </r>
       <r>  -16.5911    1.0000 </r>
       <r>  -16.5892    1.0000 </r>
       <r>  -16.5827    1.0000 </r>
       <r>  -16.5469    1.0000 </r>
       <r>  -16.5465    1.0000 </r>
       <r>  -16.4589    1.0000 </r>
       <r>  -16.4460    1.0000 </r>
       <r>  -16.4220    1.0000 </r>
       <r>  -16.4067    1.0000 </r>
       <r>  -16.3997    1.0000 </r>
       <r>  -16.3978    1.0000 </r>
       <r>  -16.3937    1.0000 </r>
       <r>  -16.3772    1.0000 </r>
       <r>  -16.3583    1.0000 </r>
       <r>  -16.3544    1.0000 </r>
       <r>  -16.3464    1.0000 </r>
       <r>  -16.3378    1.0000 </r>
       <r>  -16.3366    1.0000 </r>
       <r>  -16.3298    1.0000 </r>
       <r>  -16.3048    1.0000 </r>
       <r>  -16.3020    1.0000 </r>
       <r>  -16.2893    1.0000 </r>
       <r>  -16.2861    1.0000 </r>
       <r>  -16.2844    1.0000 </r>
       <r>  -16.2800    1.0000 </r>
       <r>  -16.2766    1.0000 </r>
       <r>  -16.2683    1.0000 </r>
       <r>  -16.2681    1.0000 </r>
       <r>  -16.2633    1.0000 </r>
       <r>  -16.2551    1.0000 </r>
       <r>  -16.2214    1.0000 </r>
       <r>  -16.2173    1.0000 </r>
       <r>  -16.2074    1.0000 </r>
       <r>  -16.1966    1.0000 </r>
       <r>  -14.5240    1.0000 </r>
       <r>  -14.3865    1.0000 </r>
       <r>  -14.3300    1.0000 </r>
       <r>  -14.2701    1.0000 </r>
       <r>  -14.1878    1.0000 </r>
       <r>  -14.1523    1.0000 </r>
       <r>  -14.0939    1.0000 </r>
       <r>  -14.0774    1.0000 </r>
       <r>  -14.0709    1.0000 </r>
       <r>  -14.0516    1.0000 </r>
       <r>  -14.0515    1.0000 </r>
       <r>  -14.0413    1.0000 </r>
       <r>  -14.0193    1.0000 </r>
       <r>  -14.0154    1.0000 </r>
       <r>  -13.9400    1.0000 </r>
       <r>  -13.9365    1.0000 </r>
       <r>  -13.9007    1.0000 </r>
       <r>  -13.8677    1.0000 </r>
       <r>  -13.8553    1.0000 </r>
       <r>  -13.8315    1.0000 </r>
       <r>  -13.7747    1.0000 </r>
       <r>  -13.7635    1.0000 </r>
       <r>  -13.6808    1.0000 </r>
       <r>   -8.0431    1.0000 </r>
       <r>   -7.9410    1.0000 </r>
       <r>   -7.6597    1.0000 </r>
       <r>   -7.5059    1.0000 </r>
       <r>   -7.4749    1.0000 </r>
       <r>   -7.4586    1.0000 </r>
       <r>   -7.3380    1.0000 </r>
       <r>   -7.3217    1.0000 </r>
       <r>   -7.3061    1.0000 </r>
       <r>   -7.2832    1.0000 </r>
       <r>   -7.2721    1.0000 </r>
       <r>   -7.2704    1.0000 </r>
       <r>   -7.2492    1.0000 </r>
       <r>   -7.2355    1.0000 </r>
       <r>   -7.2269    1.0000 </r>
       <r>   -7.1896    1.0000 </r>
       <r>   -7.1767    1.0000 </r>
       <r>   -7.1613    1.0000 </r>
       <r>   -7.1581    1.0000 </r>
       <r>   -7.1428    1.0000 </r>
       <r>   -7.1312    1.0000 </r>
       <r>   -7.1268    1.0000 </r>
       <r>   -7.1137    1.0000 </r>
       <r>   -7.1086    1.0000 </r>
       <r>   -7.1029    1.0000 </r>
       <r>   -7.0855    1.0000 </r>
       <r>   -7.0721    1.0000 </r>
       <r>   -7.0625    1.0000 </r>
       <r>   -7.0535    1.0000 </r>
       <r>   -7.0479    1.0000 </r>
       <r>   -6.9491    1.0000 </r>
       <r>   -6.8770    1.0000 </r>
       <r>   -3.2991    1.0000 </r>
       <r>   -3.2761    1.0000 </r>
       <r>   -3.2437    1.0000 </r>
       <r>   -3.2350    1.0000 </r>
       <r>   -3.1607    1.0000 </r>
       <r>   -3.1461    1.0000 </r>
       <r>   -3.1373    1.0000 </r>
       <r>   -3.0795    1.0000 </r>
       <r>   -2.9611    1.0000 </r>
       <r>   -2.5314    1.0000 </r>
       <r>   -2.4730    1.0000 </r>
       <r>   -2.4459    1.0000 </r>
       <r>   -2.4236    1.0000 </r>
       <r>   -2.3861    1.0000 </r>
       <r>   -2.3580    1.0000 </r>
       <r>   -2.1998    1.0000 </r>
       <r>   -2.1109    1.0000 </r>
       <r>   -2.0613    1.0000 </r>
       <r>   -2.0319    1.0000 </r>
       <r>   -2.0242    1.0000 </r>
       <r>   -1.9983    1.0000 </r>
       <r>   -1.9566    1.0000 </r>
       <r>   -1.9238    1.0000 </r>
       <r>   -1.8510    1.0000 </r>
       <r>   -1.8322    1.0000 </r>
       <r>   -1.8120    1.0000 </r>
       <r>   -1.7268    1.0000 </r>
       <r>   -1.6955    1.0000 </r>
       <r>   -1.6433    1.0000 </r>
       <r>   -1.6332    1.0000 </r>
       <r>   -1.5815    1.0000 </r>
       <r>   -1.5608    1.0000 </r>
       <r>   -1.5307    1.0000 </r>
       <r>   -1.5034    1.0000 </r>
       <r>   -1.4793    1.0000 </r>
       <r>   -1.4681    1.0000 </r>
       <r>   -1.4422    1.0000 </r>
       <r>   -1.4218    1.0000 </r>
       <r>   -1.4159    1.0000 </r>
       <r>   -1.3849    1.0000 </r>
       <r>   -1.3824    1.0000 </r>
       <r>   -1.3785    1.0000 </r>
       <r>   -1.3543    1.0000 </r>
       <r>   -1.3499    1.0000 </r>
       <r>   -1.3410    1.0000 </r>
       <r>   -1.3271    1.0000 </r>
       <r>   -1.2978    1.0000 </r>
       <r>   -1.2795    1.0000 </r>
       <r>   -1.2585    1.0000 </r>
       <r>   -1.2414    1.0000 </r>
       <r>   -1.2336    1.0000 </r>
       <r>   -1.2243    1.0000 </r>
       <r>   -1.1878    1.0000 </r>
       <r>   -1.1665    1.0000 </r>
       <r>   -1.1587    1.0000 </r>
       <r>   -1.1439    1.0000 </r>
       <r>   -1.1091    1.0000 </r>
       <r>   -1.0955    1.0000 </r>
       <r>   -1.0819    1.0000 </r>
       <r>   -1.0622    1.0000 </r>
       <r>   -1.0235    1.0000 </r>
       <r>   -0.8690    1.0000 </r>
       <r>   -0.8395    1.0000 </r>
       <r>   -0.6932    1.0000 </r>
       <r>   -0.6423    1.0000 </r>
       <r>   -0.6217    1.0000 </r>
       <r>   -0.4192    1.0000 </r>
       <r>   -0.0520    1.0000 </r>
       <r>    0.0674    1.0000 </r>
       <r>    2.6596    0.0000 </r>
       <r>    2.8525    0.0000 </r>
       <r>    2.9487    0.0000 </r>
       <r>    3.0677    0.0000 </r>
       <r>    3.2333    0.0000 </r>
       <r>    3.3016    0.0000 </r>
       <r>    3.3250    0.0000 </r>
       <r>    3.3886    0.0000 </r>
       <r>    3.4707    0.0000 </r>
       <r>    4.0652    0.0000 </r>
       <r>    4.4450    0.0000 </r>
       <r>    4.4727    0.0000 </r>
       <r>    4.6491    0.0000 </r>
       <r>    4.7134    0.0000 </r>
       <r>    4.8658    0.0000 </r>
       <r>    4.9014    0.0000 </r>
       <r>    5.1705    0.0000 </r>
       <r>    5.3358    0.0000 </r>
       <r>    5.6359    0.0000 </r>
       <r>    5.6669    0.0000 </r>
       <r>    5.7214    0.0000 </r>
       <r>    5.7744    0.0000 </r>
       <r>    5.9157    0.0000 </r>
       <r>    5.9785    0.0000 </r>
       <r>    6.0334    0.0000 </r>
       <r>    6.1258    0.0000 </r>
       <r>    6.1314    0.0000 </r>
       <r>    6.1953    0.0000 </r>
       <r>    6.2953    0.0000 </r>
       <r>    6.3329    0.0000 </r>
       <r>    6.3951    0.0000 </r>
       <r>    6.4556    0.0000 </r>
       <r>    6.4858    0.0000 </r>
       <r>    6.5348    0.0000 </r>
       <r>    6.6008    0.0000 </r>
       <r>    6.6564    0.0000 </r>
      </set>
      <set comment="kpoint 4">
       <r>  -20.9106    1.0000 </r>
       <r>  -20.8864    1.0000 </r>
       <r>  -20.8576    1.0000 </r>
       <r>  -20.7766    1.0000 </r>
       <r>  -20.7232    1.0000 </r>
       <r>  -20.7205    1.0000 </r>
       <r>  -20.6896    1.0000 </r>
       <r>  -20.6563    1.0000 </r>
       <r>  -16.7248    1.0000 </r>
       <r>  -16.6896    1.0000 </r>
       <r>  -16.6876    1.0000 </r>
       <r>  -16.6699    1.0000 </r>
       <r>  -16.6647    1.0000 </r>
       <r>  -16.5949    1.0000 </r>
       <r>  -16.5911    1.0000 </r>
       <r>  -16.5893    1.0000 </r>
       <r>  -16.5827    1.0000 </r>
       <r>  -16.5470    1.0000 </r>
       <r>  -16.5464    1.0000 </r>
       <r>  -16.4498    1.0000 </r>
       <r>  -16.4423    1.0000 </r>
       <r>  -16.4236    1.0000 </r>
       <r>  -16.4079    1.0000 </r>
       <r>  -16.4017    1.0000 </r>
       <r>  -16.3965    1.0000 </r>
       <r>  -16.3899    1.0000 </r>
       <r>  -16.3858    1.0000 </r>
       <r>  -16.3583    1.0000 </r>
       <r>  -16.3582    1.0000 </r>
       <r>  -16.3466    1.0000 </r>
       <r>  -16.3394    1.0000 </r>
       <r>  -16.3378    1.0000 </r>
       <r>  -16.3299    1.0000 </r>
       <r>  -16.3102    1.0000 </r>
       <r>  -16.3021    1.0000 </r>
       <r>  -16.2894    1.0000 </r>
       <r>  -16.2862    1.0000 </r>
       <r>  -16.2844    1.0000 </r>
       <r>  -16.2800    1.0000 </r>
       <r>  -16.2766    1.0000 </r>
       <r>  -16.2683    1.0000 </r>
       <r>  -16.2682    1.0000 </r>
       <r>  -16.2633    1.0000 </r>
       <r>  -16.2551    1.0000 </r>
       <r>  -16.2215    1.0000 </r>
       <r>  -16.2173    1.0000 </r>
       <r>  -16.2075    1.0000 </r>
       <r>  -16.1966    1.0000 </r>
       <r>  -14.5226    1.0000 </r>
       <r>  -14.3793    1.0000 </r>
       <r>  -14.3231    1.0000 </r>
       <r>  -14.2705    1.0000 </r>
       <r>  -14.2310    1.0000 </r>
       <r>  -14.2016    1.0000 </r>
       <r>  -14.1271    1.0000 </r>
       <r>  -14.0925    1.0000 </r>
       <r>  -14.0807    1.0000 </r>
       <r>  -14.0534    1.0000 </r>
       <r>  -14.0332    1.0000 </r>
       <r>  -14.0160    1.0000 </r>
       <r>  -13.9363    1.0000 </r>
       <r>  -13.9334    1.0000 </r>
       <r>  -13.9218    1.0000 </r>
       <r>  -13.9140    1.0000 </r>
       <r>  -13.9072    1.0000 </r>
       <r>  -13.8956    1.0000 </r>
       <r>  -13.8445    1.0000 </r>
       <r>  -13.8234    1.0000 </r>
       <r>  -13.8039    1.0000 </r>
       <r>  -13.7705    1.0000 </r>
       <r>  -13.7367    1.0000 </r>
       <r>   -7.9074    1.0000 </r>
       <r>   -7.7505    1.0000 </r>
       <r>   -7.7307    1.0000 </r>
       <r>   -7.6713    1.0000 </r>
       <r>   -7.5165    1.0000 </r>
       <r>   -7.3378    1.0000 </r>
       <r>   -7.3296    1.0000 </r>
       <r>   -7.3055    1.0000 </r>
       <r>   -7.3005    1.0000 </r>
       <r>   -7.2850    1.0000 </r>
       <r>   -7.2723    1.0000 </r>
       <r>   -7.2555    1.0000 </r>
       <r>   -7.2481    1.0000 </r>
       <r>   -7.2366    1.0000 </r>
       <r>   -7.2301    1.0000 </r>
       <r>   -7.2128    1.0000 </r>
       <r>   -7.1981    1.0000 </r>
       <r>   -7.1889    1.0000 </r>
       <r>   -7.1599    1.0000 </r>
       <r>   -7.1534    1.0000 </r>
       <r>   -7.1426    1.0000 </r>
       <r>   -7.1332    1.0000 </r>
       <r>   -7.1286    1.0000 </r>
       <r>   -7.1166    1.0000 </r>
       <r>   -7.1091    1.0000 </r>
       <r>   -7.0938    1.0000 </r>
       <r>   -7.0854    1.0000 </r>
       <r>   -7.0752    1.0000 </r>
       <r>   -7.0656    1.0000 </r>
       <r>   -7.0481    1.0000 </r>
       <r>   -7.0366    1.0000 </r>
       <r>   -7.0346    1.0000 </r>
       <r>   -3.2642    1.0000 </r>
       <r>   -3.2044    1.0000 </r>
       <r>   -3.1992    1.0000 </r>
       <r>   -3.0940    1.0000 </r>
       <r>   -2.9981    1.0000 </r>
       <r>   -2.7407    1.0000 </r>
       <r>   -2.6698    1.0000 </r>
       <r>   -2.6595    1.0000 </r>
       <r>   -2.5996    1.0000 </r>
       <r>   -2.5882    1.0000 </r>
       <r>   -2.5289    1.0000 </r>
       <r>   -2.4385    1.0000 </r>
       <r>   -2.3993    1.0000 </r>
       <r>   -2.3847    1.0000 </r>
       <r>   -2.3579    1.0000 </r>
       <r>   -2.3385    1.0000 </r>
       <r>   -2.3242    1.0000 </r>
       <r>   -2.2653    1.0000 </r>
       <r>   -2.2631    1.0000 </r>
       <r>   -2.1670    1.0000 </r>
       <r>   -2.0319    1.0000 </r>
       <r>   -1.9954    1.0000 </r>
       <r>   -1.9865    1.0000 </r>
       <r>   -1.8919    1.0000 </r>
       <r>   -1.8558    1.0000 </r>
       <r>   -1.7857    1.0000 </r>
       <r>   -1.7696    1.0000 </r>
       <r>   -1.7354    1.0000 </r>
       <r>   -1.7183    1.0000 </r>
       <r>   -1.6913    1.0000 </r>
       <r>   -1.6459    1.0000 </r>
       <r>   -1.6299    1.0000 </r>
       <r>   -1.6033    1.0000 </r>
       <r>   -1.5895    1.0000 </r>
       <r>   -1.5773    1.0000 </r>
       <r>   -1.5316    1.0000 </r>
       <r>   -1.4857    1.0000 </r>
       <r>   -1.4801    1.0000 </r>
       <r>   -1.4558    1.0000 </r>
       <r>   -1.4203    1.0000 </r>
       <r>   -1.3981    1.0000 </r>
       <r>   -1.3730    1.0000 </r>
       <r>   -1.3581    1.0000 </r>
       <r>   -1.3113    1.0000 </r>
       <r>   -1.3083    1.0000 </r>
       <r>   -1.2765    1.0000 </r>
       <r>   -1.2606    1.0000 </r>
       <r>   -1.2544    1.0000 </r>
       <r>   -1.2379    1.0000 </r>
       <r>   -1.2286    1.0000 </r>
       <r>   -1.1967    1.0000 </r>
       <r>   -1.1746    1.0000 </r>
       <r>   -1.1654    1.0000 </r>
       <r>   -1.1542    1.0000 </r>
       <r>   -1.1384    1.0000 </r>
       <r>   -1.1272    1.0000 </r>
       <r>   -1.1264    1.0000 </r>
       <r>   -1.1095    1.0000 </r>
       <r>   -1.1020    1.0000 </r>
       <r>   -1.0582    1.0000 </r>
       <r>   -1.0126    1.0000 </r>
       <r>   -0.9537    1.0000 </r>
       <r>   -0.9238    1.0000 </r>
       <r>   -0.8701    1.0000 </r>
       <r>   -0.8261    1.0000 </r>
       <r>   -0.5982    1.0000 </r>
       <r>   -0.4393    1.0000 </r>
       <r>   -0.3966    1.0000 </r>
       <r>   -0.2925    1.0000 </r>
       <r>    2.7122    0.0000 </r>
       <r>    3.0584    0.0000 </r>
       <r>    3.1808    0.0000 </r>
       <r>    3.2394    0.0000 </r>
       <r>    3.3012    0.0000 </r>
       <r>    4.0505    0.0000 </r>
       <r>    4.2894    0.0000 </r>
       <r>    4.3199    0.0000 </r>
       <r>    4.3544    0.0000 </r>
       <r>    4.4342    0.0000 </r>
       <r>    4.5113    0.0000 </r>
       <r>    4.5596    0.0000 </r>
       <r>    4.5656    0.0000 </r>
       <r>    4.6186    0.0000 </r>
       <r>    4.6476    0.0000 </r>
       <r>    4.6915    0.0000 </r>
       <r>    4.7273    0.0000 </r>
       <r>    4.7654    0.0000 </r>
       <r>    4.8785    0.0000 </r>
       <r>    4.9391    0.0000 </r>
       <r>    5.3090    0.0000 </r>
       <r>    5.5643    0.0000 </r>
       <r>    5.7816    0.0000 </r>
       <r>    5.8677    0.0000 </r>
       <r>    5.9385    0.0000 </r>
       <r>    5.9600    0.0000 </r>
       <r>    6.0537    0.0000 </r>
       <r>    6.1047    0.0000 </r>
       <r>    6.2135    0.0000 </r>
       <r>    6.2450    0.0000 </r>
       <r>    6.3602    0.0000 </r>
       <r>    6.4001    0.0000 </r>
       <r>    6.4544    0.0000 </r>
       <r>    6.4888    0.0000 </r>
       <r>    6.5414    0.0000 </r>
       <r>    6.5981    0.0000 </r>
      </set>
      <set comment="kpoint 5">
       <r>  -20.9106    1.0000 </r>
       <r>  -20.8864    1.0000 </r>
       <r>  -20.8576    1.0000 </r>
       <r>  -20.7766    1.0000 </r>
       <r>  -20.7232    1.0000 </r>
       <r>  -20.7205    1.0000 </r>
       <r>  -20.6896    1.0000 </r>
       <r>  -20.6563    1.0000 </r>
       <r>  -16.7248    1.0000 </r>
       <r>  -16.6913    1.0000 </r>
       <r>  -16.6877    1.0000 </r>
       <r>  -16.6746    1.0000 </r>
       <r>  -16.6641    1.0000 </r>
       <r>  -16.5950    1.0000 </r>
       <r>  -16.5911    1.0000 </r>
       <r>  -16.5893    1.0000 </r>
       <r>  -16.5827    1.0000 </r>
       <r>  -16.5469    1.0000 </r>
       <r>  -16.5464    1.0000 </r>
       <r>  -16.4581    1.0000 </r>
       <r>  -16.4462    1.0000 </r>
       <r>  -16.4296    1.0000 </r>
       <r>  -16.4177    1.0000 </r>
       <r>  -16.3973    1.0000 </r>
       <r>  -16.3959    1.0000 </r>
       <r>  -16.3856    1.0000 </r>
       <r>  -16.3724    1.0000 </r>
       <r>  -16.3583    1.0000 </r>
       <r>  -16.3556    1.0000 </r>
       <r>  -16.3464    1.0000 </r>
       <r>  -16.3378    1.0000 </r>
       <r>  -16.3298    1.0000 </r>
       <r>  -16.3279    1.0000 </r>
       <r>  -16.3095    1.0000 </r>
       <r>  -16.3021    1.0000 </r>
       <r>  -16.2894    1.0000 </r>
       <r>  -16.2862    1.0000 </r>
       <r>  -16.2843    1.0000 </r>
       <r>  -16.2800    1.0000 </r>
       <r>  -16.2765    1.0000 </r>
       <r>  -16.2685    1.0000 </r>
       <r>  -16.2681    1.0000 </r>
       <r>  -16.2633    1.0000 </r>
       <r>  -16.2552    1.0000 </r>
       <r>  -16.2215    1.0000 </r>
       <r>  -16.2173    1.0000 </r>
       <r>  -16.2074    1.0000 </r>
       <r>  -16.1966    1.0000 </r>
       <r>  -14.5213    1.0000 </r>
       <r>  -14.3772    1.0000 </r>
       <r>  -14.3549    1.0000 </r>
       <r>  -14.2462    1.0000 </r>
       <r>  -14.1998    1.0000 </r>
       <r>  -14.1351    1.0000 </r>
       <r>  -14.0847    1.0000 </r>
       <r>  -14.0764    1.0000 </r>
       <r>  -14.0673    1.0000 </r>
       <r>  -14.0622    1.0000 </r>
       <r>  -14.0528    1.0000 </r>
       <r>  -14.0422    1.0000 </r>
       <r>  -14.0352    1.0000 </r>
       <r>  -14.0346    1.0000 </r>
       <r>  -13.9723    1.0000 </r>
       <r>  -13.9213    1.0000 </r>
       <r>  -13.9038    1.0000 </r>
       <r>  -13.8515    1.0000 </r>
       <r>  -13.8488    1.0000 </r>
       <r>  -13.8019    1.0000 </r>
       <r>  -13.7777    1.0000 </r>
       <r>  -13.7687    1.0000 </r>
       <r>  -13.6878    1.0000 </r>
       <r>   -8.0457    1.0000 </r>
       <r>   -7.9673    1.0000 </r>
       <r>   -7.6519    1.0000 </r>
       <r>   -7.5153    1.0000 </r>
       <r>   -7.4977    1.0000 </r>
       <r>   -7.4532    1.0000 </r>
       <r>   -7.3352    1.0000 </r>
       <r>   -7.3196    1.0000 </r>
       <r>   -7.3037    1.0000 </r>
       <r>   -7.2832    1.0000 </r>
       <r>   -7.2730    1.0000 </r>
       <r>   -7.2644    1.0000 </r>
       <r>   -7.2492    1.0000 </r>
       <r>   -7.2408    1.0000 </r>
       <r>   -7.2320    1.0000 </r>
       <r>   -7.1928    1.0000 </r>
       <r>   -7.1793    1.0000 </r>
       <r>   -7.1616    1.0000 </r>
       <r>   -7.1548    1.0000 </r>
       <r>   -7.1431    1.0000 </r>
       <r>   -7.1264    1.0000 </r>
       <r>   -7.1182    1.0000 </r>
       <r>   -7.1128    1.0000 </r>
       <r>   -7.1073    1.0000 </r>
       <r>   -7.0953    1.0000 </r>
       <r>   -7.0853    1.0000 </r>
       <r>   -7.0733    1.0000 </r>
       <r>   -7.0598    1.0000 </r>
       <r>   -7.0517    1.0000 </r>
       <r>   -7.0439    1.0000 </r>
       <r>   -6.9113    1.0000 </r>
       <r>   -6.8518    1.0000 </r>
       <r>   -3.3490    1.0000 </r>
       <r>   -3.2928    1.0000 </r>
       <r>   -3.2826    1.0000 </r>
       <r>   -3.2493    1.0000 </r>
       <r>   -3.2348    1.0000 </r>
       <r>   -3.1811    1.0000 </r>
       <r>   -3.1386    1.0000 </r>
       <r>   -3.1212    1.0000 </r>
       <r>   -2.9565    1.0000 </r>
       <r>   -2.5549    1.0000 </r>
       <r>   -2.4995    1.0000 </r>
       <r>   -2.4692    1.0000 </r>
       <r>   -2.4353    1.0000 </r>
       <r>   -2.3509    1.0000 </r>
       <r>   -2.3197    1.0000 </r>
       <r>   -2.1474    1.0000 </r>
       <r>   -2.1121    1.0000 </r>
       <r>   -2.0560    1.0000 </r>
       <r>   -2.0383    1.0000 </r>
       <r>   -2.0233    1.0000 </r>
       <r>   -2.0063    1.0000 </r>
       <r>   -1.9278    1.0000 </r>
       <r>   -1.9244    1.0000 </r>
       <r>   -1.8391    1.0000 </r>
       <r>   -1.7973    1.0000 </r>
       <r>   -1.7881    1.0000 </r>
       <r>   -1.7373    1.0000 </r>
       <r>   -1.6857    1.0000 </r>
       <r>   -1.6481    1.0000 </r>
       <r>   -1.5993    1.0000 </r>
       <r>   -1.5584    1.0000 </r>
       <r>   -1.5396    1.0000 </r>
       <r>   -1.5198    1.0000 </r>
       <r>   -1.5104    1.0000 </r>
       <r>   -1.4854    1.0000 </r>
       <r>   -1.4554    1.0000 </r>
       <r>   -1.4498    1.0000 </r>
       <r>   -1.4290    1.0000 </r>
       <r>   -1.4221    1.0000 </r>
       <r>   -1.4122    1.0000 </r>
       <r>   -1.3965    1.0000 </r>
       <r>   -1.3656    1.0000 </r>
       <r>   -1.3590    1.0000 </r>
       <r>   -1.3494    1.0000 </r>
       <r>   -1.3322    1.0000 </r>
       <r>   -1.3166    1.0000 </r>
       <r>   -1.3019    1.0000 </r>
       <r>   -1.2960    1.0000 </r>
       <r>   -1.2735    1.0000 </r>
       <r>   -1.2675    1.0000 </r>
       <r>   -1.2306    1.0000 </r>
       <r>   -1.2226    1.0000 </r>
       <r>   -1.2036    1.0000 </r>
       <r>   -1.1960    1.0000 </r>
       <r>   -1.1868    1.0000 </r>
       <r>   -1.1358    1.0000 </r>
       <r>   -1.1003    1.0000 </r>
       <r>   -1.0825    1.0000 </r>
       <r>   -1.0486    1.0000 </r>
       <r>   -1.0176    1.0000 </r>
       <r>   -1.0076    1.0000 </r>
       <r>   -0.8891    1.0000 </r>
       <r>   -0.8666    1.0000 </r>
       <r>   -0.6584    1.0000 </r>
       <r>   -0.6037    1.0000 </r>
       <r>   -0.5216    1.0000 </r>
       <r>   -0.3533    1.0000 </r>
       <r>   -0.0063    1.0000 </r>
       <r>    0.0994    1.0000 </r>
       <r>    2.5287    0.0000 </r>
       <r>    2.8866    0.0000 </r>
       <r>    2.9234    0.0000 </r>
       <r>    2.9931    0.0000 </r>
       <r>    3.1878    0.0000 </r>
       <r>    3.3024    0.0000 </r>
       <r>    3.3135    0.0000 </r>
       <r>    3.3922    0.0000 </r>
       <r>    3.4737    0.0000 </r>
       <r>    4.0274    0.0000 </r>
       <r>    4.3265    0.0000 </r>
       <r>    4.3781    0.0000 </r>
       <r>    4.5280    0.0000 </r>
       <r>    4.5771    0.0000 </r>
       <r>    4.7969    0.0000 </r>
       <r>    4.8651    0.0000 </r>
       <r>    5.3177    0.0000 </r>
       <r>    5.4296    0.0000 </r>
       <r>    5.6310    0.0000 </r>
       <r>    5.6708    0.0000 </r>
       <r>    5.7272    0.0000 </r>
       <r>    5.9062    0.0000 </r>
       <r>    5.9663    0.0000 </r>
       <r>    6.0966    0.0000 </r>
       <r>    6.1261    0.0000 </r>
       <r>    6.1561    0.0000 </r>
       <r>    6.2283    0.0000 </r>
       <r>    6.2310    0.0000 </r>
       <r>    6.2474    0.0000 </r>
       <r>    6.2842    0.0000 </r>
       <r>    6.3881    0.0000 </r>
       <r>    6.4208    0.0000 </r>
       <r>    6.4365    0.0000 </r>
       <r>    6.5178    0.0000 </r>
       <r>    6.6089    0.0000 </r>
       <r>    6.6696    0.0000 </r>
      </set>
      <set comment="kpoint 6">
       <r>  -20.9106    1.0000 </r>
       <r>  -20.8864    1.0000 </r>
       <r>  -20.8576    1.0000 </r>
       <r>  -20.7766    1.0000 </r>
       <r>  -20.7232    1.0000 </r>
       <r>  -20.7205    1.0000 </r>
       <r>  -20.6896    1.0000 </r>
       <r>  -20.6563    1.0000 </r>
       <r>  -16.7247    1.0000 </r>
       <r>  -16.6909    1.0000 </r>
       <r>  -16.6870    1.0000 </r>
       <r>  -16.6724    1.0000 </r>
       <r>  -16.6623    1.0000 </r>
       <r>  -16.5949    1.0000 </r>
       <r>  -16.5911    1.0000 </r>
       <r>  -16.5893    1.0000 </r>
       <r>  -16.5827    1.0000 </r>
       <r>  -16.5469    1.0000 </r>
       <r>  -16.5464    1.0000 </r>
       <r>  -16.4461    1.0000 </r>
       <r>  -16.4450    1.0000 </r>
       <r>  -16.4325    1.0000 </r>
       <r>  -16.4177    1.0000 </r>
       <r>  -16.3992    1.0000 </r>
       <r>  -16.3899    1.0000 </r>
       <r>  -16.3880    1.0000 </r>
       <r>  -16.3812    1.0000 </r>
       <r>  -16.3585    1.0000 </r>
       <r>  -16.3583    1.0000 </r>
       <r>  -16.3466    1.0000 </r>
       <r>  -16.3378    1.0000 </r>
       <r>  -16.3299    1.0000 </r>
       <r>  -16.3281    1.0000 </r>
       <r>  -16.3170    1.0000 </r>
       <r>  -16.3021    1.0000 </r>
       <r>  -16.2893    1.0000 </r>
       <r>  -16.2861    1.0000 </r>
       <r>  -16.2843    1.0000 </r>
       <r>  -16.2800    1.0000 </r>
       <r>  -16.2765    1.0000 </r>
       <r>  -16.2685    1.0000 </r>
       <r>  -16.2680    1.0000 </r>
       <r>  -16.2633    1.0000 </r>
       <r>  -16.2552    1.0000 </r>
       <r>  -16.2215    1.0000 </r>
       <r>  -16.2173    1.0000 </r>
       <r>  -16.2074    1.0000 </r>
       <r>  -16.1966    1.0000 </r>
       <r>  -14.5197    1.0000 </r>
       <r>  -14.3753    1.0000 </r>
       <r>  -14.3379    1.0000 </r>
       <r>  -14.2669    1.0000 </r>
       <r>  -14.2317    1.0000 </r>
       <r>  -14.1850    1.0000 </r>
       <r>  -14.1051    1.0000 </r>
       <r>  -14.0784    1.0000 </r>
       <r>  -14.0743    1.0000 </r>
       <r>  -14.0720    1.0000 </r>
       <r>  -14.0457    1.0000 </r>
       <r>  -14.0357    1.0000 </r>
       <r>  -14.0311    1.0000 </r>
       <r>  -13.9135    1.0000 </r>
       <r>  -13.9110    1.0000 </r>
       <r>  -13.8963    1.0000 </r>
       <r>  -13.8873    1.0000 </r>
       <r>  -13.8769    1.0000 </r>
       <r>  -13.8458    1.0000 </r>
       <r>  -13.7972    1.0000 </r>
       <r>  -13.7927    1.0000 </r>
       <r>  -13.7741    1.0000 </r>
       <r>  -13.7656    1.0000 </r>
       <r>   -7.9014    1.0000 </r>
       <r>   -7.7770    1.0000 </r>
       <r>   -7.7439    1.0000 </r>
       <r>   -7.7069    1.0000 </r>
       <r>   -7.5134    1.0000 </r>
       <r>   -7.3433    1.0000 </r>
       <r>   -7.3255    1.0000 </r>
       <r>   -7.3211    1.0000 </r>
       <r>   -7.2934    1.0000 </r>
       <r>   -7.2903    1.0000 </r>
       <r>   -7.2791    1.0000 </r>
       <r>   -7.2535    1.0000 </r>
       <r>   -7.2447    1.0000 </r>
       <r>   -7.2378    1.0000 </r>
       <r>   -7.2341    1.0000 </r>
       <r>   -7.1987    1.0000 </r>
       <r>   -7.1773    1.0000 </r>
       <r>   -7.1726    1.0000 </r>
       <r>   -7.1628    1.0000 </r>
       <r>   -7.1473    1.0000 </r>
[...]
        <r>  0.0001  0.0010  0.0012 </r>
        <r>  0.0000  0.0006  0.0004 </r>
        <r>  0.0012  0.0005  0.0014 </r>
        <r>  0.0008  0.0009  0.0010 </r>
        <r>  0.0000  0.0012  0.0001 </r>
        <r>  0.0016  0.0001  0.0022 </r>
        <r>  0.0007  0.0018  0.0011 </r>
        <r>  0.0000  0.0016  0.0008 </r>
        <r>  0.0001  0.0008  0.0028 </r>
       </set>
       <set comment="band 199">
        <r>  0.0000  0.0000  0.0036 </r>
        <r>  0.0015  0.0005  0.0018 </r>
        <r>  0.0001  0.0020  0.0076 </r>
        <r>  0.0000  0.0006  0.0057 </r>
        <r>  0.0000  0.0001  0.0049 </r>
        <r>  0.0001  0.0002  0.0046 </r>
        <r>  0.0075  0.0019  0.0235 </r>
        <r>  0.0066  0.0006  0.0072 </r>
        <r>  0.0000  0.0010  0.0005 </r>
        <r>  0.0000  0.0072  0.0010 </r>
        <r>  0.0000  0.0008  0.0001 </r>
        <r>  0.0000  0.0025  0.0001 </r>
        <r>  0.0002  0.0029  0.0002 </r>
        <r>  0.0000  0.0020  0.0001 </r>
        <r>  0.0000  0.0055  0.0001 </r>
        <r>  0.0000  0.0068  0.0007 </r>
        <r>  0.0012  0.0010  0.0017 </r>
        <r>  0.0024  0.0030  0.0039 </r>
        <r>  0.0001  0.0007  0.0003 </r>
        <r>  0.0000  0.0012  0.0006 </r>
        <r>  0.0000  0.0036  0.0007 </r>
        <r>  0.0002  0.0009  0.0007 </r>
        <r>  0.0002  0.0033  0.0002 </r>
        <r>  0.0003  0.0014  0.0002 </r>
        <r>  0.0009  0.0013  0.0009 </r>
        <r>  0.0007  0.0047  0.0008 </r>
        <r>  0.0010  0.0021  0.0011 </r>
        <r>  0.0000  0.0010  0.0007 </r>
        <r>  0.0000  0.0002  0.0005 </r>
        <r>  0.0002  0.0005  0.0009 </r>
        <r>  0.0001  0.0025  0.0018 </r>
        <r>  0.0005  0.0006  0.0004 </r>
        <r>  0.0004  0.0047  0.0018 </r>
        <r>  0.0004  0.0019  0.0011 </r>
        <r>  0.0006  0.0032  0.0012 </r>
        <r>  0.0014  0.0001  0.0009 </r>
        <r>  0.0006  0.0014  0.0013 </r>
        <r>  0.0000  0.0016  0.0003 </r>
        <r>  0.0000  0.0051  0.0026 </r>
       </set>
       <set comment="band 200">
        <r>  0.0011  0.0002  0.0059 </r>
        <r>  0.0047  0.0006  0.0115 </r>
        <r>  0.0021  0.0003  0.0015 </r>
        <r>  0.0005  0.0013  0.0046 </r>
        <r>  0.0119  0.0005  0.0126 </r>
        <r>  0.0001  0.0005  0.0058 </r>
        <r>  0.0013  0.0004  0.0115 </r>
        <r>  0.0025  0.0001  0.0024 </r>
        <r>  0.0000  0.0121  0.0001 </r>
        <r>  0.0000  0.0074  0.0002 </r>
        <r>  0.0000  0.0009  0.0001 </r>
        <r>  0.0000  0.0017  0.0003 </r>
        <r>  0.0000  0.0127  0.0002 </r>
        <r>  0.0000  0.0025  0.0002 </r>
        <r>  0.0000  0.0011  0.0002 </r>
        <r>  0.0000  0.0013  0.0007 </r>
        <r>  0.0000  0.0007  0.0007 </r>
        <r>  0.0004  0.0020  0.0001 </r>
        <r>  0.0022  0.0030  0.0024 </r>
        <r>  0.0002  0.0014  0.0020 </r>
        <r>  0.0004  0.0051  0.0009 </r>
        <r>  0.0000  0.0010  0.0004 </r>
        <r>  0.0004  0.0053  0.0020 </r>
        <r>  0.0012  0.0035  0.0018 </r>
        <r>  0.0000  0.0012  0.0005 </r>
        <r>  0.0002  0.0017  0.0005 </r>
        <r>  0.0015  0.0043  0.0009 </r>
        <r>  0.0010  0.0002  0.0010 </r>
        <r>  0.0001  0.0008  0.0004 </r>
        <r>  0.0005  0.0023  0.0007 </r>
        <r>  0.0004  0.0012  0.0017 </r>
        <r>  0.0004  0.0030  0.0010 </r>
        <r>  0.0000  0.0026  0.0008 </r>
        <r>  0.0000  0.0002  0.0006 </r>
        <r>  0.0021  0.0016  0.0019 </r>
        <r>  0.0012  0.0054  0.0016 </r>
        <r>  0.0005  0.0035  0.0007 </r>
        <r>  0.0003  0.0015  0.0003 </r>
        <r>  0.0009  0.0004  0.0018 </r>
       </set>
       <set comment="band 201">
        <r>  0.0072  0.0001  0.0101 </r>
        <r>  0.0009  0.0003  0.0121 </r>
        <r>  0.0002  0.0004  0.0027 </r>
        <r>  0.0026  0.0009  0.0118 </r>
        <r>  0.0012  0.0016  0.0049 </r>
        <r>  0.0009  0.0007  0.0023 </r>
        <r>  0.0001  0.0002  0.0159 </r>
        <r>  0.0024  0.0008  0.0154 </r>
        <r>  0.0000  0.0012  0.0001 </r>
        <r>  0.0002  0.0003  0.0004 </r>
        <r>  0.0000  0.0031  0.0003 </r>
        <r>  0.0000  0.0045  0.0003 </r>
        <r>  0.0000  0.0082  0.0003 </r>
        <r>  0.0000  0.0004  0.0001 </r>
        <r>  0.0000  0.0059  0.0001 </r>
        <r>  0.0000  0.0095  0.0010 </r>
        <r>  0.0000  0.0030  0.0025 </r>
        <r>  0.0002  0.0011  0.0002 </r>
        <r>  0.0005  0.0014  0.0005 </r>
        <r>  0.0020  0.0028  0.0023 </r>
        <r>  0.0001  0.0024  0.0025 </r>
        <r>  0.0010  0.0005  0.0018 </r>
        <r>  0.0000  0.0014  0.0016 </r>
        <r>  0.0003  0.0034  0.0020 </r>
        <r>  0.0002  0.0012  0.0006 </r>
        <r>  0.0000  0.0008  0.0015 </r>
        <r>  0.0013  0.0006  0.0011 </r>
        <r>  0.0002  0.0038  0.0009 </r>
        <r>  0.0003  0.0031  0.0007 </r>
        <r>  0.0001  0.0016  0.0003 </r>
        <r>  0.0021  0.0012  0.0014 </r>
        <r>  0.0012  0.0011  0.0014 </r>
        <r>  0.0004  0.0016  0.0009 </r>
        <r>  0.0009  0.0022  0.0013 </r>
        <r>  0.0000  0.0023  0.0008 </r>
        <r>  0.0004  0.0018  0.0010 </r>
        <r>  0.0001  0.0012  0.0006 </r>
        <r>  0.0000  0.0005  0.0007 </r>
        <r>  0.0000  0.0027  0.0020 </r>
       </set>
       <set comment="band 202">
        <r>  0.0048  0.0009  0.0058 </r>
        <r>  0.0024  0.0012  0.0080 </r>
        <r>  0.0055  0.0007  0.0091 </r>
        <r>  0.0027  0.0007  0.0066 </r>
        <r>  0.0022  0.0010  0.0077 </r>
        <r>  0.0032  0.0011  0.0054 </r>
        <r>  0.0013  0.0004  0.0057 </r>
        <r>  0.0001  0.0004  0.0032 </r>
        <r>  0.0000  0.0020  0.0001 </r>
        <r>  0.0000  0.0103  0.0002 </r>
        <r>  0.0000  0.0030  0.0002 </r>
        <r>  0.0000  0.0040  0.0001 </r>
        <r>  0.0001  0.0115  0.0001 </r>
        <r>  0.0000  0.0042  0.0002 </r>
        <r>  0.0000  0.0074  0.0001 </r>
        <r>  0.0001  0.0093  0.0001 </r>
        <r>  0.0016  0.0050  0.0017 </r>
        <r>  0.0003  0.0024  0.0012 </r>
        <r>  0.0005  0.0014  0.0018 </r>
        <r>  0.0027  0.0012  0.0031 </r>
        <r>  0.0006  0.0033  0.0008 </r>
        <r>  0.0016  0.0028  0.0033 </r>
        <r>  0.0005  0.0021  0.0013 </r>
        <r>  0.0000  0.0013  0.0003 </r>
        <r>  0.0001  0.0044  0.0010 </r>
        <r>  0.0000  0.0014  0.0005 </r>
        <r>  0.0010  0.0008  0.0011 </r>
        <r>  0.0007  0.0034  0.0019 </r>
        <r>  0.0001  0.0010  0.0001 </r>
        <r>  0.0010  0.0007  0.0011 </r>
        <r>  0.0000  0.0011  0.0002 </r>
        <r>  0.0000  0.0038  0.0009 </r>
        <r>  0.0001  0.0024  0.0004 </r>
        <r>  0.0012  0.0014  0.0028 </r>
        <r>  0.0001  0.0012  0.0003 </r>
        <r>  0.0002  0.0038  0.0005 </r>
        <r>  0.0009  0.0006  0.0009 </r>
        <r>  0.0005  0.0012  0.0011 </r>
        <r>  0.0021  0.0006  0.0009 </r>
       </set>
       <set comment="band 203">
        <r>  0.0033  0.0017  0.0074 </r>
        <r>  0.0002  0.0006  0.0163 </r>
        <r>  0.0011  0.0003  0.0013 </r>
        <r>  0.0001  0.0001  0.0044 </r>
        <r>  0.0033  0.0006  0.0078 </r>
        <r>  0.0093  0.0008  0.0165 </r>
        <r>  0.0005  0.0001  0.0034 </r>
        <r>  0.0003  0.0004  0.0075 </r>
        <r>  0.0000  0.0030  0.0002 </r>
        <r>  0.0000  0.0030  0.0003 </r>
        <r>  0.0000  0.0032  0.0001 </r>
        <r>  0.0000  0.0042  0.0001 </r>
        <r>  0.0000  0.0088  0.0004 </r>
        <r>  0.0000  0.0008  0.0001 </r>
        <r>  0.0000  0.0054  0.0002 </r>
        <r>  0.0000  0.0171  0.0003 </r>
        <r>  0.0001  0.0028  0.0004 </r>
        <r>  0.0001  0.0032  0.0004 </r>
        <r>  0.0006  0.0021  0.0013 </r>
        <r>  0.0003  0.0047  0.0021 </r>
        <r>  0.0001  0.0005  0.0006 </r>
        <r>  0.0003  0.0026  0.0043 </r>
        <r>  0.0019  0.0020  0.0015 </r>
        <r>  0.0000  0.0029  0.0008 </r>
        <r>  0.0016  0.0022  0.0018 </r>
        <r>  0.0008  0.0045  0.0011 </r>
        <r>  0.0001  0.0021  0.0002 </r>
        <r>  0.0002  0.0018  0.0016 </r>
        <r>  0.0014  0.0024  0.0020 </r>
        <r>  0.0000  0.0007  0.0008 </r>
        <r>  0.0009  0.0006  0.0008 </r>
        <r>  0.0001  0.0006  0.0005 </r>
        <r>  0.0010  0.0016  0.0008 </r>
        <r>  0.0001  0.0019  0.0009 </r>
        <r>  0.0000  0.0024  0.0005 </r>
        <r>  0.0001  0.0036  0.0008 </r>
        <r>  0.0004  0.0032  0.0006 </r>
        <r>  0.0018  0.0029  0.0012 </r>
        <r>  0.0007  0.0002  0.0011 </r>
       </set>
       <set comment="band 204">
        <r>  0.0007  0.0005  0.0036 </r>
        <r>  0.0002  0.0004  0.0127 </r>
        <r>  0.0001  0.0006  0.0222 </r>
        <r>  0.0074  0.0003  0.0052 </r>
        <r>  0.0000  0.0002  0.0069 </r>
        <r>  0.0019  0.0001  0.0061 </r>
        <r>  0.0009  0.0011  0.0252 </r>
        <r>  0.0054  0.0013  0.0029 </r>
        <r>  0.0000  0.0065  0.0003 </r>
        <r>  0.0000  0.0029  0.0004 </r>
        <r>  0.0000  0.0005  0.0001 </r>
        <r>  0.0000  0.0024  0.0001 </r>
        <r>  0.0001  0.0045  0.0001 </r>
        <r>  0.0001  0.0037  0.0003 </r>
        <r>  0.0000  0.0075  0.0003 </r>
        <r>  0.0000  0.0052  0.0002 </r>
        <r>  0.0002  0.0047  0.0003 </r>
        <r>  0.0001  0.0027  0.0003 </r>
        <r>  0.0001  0.0064  0.0009 </r>
        <r>  0.0001  0.0008  0.0002 </r>
        <r>  0.0052  0.0009  0.0047 </r>
        <r>  0.0002  0.0024  0.0004 </r>
        <r>  0.0001  0.0007  0.0009 </r>
        <r>  0.0013  0.0006  0.0014 </r>
        <r>  0.0002  0.0003  0.0006 </r>
        <r>  0.0012  0.0019  0.0013 </r>
        <r>  0.0001  0.0043  0.0018 </r>
        <r>  0.0010  0.0021  0.0006 </r>
        <r>  0.0001  0.0010  0.0003 </r>
        <r>  0.0002  0.0029  0.0025 </r>
        <r>  0.0001  0.0021  0.0010 </r>
        <r>  0.0001  0.0015  0.0000 </r>
        <r>  0.0002  0.0015  0.0015 </r>
        <r>  0.0002  0.0002  0.0010 </r>
        <r>  0.0011  0.0021  0.0019 </r>
        <r>  0.0011  0.0043  0.0020 </r>
        <r>  0.0002  0.0005  0.0005 </r>
        <r>  0.0010  0.0005  0.0018 </r>
        <r>  0.0001  0.0012  0.0021 </r>
       </set>
       <set comment="band 205">
        <r>  0.0002  0.0004  0.0122 </r>
        <r>  0.0002  0.0007  0.0218 </r>
        <r>  0.0006  0.0000  0.0090 </r>
        <r>  0.0129  0.0004  0.0036 </r>
        <r>  0.0011  0.0003  0.0071 </r>
        <r>  0.0008  0.0002  0.0047 </r>
        <r>  0.0025  0.0008  0.0047 </r>
        <r>  0.0002  0.0011  0.0106 </r>
        <r>  0.0000  0.0037  0.0005 </r>
        <r>  0.0000  0.0017  0.0005 </r>
        <r>  0.0000  0.0181  0.0001 </r>
        <r>  0.0000  0.0115  0.0001 </r>
        <r>  0.0000  0.0043  0.0001 </r>
        <r>  0.0000  0.0030  0.0006 </r>
        <r>  0.0001  0.0076  0.0001 </r>
        <r>  0.0000  0.0012  0.0005 </r>
        <r>  0.0015  0.0021  0.0019 </r>
        <r>  0.0002  0.0010  0.0007 </r>
        <r>  0.0002  0.0042  0.0005 </r>
        <r>  0.0007  0.0007  0.0006 </r>
        <r>  0.0009  0.0025  0.0010 </r>
        <r>  0.0002  0.0014  0.0005 </r>
        <r>  0.0000  0.0010  0.0007 </r>
        <r>  0.0002  0.0018  0.0006 </r>
        <r>  0.0003  0.0009  0.0013 </r>
        <r>  0.0000  0.0004  0.0008 </r>
        <r>  0.0012  0.0007  0.0024 </r>
        <r>  0.0000  0.0029  0.0013 </r>
        <r>  0.0000  0.0056  0.0001 </r>
        <r>  0.0013  0.0024  0.0025 </r>
        <r>  0.0008  0.0012  0.0019 </r>
        <r>  0.0038  0.0032  0.0038 </r>
        <r>  0.0000  0.0045  0.0007 </r>
        <r>  0.0000  0.0020  0.0004 </r>
        <r>  0.0019  0.0012  0.0029 </r>
        <r>  0.0003  0.0005  0.0010 </r>
        <r>  0.0002  0.0010  0.0016 </r>
        <r>  0.0005  0.0038  0.0010 </r>
        <r>  0.0000  0.0014  0.0010 </r>
       </set>
       <set comment="band 206">
        <r>  0.0020  0.0005  0.0106 </r>
        <r>  0.0002  0.0001  0.0184 </r>
        <r>  0.0000  0.0019  0.0121 </r>
        <r>  0.0001  0.0004  0.0156 </r>
        <r>  0.0017  0.0004  0.0092 </r>
        <r>  0.0004  0.0002  0.0094 </r>
        <r>  0.0000  0.0003  0.0075 </r>
        <r>  0.0029  0.0001  0.0192 </r>
        <r>  0.0000  0.0092  0.0001 </r>
        <r>  0.0000  0.0123  0.0001 </r>
        <r>  0.0001  0.0037  0.0010 </r>
        <r>  0.0001  0.0004  0.0007 </r>
        <r>  0.0001  0.0080  0.0003 </r>
        <r>  0.0000  0.0048  0.0001 </r>
        <r>  0.0000  0.0035  0.0006 </r>
        <r>  0.0000  0.0040  0.0008 </r>
        <r>  0.0001  0.0006  0.0006 </r>
        <r>  0.0000  0.0033  0.0014 </r>
        <r>  0.0002  0.0011  0.0013 </r>
        <r>  0.0001  0.0018  0.0007 </r>
        <r>  0.0010  0.0028  0.0024 </r>
        <r>  0.0000  0.0008  0.0004 </r>
        <r>  0.0001  0.0005  0.0006 </r>
        <r>  0.0017  0.0010  0.0027 </r>
        <r>  0.0002  0.0011  0.0013 </r>
        <r>  0.0001  0.0024  0.0011 </r>
        <r>  0.0006  0.0007  0.0010 </r>
        <r>  0.0007  0.0011  0.0021 </r>
        <r>  0.0014  0.0007  0.0023 </r>
        <r>  0.0007  0.0046  0.0008 </r>
        <r>  0.0000  0.0012  0.0009 </r>
        <r>  0.0004  0.0010  0.0016 </r>
        <r>  0.0002  0.0014  0.0009 </r>
        <r>  0.0007  0.0011  0.0023 </r>
        <r>  0.0005  0.0032  0.0016 </r>
        <r>  0.0002  0.0006  0.0013 </r>
        <r>  0.0004  0.0009  0.0019 </r>
        <r>  0.0004  0.0011  0.0009 </r>
        <r>  0.0001  0.0009  0.0014 </r>
       </set>
       <set comment="band 207">
        <r>  0.0010  0.0010  0.0212 </r>
        <r>  0.0021  0.0003  0.0138 </r>
        <r>  0.0003  0.0008  0.0307 </r>
        <r>  0.0000  0.0001  0.0068 </r>
        <r>  0.0004  0.0008  0.0199 </r>
        <r>  0.0006  0.0003  0.0073 </r>
        <r>  0.0002  0.0002  0.0050 </r>
        <r>  0.0001  0.0003  0.0123 </r>
        <r>  0.0000  0.0059  0.0004 </r>
        <r>  0.0000  0.0042  0.0004 </r>
        <r>  0.0000  0.0006  0.0003 </r>
        <r>  0.0001  0.0019  0.0007 </r>
        <r>  0.0000  0.0011  0.0003 </r>
        <r>  0.0000  0.0110  0.0002 </r>
        <r>  0.0000  0.0039  0.0004 </r>
        <r>  0.0002  0.0061  0.0001 </r>
        <r>  0.0007  0.0014  0.0010 </r>
        <r>  0.0001  0.0029  0.0012 </r>
        <r>  0.0016  0.0008  0.0027 </r>
        <r>  0.0000  0.0035  0.0009 </r>
        <r>  0.0000  0.0011  0.0006 </r>
        <r>  0.0001  0.0003  0.0008 </r>
        <r>  0.0013  0.0010  0.0019 </r>
        <r>  0.0000  0.0012  0.0013 </r>
        <r>  0.0001  0.0019  0.0011 </r>
        <r>  0.0005  0.0010  0.0020 </r>
        <r>  0.0000  0.0029  0.0005 </r>
        <r>  0.0005  0.0006  0.0009 </r>
        <r>  0.0004  0.0011  0.0023 </r>
        <r>  0.0000  0.0012  0.0008 </r>
        <r>  0.0002  0.0015  0.0011 </r>
        <r>  0.0001  0.0015  0.0029 </r>
        <r>  0.0000  0.0004  0.0009 </r>
        <r>  0.0002  0.0023  0.0027 </r>
        <r>  0.0001  0.0006  0.0009 </r>
        <r>  0.0003  0.0021  0.0025 </r>
        <r>  0.0000  0.0010  0.0009 </r>
        <r>  0.0011  0.0005  0.0018 </r>
        <r>  0.0004  0.0005  0.0006 </r>
       </set>
       <set comment="band 208">
        <r>  0.0000  0.0008  0.0159 </r>
        <r>  0.0000  0.0003  0.0352 </r>
        <r>  0.0002  0.0009  0.0170 </r>
        <r>  0.0003  0.0009  0.0129 </r>
        <r>  0.0005  0.0021  0.0128 </r>
        <r>  0.0000  0.0001  0.0046 </r>
        <r>  0.0014  0.0001  0.0047 </r>
        <r>  0.0002  0.0005  0.0159 </r>
        <r>  0.0000  0.0022  0.0002 </r>
        <r>  0.0000  0.0009  0.0003 </r>
        <r>  0.0000  0.0003  0.0002 </r>
        <r>  0.0000  0.0014  0.0002 </r>
        <r>  0.0001  0.0015  0.0004 </r>
        <r>  0.0000  0.0088  0.0006 </r>
        <r>  0.0001  0.0026  0.0004 </r>
        <r>  0.0001  0.0017  0.0006 </r>
        <r>  0.0002  0.0013  0.0008 </r>
        <r>  0.0004  0.0016  0.0038 </r>
        <r>  0.0001  0.0019  0.0014 </r>
        <r>  0.0002  0.0016  0.0013 </r>
        <r>  0.0007  0.0008  0.0018 </r>
        <r>  0.0001  0.0036  0.0003 </r>
        <r>  0.0011  0.0012  0.0024 </r>
        <r>  0.0001  0.0005  0.0011 </r>
        <r>  0.0000  0.0007  0.0008 </r>
        <r>  0.0005  0.0002  0.0008 </r>
        <r>  0.0004  0.0033  0.0018 </r>
        <r>  0.0001  0.0004  0.0015 </r>
        <r>  0.0005  0.0022  0.0017 </r>
        <r>  0.0000  0.0003  0.0005 </r>
        <r>  0.0000  0.0007  0.0007 </r>
        <r>  0.0000  0.0005  0.0017 </r>
        <r>  0.0004  0.0007  0.0007 </r>
        <r>  0.0006  0.0010  0.0011 </r>
        <r>  0.0006  0.0004  0.0016 </r>
        <r>  0.0004  0.0031  0.0007 </r>
        <r>  0.0012  0.0004  0.0018 </r>
        <r>  0.0000  0.0017  0.0007 </r>
        <r>  0.0005  0.0011  0.0008 </r>
       </set>
      </set>
     </set>
    </set>
   </array>
  </projected>
 </calculation>
 <structure name="finalpos" >
  <crystal>
   <varray name="basis" >
    <v>       8.45648900       0.00000000       8.04030100 </v>
    <v>       0.00000000      11.72984700       0.00000000 </v>
    <v>      -8.45648900       0.00000000       8.04030100 </v>
   </varray>
   <i name="volume">   1595.08833419 </i>
   <varray name="rec_basis" >
    <v>       0.05912619      -0.00000000       0.06218673 </v>
    <v>       0.00000000       0.08525260      -0.00000000 </v>
    <v>      -0.05912619       0.00000000       0.06218673 </v>
   </varray>
  </crystal>
  <varray name="positions" >
   <v>       0.27121400       0.24826000       0.20721400 </v>
   <v>       0.77533400       0.24684400       0.70622400 </v>
   <v>       0.71417000       0.75183400       0.26451900 </v>
   <v>       0.21160300       0.74727800       0.77379300 </v>
   <v>       0.25915900       0.23732100       0.73201900 </v>
   <v>       0.80105200       0.24966800       0.22792700 </v>
   <v>       0.74971700       0.76355300       0.80852100 </v>
   <v>       0.21612200       0.75416500       0.28028700 </v>
   <v>       0.00305200       0.00281300       0.00080300 </v>
   <v>       0.49966800       0.99884100       0.50569000 </v>
   <v>       0.50366400       0.00310900       0.00541500 </v>
   <v>       0.99947700       0.99740800       0.49668000 </v>
   <v>       0.49917600       0.50458700       0.00327300 </v>
   <v>       0.99787300       0.50038900       0.49701900 </v>
   <v>       0.00071200       0.49943500       0.99735300 </v>
   <v>       0.49445600       0.49050200       0.49027700 </v>
   <v>       0.47784900       0.75245300       0.96438400 </v>
   <v>       0.96556600       0.74893700       0.46075500 </v>
   <v>       0.96925200       0.25130300       0.96436200 </v>
   <v>       0.45637900       0.24228800       0.48765000 </v>
   <v>       0.02712100       0.75112100       0.02180800 </v>
   <v>       0.53164400       0.25570400       0.04067000 </v>
   <v>       0.02186400       0.24905800       0.52193000 </v>
   <v>       0.25100900       0.46674400       0.94575100 </v>
   <v>       0.73994100       0.46518900       0.44678300 </v>
   <v>       0.44885400       0.54429900       0.24430400 </v>
   <v>       0.94598800       0.52977100       0.74394500 </v>
   <v>       0.55407900       0.03178000       0.75780800 </v>
   <v>       0.05458100       0.03463300       0.25013300 </v>
   <v>       0.75523900       0.97366600       0.05594400 </v>
   <v>       0.25459500       0.95633100       0.54794200 </v>
   <v>       0.25096900       0.02883600       0.95696600 </v>
   <v>       0.74643300       0.03098700       0.45046000 </v>
   <v>       0.45289900       0.95905700       0.25637000 </v>
   <v>       0.96035300       0.97793300       0.74492100 </v>
   <v>       0.75209500       0.53251500       0.04574600 </v>
   <v>       0.24963000       0.53102000       0.54843600 </v>
   <v>       0.05301400       0.46776600       0.24869300 </v>
   <v>       0.53891300       0.61992400       0.65231800 </v>
  </varray>
 </structure>
</modeling>
