CsPbBr3 cubic bulk                      
           1
     8.456489    0.000000    8.040301
     0.000000   11.729847    0.000000
    -8.456489    0.000000    8.040301
   Cs   Pb   Br
   8   8  23
Direct configuration=     1
   0.27121400  0.24826000  0.20721400
   0.77533400  0.24684400  0.70622400
   0.71417000  0.75183400  0.26451900
   0.21160300  0.74727800  0.77379300
   0.25915900  0.23732100  0.73201900
   0.80105200  0.24966800  0.22792700
   0.74971700  0.76355300  0.80852100
   0.21612200  0.75416500  0.28028700
   0.00305200  0.00281300  0.00080300
   0.49966800  0.99884100  0.50569000
   0.50366400  0.00310900  0.00541500
   0.99947700  0.99740800  0.49668000
   0.49917600  0.50458700  0.00327300
   0.99787300  0.50038900  0.49701900
   0.00071200  0.49943500  0.99735300
   0.49445600  0.49050200  0.49027700
   0.47784900  0.75245300  0.96438400
   0.96556600  0.74893700  0.46075500
   0.96925200  0.25130300  0.96436200
   0.45637900  0.24228800  0.48765000
   0.02712100  0.75112100  0.02180800
   0.53164400  0.25570400  0.04067000
   0.02186400  0.24905800  0.52193000
   0.25100900  0.46674400  0.94575100
   0.73994100  0.46518900  0.44678300
   0.44885400  0.54429900  0.24430400
   0.94598800  0.52977100  0.74394500
   0.55407900  0.03178000  0.75780800
   0.05458100  0.03463300  0.25013300
   0.75523900  0.97366600  0.05594400
   0.25459500  0.95633100  0.54794200
   0.25096900  0.02883600  0.95696600
   0.74643300  0.03098700  0.45046000
   0.45289900  0.95905700  0.25637000
   0.96035300  0.97793300  0.74492100
   0.75209500  0.53251500  0.04574600
   0.24963000  0.53102000  0.54843600
   0.05301400  0.46776600  0.24869300
   0.53891300  0.61992400  0.65231800
