 running on   64 total cores
 distrk:  each k-point on   64 cores,    1 groups
 distr:  one band on    8 cores,    8 groups
 using from now: INCAR     
 vasp.5.4.4.18Apr17-6-g9f103f2a35 (build Jun 22 2020 09:27:21) complex           
 POSCAR found type information on POSCAR  Cs Pb Br
 POSCAR found :  3 types and      40 ions
 scaLAPACK will be used
 LDA part: xc-table for Pade appr. of Perdew
 POSCAR found type information on POSCAR  Cs Pb Br
 POSCAR found :  3 types and      40 ions
 POSCAR, INCAR and KPOINTS ok, starting setup
 FFT: planning ...
 WAVECAR not read
 entering main loop
       N       E                     dE             d eps       ncg     rms          rms(c)
DAV:   1     0.135640390586E+04    0.13564E+04   -0.11315E+05  3552   0.965E+02
DAV:   2    -0.112722960246E+04   -0.24836E+04   -0.23812E+04  4216   0.296E+02
DAV:   3    -0.149508000182E+04   -0.36785E+03   -0.36547E+03  4648   0.135E+02
DAV:   4    -0.150685081377E+04   -0.11771E+02   -0.11734E+02  4048   0.320E+01
DAV:   5    -0.150739134363E+04   -0.54053E+00   -0.54027E+00  4568   0.535E+00    0.109E+01
DAV:   6    -0.142638251340E+04    0.81009E+02   -0.23626E+01  4480   0.344E+01    0.758E+00
DAV:   7    -0.142586213473E+04    0.52038E+00   -0.11607E+01  4088   0.669E+00    0.396E+00
DAV:   8    -0.142605343801E+04   -0.19130E+00   -0.71128E-01  3872   0.257E+00    0.247E+00
DAV:   9    -0.142612440830E+04   -0.70970E-01   -0.24932E-01  3864   0.149E+00    0.519E-01
DAV:  10    -0.142612840525E+04   -0.39970E-02   -0.28002E-02  4896   0.510E-01    0.353E-01
DAV:  11    -0.142613028391E+04   -0.18787E-02   -0.32312E-03  4152   0.162E-01    0.169E-01
DAV:  12    -0.142613282731E+04   -0.25434E-02   -0.36144E-03  3944   0.161E-01    0.765E-02
DAV:  13    -0.142613258080E+04    0.24652E-03   -0.64086E-04  4784   0.775E-02    0.533E-02
DAV:  14    -0.142613248949E+04    0.91311E-04   -0.18708E-04  3952   0.269E-02    0.265E-02
DAV:  15    -0.142613247555E+04    0.13933E-04   -0.15837E-05  4488   0.104E-02    0.169E-02
DAV:  16    -0.142613246871E+04    0.68427E-05   -0.16426E-05  3840   0.999E-03    0.700E-03
DAV:  17    -0.142613246835E+04    0.35770E-06   -0.61059E-06  3888   0.575E-03
   1 F= -.14261325E+04 E0= -.14261325E+04  d E =-.355765E-31
Application 1868447 resources: utime ~28129s, stime ~119s, Rss ~77388, inblocks ~1328, outblocks ~112152
