CsPbBr3 cubic bulk                      
           1
     8.420018    0.000000    8.077981
     0.000000   11.763808    0.000000
    -8.420018    0.000000    8.077981
   Cs   Pb   Br
   8   8  24
Direct configuration=     1
   0.27212500  0.25000000  0.20823600
   0.81124112  0.27232996  0.72587533
   0.81174722  0.67675805  0.23464727
   0.34848494  0.68570934  0.72549941
   0.32346366  0.14043810  0.69775998
   0.78173510  0.26326804  0.22009040
   0.77757925  0.72599052  0.78744585
   0.28353714  0.68626300  0.23232499
   0.07778499  0.97435078  0.00500011
   0.56438249  0.94763094  0.45491615
   0.58164372  0.96526540  0.96997722
   0.04094959  0.94420367  0.48102287
   0.55434427  0.47487254  0.96883982
   0.06848394  0.46007036  0.47146730
   0.04688431  0.49407965  0.95606136
   0.55599680  0.47380085  0.48256747
   0.54024427  0.73691814  0.05414026
   0.05134817  0.70938200  0.40941407
   0.07912722  0.24996200  0.86747539
   0.50303031  0.21117404  0.44249904
   0.00872858  0.73882688  0.03960466
   0.56022451  0.70122402  0.49936797
   0.53106541  0.21279084  0.95341842
   0.98885180  0.21594321  0.47898481
   0.30036304  0.51112265  0.97085461
   0.80659429  0.49774710  0.49688847
   0.55518319  0.47311219  0.22841012
   0.04807226  0.58681171  0.71107944
   0.51552101  0.93416377  0.72883309
   0.08949524  0.00542360  0.24191114
   0.83974573  0.04499925  0.96207599
   0.32076081  0.89532868  0.47710525
   0.34737343  0.97495361  0.07225709
   0.80459979  0.96313657  0.60257453
   0.72332246  0.94674741  0.24827877
   0.15916157  0.91053818  0.76987633
   0.80985437  0.45822245  0.96261252
   0.30074689  0.44860222  0.47728575
   0.54645105  0.45785076  0.71763169
   0.03045674  0.41362392  0.19124632
