  20  20   1   0
  0.4031870E+02  0.8284798E-09  0.1169808E-08  0.8320320E-09  0.5000000E-15
   1.0000000000000000E-004
  CAR 
 CsPbBr3 cubic bulk                      
      8.56189069    -22.22101078  301      0.56474941      1.00000000
    -22.221  0.0000E+00  0.0000E+00
    -22.118  0.0000E+00  0.0000E+00
    -22.016  0.0000E+00  0.0000E+00
    -21.913  0.0000E+00  0.0000E+00
    -21.811  0.0000E+00  0.0000E+00
    -21.708  0.0000E+00  0.0000E+00
    -21.605  0.0000E+00  0.0000E+00
    -21.503  0.0000E+00  0.0000E+00
    -21.400  0.0000E+00  0.0000E+00
    -21.298  0.0000E+00  0.0000E+00
    -21.195  0.0000E+00  0.0000E+00
    -21.092  0.0000E+00  0.0000E+00
    -20.990  0.0000E+00  0.0000E+00
    -20.887  0.0000E+00  0.0000E+00
    -20.784  0.7797E+00  0.8000E-01
    -20.682  0.0000E+00  0.8000E-01
    -20.579  0.0000E+00  0.8000E-01
    -20.477  0.0000E+00  0.8000E-01
    -20.374  0.0000E+00  0.8000E-01
    -20.271  0.0000E+00  0.8000E-01
    -20.169  0.0000E+00  0.8000E-01
    -20.066  0.0000E+00  0.8000E-01
    -19.964  0.0000E+00  0.8000E-01
    -19.861  0.0000E+00  0.8000E-01
    -19.758  0.0000E+00  0.8000E-01
    -19.656  0.0000E+00  0.8000E-01
    -19.553  0.0000E+00  0.8000E-01
    -19.451  0.0000E+00  0.8000E-01
    -19.348  0.0000E+00  0.8000E-01
    -19.245  0.0000E+00  0.8000E-01
    -19.143  0.0000E+00  0.8000E-01
    -19.040  0.0000E+00  0.8000E-01
    -18.938  0.0000E+00  0.8000E-01
    -18.835  0.0000E+00  0.8000E-01
    -18.732  0.0000E+00  0.8000E-01
    -18.630  0.0000E+00  0.8000E-01
    -18.527  0.0000E+00  0.8000E-01
    -18.424  0.0000E+00  0.8000E-01
    -18.322  0.0000E+00  0.8000E-01
    -18.219  0.0000E+00  0.8000E-01
    -18.117  0.0000E+00  0.8000E-01
    -18.014  0.0000E+00  0.8000E-01
    -17.911  0.0000E+00  0.8000E-01
    -17.809  0.0000E+00  0.8000E-01
    -17.706  0.0000E+00  0.8000E-01
    -17.604  0.0000E+00  0.8000E-01
    -17.501  0.0000E+00  0.8000E-01
    -17.398  0.0000E+00  0.8000E-01
    -17.296  0.0000E+00  0.8000E-01
    -17.193  0.0000E+00  0.8000E-01
    -17.091  0.0000E+00  0.8000E-01
    -16.988  0.0000E+00  0.8000E-01
    -16.885  0.0000E+00  0.8000E-01
    -16.783  0.0000E+00  0.8000E-01
    -16.680  0.0000E+00  0.8000E-01
    -16.577  0.0000E+00  0.8000E-01
    -16.475  0.1527E+00  0.9567E-01
    -16.372  0.9633E+00  0.2400E+00
    -16.270  0.2339E+01  0.4800E+00
    -16.167  0.0000E+00  0.4800E+00
    -16.064  0.0000E+00  0.4800E+00
    -15.962  0.0000E+00  0.4800E+00
    -15.859  0.0000E+00  0.4800E+00
    -15.757  0.0000E+00  0.4800E+00
    -15.654  0.0000E+00  0.4800E+00
    -15.551  0.0000E+00  0.4800E+00
    -15.449  0.0000E+00  0.4800E+00
    -15.346  0.0000E+00  0.4800E+00
    -15.244  0.0000E+00  0.4800E+00
    -15.141  0.0000E+00  0.4800E+00
    -15.038  0.0000E+00  0.4800E+00
    -14.936  0.0000E+00  0.4800E+00
    -14.833  0.0000E+00  0.4800E+00
    -14.731  0.0000E+00  0.4800E+00
    -14.628  0.0000E+00  0.4800E+00
    -14.525  0.0000E+00  0.4800E+00
    -14.423  0.0000E+00  0.4800E+00
    -14.320  0.1905E-01  0.4820E+00
    -14.217  0.1582E+00  0.5007E+00
    -14.115  0.2965E+00  0.5361E+00
    -14.012  0.2726E+00  0.5714E+00
    -13.910  0.3815E+00  0.6382E+00
    -13.807  0.4017E+00  0.6889E+00
    -13.704  0.1954E+00  0.7200E+00
    -13.602  0.0000E+00  0.7200E+00
    -13.499  0.0000E+00  0.7200E+00
    -13.397  0.0000E+00  0.7200E+00
    -13.294  0.0000E+00  0.7200E+00
    -13.191  0.0000E+00  0.7200E+00
    -13.089  0.0000E+00  0.7200E+00
    -12.986  0.0000E+00  0.7200E+00
    -12.884  0.0000E+00  0.7200E+00
    -12.781  0.0000E+00  0.7200E+00
    -12.678  0.0000E+00  0.7200E+00
    -12.576  0.0000E+00  0.7200E+00
    -12.473  0.0000E+00  0.7200E+00
    -12.370  0.0000E+00  0.7200E+00
    -12.268  0.0000E+00  0.7200E+00
    -12.165  0.0000E+00  0.7200E+00
    -12.063  0.0000E+00  0.7200E+00
    -11.960  0.0000E+00  0.7200E+00
    -11.857  0.0000E+00  0.7200E+00
    -11.755  0.0000E+00  0.7200E+00
    -11.652  0.0000E+00  0.7200E+00
    -11.550  0.0000E+00  0.7200E+00
    -11.447  0.0000E+00  0.7200E+00
    -11.344  0.0000E+00  0.7200E+00
    -11.242  0.0000E+00  0.7200E+00
    -11.139  0.0000E+00  0.7200E+00
    -11.037  0.0000E+00  0.7200E+00
    -10.934  0.0000E+00  0.7200E+00
    -10.831  0.0000E+00  0.7200E+00
    -10.729  0.0000E+00  0.7200E+00
    -10.626  0.0000E+00  0.7200E+00
    -10.524  0.0000E+00  0.7200E+00
    -10.421  0.0000E+00  0.7200E+00
    -10.318  0.0000E+00  0.7200E+00
    -10.216  0.0000E+00  0.7200E+00
    -10.113  0.0000E+00  0.7200E+00
    -10.010  0.0000E+00  0.7200E+00
     -9.908  0.0000E+00  0.7200E+00
     -9.805  0.0000E+00  0.7200E+00
     -9.703  0.0000E+00  0.7200E+00
     -9.600  0.0000E+00  0.7200E+00
     -9.497  0.0000E+00  0.7200E+00
     -9.395  0.0000E+00  0.7200E+00
     -9.292  0.0000E+00  0.7200E+00
     -9.190  0.0000E+00  0.7200E+00
     -9.087  0.0000E+00  0.7200E+00
     -8.984  0.0000E+00  0.7200E+00
     -8.882  0.0000E+00  0.7200E+00
     -8.779  0.0000E+00  0.7200E+00
     -8.677  0.0000E+00  0.7200E+00
     -8.574  0.0000E+00  0.7200E+00
     -8.471  0.0000E+00  0.7200E+00
     -8.369  0.0000E+00  0.7200E+00
     -8.266  0.0000E+00  0.7200E+00
     -8.163  0.7397E-03  0.7201E+00
     -8.061  0.1225E-01  0.7216E+00
     -7.958  0.2250E-01  0.7244E+00
     -7.856  0.3812E-01  0.7293E+00
     -7.753  0.4656E-01  0.7345E+00
     -7.650  0.8064E-01  0.7444E+00
     -7.548  0.8116E-01  0.7536E+00
     -7.445  0.7213E-01  0.7638E+00
     -7.343  0.7883E-01  0.7736E+00
     -7.240  0.1985E+00  0.7959E+00
     -7.137  0.1677E+01  0.1022E+01
     -7.035  0.4639E-01  0.1030E+01
     -6.932  0.3796E-01  0.1035E+01
     -6.830  0.1437E-01  0.1037E+01
     -6.727  0.1319E-01  0.1039E+01
     -6.624  0.6094E-02  0.1040E+01
     -6.522  0.1522E-02  0.1040E+01
     -6.419  0.0000E+00  0.1040E+01
     -6.317  0.0000E+00  0.1040E+01
     -6.214  0.0000E+00  0.1040E+01
     -6.111  0.0000E+00  0.1040E+01
     -6.009  0.0000E+00  0.1040E+01
     -5.906  0.0000E+00  0.1040E+01
     -5.803  0.0000E+00  0.1040E+01
     -5.701  0.0000E+00  0.1040E+01
     -5.598  0.0000E+00  0.1040E+01
     -5.496  0.0000E+00  0.1040E+01
     -5.393  0.0000E+00  0.1040E+01
     -5.290  0.0000E+00  0.1040E+01
     -5.188  0.0000E+00  0.1040E+01
     -5.085  0.0000E+00  0.1040E+01
     -4.983  0.0000E+00  0.1040E+01
     -4.880  0.0000E+00  0.1040E+01
     -4.777  0.0000E+00  0.1040E+01
     -4.675  0.0000E+00  0.1040E+01
     -4.572  0.0000E+00  0.1040E+01
     -4.470  0.0000E+00  0.1040E+01
     -4.367  0.0000E+00  0.1040E+01
     -4.264  0.0000E+00  0.1040E+01
     -4.162  0.0000E+00  0.1040E+01
     -4.059  0.0000E+00  0.1040E+01
     -3.956  0.0000E+00  0.1040E+01
     -3.854  0.0000E+00  0.1040E+01
     -3.751  0.0000E+00  0.1040E+01
     -3.649  0.0000E+00  0.1040E+01
     -3.546  0.0000E+00  0.1040E+01
     -3.443  0.0000E+00  0.1040E+01
     -3.341  0.3446E-06  0.1040E+01
     -3.238  0.5108E-01  0.1045E+01
     -3.136  0.1898E+00  0.1067E+01
     -3.033  0.1531E+00  0.1088E+01
     -2.930  0.1178E+00  0.1104E+01
     -2.828  0.1240E+00  0.1120E+01
     -2.725  0.8925E-01  0.1132E+01
     -2.623  0.7082E-01  0.1142E+01
     -2.520  0.4853E-01  0.1150E+01
     -2.417  0.9836E-01  0.1163E+01
     -2.315  0.7235E-01  0.1174E+01
     -2.212  0.7395E-01  0.1183E+01
     -2.110  0.1591E+00  0.1201E+01
     -2.007  0.3026E+00  0.1240E+01
     -1.904  0.1426E+00  0.1266E+01
     -1.802  0.1237E+00  0.1281E+01
     -1.699  0.1971E+00  0.1306E+01
     -1.596  0.2616E+00  0.1342E+01
     -1.494  0.2799E+00  0.1378E+01
     -1.391  0.4361E+00  0.1431E+01
     -1.289  0.6256E+00  0.1512E+01
     -1.186  0.4833E+00  0.1578E+01
     -1.083  0.5040E+00  0.1646E+01
     -0.981  0.2024E+00  0.1680E+01
     -0.878  0.2458E-01  0.1683E+01
     -0.776  0.1894E+00  0.1706E+01
     -0.673  0.1067E+00  0.1719E+01
     -0.570  0.6995E-01  0.1729E+01
     -0.468  0.7744E-01  0.1738E+01
     -0.365  0.4765E-01  0.1744E+01
     -0.263  0.4707E-01  0.1750E+01
     -0.160  0.3307E-01  0.1754E+01
     -0.057  0.2062E-01  0.1756E+01
      0.045  0.7908E-02  0.1758E+01
      0.148  0.4880E-02  0.1759E+01
      0.251  0.4580E-02  0.1759E+01
      0.353  0.3012E-02  0.1760E+01
      0.456  0.3476E-03  0.1760E+01
      0.558  0.0000E+00  0.1760E+01
      0.661  0.0000E+00  0.1760E+01
      0.764  0.0000E+00  0.1760E+01
      0.866  0.0000E+00  0.1760E+01
      0.969  0.0000E+00  0.1760E+01
      1.071  0.0000E+00  0.1760E+01
      1.174  0.0000E+00  0.1760E+01
      1.277  0.0000E+00  0.1760E+01
      1.379  0.0000E+00  0.1760E+01
      1.482  0.0000E+00  0.1760E+01
      1.584  0.0000E+00  0.1760E+01
      1.687  0.0000E+00  0.1760E+01
      1.790  0.0000E+00  0.1760E+01
      1.892  0.0000E+00  0.1760E+01
      1.995  0.0000E+00  0.1760E+01
      2.097  0.0000E+00  0.1760E+01
      2.200  0.0000E+00  0.1760E+01
      2.303  0.0000E+00  0.1760E+01
      2.405  0.0000E+00  0.1760E+01
      2.508  0.0000E+00  0.1760E+01
      2.611  0.0000E+00  0.1760E+01
      2.713  0.5508E-11  0.1760E+01
      2.816  0.4490E-02  0.1760E+01
      2.918  0.1932E-01  0.1763E+01
      3.021  0.3233E-01  0.1767E+01
      3.124  0.4372E-01  0.1773E+01
      3.226  0.7533E-01  0.1782E+01
      3.329  0.9110E-01  0.1794E+01
      3.431  0.8981E-01  0.1805E+01
      3.534  0.7162E-01  0.1814E+01
      3.637  0.5199E-01  0.1821E+01
      3.739  0.5723E-01  0.1828E+01
      3.842  0.5161E-01  0.1836E+01
      3.944  0.5347E-01  0.1842E+01
      4.047  0.5709E-01  0.1851E+01
      4.150  0.3514E-01  0.1856E+01
      4.252  0.4231E-01  0.1862E+01
      4.355  0.4472E-01  0.1868E+01
      4.458  0.2284E-01  0.1872E+01
      4.560  0.6411E-01  0.1879E+01
      4.663  0.5970E-01  0.1887E+01
      4.765  0.4951E-01  0.1894E+01
      4.868  0.4998E-01  0.1901E+01
      4.971  0.2297E-01  0.1904E+01
      5.073  0.7302E-01  0.1913E+01
      5.176  0.9518E-01  0.1924E+01
      5.278  0.3736E-01  0.1930E+01
      5.381  0.4220E-01  0.1937E+01
      5.484  0.6988E-01  0.1946E+01
      5.586  0.7098E-01  0.1957E+01
      5.689  0.7379E-01  0.1966E+01
      5.791  0.7992E-01  0.1977E+01
      5.894  0.7558E-01  0.1988E+01
      5.997  0.7585E-01  0.1998E+01
      6.099  0.1040E+00  0.2012E+01
      6.202  0.1134E+00  0.2026E+01
      6.304  0.1669E+00  0.2046E+01
      6.407  0.1789E+00  0.2066E+01
      6.510  0.1740E+00  0.2088E+01
      6.612  0.1791E+00  0.2113E+01
      6.715  0.2079E+00  0.2143E+01
      6.818  0.2802E+00  0.2179E+01
      6.920  0.2493E+00  0.2211E+01
      7.023  0.1445E+00  0.2232E+01
      7.125  0.3784E-01  0.2239E+01
      7.228  0.4060E-02  0.2240E+01
      7.331  0.0000E+00  0.2240E+01
      7.433  0.0000E+00  0.2240E+01
      7.536  0.0000E+00  0.2240E+01
      7.638  0.0000E+00  0.2240E+01
      7.741  0.0000E+00  0.2240E+01
      7.844  0.0000E+00  0.2240E+01
      7.946  0.0000E+00  0.2240E+01
      8.049  0.0000E+00  0.2240E+01
      8.151  0.0000E+00  0.2240E+01
      8.254  0.0000E+00  0.2240E+01
      8.357  0.0000E+00  0.2240E+01
      8.459  0.0000E+00  0.2240E+01
      8.562  0.0000E+00  0.2240E+01
      8.56189069    -22.22101078  301      0.56474941      1.00000000
    -22.221  0.0000E+00  0.0000E+00  0.0000E+00
    -22.118  0.0000E+00  0.0000E+00  0.0000E+00
    -22.016  0.0000E+00  0.0000E+00  0.0000E+00
    -21.913  0.0000E+00  0.0000E+00  0.0000E+00
    -21.811  0.0000E+00  0.0000E+00  0.0000E+00
    -21.708  0.0000E+00  0.0000E+00  0.0000E+00
    -21.605  0.0000E+00  0.0000E+00  0.0000E+00
    -21.503  0.0000E+00  0.0000E+00  0.0000E+00
    -21.400  0.0000E+00  0.0000E+00  0.0000E+00
    -21.298  0.0000E+00  0.0000E+00  0.0000E+00
    -21.195  0.0000E+00  0.0000E+00  0.0000E+00
    -21.092  0.0000E+00  0.0000E+00  0.0000E+00
    -20.990  0.0000E+00  0.0000E+00  0.0000E+00
    -20.887  0.0000E+00  0.0000E+00  0.0000E+00
    -20.784  0.1731E+02  0.3057E-05  0.2807E-05
    -20.682  0.0000E+00  0.0000E+00  0.0000E+00
    -20.579  0.0000E+00  0.0000E+00  0.0000E+00
    -20.477  0.0000E+00  0.0000E+00  0.0000E+00
    -20.374  0.0000E+00  0.0000E+00  0.0000E+00
    -20.271  0.0000E+00  0.0000E+00  0.0000E+00
    -20.169  0.0000E+00  0.0000E+00  0.0000E+00
    -20.066  0.0000E+00  0.0000E+00  0.0000E+00
    -19.964  0.0000E+00  0.0000E+00  0.0000E+00
    -19.861  0.0000E+00  0.0000E+00  0.0000E+00
    -19.758  0.0000E+00  0.0000E+00  0.0000E+00
    -19.656  0.0000E+00  0.0000E+00  0.0000E+00
    -19.553  0.0000E+00  0.0000E+00  0.0000E+00
    -19.451  0.0000E+00  0.0000E+00  0.0000E+00
    -19.348  0.0000E+00  0.0000E+00  0.0000E+00
    -19.245  0.0000E+00  0.0000E+00  0.0000E+00
    -19.143  0.0000E+00  0.0000E+00  0.0000E+00
    -19.040  0.0000E+00  0.0000E+00  0.0000E+00
    -18.938  0.0000E+00  0.0000E+00  0.0000E+00
    -18.835  0.0000E+00  0.0000E+00  0.0000E+00
    -18.732  0.0000E+00  0.0000E+00  0.0000E+00
    -18.630  0.0000E+00  0.0000E+00  0.0000E+00
    -18.527  0.0000E+00  0.0000E+00  0.0000E+00
    -18.424  0.0000E+00  0.0000E+00  0.0000E+00
    -18.322  0.0000E+00  0.0000E+00  0.0000E+00
    -18.219  0.0000E+00  0.0000E+00  0.0000E+00
    -18.117  0.0000E+00  0.0000E+00  0.0000E+00
    -18.014  0.0000E+00  0.0000E+00  0.0000E+00
    -17.911  0.0000E+00  0.0000E+00  0.0000E+00
    -17.809  0.0000E+00  0.0000E+00  0.0000E+00
    -17.706  0.0000E+00  0.0000E+00  0.0000E+00
    -17.604  0.0000E+00  0.0000E+00  0.0000E+00
    -17.501  0.0000E+00  0.0000E+00  0.0000E+00
    -17.398  0.0000E+00  0.0000E+00  0.0000E+00
    -17.296  0.0000E+00  0.0000E+00  0.0000E+00
    -17.193  0.0000E+00  0.0000E+00  0.0000E+00
    -17.091  0.0000E+00  0.0000E+00  0.0000E+00
    -16.988  0.0000E+00  0.0000E+00  0.0000E+00
    -16.885  0.0000E+00  0.0000E+00  0.0000E+00
    -16.783  0.0000E+00  0.0000E+00  0.0000E+00
    -16.680  0.0000E+00  0.0000E+00  0.0000E+00
    -16.577  0.0000E+00  0.0000E+00  0.0000E+00
    -16.475  0.3779E-04  0.1655E-04  0.3320E-05
    -16.372  0.3274E-04  0.5707E-04  0.7368E-05
    -16.270  0.6187E-04  0.3457E-04  0.4069E-05
    -16.167  0.0000E+00  0.0000E+00  0.0000E+00
    -16.064  0.0000E+00  0.0000E+00  0.0000E+00
    -15.962  0.0000E+00  0.0000E+00  0.0000E+00
    -15.859  0.0000E+00  0.0000E+00  0.0000E+00
    -15.757  0.0000E+00  0.0000E+00  0.0000E+00
    -15.654  0.0000E+00  0.0000E+00  0.0000E+00
    -15.551  0.0000E+00  0.0000E+00  0.0000E+00
    -15.449  0.0000E+00  0.0000E+00  0.0000E+00
    -15.346  0.0000E+00  0.0000E+00  0.0000E+00
    -15.244  0.0000E+00  0.0000E+00  0.0000E+00
    -15.141  0.0000E+00  0.0000E+00  0.0000E+00
    -15.038  0.0000E+00  0.0000E+00  0.0000E+00
    -14.936  0.0000E+00  0.0000E+00  0.0000E+00
    -14.833  0.0000E+00  0.0000E+00  0.0000E+00
    -14.731  0.0000E+00  0.0000E+00  0.0000E+00
    -14.628  0.0000E+00  0.0000E+00  0.0000E+00
    -14.525  0.0000E+00  0.0000E+00  0.0000E+00
    -14.423  0.0000E+00  0.0000E+00  0.0000E+00
    -14.320  0.6638E-03  0.7186E-04  0.1712E-05
    -14.217  0.2848E-02  0.2186E-02  0.4537E-04
    -14.115  0.1587E-02  0.4886E-02  0.1932E-03
    -14.012  0.8689E-03  0.3618E-02  0.2859E-03
    -13.910  0.9769E-03  0.3509E-02  0.3457E-03
    -13.807  0.7651E-03  0.2503E-02  0.4064E-03
    -13.704  0.7393E-03  0.1490E-02  0.1698E-03
    -13.602  0.0000E+00  0.0000E+00  0.0000E+00
    -13.499  0.0000E+00  0.0000E+00  0.0000E+00
    -13.397  0.0000E+00  0.0000E+00  0.0000E+00
    -13.294  0.0000E+00  0.0000E+00  0.0000E+00
    -13.191  0.0000E+00  0.0000E+00  0.0000E+00
    -13.089  0.0000E+00  0.0000E+00  0.0000E+00
    -12.986  0.0000E+00  0.0000E+00  0.0000E+00
    -12.884  0.0000E+00  0.0000E+00  0.0000E+00
    -12.781  0.0000E+00  0.0000E+00  0.0000E+00
    -12.678  0.0000E+00  0.0000E+00  0.0000E+00
    -12.576  0.0000E+00  0.0000E+00  0.0000E+00
    -12.473  0.0000E+00  0.0000E+00  0.0000E+00
    -12.370  0.0000E+00  0.0000E+00  0.0000E+00
    -12.268  0.0000E+00  0.0000E+00  0.0000E+00
    -12.165  0.0000E+00  0.0000E+00  0.0000E+00
    -12.063  0.0000E+00  0.0000E+00  0.0000E+00
    -11.960  0.0000E+00  0.0000E+00  0.0000E+00
    -11.857  0.0000E+00  0.0000E+00  0.0000E+00
    -11.755  0.0000E+00  0.0000E+00  0.0000E+00
    -11.652  0.0000E+00  0.0000E+00  0.0000E+00
    -11.550  0.0000E+00  0.0000E+00  0.0000E+00
    -11.447  0.0000E+00  0.0000E+00  0.0000E+00
    -11.344  0.0000E+00  0.0000E+00  0.0000E+00
    -11.242  0.0000E+00  0.0000E+00  0.0000E+00
    -11.139  0.0000E+00  0.0000E+00  0.0000E+00
    -11.037  0.0000E+00  0.0000E+00  0.0000E+00
    -10.934  0.0000E+00  0.0000E+00  0.0000E+00
    -10.831  0.0000E+00  0.0000E+00  0.0000E+00
    -10.729  0.0000E+00  0.0000E+00  0.0000E+00
    -10.626  0.0000E+00  0.0000E+00  0.0000E+00
    -10.524  0.0000E+00  0.0000E+00  0.0000E+00
    -10.421  0.0000E+00  0.0000E+00  0.0000E+00
    -10.318  0.0000E+00  0.0000E+00  0.0000E+00
    -10.216  0.0000E+00  0.0000E+00  0.0000E+00
    -10.113  0.0000E+00  0.0000E+00  0.0000E+00
    -10.010  0.0000E+00  0.0000E+00  0.0000E+00
     -9.908  0.0000E+00  0.0000E+00  0.0000E+00
     -9.805  0.0000E+00  0.0000E+00  0.0000E+00
     -9.703  0.0000E+00  0.0000E+00  0.0000E+00
     -9.600  0.0000E+00  0.0000E+00  0.0000E+00
     -9.497  0.0000E+00  0.0000E+00  0.0000E+00
     -9.395  0.0000E+00  0.0000E+00  0.0000E+00
     -9.292  0.0000E+00  0.0000E+00  0.0000E+00
     -9.190  0.0000E+00  0.0000E+00  0.0000E+00
     -9.087  0.0000E+00  0.0000E+00  0.0000E+00
     -8.984  0.0000E+00  0.0000E+00  0.0000E+00
     -8.882  0.0000E+00  0.0000E+00  0.0000E+00
     -8.779  0.0000E+00  0.0000E+00  0.0000E+00
     -8.677  0.0000E+00  0.0000E+00  0.0000E+00
     -8.574  0.0000E+00  0.0000E+00  0.0000E+00
     -8.471  0.0000E+00  0.0000E+00  0.0000E+00
     -8.369  0.0000E+00  0.0000E+00  0.0000E+00
     -8.266  0.0000E+00  0.0000E+00  0.0000E+00
     -8.163  0.5165E-09  0.5651E-05  0.2869E-06
     -8.061  0.6696E-07  0.2402E-03  0.4803E-05
     -7.958  0.2408E-06  0.7444E-03  0.9388E-05
     -7.856  0.1069E-05  0.2868E-02  0.1629E-04
     -7.753  0.2942E-05  0.6204E-02  0.2003E-04
     -7.650  0.6323E-05  0.2582E-01  0.3083E-04
     -7.548  0.9155E-05  0.4923E-01  0.2964E-04
     -7.445  0.1611E-04  0.7708E-01  0.2908E-04
     -7.343  0.2223E-04  0.2018E+00  0.3256E-04
     -7.240  0.2816E-04  0.2935E+01  0.3222E-04
     -7.137  0.3732E-04  0.3053E+02  0.6747E-04
     -7.035  0.2056E-04  0.2530E+00  0.2073E-04
     -6.932  0.3083E-04  0.5358E-01  0.1718E-04
     -6.830  0.1436E-04  0.8093E-02  0.6176E-05
     -6.727  0.1476E-04  0.4990E-02  0.4460E-05
     -6.624  0.7416E-05  0.1517E-02  0.1467E-05
     -6.522  0.1886E-05  0.3123E-03  0.2697E-06
     -6.419  0.0000E+00  0.0000E+00  0.0000E+00
     -6.317  0.0000E+00  0.0000E+00  0.0000E+00
     -6.214  0.0000E+00  0.0000E+00  0.0000E+00
     -6.111  0.0000E+00  0.0000E+00  0.0000E+00
     -6.009  0.0000E+00  0.0000E+00  0.0000E+00
     -5.906  0.0000E+00  0.0000E+00  0.0000E+00
     -5.803  0.0000E+00  0.0000E+00  0.0000E+00
     -5.701  0.0000E+00  0.0000E+00  0.0000E+00
     -5.598  0.0000E+00  0.0000E+00  0.0000E+00
     -5.496  0.0000E+00  0.0000E+00  0.0000E+00
     -5.393  0.0000E+00  0.0000E+00  0.0000E+00
     -5.290  0.0000E+00  0.0000E+00  0.0000E+00
     -5.188  0.0000E+00  0.0000E+00  0.0000E+00
     -5.085  0.0000E+00  0.0000E+00  0.0000E+00
     -4.983  0.0000E+00  0.0000E+00  0.0000E+00
     -4.880  0.0000E+00  0.0000E+00  0.0000E+00
     -4.777  0.0000E+00  0.0000E+00  0.0000E+00
     -4.675  0.0000E+00  0.0000E+00  0.0000E+00
     -4.572  0.0000E+00  0.0000E+00  0.0000E+00
     -4.470  0.0000E+00  0.0000E+00  0.0000E+00
     -4.367  0.0000E+00  0.0000E+00  0.0000E+00
     -4.264  0.0000E+00  0.0000E+00  0.0000E+00
     -4.162  0.0000E+00  0.0000E+00  0.0000E+00
     -4.059  0.0000E+00  0.0000E+00  0.0000E+00
     -3.956  0.0000E+00  0.0000E+00  0.0000E+00
     -3.854  0.0000E+00  0.0000E+00  0.0000E+00
     -3.751  0.0000E+00  0.0000E+00  0.0000E+00
     -3.649  0.0000E+00  0.0000E+00  0.0000E+00
     -3.546  0.0000E+00  0.0000E+00  0.0000E+00
     -3.443  0.0000E+00  0.0000E+00  0.0000E+00
     -3.341  0.1470E-09  0.7149E-07  0.8197E-09
     -3.238  0.3191E-04  0.7711E-02  0.3898E-03
     -3.136  0.1607E-03  0.2146E-01  0.1839E-02
     -3.033  0.8750E-04  0.9743E-02  0.1407E-02
     -2.930  0.1628E-03  0.1108E-01  0.9795E-03
     -2.828  0.1707E-03  0.1117E-01  0.1135E-02
     -2.725  0.3236E-03  0.8861E-02  0.6752E-03
     -2.623  0.2721E-03  0.7232E-02  0.5304E-03
     -2.520  0.2402E-03  0.5116E-02  0.4811E-03
     -2.417  0.9532E-03  0.1146E-01  0.9031E-03
     -2.315  0.8177E-03  0.3705E-02  0.7113E-03
     -2.212  0.1780E-02  0.7896E-02  0.8881E-03
     -2.110  0.5896E-02  0.1860E-01  0.2540E-02
     -2.007  0.2269E-01  0.3495E-01  0.5151E-02
     -1.904  0.5738E-02  0.4067E-01  0.2151E-02
     -1.802  0.5709E-03  0.6093E-01  0.2405E-02
     -1.699  0.1787E-02  0.8976E-01  0.6419E-02
     -1.596  0.1590E-02  0.8147E-01  0.1010E-01
     -1.494  0.1867E-02  0.6478E-01  0.1069E-01
     -1.391  0.5018E-02  0.6492E-01  0.1882E-01
     -1.289  0.6028E-02  0.7631E-01  0.2097E-01
     -1.186  0.2289E-02  0.7180E-01  0.1253E-01
     -1.083  0.2785E-02  0.7869E-01  0.1256E-01
     -0.981  0.6464E-03  0.2007E-01  0.5543E-02
     -0.878  0.3922E-04  0.3981E-02  0.1007E-02
     -0.776  0.1118E-02  0.2407E-01  0.5097E-02
     -0.673  0.3845E-03  0.5931E-02  0.1461E-02
     -0.570  0.1568E-03  0.2823E-02  0.6592E-03
     -0.468  0.1742E-03  0.3408E-02  0.6881E-03
     -0.365  0.6747E-04  0.1475E-02  0.4138E-03
     -0.263  0.3853E-04  0.1065E-02  0.5076E-03
     -0.160  0.1922E-04  0.4108E-03  0.4261E-03
     -0.057  0.9021E-05  0.1088E-03  0.2512E-03
      0.045  0.3249E-05  0.4744E-04  0.6484E-04
      0.148  0.1237E-05  0.2112E-04  0.2429E-04
      0.251  0.1166E-05  0.1261E-04  0.2066E-04
      0.353  0.2173E-06  0.4415E-05  0.1242E-04
      0.456  0.5702E-24  0.3673E-10  0.1302E-05
      0.558  0.0000E+00  0.0000E+00  0.0000E+00
      0.661  0.0000E+00  0.0000E+00  0.0000E+00
      0.764  0.0000E+00  0.0000E+00  0.0000E+00
      0.866  0.0000E+00  0.0000E+00  0.0000E+00
      0.969  0.0000E+00  0.0000E+00  0.0000E+00
      1.071  0.0000E+00  0.0000E+00  0.0000E+00
      1.174  0.0000E+00  0.0000E+00  0.0000E+00
      1.277  0.0000E+00  0.0000E+00  0.0000E+00
      1.379  0.0000E+00  0.0000E+00  0.0000E+00
      1.482  0.0000E+00  0.0000E+00  0.0000E+00
      1.584  0.0000E+00  0.0000E+00  0.0000E+00
      1.687  0.0000E+00  0.0000E+00  0.0000E+00
      1.790  0.0000E+00  0.0000E+00  0.0000E+00
      1.892  0.0000E+00  0.0000E+00  0.0000E+00
      1.995  0.0000E+00  0.0000E+00  0.0000E+00
      2.097  0.0000E+00  0.0000E+00  0.0000E+00
      2.200  0.0000E+00  0.0000E+00  0.0000E+00
      2.303  0.0000E+00  0.0000E+00  0.0000E+00
      2.405  0.0000E+00  0.0000E+00  0.0000E+00
      2.508  0.0000E+00  0.0000E+00  0.0000E+00
      2.611  0.0000E+00  0.0000E+00  0.0000E+00
      2.713  0.9648E-29  0.3306E-14  0.3297E-12
      2.816  0.3803E-05  0.2897E-04  0.3675E-03
      2.918  0.6177E-04  0.2532E-03  0.1424E-02
      3.021  0.1228E-03  0.7323E-03  0.2099E-02
      3.124  0.2375E-03  0.1106E-02  0.2330E-02
      3.226  0.5361E-03  0.2197E-02  0.3205E-02
      3.329  0.4731E-03  0.2592E-02  0.3979E-02
      3.431  0.5633E-03  0.2660E-02  0.3941E-02
      3.534  0.6931E-03  0.2176E-02  0.2554E-02
      3.637  0.3313E-03  0.1539E-02  0.1943E-02
      3.739  0.2689E-03  0.1255E-02  0.3573E-02
      3.842  0.2068E-03  0.1541E-02  0.3106E-02
      3.944  0.3266E-03  0.1375E-02  0.2880E-02
      4.047  0.5113E-03  0.1268E-02  0.2849E-02
      4.150  0.2854E-03  0.8198E-03  0.1301E-02
      4.252  0.4472E-03  0.1082E-02  0.2335E-02
      4.355  0.1285E-03  0.7641E-03  0.3874E-02
      4.458  0.8424E-04  0.7497E-03  0.2529E-02
      4.560  0.4622E-03  0.2065E-02  0.5282E-02
      4.663  0.8773E-03  0.2000E-02  0.3465E-02
      4.765  0.5567E-03  0.1413E-02  0.4002E-02
      4.868  0.1803E-02  0.1740E-02  0.4558E-02
      4.971  0.3818E-02  0.8952E-03  0.2340E-02
      5.073  0.1021E-01  0.3317E-02  0.6964E-02
      5.176  0.1706E-01  0.5568E-02  0.1090E-01
      5.278  0.1408E-02  0.2197E-02  0.5915E-02
      5.381  0.2248E-02  0.2292E-02  0.5124E-02
      5.484  0.7331E-02  0.3966E-02  0.1033E-01
      5.586  0.1612E-01  0.5723E-02  0.1019E-01
      5.689  0.3367E-02  0.2381E-02  0.1384E-01
      5.791  0.1627E-01  0.6684E-02  0.1581E-01
      5.894  0.7977E-02  0.3746E-02  0.1529E-01
      5.997  0.1595E-01  0.3580E-02  0.3197E-01
      6.099  0.3008E-01  0.8037E-02  0.8950E-01
      6.202  0.4159E-01  0.1169E-01  0.1508E+00
      6.304  0.4421E-01  0.1545E-01  0.3035E+00
      6.407  0.5566E-01  0.2164E-01  0.3493E+00
      6.510  0.4138E-01  0.2913E-01  0.4124E+00
      6.612  0.3195E-01  0.3563E-01  0.4816E+00
      6.715  0.2584E-01  0.3566E-01  0.5998E+00
      6.818  0.2936E-01  0.4567E-01  0.8789E+00
      6.920  0.2057E-01  0.4681E-01  0.7925E+00
      7.023  0.1026E-01  0.2965E-01  0.4329E+00
      7.125  0.8980E-03  0.7450E-02  0.9548E-01
      7.228  0.1455E-06  0.4648E-03  0.9413E-02
      7.331  0.0000E+00  0.0000E+00  0.0000E+00
      7.433  0.0000E+00  0.0000E+00  0.0000E+00
      7.536  0.0000E+00  0.0000E+00  0.0000E+00
      7.638  0.0000E+00  0.0000E+00  0.0000E+00
      7.741  0.0000E+00  0.0000E+00  0.0000E+00
      7.844  0.0000E+00  0.0000E+00  0.0000E+00
      7.946  0.0000E+00  0.0000E+00  0.0000E+00
      8.049  0.0000E+00  0.0000E+00  0.0000E+00
      8.151  0.0000E+00  0.0000E+00  0.0000E+00
      8.254  0.0000E+00  0.0000E+00  0.0000E+00
      8.357  0.0000E+00  0.0000E+00  0.0000E+00
      8.459  0.0000E+00  0.0000E+00  0.0000E+00
      8.562  0.0000E+00  0.0000E+00  0.0000E+00
      8.56189069    -22.22101078  301      0.56474941      1.00000000
    -22.221  0.0000E+00  0.0000E+00  0.0000E+00
    -22.118  0.0000E+00  0.0000E+00  0.0000E+00
    -22.016  0.0000E+00  0.0000E+00  0.0000E+00
    -21.913  0.0000E+00  0.0000E+00  0.0000E+00
    -21.811  0.0000E+00  0.0000E+00  0.0000E+00
    -21.708  0.0000E+00  0.0000E+00  0.0000E+00
    -21.605  0.0000E+00  0.0000E+00  0.0000E+00
    -21.503  0.0000E+00  0.0000E+00  0.0000E+00
    -21.400  0.0000E+00  0.0000E+00  0.0000E+00
    -21.298  0.0000E+00  0.0000E+00  0.0000E+00
    -21.195  0.0000E+00  0.0000E+00  0.0000E+00
    -21.092  0.0000E+00  0.0000E+00  0.0000E+00
    -20.990  0.0000E+00  0.0000E+00  0.0000E+00
    -20.887  0.0000E+00  0.0000E+00  0.0000E+00
    -20.784  0.1731E+02  0.3055E-05  0.2799E-05
    -20.682  0.0000E+00  0.0000E+00  0.0000E+00
    -20.579  0.0000E+00  0.0000E+00  0.0000E+00
    -20.477  0.0000E+00  0.0000E+00  0.0000E+00
    -20.374  0.0000E+00  0.0000E+00  0.0000E+00
    -20.271  0.0000E+00  0.0000E+00  0.0000E+00
    -20.169  0.0000E+00  0.0000E+00  0.0000E+00
    -20.066  0.0000E+00  0.0000E+00  0.0000E+00
    -19.964  0.0000E+00  0.0000E+00  0.0000E+00
    -19.861  0.0000E+00  0.0000E+00  0.0000E+00
    -19.758  0.0000E+00  0.0000E+00  0.0000E+00
    -19.656  0.0000E+00  0.0000E+00  0.0000E+00
    -19.553  0.0000E+00  0.0000E+00  0.0000E+00
    -19.451  0.0000E+00  0.0000E+00  0.0000E+00
    -19.348  0.0000E+00  0.0000E+00  0.0000E+00
    -19.245  0.0000E+00  0.0000E+00  0.0000E+00
    -19.143  0.0000E+00  0.0000E+00  0.0000E+00
    -19.040  0.0000E+00  0.0000E+00  0.0000E+00
    -18.938  0.0000E+00  0.0000E+00  0.0000E+00
    -18.835  0.0000E+00  0.0000E+00  0.0000E+00
    -18.732  0.0000E+00  0.0000E+00  0.0000E+00
    -18.630  0.0000E+00  0.0000E+00  0.0000E+00
    -18.527  0.0000E+00  0.0000E+00  0.0000E+00
    -18.424  0.0000E+00  0.0000E+00  0.0000E+00
    -18.322  0.0000E+00  0.0000E+00  0.0000E+00
    -18.219  0.0000E+00  0.0000E+00  0.0000E+00
    -18.117  0.0000E+00  0.0000E+00  0.0000E+00
    -18.014  0.0000E+00  0.0000E+00  0.0000E+00
    -17.911  0.0000E+00  0.0000E+00  0.0000E+00
    -17.809  0.0000E+00  0.0000E+00  0.0000E+00
    -17.706  0.0000E+00  0.0000E+00  0.0000E+00
    -17.604  0.0000E+00  0.0000E+00  0.0000E+00
    -17.501  0.0000E+00  0.0000E+00  0.0000E+00
    -17.398  0.0000E+00  0.0000E+00  0.0000E+00
    -17.296  0.0000E+00  0.0000E+00  0.0000E+00
    -17.193  0.0000E+00  0.0000E+00  0.0000E+00
    -17.091  0.0000E+00  0.0000E+00  0.0000E+00
    -16.988  0.0000E+00  0.0000E+00  0.0000E+00
    -16.885  0.0000E+00  0.0000E+00  0.0000E+00
    -16.783  0.0000E+00  0.0000E+00  0.0000E+00
    -16.680  0.0000E+00  0.0000E+00  0.0000E+00
    -16.577  0.0000E+00  0.0000E+00  0.0000E+00
    -16.475  0.2800E-04  0.1436E-04  0.3080E-05
    -16.372  0.3527E-04  0.6842E-04  0.9801E-05
    -16.270  0.6176E-04  0.3452E-04  0.4065E-05
    -16.167  0.0000E+00  0.0000E+00  0.0000E+00
    -16.064  0.0000E+00  0.0000E+00  0.0000E+00
    -15.962  0.0000E+00  0.0000E+00  0.0000E+00
    -15.859  0.0000E+00  0.0000E+00  0.0000E+00
    -15.757  0.0000E+00  0.0000E+00  0.0000E+00
    -15.654  0.0000E+00  0.0000E+00  0.0000E+00
    -15.551  0.0000E+00  0.0000E+00  0.0000E+00
    -15.449  0.0000E+00  0.0000E+00  0.0000E+00
    -15.346  0.0000E+00  0.0000E+00  0.0000E+00
    -15.244  0.0000E+00  0.0000E+00  0.0000E+00
    -15.141  0.0000E+00  0.0000E+00  0.0000E+00
    -15.038  0.0000E+00  0.0000E+00  0.0000E+00
    -14.936  0.0000E+00  0.0000E+00  0.0000E+00
    -14.833  0.0000E+00  0.0000E+00  0.0000E+00
    -14.731  0.0000E+00  0.0000E+00  0.0000E+00
    -14.628  0.0000E+00  0.0000E+00  0.0000E+00
    -14.525  0.0000E+00  0.0000E+00  0.0000E+00
    -14.423  0.0000E+00  0.0000E+00  0.0000E+00
    -14.320  0.6754E-03  0.5714E-04  0.1974E-05
    -14.217  0.3115E-02  0.1764E-02  0.4898E-04
    -14.115  0.1464E-02  0.5917E-02  0.1849E-03
    -14.012  0.7261E-03  0.3441E-02  0.2741E-03
    -13.910  0.9663E-03  0.3554E-02  0.4613E-03
    -13.807  0.1348E-02  0.3060E-02  0.4070E-03
    -13.704  0.5297E-03  0.1186E-02  0.1491E-03
    -13.602  0.0000E+00  0.0000E+00  0.0000E+00
    -13.499  0.0000E+00  0.0000E+00  0.0000E+00
    -13.397  0.0000E+00  0.0000E+00  0.0000E+00
    -13.294  0.0000E+00  0.0000E+00  0.0000E+00
    -13.191  0.0000E+00  0.0000E+00  0.0000E+00
    -13.089  0.0000E+00  0.0000E+00  0.0000E+00