  40  40   1   0
  0.4039067E+02  0.1177568E-08  0.1171325E-08  0.1171325E-08  0.5000000E-15
   1.0000000000000000E-004
  CAR 
 CsPbBr3 cubic bulk                      
      8.16431826    -22.31293109  301      0.67199446      1.00000000
    -22.313  0.0000E+00  0.0000E+00
    -22.211  0.0000E+00  0.0000E+00
    -22.110  0.0000E+00  0.0000E+00
    -22.008  0.0000E+00  0.0000E+00
    -21.907  0.0000E+00  0.0000E+00
    -21.805  0.0000E+00  0.0000E+00
    -21.703  0.0000E+00  0.0000E+00
    -21.602  0.0000E+00  0.0000E+00
    -21.500  0.0000E+00  0.0000E+00
    -21.399  0.0000E+00  0.0000E+00
    -21.297  0.0000E+00  0.0000E+00
    -21.195  0.0000E+00  0.0000E+00
    -21.094  0.0000E+00  0.0000E+00
    -20.992  0.0000E+00  0.0000E+00
    -20.891  0.9393E+02  0.9543E+01
    -20.789  0.3937E+02  0.1600E+02
    -20.687  0.0000E+00  0.1600E+02
    -20.586  0.0000E+00  0.1600E+02
    -20.484  0.0000E+00  0.1600E+02
    -20.383  0.0000E+00  0.1600E+02
    -20.281  0.0000E+00  0.1600E+02
    -20.180  0.0000E+00  0.1600E+02
    -20.078  0.0000E+00  0.1600E+02
    -19.976  0.0000E+00  0.1600E+02
    -19.875  0.0000E+00  0.1600E+02
    -19.773  0.0000E+00  0.1600E+02
    -19.672  0.0000E+00  0.1600E+02
    -19.570  0.0000E+00  0.1600E+02
    -19.468  0.0000E+00  0.1600E+02
    -19.367  0.0000E+00  0.1600E+02
    -19.265  0.0000E+00  0.1600E+02
    -19.164  0.0000E+00  0.1600E+02
    -19.062  0.0000E+00  0.1600E+02
    -18.960  0.0000E+00  0.1600E+02
    -18.859  0.0000E+00  0.1600E+02
    -18.757  0.0000E+00  0.1600E+02
    -18.656  0.0000E+00  0.1600E+02
    -18.554  0.0000E+00  0.1600E+02
    -18.452  0.0000E+00  0.1600E+02
    -18.351  0.0000E+00  0.1600E+02
    -18.249  0.0000E+00  0.1600E+02
    -18.148  0.0000E+00  0.1600E+02
    -18.046  0.0000E+00  0.1600E+02
    -17.945  0.0000E+00  0.1600E+02
    -17.843  0.0000E+00  0.1600E+02
    -17.741  0.0000E+00  0.1600E+02
    -17.640  0.0000E+00  0.1600E+02
    -17.538  0.0000E+00  0.1600E+02
    -17.437  0.0000E+00  0.1600E+02
    -17.335  0.0000E+00  0.1600E+02
    -17.233  0.0000E+00  0.1600E+02
    -17.132  0.0000E+00  0.1600E+02
    -17.030  0.0000E+00  0.1600E+02
    -16.929  0.0000E+00  0.1600E+02
    -16.827  0.0000E+00  0.1600E+02
    -16.725  0.0000E+00  0.1600E+02
    -16.624  0.0000E+00  0.1600E+02
    -16.522  0.0000E+00  0.1600E+02
    -16.421  0.3850E+02  0.1991E+02
    -16.319  0.2063E+03  0.4795E+02
    -16.217  0.4725E+03  0.9600E+02
    -16.116  0.0000E+00  0.9600E+02
    -16.014  0.0000E+00  0.9600E+02
    -15.913  0.0000E+00  0.9600E+02
    -15.811  0.0000E+00  0.9600E+02
    -15.710  0.0000E+00  0.9600E+02
    -15.608  0.0000E+00  0.9600E+02
    -15.506  0.0000E+00  0.9600E+02
    -15.405  0.0000E+00  0.9600E+02
    -15.303  0.0000E+00  0.9600E+02
    -15.202  0.0000E+00  0.9600E+02
    -15.100  0.0000E+00  0.9600E+02
    -14.998  0.0000E+00  0.9600E+02
    -14.897  0.0000E+00  0.9600E+02
    -14.795  0.0000E+00  0.9600E+02
    -14.694  0.0000E+00  0.9600E+02
    -14.592  0.0000E+00  0.9600E+02
    -14.490  0.0000E+00  0.9600E+02
    -14.389  0.3268E-05  0.9600E+02
    -14.287  0.1516E+02  0.9754E+02
    -14.186  0.4750E+02  0.1026E+03
    -14.084  0.4854E+02  0.1084E+03
    -13.982  0.9723E+02  0.1194E+03
    -13.881  0.1467E+02  0.1245E+03
    -13.779  0.9752E+02  0.1392E+03
    -13.678  0.2707E+02  0.1440E+03
    -13.576  0.0000E+00  0.1440E+03
    -13.475  0.0000E+00  0.1440E+03
    -13.373  0.0000E+00  0.1440E+03
    -13.271  0.0000E+00  0.1440E+03
    -13.170  0.0000E+00  0.1440E+03
    -13.068  0.0000E+00  0.1440E+03
    -12.967  0.0000E+00  0.1440E+03
    -12.865  0.0000E+00  0.1440E+03
    -12.763  0.0000E+00  0.1440E+03
    -12.662  0.0000E+00  0.1440E+03
    -12.560  0.0000E+00  0.1440E+03
    -12.459  0.0000E+00  0.1440E+03
    -12.357  0.0000E+00  0.1440E+03
    -12.255  0.0000E+00  0.1440E+03
    -12.154  0.0000E+00  0.1440E+03
    -12.052  0.0000E+00  0.1440E+03
    -11.951  0.0000E+00  0.1440E+03
    -11.849  0.0000E+00  0.1440E+03
    -11.747  0.0000E+00  0.1440E+03
    -11.646  0.0000E+00  0.1440E+03
    -11.544  0.0000E+00  0.1440E+03
    -11.443  0.0000E+00  0.1440E+03
    -11.341  0.0000E+00  0.1440E+03
    -11.240  0.0000E+00  0.1440E+03
    -11.138  0.0000E+00  0.1440E+03
    -11.036  0.0000E+00  0.1440E+03
    -10.935  0.0000E+00  0.1440E+03
    -10.833  0.0000E+00  0.1440E+03
    -10.732  0.0000E+00  0.1440E+03
    -10.630  0.0000E+00  0.1440E+03
    -10.528  0.0000E+00  0.1440E+03
    -10.427  0.0000E+00  0.1440E+03
    -10.325  0.0000E+00  0.1440E+03
    -10.224  0.0000E+00  0.1440E+03
    -10.122  0.0000E+00  0.1440E+03
    -10.020  0.0000E+00  0.1440E+03
     -9.919  0.0000E+00  0.1440E+03
     -9.817  0.0000E+00  0.1440E+03
     -9.716  0.0000E+00  0.1440E+03
     -9.614  0.0000E+00  0.1440E+03
     -9.512  0.0000E+00  0.1440E+03
     -9.411  0.0000E+00  0.1440E+03
     -9.309  0.0000E+00  0.1440E+03
     -9.208  0.0000E+00  0.1440E+03
     -9.106  0.0000E+00  0.1440E+03
     -9.005  0.0000E+00  0.1440E+03
     -8.903  0.0000E+00  0.1440E+03
     -8.801  0.0000E+00  0.1440E+03
     -8.700  0.0000E+00  0.1440E+03
     -8.598  0.0000E+00  0.1440E+03
     -8.497  0.0000E+00  0.1440E+03
     -8.395  0.0000E+00  0.1440E+03
     -8.293  0.0000E+00  0.1440E+03
     -8.192  0.1635E+01  0.1442E+03
     -8.090  0.0000E+00  0.1442E+03
     -7.989  0.3326E-03  0.1443E+03
     -7.887  0.1476E+02  0.1458E+03
     -7.785  0.8196E-15  0.1458E+03
     -7.684  0.3219E+02  0.1490E+03
     -7.582  0.2460E+01  0.1495E+03
     -7.481  0.1089E+02  0.1506E+03
     -7.379  0.2952E+02  0.1545E+03
     -7.277  0.2658E+03  0.1815E+03
     -7.176  0.1283E+03  0.2020E+03
     -7.074  0.3406E+02  0.2060E+03
     -6.973  0.0000E+00  0.2062E+03
     -6.871  0.5182E-08  0.2063E+03
     -6.770  0.1477E+02  0.2078E+03
     -6.668  0.0000E+00  0.2078E+03
     -6.566  0.0000E+00  0.2078E+03
     -6.465  0.7336E+00  0.2078E+03
     -6.363  0.0000E+00  0.2080E+03
     -6.262  0.0000E+00  0.2080E+03
     -6.160  0.0000E+00  0.2080E+03
     -6.058  0.0000E+00  0.2080E+03
     -5.957  0.0000E+00  0.2080E+03
     -5.855  0.0000E+00  0.2080E+03
     -5.754  0.0000E+00  0.2080E+03
     -5.652  0.0000E+00  0.2080E+03
     -5.550  0.0000E+00  0.2080E+03
     -5.449  0.0000E+00  0.2080E+03
     -5.347  0.0000E+00  0.2080E+03
     -5.246  0.0000E+00  0.2080E+03
     -5.144  0.0000E+00  0.2080E+03
     -5.042  0.0000E+00  0.2080E+03
     -4.941  0.0000E+00  0.2080E+03
     -4.839  0.0000E+00  0.2080E+03
     -4.738  0.0000E+00  0.2080E+03
     -4.636  0.0000E+00  0.2080E+03
     -4.535  0.0000E+00  0.2080E+03
     -4.433  0.0000E+00  0.2080E+03
     -4.331  0.0000E+00  0.2080E+03
     -4.230  0.0000E+00  0.2080E+03
     -4.128  0.0000E+00  0.2080E+03
     -4.027  0.0000E+00  0.2080E+03
     -3.925  0.0000E+00  0.2080E+03
     -3.823  0.0000E+00  0.2080E+03
     -3.722  0.0000E+00  0.2080E+03
     -3.620  0.0000E+00  0.2080E+03
     -3.519  0.0000E+00  0.2080E+03
     -3.417  0.0000E+00  0.2080E+03
     -3.315  0.6578E+01  0.2087E+03
     -3.214  0.5392E+02  0.2147E+03
     -3.112  0.3167E+02  0.2190E+03
     -3.011  0.4910E+01  0.2200E+03
     -2.909  0.0000E+00  0.2200E+03
     -2.807  0.0000E+00  0.2200E+03
     -2.706  0.6952E-09  0.2200E+03
     -2.604  0.4109E+02  0.2242E+03
     -2.503  0.4387E+02  0.2290E+03
     -2.401  0.3937E+02  0.2345E+03
     -2.300  0.3679E+02  0.2382E+03
     -2.198  0.2750E+02  0.2423E+03
     -2.096  0.7383E+01  0.2447E+03
     -1.995  0.5765E+02  0.2506E+03
     -1.893  0.8374E+01  0.2534E+03
     -1.792  0.2305E+02  0.2561E+03
     -1.690  0.3396E+02  0.2602E+03
     -1.588  0.8033E+02  0.2684E+03
     -1.487  0.2960E+02  0.2753E+03
     -1.385  0.7423E+02  0.2838E+03
     -1.284  0.1668E+03  0.3029E+03
     -1.182  0.8214E+02  0.3141E+03
     -1.080  0.1028E+03  0.3254E+03
     -0.979  0.6489E+02  0.3348E+03
     -0.877  0.1646E+02  0.3367E+03
     -0.776  0.4639E+02  0.3427E+03
     -0.674  0.1539E-05  0.3428E+03
     -0.572  0.7332E+01  0.3435E+03
     -0.471  0.2147E+02  0.3457E+03
     -0.369  0.1296E+02  0.3478E+03
     -0.268  0.4922E+01  0.3495E+03
     -0.166  0.0000E+00  0.3495E+03
     -0.065  0.1364E+01  0.3496E+03
      0.037  0.9290E-11  0.3503E+03
      0.139  0.1477E+02  0.3517E+03
      0.240  0.0000E+00  0.3518E+03
      0.342  0.0000E+00  0.3518E+03
      0.443  0.0000E+00  0.3518E+03
      0.545  0.8372E-05  0.3518E+03
      0.647  0.2461E+01  0.3520E+03
      0.748  0.0000E+00  0.3520E+03
      0.850  0.0000E+00  0.3520E+03
      0.951  0.0000E+00  0.3520E+03
      1.053  0.0000E+00  0.3520E+03
      1.155  0.0000E+00  0.3520E+03
      1.256  0.0000E+00  0.3520E+03
      1.358  0.0000E+00  0.3520E+03
      1.459  0.0000E+00  0.3520E+03
      1.561  0.0000E+00  0.3520E+03
      1.663  0.0000E+00  0.3520E+03
      1.764  0.0000E+00  0.3520E+03
      1.866  0.0000E+00  0.3520E+03
      1.967  0.0000E+00  0.3520E+03
      2.069  0.0000E+00  0.3520E+03
      2.170  0.0000E+00  0.3520E+03
      2.272  0.0000E+00  0.3520E+03
      2.374  0.0000E+00  0.3520E+03
      2.475  0.0000E+00  0.3520E+03
      2.577  0.0000E+00  0.3520E+03
      2.678  0.0000E+00  0.3520E+03
      2.780  0.2461E+01  0.3523E+03
      2.882  0.4922E+01  0.3528E+03
      2.983  0.9824E+01  0.3537E+03
      3.085  0.1969E+02  0.3557E+03
      3.186  0.1896E+02  0.3577E+03
      3.288  0.1723E+02  0.3602E+03
      3.390  0.1477E+02  0.3618E+03
      3.491  0.4922E+01  0.3632E+03
      3.593  0.4557E+01  0.3637E+03
      3.694  0.2435E+01  0.3640E+03
      3.796  0.0000E+00  0.3640E+03
      3.898  0.0000E+00  0.3640E+03
      3.999  0.0000E+00  0.3640E+03
      4.101  0.0000E+00  0.3640E+03
      4.202  0.0000E+00  0.3640E+03
      4.304  0.1195E-01  0.3640E+03
      4.405  0.2058E+02  0.3666E+03
      4.507  0.1976E+02  0.3690E+03
      4.609  0.1887E+02  0.3724E+03
      4.710  0.2969E+02  0.3775E+03
      4.812  0.2733E+02  0.3818E+03
      4.913  0.2953E+02  0.3858E+03
      5.015  0.2461E+02  0.3882E+03
      5.117  0.0000E+00  0.3882E+03
      5.218  0.0000E+00  0.3882E+03
      5.320  0.0000E+00  0.3882E+03
      5.421  0.1877E-07  0.3883E+03
      5.523  0.1477E+02  0.3897E+03
      5.625  0.3246E-02  0.3898E+03
      5.726  0.2461E+01  0.3902E+03
      5.828  0.1904E+02  0.3922E+03
      5.929  0.1537E+02  0.3938E+03
      6.031  0.4362E+02  0.3984E+03
      6.133  0.2396E+02  0.4014E+03
      6.234  0.4409E+02  0.4072E+03
      6.336  0.4190E+02  0.4130E+03
      6.437  0.1040E-03  0.4135E+03
      6.539  0.4471E+02  0.4180E+03
      6.640  0.4672E+02  0.4240E+03
      6.742  0.4990E+02  0.4303E+03
      6.844  0.9843E+01  0.4320E+03
      6.945  0.0000E+00  0.4320E+03
      7.047  0.0000E+00  0.4320E+03
      7.148  0.0000E+00  0.4320E+03
      7.250  0.0000E+00  0.4320E+03
      7.352  0.0000E+00  0.4320E+03
      7.453  0.0000E+00  0.4320E+03
      7.555  0.0000E+00  0.4320E+03
      7.656  0.0000E+00  0.4320E+03
      7.758  0.0000E+00  0.4320E+03
      7.860  0.0000E+00  0.4320E+03
      7.961  0.0000E+00  0.4320E+03
      8.063  0.0000E+00  0.4320E+03
      8.164  0.0000E+00  0.4320E+03
      8.16431826    -22.31293109  301      0.67199446      1.00000000
    -22.313  0.0000E+00  0.0000E+00  0.0000E+00
    -22.211  0.0000E+00  0.0000E+00  0.0000E+00
    -22.110  0.0000E+00  0.0000E+00  0.0000E+00
    -22.008  0.0000E+00  0.0000E+00  0.0000E+00
    -21.907  0.0000E+00  0.0000E+00  0.0000E+00
    -21.805  0.0000E+00  0.0000E+00  0.0000E+00
    -21.703  0.0000E+00  0.0000E+00  0.0000E+00
    -21.602  0.0000E+00  0.0000E+00  0.0000E+00
    -21.500  0.0000E+00  0.0000E+00  0.0000E+00
    -21.399  0.0000E+00  0.0000E+00  0.0000E+00
    -21.297  0.0000E+00  0.0000E+00  0.0000E+00
    -21.195  0.0000E+00  0.0000E+00  0.0000E+00
    -21.094  0.0000E+00  0.0000E+00  0.0000E+00
    -20.992  0.0000E+00  0.0000E+00  0.0000E+00
    -20.891  0.1747E+02  0.1013E-05  0.4574E-05
    -20.789  0.1804E-03  0.5166E-07  0.3029E-08
    -20.687  0.0000E+00  0.0000E+00  0.0000E+00
    -20.586  0.0000E+00  0.0000E+00  0.0000E+00
    -20.484  0.0000E+00  0.0000E+00  0.0000E+00
    -20.383  0.0000E+00  0.0000E+00  0.0000E+00
    -20.281  0.0000E+00  0.0000E+00  0.0000E+00
    -20.180  0.0000E+00  0.0000E+00  0.0000E+00
    -20.078  0.0000E+00  0.0000E+00  0.0000E+00
    -19.976  0.0000E+00  0.0000E+00  0.0000E+00
    -19.875  0.0000E+00  0.0000E+00  0.0000E+00
    -19.773  0.0000E+00  0.0000E+00  0.0000E+00
    -19.672  0.0000E+00  0.0000E+00  0.0000E+00
    -19.570  0.0000E+00  0.0000E+00  0.0000E+00
    -19.468  0.0000E+00  0.0000E+00  0.0000E+00
    -19.367  0.0000E+00  0.0000E+00  0.0000E+00
    -19.265  0.0000E+00  0.0000E+00  0.0000E+00
    -19.164  0.0000E+00  0.0000E+00  0.0000E+00
    -19.062  0.0000E+00  0.0000E+00  0.0000E+00
    -18.960  0.0000E+00  0.0000E+00  0.0000E+00
    -18.859  0.0000E+00  0.0000E+00  0.0000E+00
    -18.757  0.0000E+00  0.0000E+00  0.0000E+00
    -18.656  0.0000E+00  0.0000E+00  0.0000E+00
    -18.554  0.0000E+00  0.0000E+00  0.0000E+00
    -18.452  0.0000E+00  0.0000E+00  0.0000E+00
    -18.351  0.0000E+00  0.0000E+00  0.0000E+00
    -18.249  0.0000E+00  0.0000E+00  0.0000E+00
    -18.148  0.0000E+00  0.0000E+00  0.0000E+00
    -18.046  0.0000E+00  0.0000E+00  0.0000E+00
    -17.945  0.0000E+00  0.0000E+00  0.0000E+00
    -17.843  0.0000E+00  0.0000E+00  0.0000E+00
    -17.741  0.0000E+00  0.0000E+00  0.0000E+00
    -17.640  0.0000E+00  0.0000E+00  0.0000E+00
    -17.538  0.0000E+00  0.0000E+00  0.0000E+00
    -17.437  0.0000E+00  0.0000E+00  0.0000E+00
    -17.335  0.0000E+00  0.0000E+00  0.0000E+00
    -17.233  0.0000E+00  0.0000E+00  0.0000E+00
    -17.132  0.0000E+00  0.0000E+00  0.0000E+00
    -17.030  0.0000E+00  0.0000E+00  0.0000E+00
    -16.929  0.0000E+00  0.0000E+00  0.0000E+00
    -16.827  0.0000E+00  0.0000E+00  0.0000E+00
    -16.725  0.0000E+00  0.0000E+00  0.0000E+00
    -16.624  0.0000E+00  0.0000E+00  0.0000E+00
    -16.522  0.0000E+00  0.0000E+00  0.0000E+00
    -16.421  0.1161E-04  0.6309E-05  0.2314E-05
    -16.319  0.1836E-04  0.4182E-04  0.5818E-05
    -16.217  0.4664E-04  0.2970E-04  0.3563E-05
    -16.116  0.0000E+00  0.0000E+00  0.0000E+00
    -16.014  0.0000E+00  0.0000E+00  0.0000E+00
    -15.913  0.0000E+00  0.0000E+00  0.0000E+00
    -15.811  0.0000E+00  0.0000E+00  0.0000E+00
    -15.710  0.0000E+00  0.0000E+00  0.0000E+00
    -15.608  0.0000E+00  0.0000E+00  0.0000E+00
    -15.506  0.0000E+00  0.0000E+00  0.0000E+00
    -15.405  0.0000E+00  0.0000E+00  0.0000E+00
    -15.303  0.0000E+00  0.0000E+00  0.0000E+00
    -15.202  0.0000E+00  0.0000E+00  0.0000E+00
    -15.100  0.0000E+00  0.0000E+00  0.0000E+00
    -14.998  0.0000E+00  0.0000E+00  0.0000E+00
    -14.897  0.0000E+00  0.0000E+00  0.0000E+00
    -14.795  0.0000E+00  0.0000E+00  0.0000E+00
    -14.694  0.0000E+00  0.0000E+00  0.0000E+00
    -14.592  0.0000E+00  0.0000E+00  0.0000E+00
    -14.490  0.0000E+00  0.0000E+00  0.0000E+00
    -14.389  0.4516E-09  0.2543E-11  0.8509E-12
    -14.287  0.1425E-02  0.4732E-03  0.3457E-05
    -14.186  0.2319E-02  0.2241E-02  0.5529E-04
    -14.084  0.6559E-04  0.2470E-02  0.9200E-04
    -13.982  0.1595E-02  0.3271E-02  0.2196E-03
    -13.881  0.1965E-04  0.2107E-03  0.5458E-04
    -13.779  0.6892E-03  0.2214E-02  0.3263E-03
    -13.678  0.2558E-03  0.5179E-03  0.7143E-04
    -13.576  0.0000E+00  0.0000E+00  0.0000E+00
    -13.475  0.0000E+00  0.0000E+00  0.0000E+00
    -13.373  0.0000E+00  0.0000E+00  0.0000E+00
    -13.271  0.0000E+00  0.0000E+00  0.0000E+00
    -13.170  0.0000E+00  0.0000E+00  0.0000E+00
    -13.068  0.0000E+00  0.0000E+00  0.0000E+00
    -12.967  0.0000E+00  0.0000E+00  0.0000E+00
    -12.865  0.0000E+00  0.0000E+00  0.0000E+00
    -12.763  0.0000E+00  0.0000E+00  0.0000E+00
    -12.662  0.0000E+00  0.0000E+00  0.0000E+00
    -12.560  0.0000E+00  0.0000E+00  0.0000E+00
    -12.459  0.0000E+00  0.0000E+00  0.0000E+00
    -12.357  0.0000E+00  0.0000E+00  0.0000E+00
    -12.255  0.0000E+00  0.0000E+00  0.0000E+00
    -12.154  0.0000E+00  0.0000E+00  0.0000E+00
    -12.052  0.0000E+00  0.0000E+00  0.0000E+00
    -11.951  0.0000E+00  0.0000E+00  0.0000E+00
    -11.849  0.0000E+00  0.0000E+00  0.0000E+00
    -11.747  0.0000E+00  0.0000E+00  0.0000E+00
    -11.646  0.0000E+00  0.0000E+00  0.0000E+00
    -11.544  0.0000E+00  0.0000E+00  0.0000E+00
    -11.443  0.0000E+00  0.0000E+00  0.0000E+00
    -11.341  0.0000E+00  0.0000E+00  0.0000E+00
    -11.240  0.0000E+00  0.0000E+00  0.0000E+00
    -11.138  0.0000E+00  0.0000E+00  0.0000E+00
    -11.036  0.0000E+00  0.0000E+00  0.0000E+00
    -10.935  0.0000E+00  0.0000E+00  0.0000E+00
    -10.833  0.0000E+00  0.0000E+00  0.0000E+00
    -10.732  0.0000E+00  0.0000E+00  0.0000E+00
    -10.630  0.0000E+00  0.0000E+00  0.0000E+00
    -10.528  0.0000E+00  0.0000E+00  0.0000E+00
    -10.427  0.0000E+00  0.0000E+00  0.0000E+00
    -10.325  0.0000E+00  0.0000E+00  0.0000E+00
    -10.224  0.0000E+00  0.0000E+00  0.0000E+00
    -10.122  0.0000E+00  0.0000E+00  0.0000E+00
    -10.020  0.0000E+00  0.0000E+00  0.0000E+00
     -9.919  0.0000E+00  0.0000E+00  0.0000E+00
     -9.817  0.0000E+00  0.0000E+00  0.0000E+00
     -9.716  0.0000E+00  0.0000E+00  0.0000E+00
     -9.614  0.0000E+00  0.0000E+00  0.0000E+00
     -9.512  0.0000E+00  0.0000E+00  0.0000E+00
     -9.411  0.0000E+00  0.0000E+00  0.0000E+00
     -9.309  0.0000E+00  0.0000E+00  0.0000E+00
     -9.208  0.0000E+00  0.0000E+00  0.0000E+00
     -9.106  0.0000E+00  0.0000E+00  0.0000E+00
     -9.005  0.0000E+00  0.0000E+00  0.0000E+00
     -8.903  0.0000E+00  0.0000E+00  0.0000E+00
     -8.801  0.0000E+00  0.0000E+00  0.0000E+00
     -8.700  0.0000E+00  0.0000E+00  0.0000E+00
     -8.598  0.0000E+00  0.0000E+00  0.0000E+00
     -8.497  0.0000E+00  0.0000E+00  0.0000E+00
     -8.395  0.0000E+00  0.0000E+00  0.0000E+00
     -8.293  0.0000E+00  0.0000E+00  0.0000E+00
     -8.192  0.9061E-18  0.1023E-15  0.1379E-05
     -8.090  0.0000E+00  0.0000E+00  0.0000E+00
     -7.989  0.2379E-20  0.1149E-08  0.3804E-09
     -7.887  0.1067E-15  0.3406E-04  0.1748E-04
     -7.785  0.7015E-33  0.1526E-17  0.8289E-21
     -7.684  0.2555E-05  0.2028E-01  0.3721E-04
     -7.582  0.4837E-17  0.6409E-15  0.4798E-05
     -7.481  0.1025E-04  0.6479E-01  0.1257E-04
     -7.379  0.9015E-05  0.3079E+00  0.2680E-04
     -7.277  0.1434E-04  0.4035E+02  0.2906E-04
     -7.176  0.9322E-05  0.8483E+00  0.2068E-04
     -7.074  0.4706E-04  0.1996E+00  0.4360E-04
     -6.973  0.0000E+00  0.0000E+00  0.0000E+00
     -6.871  0.1857E-13  0.3253E-11  0.3553E-14
     -6.770  0.4086E-04  0.8896E-02  0.2757E-04
     -6.668  0.0000E+00  0.0000E+00  0.0000E+00
     -6.566  0.0000E+00  0.0000E+00  0.0000E+00
     -6.465  0.2377E-05  0.2918E-03  0.6431E-06
     -6.363  0.0000E+00  0.0000E+00  0.0000E+00
     -6.262  0.0000E+00  0.0000E+00  0.0000E+00
     -6.160  0.0000E+00  0.0000E+00  0.0000E+00
     -6.058  0.0000E+00  0.0000E+00  0.0000E+00
     -5.957  0.0000E+00  0.0000E+00  0.0000E+00
     -5.855  0.0000E+00  0.0000E+00  0.0000E+00
     -5.754  0.0000E+00  0.0000E+00  0.0000E+00
     -5.652  0.0000E+00  0.0000E+00  0.0000E+00
     -5.550  0.0000E+00  0.0000E+00  0.0000E+00
     -5.449  0.0000E+00  0.0000E+00  0.0000E+00
     -5.347  0.0000E+00  0.0000E+00  0.0000E+00
     -5.246  0.0000E+00  0.0000E+00  0.0000E+00
     -5.144  0.0000E+00  0.0000E+00  0.0000E+00
     -5.042  0.0000E+00  0.0000E+00  0.0000E+00
     -4.941  0.0000E+00  0.0000E+00  0.0000E+00
     -4.839  0.0000E+00  0.0000E+00  0.0000E+00
     -4.738  0.0000E+00  0.0000E+00  0.0000E+00
     -4.636  0.0000E+00  0.0000E+00  0.0000E+00
     -4.535  0.0000E+00  0.0000E+00  0.0000E+00
     -4.433  0.0000E+00  0.0000E+00  0.0000E+00
     -4.331  0.0000E+00  0.0000E+00  0.0000E+00
     -4.230  0.0000E+00  0.0000E+00  0.0000E+00
     -4.128  0.0000E+00  0.0000E+00  0.0000E+00
     -4.027  0.0000E+00  0.0000E+00  0.0000E+00
     -3.925  0.0000E+00  0.0000E+00  0.0000E+00
     -3.823  0.0000E+00  0.0000E+00  0.0000E+00
     -3.722  0.0000E+00  0.0000E+00  0.0000E+00
     -3.620  0.0000E+00  0.0000E+00  0.0000E+00
     -3.519  0.0000E+00  0.0000E+00  0.0000E+00
     -3.417  0.0000E+00  0.0000E+00  0.0000E+00
     -3.315  0.1223E-04  0.4910E-02  0.2338E-04
     -3.214  0.3647E-04  0.2109E-01  0.1990E-02
     -3.112  0.5933E-15  0.8108E-02  0.1109E-02
     -3.011  0.1970E-16  0.3960E-15  0.8026E-04
     -2.909  0.0000E+00  0.0000E+00  0.0000E+00
     -2.807  0.0000E+00  0.0000E+00  0.0000E+00
     -2.706  0.1438E-16  0.9817E-13  0.5781E-14
     -2.604  0.1493E-03  0.3762E-01  0.7761E-03
     -2.503  0.5883E-03  0.1383E-01  0.1287E-02
     -2.401  0.2528E-04  0.1594E-01  0.1869E-02
     -2.300  0.4479E-02  0.5463E-02  0.2178E-02
     -2.198  0.8916E-03  0.9955E-02  0.1007E-02
     -2.096  0.3512E-02  0.7315E-03  0.9600E-03
     -1.995  0.2284E-01  0.4325E-01  0.3882E-02
     -1.893  0.1729E-02  0.1487E-01  0.1756E-03
     -1.792  0.2324E-03  0.4548E-01  0.2019E-02
     -1.690  0.1265E-02  0.9130E-01  0.4315E-02
     -1.588  0.2371E-02  0.1096E+00  0.1387E-01
     -1.487  0.1101E-14  0.2582E-01  0.4350E-02
     -1.385  0.1981E-02  0.3923E-01  0.1511E-01
     -1.284  0.4223E-02  0.7578E-01  0.2010E-01
     -1.182  0.5457E-02  0.5452E-01  0.6948E-02
     -1.080  0.4578E-03  0.4558E-01  0.1118E-01
     -0.979  0.6263E-03  0.2274E-01  0.8512E-02
     -0.877  0.9813E-04  0.2427E-02  0.1701E-02
     -0.776  0.6780E-03  0.1599E-01  0.4590E-02
     -0.674  0.3545E-21  0.7289E-10  0.4195E-10
     -0.572  0.6245E-04  0.3316E-03  0.1994E-03
     -0.471  0.1109E-04  0.3899E-02  0.3718E-03
     -0.369  0.1512E-06  0.8955E-03  0.3864E-03
     -0.268  0.2046E-15  0.4568E-03  0.5268E-04
     -0.166  0.0000E+00  0.0000E+00  0.0000E+00
     -0.065  0.2376E-14  0.3640E-05  0.1082E-03
      0.037  0.2807E-26  0.5727E-26  0.3210E-15
      0.139  0.4630E-14  0.1614E-05  0.5716E-03
      0.240  0.0000E+00  0.0000E+00  0.0000E+00
      0.342  0.0000E+00  0.0000E+00  0.0000E+00
      0.443  0.0000E+00  0.0000E+00  0.0000E+00
      0.545  0.1263E-21  0.1553E-21  0.5179E-10
      0.647  0.3711E-16  0.4566E-16  0.1522E-04
      0.748  0.0000E+00  0.0000E+00  0.0000E+00
      0.850  0.0000E+00  0.0000E+00  0.0000E+00
      0.951  0.0000E+00  0.0000E+00  0.0000E+00
      1.053  0.0000E+00  0.0000E+00  0.0000E+00
      1.155  0.0000E+00  0.0000E+00  0.0000E+00
      1.256  0.0000E+00  0.0000E+00  0.0000E+00
      1.358  0.0000E+00  0.0000E+00  0.0000E+00
      1.459  0.0000E+00  0.0000E+00  0.0000E+00
      1.561  0.0000E+00  0.0000E+00  0.0000E+00
      1.663  0.0000E+00  0.0000E+00  0.0000E+00
      1.764  0.0000E+00  0.0000E+00  0.0000E+00
      1.866  0.0000E+00  0.0000E+00  0.0000E+00
      1.967  0.0000E+00  0.0000E+00  0.0000E+00
      2.069  0.0000E+00  0.0000E+00  0.0000E+00
      2.170  0.0000E+00  0.0000E+00  0.0000E+00
      2.272  0.0000E+00  0.0000E+00  0.0000E+00
      2.374  0.0000E+00  0.0000E+00  0.0000E+00
      2.475  0.0000E+00  0.0000E+00  0.0000E+00
      2.577  0.0000E+00  0.0000E+00  0.0000E+00
      2.678  0.0000E+00  0.0000E+00  0.0000E+00
      2.780  0.7438E-15  0.1058E-10  0.9464E-03
      2.882  0.1092E-14  0.4245E-04  0.1683E-02
      2.983  0.2376E-09  0.1035E-02  0.1939E-02
      3.085  0.2561E-03  0.1127E-02  0.4910E-02
      3.186  0.2259E-03  0.1569E-02  0.3746E-02
      3.288  0.4954E-03  0.2113E-02  0.1525E-02
      3.390  0.4312E-03  0.7294E-03  0.3264E-02
      3.491  0.6862E-04  0.4258E-03  0.1922E-03
      3.593  0.1748E-03  0.6703E-03  0.6043E-03
      3.694  0.2180E-04  0.6580E-06  0.7538E-04
      3.796  0.0000E+00  0.0000E+00  0.0000E+00
      3.898  0.0000E+00  0.0000E+00  0.0000E+00
      3.999  0.0000E+00  0.0000E+00  0.0000E+00
      4.101  0.0000E+00  0.0000E+00  0.0000E+00
      4.202  0.0000E+00  0.0000E+00  0.0000E+00
      4.304  0.3213E-16  0.7808E-08  0.1259E-04
      4.405  0.7994E-04  0.1423E-02  0.1619E-01
      4.507  0.1488E-04  0.1715E-02  0.5501E-02
      4.609  0.1654E-06  0.3687E-02  0.1202E-01
      4.710  0.1478E-03  0.4430E-02  0.6428E-02
      4.812  0.2138E-01  0.2297E-02  0.4943E-02
      4.913  0.3911E-02  0.4195E-02  0.6874E-02
      5.015  0.1101E-01  0.7554E-02  0.3948E-02
      5.117  0.0000E+00  0.0000E+00  0.0000E+00
      5.218  0.0000E+00  0.0000E+00  0.0000E+00
      5.320  0.0000E+00  0.0000E+00  0.0000E+00
      5.421  0.8786E-10  0.1430E-10  0.7059E-11
      5.523  0.6999E-01  0.1480E-01  0.6328E-02
      5.625  0.9094E-15  0.7030E-14  0.7685E-05
      5.726  0.1235E-11  0.9409E-12  0.1693E-03
      5.828  0.6990E-05  0.1650E-02  0.5113E-01
      5.929  0.1185E+00  0.1200E-02  0.8217E-01
      6.031  0.8518E-02  0.4149E-01  0.8922E-01
      6.133  0.1500E-01  0.5132E-02  0.1340E+00
      6.234  0.9256E-01  0.1339E-01  0.2984E+00
      6.336  0.6106E-01  0.8721E-02  0.2274E+00
      6.437  0.7835E-13  0.5734E-10  0.4671E-06
      6.539  0.3226E-01  0.3049E-01  0.5354E+00
      6.640  0.3058E-01  0.2004E-01  0.3583E+00
      6.742  0.2444E-01  0.9441E-01  0.5938E+00
      6.844  0.3667E-03  0.1326E-01  0.1270E+00
      6.945  0.0000E+00  0.0000E+00  0.0000E+00
      7.047  0.0000E+00  0.0000E+00  0.0000E+00
      7.148  0.0000E+00  0.0000E+00  0.0000E+00
      7.250  0.0000E+00  0.0000E+00  0.0000E+00
      7.352  0.0000E+00  0.0000E+00  0.0000E+00
      7.453  0.0000E+00  0.0000E+00  0.0000E+00
      7.555  0.0000E+00  0.0000E+00  0.0000E+00
      7.656  0.0000E+00  0.0000E+00  0.0000E+00
      7.758  0.0000E+00  0.0000E+00  0.0000E+00
      7.860  0.0000E+00  0.0000E+00  0.0000E+00
      7.961  0.0000E+00  0.0000E+00  0.0000E+00
      8.063  0.0000E+00  0.0000E+00  0.0000E+00
      8.164  0.0000E+00  0.0000E+00  0.0000E+00
      8.16431826    -22.31293109  301      0.67199446      1.00000000
    -22.313  0.0000E+00  0.0000E+00  0.0000E+00
    -22.211  0.0000E+00  0.0000E+00  0.0000E+00
    -22.110  0.0000E+00  0.0000E+00  0.0000E+00
    -22.008  0.0000E+00  0.0000E+00  0.0000E+00
    -21.907  0.0000E+00  0.0000E+00  0.0000E+00
    -21.805  0.0000E+00  0.0000E+00  0.0000E+00
    -21.703  0.0000E+00  0.0000E+00  0.0000E+00
    -21.602  0.0000E+00  0.0000E+00  0.0000E+00
    -21.500  0.0000E+00  0.0000E+00  0.0000E+00
    -21.399  0.0000E+00  0.0000E+00  0.0000E+00
    -21.297  0.0000E+00  0.0000E+00  0.0000E+00
    -21.195  0.0000E+00  0.0000E+00  0.0000E+00
    -21.094  0.0000E+00  0.0000E+00  0.0000E+00
    -20.992  0.0000E+00  0.0000E+00  0.0000E+00
    -20.891  0.6742E+01  0.5732E-07  0.5545E-05
    -20.789  0.7147E-03  0.4117E-07  0.1896E-08
    -20.687  0.0000E+00  0.0000E+00  0.0000E+00
    -20.586  0.0000E+00  0.0000E+00  0.0000E+00
    -20.484  0.0000E+00  0.0000E+00  0.0000E+00
    -20.383  0.0000E+00  0.0000E+00  0.0000E+00
    -20.281  0.0000E+00  0.0000E+00  0.0000E+00
    -20.180  0.0000E+00  0.0000E+00  0.0000E+00
    -20.078  0.0000E+00  0.0000E+00  0.0000E+00
    -19.976  0.0000E+00  0.0000E+00  0.0000E+00
    -19.875  0.0000E+00  0.0000E+00  0.0000E+00
    -19.773  0.0000E+00  0.0000E+00  0.0000E+00
    -19.672  0.0000E+00  0.0000E+00  0.0000E+00
    -19.570  0.0000E+00  0.0000E+00  0.0000E+00
    -19.468  0.0000E+00  0.0000E+00  0.0000E+00
    -19.367  0.0000E+00  0.0000E+00  0.0000E+00
    -19.265  0.0000E+00  0.0000E+00  0.0000E+00
    -19.164  0.0000E+00  0.0000E+00  0.0000E+00
    -19.062  0.0000E+00  0.0000E+00  0.0000E+00
    -18.960  0.0000E+00  0.0000E+00  0.0000E+00
    -18.859  0.0000E+00  0.0000E+00  0.0000E+00
    -18.757  0.0000E+00  0.0000E+00  0.0000E+00
    -18.656  0.0000E+00  0.0000E+00  0.0000E+00
    -18.554  0.0000E+00  0.0000E+00  0.0000E+00
    -18.452  0.0000E+00  0.0000E+00  0.0000E+00
    -18.351  0.0000E+00  0.0000E+00  0.0000E+00
    -18.249  0.0000E+00  0.0000E+00  0.0000E+00
    -18.148  0.0000E+00  0.0000E+00  0.0000E+00
    -18.046  0.0000E+00  0.0000E+00  0.0000E+00
    -17.945  0.0000E+00  0.0000E+00  0.0000E+00
    -17.843  0.0000E+00  0.0000E+00  0.0000E+00
    -17.741  0.0000E+00  0.0000E+00  0.0000E+00
    -17.640  0.0000E+00  0.0000E+00  0.0000E+00
    -17.538  0.0000E+00  0.0000E+00  0.0000E+00
    -17.437  0.0000E+00  0.0000E+00  0.0000E+00
    -17.335  0.0000E+00  0.0000E+00  0.0000E+00
    -17.233  0.0000E+00  0.0000E+00  0.0000E+00
    -17.132  0.0000E+00  0.0000E+00  0.0000E+00
    -17.030  0.0000E+00  0.0000E+00  0.0000E+00
    -16.929  0.0000E+00  0.0000E+00  0.0000E+00
    -16.827  0.0000E+00  0.0000E+00  0.0000E+00
    -16.725  0.0000E+00  0.0000E+00  0.0000E+00
    -16.624  0.0000E+00  0.0000E+00  0.0000E+00
    -16.522  0.0000E+00  0.0000E+00  0.0000E+00
    -16.421  0.4953E-04  0.2525E-04  0.3731E-05
    -16.319  0.5786E-04  0.7519E-04  0.1024E-04
    -16.217  0.2923E-04  0.1839E-04  0.1971E-05
    -16.116  0.0000E+00  0.0000E+00  0.0000E+00
    -16.014  0.0000E+00  0.0000E+00  0.0000E+00
    -15.913  0.0000E+00  0.0000E+00  0.0000E+00
    -15.811  0.0000E+00  0.0000E+00  0.0000E+00
    -15.710  0.0000E+00  0.0000E+00  0.0000E+00
    -15.608  0.0000E+00  0.0000E+00  0.0000E+00
    -15.506  0.0000E+00  0.0000E+00  0.0000E+00
    -15.405  0.0000E+00  0.0000E+00  0.0000E+00
    -15.303  0.0000E+00  0.0000E+00  0.0000E+00
    -15.202  0.0000E+00  0.0000E+00  0.0000E+00
    -15.100  0.0000E+00  0.0000E+00  0.0000E+00
    -14.998  0.0000E+00  0.0000E+00  0.0000E+00
    -14.897  0.0000E+00  0.0000E+00  0.0000E+00
    -14.795  0.0000E+00  0.0000E+00  0.0000E+00
    -14.694  0.0000E+00  0.0000E+00  0.0000E+00
    -14.592  0.0000E+00  0.0000E+00  0.0000E+00
    -14.490  0.0000E+00  0.0000E+00  0.0000E+00
    -14.389  0.5728E-09  0.8409E-23  0.4862E-11
    -14.287  0.1855E-02  0.5661E-03  0.1721E-04
    -14.186  0.2823E-02  0.3184E-02  0.1124E-03
    -14.084  0.7790E-05  0.4306E-02  0.1792E-03
    -13.982  0.2816E-02  0.6227E-02  0.5003E-03
    -13.881  0.1520E-03  0.3603E-03  0.1335E-03
    -13.779  0.1634E-02  0.4497E-02  0.4467E-03
    -13.678  0.7480E-03  0.1214E-02  0.7007E-04
    -13.576  0.0000E+00  0.0000E+00  0.0000E+00
    -13.475  0.0000E+00  0.0000E+00  0.0000E+00
    -13.373  0.0000E+00  0.0000E+00  0.0000E+00
    -13.271  0.0000E+00  0.0000E+00  0.0000E+00