 vasp.5.4.4.18Apr17-6-g9f103f2a35 (build Jun 22 2020 09:27:21) complex           
 executed on tx2_gcc-7.3_libsci-1 date 2021.09.20  15:16:23
 running on   64 total cores
 distrk:  each k-point on   64 cores,    1 groups
 distr:  one band on NCORES_PER_BAND=   8 cores,    8 groups


--------------------------------------------------------------------------------------------------------


 INCAR:
 POTCAR:    PAW_PBE Cs_sv 08Apr2002               
 POTCAR:    PAW_PBE Pb_d 06Sep2000                
 POTCAR:    PAW_PBE Br 06Sep2000                  
 POTCAR:    PAW_PBE Cs_sv 08Apr2002               
   VRHFIN =Cs: 5s5p6s                                                           
   LEXCH  = PE                                                                  
   EATOM  =   555.6835 eV,   40.8416 Ry                                         
                                                                                
   TITEL  = PAW_PBE Cs_sv 08Apr2002                                             
   LULTRA =        F    use ultrasoft PP ?                                      
   IUNSCR =        1    unscreen: 0-lin 1-nonlin 2-no                           
   RPACOR =    2.200    partial core radius                                     
   POMASS =  132.900; ZVAL   =    9.000    mass and valenz                      
   RCORE  =    2.500    outmost cutoff radius                                   
   RWIGS  =    2.500; RWIGS  =    1.323    wigner-seitz radius (au A)           
   ENMAX  =  220.318; ENMIN  =  165.238 eV                                      
   RCLOC  =    2.207    cutoff for local pot                                    
   LCOR   =        T    correct aug charges                                     
   LPAW   =        T    paw PP                                                  
   EAUG   =  407.933                                                            
   DEXC   =    0.000                                                            
   RMAX   =    2.554    core radius for proj-oper                               
   RAUG   =    1.300    factor for augmentation sphere                          
   RDEP   =    2.590    radius for radial grids                                 
   RDEPT  =    2.117    core radius for aug-charge                              
                                                                                
   Atomic configuration                                                         
   13 entries                                                                   
     n  l   j            E        occ.                                          
     1  0  0.50    -35790.1377   2.0000                                         
     2  0  0.50     -5613.6201   2.0000                                         
     2  1  1.50     -5035.0101   6.0000                                         
     3  0  0.50     -1167.0767   2.0000                                         
     3  1  1.50      -980.9754   6.0000                                         
     3  2  2.50      -708.0703  10.0000                                         
     4  0  0.50      -220.2386   2.0000                                         
     4  1  1.50      -160.7596   6.0000                                         
     4  2  2.50       -74.2354  10.0000                                         
     5  0  0.50       -26.7287   2.0000                                         
     6  0  0.50        -2.0862   1.0000                                         
     5  1  1.50       -13.5159   6.0000                                         
     5  2  2.50        -0.4136   0.0000                                         
   Description                                                                  
     l       E           TYP  RCUT    TYP  RCUT                                 
     0    -26.7287425     23  1.900                                             
     0     -2.0862306     23  1.900                                             
     1    -13.5158719     23  2.500                                             
     1     -2.7211652     23  2.500                                             
     2     -0.4136171     23  2.500                                             
  local pseudopotential read in
  partial core-charges read in
  partial kinetic energy density read in
  atomic valenz-charges read in
  non local Contribution for L=           0  read in
    real space projection operators read in
  non local Contribution for L=           0  read in
    real space projection operators read in
  non local Contribution for L=           1  read in
    real space projection operators read in
  non local Contribution for L=           1  read in
    real space projection operators read in
  non local Contribution for L=           2  read in
    real space projection operators read in
    PAW grid and wavefunctions read in

   number of l-projection  operators is LMAX  =           5
   number of lm-projection operators is LMMAX =          13

 POTCAR:    PAW_PBE Pb_d 06Sep2000                
   VRHFIN =Pb:                                                                  
   LEXCH  = PE                                                                  
   EATOM  =  1661.6185 eV,  122.1255 Ry                                         
                                                                                
   TITEL  = PAW_PBE Pb_d 06Sep2000                                              
   LULTRA =        F    use ultrasoft PP ?                                      
   IUNSCR =        1    unscreen: 0-lin 1-nonlin 2-no                           
   RPACOR =    2.200    partial core radius                                     
   POMASS =  207.200; ZVAL   =   14.000    mass and valenz                      
   RCORE  =    2.500    outmost cutoff radius                                   
   RWIGS  =    3.260; RWIGS  =    1.725    wigner-seitz radius (au A)           
   ENMAX  =  237.835; ENMIN  =  178.376 eV                                      
   ICORE  =        3    local potential                                         
   LCOR   =        T    correct aug charges                                     
   LPAW   =        T    paw PP                                                  
   EAUG   =  391.914                                                            
   DEXC   =    0.000                                                            
   RMAX   =    2.565    core radius for proj-oper                               
   RAUG   =    1.300    factor for augmentation sphere                          
   RDEP   =    2.643    radius for radial grids                                 
   RDEPT  =    2.092    core radius for aug-charge                              
                                                                                
   Atomic configuration                                                         
   16 entries                                                                   
     n  l   j            E        occ.                                          
     1  0  0.50    -88091.8466   2.0000                                         
     2  0  0.50    -15753.4197   2.0000                                         
     2  1  1.50    -13508.1797   6.0000                                         
     3  0  0.50     -3781.7194   2.0000                                         
     3  1  1.50     -3138.2529   6.0000                                         
     3  2  2.50     -2483.2977  10.0000                                         
     4  0  0.50      -856.2895   2.0000                                         
     4  1  1.50      -645.4942   6.0000                                         
     4  2  2.50      -401.8768  10.0000                                         
     4  3  3.50      -132.9059  14.0000                                         
     5  0  0.50      -144.0950   2.0000                                         
     5  1  1.50       -85.7879   6.0000                                         
     5  2  2.50       -21.1769  10.0000                                         
     6  0  0.50       -12.0372   2.0000                                         
     6  1  1.50        -3.4971   2.0000                                         
     5  3  2.50        -2.7212   0.0000                                         
   Description                                                                  
     l       E           TYP  RCUT    TYP  RCUT                                 
     2    -21.1768523     23  2.500                                             
     2      1.3605826     23  2.500                                             
     0    -12.0371562     23  2.500                                             
     0     13.6058260     23  2.500                                             
     1     -3.4971339     23  2.500                                             
     1     13.6058260     23  2.500                                             
     3     -1.3605826      7  2.500                                             
  local pseudopotential read in
  partial core-charges read in
  partial kinetic energy density read in
  atomic valenz-charges read in
  non local Contribution for L=           2  read in
    real space projection operators read in
  non local Contribution for L=           2  read in
    real space projection operators read in
  non local Contribution for L=           0  read in
    real space projection operators read in
  non local Contribution for L=           0  read in
    real space projection operators read in
  non local Contribution for L=           1  read in
    real space projection operators read in
  non local Contribution for L=           1  read in
    real space projection operators read in
    PAW grid and wavefunctions read in

   number of l-projection  operators is LMAX  =           6
   number of lm-projection operators is LMMAX =          18

 POTCAR:    PAW_PBE Br 06Sep2000                  
   VRHFIN =Br: s2p5                                                             
   LEXCH  = PE                                                                  
   EATOM  =   368.4488 eV,   27.0802 Ry                                         
                                                                                
   TITEL  = PAW_PBE Br 06Sep2000                                                
   LULTRA =        F    use ultrasoft PP ?                                      
   IUNSCR =        1    unscreen: 0-lin 1-nonlin 2-no                           
   RPACOR =    1.900    partial core radius                                     
   POMASS =   79.904; ZVAL   =    7.000    mass and valenz                      
   RCORE  =    2.100    outmost cutoff radius                                   
   RWIGS  =    2.200; RWIGS  =    1.164    wigner-seitz radius (au A)           
   ENMAX  =  216.285; ENMIN  =  162.214 eV                                      
   ICORE  =        3    local potential                                         
   LCOR   =        T    correct aug charges                                     
   LPAW   =        T    paw PP                                                  
   EAUG   =  503.852                                                            
   DEXC   =    0.000                                                            
   RMAX   =    2.139    core radius for proj-oper                               
   RAUG   =    1.300    factor for augmentation sphere                          
   RDEP   =    2.186    radius for radial grids                                 
   RDEPT  =    1.890    core radius for aug-charge                              
                                                                                
   Atomic configuration                                                         
   10 entries                                                                   
     n  l   j            E        occ.                                          
     1  0  0.50    -13316.2796   2.0000                                         
     2  0  0.50     -1732.8239   2.0000                                         
     2  1  1.50     -1528.2193   6.0000                                         
     3  0  0.50      -238.0460   2.0000                                         
     3  1  1.50      -173.4609   6.0000                                         
     3  2  2.50       -66.7132  10.0000                                         
     4  0  0.50       -20.1334   2.0000                                         
     4  1  0.50        -7.8591   5.0000                                         
     4  2  2.50        -8.1635   0.0000                                         
     4  3  2.50        -8.1635   0.0000                                         
   Description                                                                  
     l       E           TYP  RCUT    TYP  RCUT                                 
     0    -20.1333652     23  2.100                                             
     0    -21.4939478     23  2.100                                             
     1     -7.8591052     23  2.100                                             
     1     -3.1608434     23  2.100                                             
     2     -8.1634956     23  2.100                                             
     3     -1.3605826      7  2.100                                             
  local pseudopotential read in
  partial core-charges read in
  partial kinetic energy density read in
  atomic valenz-charges read in
  non local Contribution for L=           0  read in
    real space projection operators read in
  non local Contribution for L=           0  read in
    real space projection operators read in
  non local Contribution for L=           1  read in
    real space projection operators read in
  non local Contribution for L=           1  read in
    real space projection operators read in
  non local Contribution for L=           2  read in
    real space projection operators read in
    PAW grid and wavefunctions read in

   number of l-projection  operators is LMAX  =           5
   number of lm-projection operators is LMMAX =          13

 Optimization of the real space projectors (new method)

 maximal supplied QI-value         = 15.12
 optimisation between [QCUT,QGAM] = [  8.77, 17.69] = [ 21.53, 87.61] Ry 
 Optimized for a Real-space Cutoff    1.85 Angstroem

   l    n(q)    QCUT    max X(q) W(low)/X(q) W(high)/X(q)  e(spline) 
   0     10     8.768    25.322    0.81E-04    0.51E-04    0.48E-06
   0     10     8.768    99.187    0.78E-04    0.50E-04    0.47E-06
   1      9     8.768    11.761    0.21E-03    0.20E-03    0.37E-06
   1      9     8.768     8.275    0.24E-03    0.22E-03    0.41E-06
   2      9     8.768     3.829    0.23E-04    0.15E-03    0.18E-06
 Optimization of the real space projectors (new method)

 maximal supplied QI-value         = 15.12
 optimisation between [QCUT,QGAM] = [  8.77, 17.69] = [ 21.53, 87.61] Ry 
 Optimized for a Real-space Cutoff    1.59 Angstroem

   l    n(q)    QCUT    max X(q) W(low)/X(q) W(high)/X(q)  e(spline) 
   2      7     8.768     3.846    0.48E-04    0.11E-03    0.11E-06
   2      7     8.768     8.593    0.20E-03    0.22E-04    0.24E-06
   0      8     8.768    20.082    0.68E-04    0.88E-04    0.41E-07
   0      8     8.768     8.597    0.89E-04    0.13E-03    0.59E-07
   1      8     8.768    33.223    0.15E-03    0.53E-04    0.87E-07
   1      8     8.768    15.899    0.14E-03    0.44E-04    0.78E-07
 Optimization of the real space projectors (new method)

 maximal supplied QI-value         = 17.95
 optimisation between [QCUT,QGAM] = [  8.80, 17.59] = [ 21.67, 86.68] Ry 
 Optimized for a Real-space Cutoff    1.59 Angstroem

   l    n(q)    QCUT    max X(q) W(low)/X(q) W(high)/X(q)  e(spline) 
   0      8     8.797   175.082    0.82E-04    0.14E-03    0.89E-07
   0      8     8.797   174.004    0.79E-04    0.14E-03    0.86E-07
   1      8     8.797    54.315    0.16E-03    0.14E-04    0.30E-06
   1      8     8.797    42.441    0.16E-03    0.14E-04    0.30E-06
   2      7     8.797     3.596    0.92E-04    0.15E-03    0.85E-07
  PAW_PBE Cs_sv 08Apr2002               :
 energy of atom  1       EATOM= -555.6835
 kinetic energy error for atom=    0.0069 (will be added to EATOM!!)
  PAW_PBE Pb_d 06Sep2000                :
 energy of atom  2       EATOM=-1661.6185
 kinetic energy error for atom=    0.0498 (will be added to EATOM!!)
  PAW_PBE Br 06Sep2000                  :
 energy of atom  3       EATOM= -368.4488
 kinetic energy error for atom=    0.0072 (will be added to EATOM!!)


 POSCAR: Cs8 Pb8 Br24                            
  positions in direct lattice
  velocities in cartesian coordinates

 METAGGA = SCAN     LMAXTAU =  6    LMIXTAU =  F

 exchange correlation table for  LEXCH =        8
   RHO(1)=    0.500       N(1)  =     2000
   RHO(2)=  100.500       N(2)  =     4000

 VTST: version 3.2, (02/03/18)

 CHAIN: initializing optimizer
 
 OPT: Using VASP Conjugate-Gradient optimizer
 CHAIN: Read ICHAIN            0

 POSCAR: Cs8 Pb8 Br24                            
  positions in direct lattice
  velocities in cartesian coordinates



--------------------------------------------------------------------------------------------------------


 ion  position               nearest neighbor table
   1  0.221  0.250  0.250-
   2  0.250  0.250  0.750-
   3  0.250  0.750  0.250-
   4  0.279  0.750  0.750-
   5  0.721  0.250  0.250-
   6  0.750  0.250  0.750-
   7  0.750  0.750  0.250-
   8  0.779  0.750  0.750-
   9  0.000  0.000  0.000-  25 2.98  26 2.98  33 2.98  37 2.98  17 2.99  19 2.99
  10  0.000  0.000  0.500-  25 2.98  26 2.98  34 2.98  38 2.98  18 2.99  20 2.99
  11  0.000  0.500  0.000-  27 2.98  28 2.98  35 2.98  39 2.98  17 2.99  19 2.99
  12  0.000  0.500  0.500-  27 2.98  28 2.98  36 2.98  40 2.98  18 2.99  20 2.99
  13  0.500  0.000  0.000-  21 2.98  23 2.98  33 2.98  37 2.98  29 2.99  30 2.99
  14  0.500  0.000  0.500-  22 2.98  24 2.98  34 2.98  38 2.98  29 2.99  30 2.99
  15  0.500  0.500  0.000-  21 2.98  23 2.98  35 2.98  39 2.98  31 2.99  32 2.99
  16  0.500  0.500  0.500-  22 2.98  24 2.98  36 2.98  40 2.98  31 2.99  32 2.99
  17  0.967  0.250  0.041-   9 2.99  11 2.99
  18  0.967  0.250  0.459-  10 2.99  12 2.99
  19  0.033  0.750  0.959-   9 2.99  11 2.99
  20  0.033  0.750  0.541-  10 2.99  12 2.99
  21  0.531  0.250  0.966-  13 2.98  15 2.98
  22  0.531  0.250  0.534-  14 2.98  16 2.98
  23  0.469  0.750  0.034-  13 2.98  15 2.98
  24  0.469  0.750  0.466-  14 2.98  16 2.98
  25  0.031  0.966  0.250-   9 2.98  10 2.98
  26  0.969  0.034  0.750-   9 2.98  10 2.98
  27  0.031  0.534  0.250-  11 2.98  12 2.98
  28  0.969  0.466  0.750-  11 2.98  12 2.98
  29  0.467  0.041  0.250-  13 2.99  14 2.99
  30  0.533  0.959  0.750-  13 2.99  14 2.99
  31  0.467  0.459  0.250-  15 2.99  16 2.99
  32  0.533  0.541  0.750-  15 2.99  16 2.99
  33  0.250  0.029  0.971-   9 2.98  13 2.98
  34  0.250  0.029  0.529-  10 2.98  14 2.98
  35  0.250  0.471  0.971-  11 2.98  15 2.98
  36  0.250  0.471  0.529-  12 2.98  16 2.98
  37  0.750  0.971  0.029-   9 2.98  13 2.98
  38  0.750  0.971  0.471-  10 2.98  14 2.98
  39  0.750  0.529  0.029-  11 2.98  15 2.98
  40  0.750  0.529  0.471-  12 2.98  16 2.98

  LATTYP: Found a simple tetragonal cell.
 ALAT       =    11.7132505335
 C/A-ratio  =     1.0053302022
  
  Lattice vectors:
  
 A1 = (   0.0000000000,  11.7132505335,   0.0000000000)
 A2 = (   0.0000000000,   0.0000000000, -11.7132505335)
 A3 = ( -11.7756845271,   0.0000000000,   0.0000000000)


Analysis of symmetry for initial positions (statically):
=====================================================================
 Subroutine PRICEL returns:
 Original cell was already a primitive cell.
 

 Routine SETGRP: Setting up the symmetry group for a 
 simple tetragonal supercell.


 Subroutine GETGRP returns: Found 16 space group operations
 (whereof  2 operations were pure point group operations)
 out of a pool of 16 trial point group operations.


The static configuration has the point symmetry S_2 .
 The point group associated with its full space group is D_4h.


Analysis of symmetry for dynamics (positions and initial velocities):
=====================================================================
 Subroutine PRICEL returns:
 Original cell was already a primitive cell.
 

 Routine SETGRP: Setting up the symmetry group for a 
 simple tetragonal supercell.


 Subroutine GETGRP returns: Found 16 space group operations
 (whereof  2 operations were pure point group operations)
 out of a pool of 16 trial point group operations.


The dynamic configuration has the point symmetry S_2 .
 The point group associated with its full space group is D_4h.


 Subroutine INISYM returns: Found 16 space group operations
 (whereof  2 operations are pure point group operations),
 and found     1 'primitive' translations



 KPOINTS: 1x1x1                                   

Automatic generation of k-mesh.
Space group operators:
 irot       det(A)        alpha          n_x          n_y          n_z        tau_x        tau_y        tau_z
    1     1.000000     0.000000     1.000000     0.000000     0.000000     0.000000     0.000000     0.000000
    2    -1.000000     0.000000     1.000000     0.000000     0.000000     0.000000     0.000000     0.000000
    3     1.000000    90.000000     1.000000     0.000000     0.000000    -0.500000     0.000000    -0.500000
    4    -1.000000    90.000000     1.000000     0.000000     0.000000    -0.500000     0.000000    -0.500000
    5     1.000000   180.000000     1.000000     0.000000     0.000000     0.000000     0.500000    -0.500000
    6    -1.000000   180.000000     1.000000     0.000000     0.000000     0.000000     0.500000    -0.500000
    7     1.000000    90.000000    -1.000000     0.000000     0.000000    -0.500000     0.500000     0.000000
    8    -1.000000    90.000000    -1.000000     0.000000     0.000000    -0.500000     0.500000     0.000000
    9     1.000000   180.000000     0.000000     0.000000     1.000000    -0.000000     0.000000    -0.500000
   10    -1.000000   180.000000     0.000000     0.000000     1.000000     0.000000     0.000000    -0.500000
   11     1.000000   180.000000     0.000000    -0.707107     0.707107    -0.500000     0.000000     0.000000
   12    -1.000000   180.000000     0.000000    -0.707107     0.707107    -0.500000     0.000000     0.000000
   13     1.000000   180.000000     0.000000     1.000000     0.000000    -0.000000     0.500000     0.000000
   14    -1.000000   180.000000     0.000000     1.000000     0.000000     0.000000     0.500000     0.000000
   15     1.000000   180.000000     0.000000     0.707107     0.707107    -0.500000     0.500000    -0.500000
   16    -1.000000   180.000000     0.000000     0.707107     0.707107    -0.500000     0.500000    -0.500000
 
 Subroutine IBZKPT returns following result:
 ===========================================
 
 Found      6 irreducible k-points:
 
 Following reciprocal coordinates:
            Coordinates               Weight
  0.000000  0.000000  0.000000      1.000000
  0.500000  0.000000  0.000000      1.000000
  0.000000  0.500000  0.000000      2.000000
  0.500000  0.500000  0.000000      2.000000
  0.000000  0.500000  0.500000      1.000000
  0.500000  0.500000  0.500000      1.000000
 
 Following cartesian coordinates:
            Coordinates               Weight
  0.000000  0.000000  0.000000      1.000000
  0.042460  0.000000  0.000000      1.000000
  0.000000  0.042687  0.000000      2.000000
  0.042460  0.042687  0.000000      2.000000
  0.000000  0.042687  0.042687      1.000000
  0.042460  0.042687  0.042687      1.000000
 


--------------------------------------------------------------------------------------------------------




 Dimension of arrays:
   k-points           NKPTS =      6   k-points in BZ     NKDIM =      6   number of bands    NBANDS=    216
   number of dos      NEDOS =    301   number of ions     NIONS =     40
   non local maximal  LDIM  =      6   non local SUM 2l+1 LMDIM =     18
   total plane-waves  NPLWV = 343000
   max r-space proj   IRMAX =   5662   max aug-charges    IRDMAX=  90362
   dimension x,y,z NGX =    70 NGY =   70 NGZ =   70
   dimension x,y,z NGXF=   140 NGYF=  140 NGZF=  140
   support grid    NGXF=   280 NGYF=  280 NGZF=  280
   ions per type =               8   8  24
   NGX,Y,Z   is equivalent  to a cutoff of   9.88,  9.94,  9.94 a.u.
   NGXF,Y,Z  is equivalent  to a cutoff of  19.76, 19.87, 19.87 a.u.

 SYSTEM =  CsPbBr3 cubic bulk                      
 POSCAR =  Cs8 Pb8 Br24                            

 Startparameter for this run:
   NWRITE =      2    write-flag & timer
   PREC   = accura    normal or accurate (medium, high low for compatibility)
   ISTART =      0    job   : 0-new  1-cont  2-samecut
   ICHARG =      2    charge: 1-file 2-atom 10-const
   ISPIN  =      1    spin polarized calculation?
   LNONCOLLINEAR =      F non collinear calculations
   LSORBIT =      F    spin-orbit coupling
   INIWAV =      1    electr: 0-lowe 1-rand  2-diag
   LASPH  =      T    aspherical Exc in radial PAW
   METAGGA=      F    non-selfconsistent MetaGGA calc.

 Electronic Relaxation 1
   ENCUT  =  300.0 eV  22.05 Ry    4.70 a.u.  16.63 16.54 16.54*2*pi/ulx,y,z
   ENINI  =  300.0     initial cutoff
   ENAUG  =  503.9 eV  augmentation charge cutoff
   NELM   =    200;   NELMIN=  2; NELMDL=  0     # of ELM steps 
   EDIFF  = 0.1E-05   stopping-criterion for ELM
   LREAL  =      T    real-space projection
   NLSPLINE    = F    spline interpolate recip. space projectors
   LCOMPAT=      F    compatible to vasp.4.4
   GGA_COMPAT  = T    GGA compatible to vasp.4.4-vasp.4.6
   LMAXPAW     = -100 max onsite density
   LMAXMIX     =    2 max onsite mixed and CHGCAR
   VOSKOWN=      0    Vosko Wilk Nusair interpolation
   ROPT   =   -0.00025  -0.00025  -0.00025
 Ionic relaxation
   EDIFFG = -.1E-01   stopping-criterion for IOM
   NSW    =      0    number of steps for IOM
   NBLOCK =      1;   KBLOCK =      1    inner block; outer block 
   IBRION =     -1    ionic relax: 0-MD 1-quasi-New 2-CG
   NFREE  =      1    steps in history (QN), initial steepest desc. (CG)
   ISIF   =      3    stress and relaxation
   IWAVPR =     10    prediction:  0-non 1-charg 2-wave 3-comb
   ISYM   =      2    0-nonsym 1-usesym 2-fastsym
   LCORR  =      T    Harris-Foulkes like correction to forces

   POTIM  = 0.5000    time-step for ionic-motion
   TEIN   =    0.0    initial temperature
   TEBEG  =    0.0;   TEEND  =   0.0 temperature during run
   SMASS  =  -3.00    Nose mass-parameter (am)
   estimated Nose-frequenzy (Omega)   =  0.10E-29 period in steps =****** mass=  -0.317E-26a.u.
   SCALEE = 1.0000    scale energy and forces
   NPACO  =    256;   APACO  = 16.0  distance and # of slots for P.C.
   PSTRESS=    0.0 pullay stress

  Mass of Ions in am
   POMASS = 132.90207.20 79.90
  Ionic Valenz
   ZVAL   =   9.00 14.00  7.00
  Atomic Wigner-Seitz radii
   RWIGS  =  -1.00 -1.00 -1.00
  virtual crystal weights 
   VCA    =   1.00  1.00  1.00
   NELECT =     352.0000    total number of electrons
   NUPDOWN=      -1.0000    fix difference up-down

 DOS related values:
   EMIN   =  10.00;   EMAX   =-10.00  energy-range for DOS
   EFERMI =   0.00
   ISMEAR =     0;   SIGMA  =   0.01  broadening in eV -4-tet -1-fermi 0-gaus

 Electronic relaxation 2 (details)
   IALGO  =     38    algorithm
   LDIAG  =      T    sub-space diagonalisation (order eigenvalues)
   LSUBROT=      F    optimize rotation matrix (better conditioning)
   TURBO    =      0    0=normal 1=particle mesh
   IRESTART =      0    0=no restart 2=restart with 2 vectors
   NREBOOT  =      0    no. of reboots
   NMIN     =      0    reboot dimension
   EREF     =   0.00    reference energy to select bands
   IMIX   =      4    mixing-type and parameters
     AMIX     =   0.40;   BMIX     =  1.00
     AMIX_MAG =   1.60;   BMIX_MAG =  1.00
     AMIN     =   0.10
     WC   =   100.;   INIMIX=   1;  MIXPRE=   1;  MAXMIX= -45

 Intra band minimization:
   WEIMIN = 0.0000     energy-eigenvalue tresh-hold
   EBREAK =  0.12E-08  absolut break condition
   DEPER  =   0.30     relativ break condition  

   TIME   =   0.40     timestep for ELM

  volume/ion in A,a.u.               =      40.39       272.57
  Fermi-wavevector in a.u.,A,eV,Ry     =   0.985089  1.861548 13.203092  0.970400
  Thomas-Fermi vector in A             =   2.116370

 Write flags
   LWAVE        =      F    write WAVECAR
   LDOWNSAMPLE  =      F    k-point downsampling of WAVECAR
   LCHARG       =      F    write CHGCAR
   LVTOT        =      F    write LOCPOT, total local potential
   LVHAR        =      T    write LOCPOT, Hartree potential only
   LELF         =      F    write electronic localiz. function (ELF)
   LORBIT       =     10    0 simple, 1 ext, 2 COOP (PROOUT), +10 PAW based schemes


 Dipole corrections
   LMONO  =      F    monopole corrections only (constant potential shift)
   LDIPOL =      F    correct potential (dipole corrections)
   IDIPOL =      0    1-x, 2-y, 3-z, 4-all directions 
   EPSILON=  1.0000000 bulk dielectric constant

 Exchange correlation treatment:
   GGA     =    --    GGA type
   LEXCH   =     8    internal setting for exchange type
   VOSKOWN=      0    Vosko Wilk Nusair interpolation
   LHFCALC =     F    Hartree Fock is set to
   LHFONE  =     F    Hartree Fock one center treatment
   AEXX    =    0.0000 exact exchange contribution

 Linear response parameters
   LEPSILON=     F    determine dielectric tensor
   LRPA    =     F    only Hartree local field effects (RPA)
   LNABLA  =     F    use nabla operator in PAW spheres
   LVEL    =     F    velocity operator in full k-point grid
   LINTERFAST=   F  fast interpolation
   KINTER  =     0    interpolate to denser k-point grid
   CSHIFT  =0.1000    complex shift for real part using Kramers Kronig
   OMEGAMAX=  -1.0    maximum frequency
   DEG_THRESHOLD= 0.2000000E-02 threshold for treating states as degnerate
   RTIME   =   -0.100 relaxation time in fs
  (WPLASMAI=    0.000 imaginary part of plasma frequency in eV, 0.658/RTIME)
   DFIELD  = 0.0000000 0.0000000 0.0000000 field for delta impulse in time

 Orbital magnetization related:
   ORBITALMAG=     F  switch on orbital magnetization
   LCHIMAG   =     F  perturbation theory with respect to B field
   DQ        =  0.001000  dq finite difference perturbation B field
   LLRAUG    =     F  two centre corrections for induced B field



--------------------------------------------------------------------------------------------------------


 Static calculation
 charge density and potential will be updated during run
 non-spin polarized calculation
 Variant of blocked Davidson
 Davidson routine will perform the subspace rotation
 perform sub-space diagonalisation
    after iterative eigenvector-optimisation
 modified Broyden-mixing scheme, WC =      100.0
 initial mixing is a Kerker type mixing with AMIX =  0.4000 and BMIX =      1.0000
 Hartree-type preconditioning will be used
 using additional bands           40
 real space projection scheme for non local part
 use partial core corrections
 calculate Harris-corrections to forces   (improved forces if not selfconsistent)
 use gradient corrections 
 use of overlap-Matrix (Vanderbilt PP)
 Gauss-broadening in eV      SIGMA  =   0.01


--------------------------------------------------------------------------------------------------------


  energy-cutoff  :      300.00
  volume of cell :     1615.63
      direct lattice vectors                 reciprocal lattice vectors
    11.775684527  0.000000000 -0.000000000     0.084920753  0.000000000  0.000000000
    -0.000000000 11.713250534 -0.000000000     0.000000000  0.085373398  0.000000000
     0.000000000 -0.000000000 11.713250534     0.000000000  0.000000000  0.085373398

  length of vectors
    11.775684527 11.713250534 11.713250534     0.084920753  0.085373398  0.085373398



 k-points in units of 2pi/SCALE and weight: 1x1x1                                   
   0.00000000  0.00000000  0.00000000       0.125
   0.04246038  0.00000000  0.00000000       0.125
   0.00000000  0.04268670  0.00000000       0.250
   0.04246038  0.04268670  0.00000000       0.250
   0.00000000  0.04268670  0.04268670       0.125
   0.04246038  0.04268670  0.04268670       0.125

 k-points in reciprocal lattice and weights: 1x1x1                                   
   0.00000000  0.00000000  0.00000000       0.125
   0.50000000  0.00000000  0.00000000       0.125
   0.00000000  0.50000000  0.00000000       0.250
   0.50000000  0.50000000  0.00000000       0.250
   0.00000000  0.50000000  0.50000000       0.125
   0.50000000  0.50000000  0.50000000       0.125

 position of ions in fractional coordinates (direct lattice) 
   0.22068872  0.25000000  0.25000000
   0.25000000  0.25000000  0.75000000
   0.25000000  0.75000000  0.25000000
   0.27931128  0.75000000  0.75000000
   0.72068872  0.25000000  0.25000000
   0.75000000  0.25000000  0.75000000
   0.75000000  0.75000000  0.25000000
   0.77931128  0.75000000  0.75000000
   0.00000000  0.00000000  0.00000000
   0.00000000  0.00000000  0.50000000
   0.00000000  0.50000000  0.00000000
   0.00000000  0.50000000  0.50000000
   0.50000000  0.00000000  0.00000000
   0.50000000  0.00000000  0.50000000
   0.50000000  0.50000000  0.00000000
   0.50000000  0.50000000  0.50000000
   0.96699623  0.25000000  0.04111754
   0.96699623  0.25000000  0.45888246
   0.03300377  0.75000000  0.95888246
   0.03300377  0.75000000  0.54111754
   0.53137118  0.25000000  0.96601761
   0.53137118  0.25000000  0.53398239
   0.46862882  0.75000000  0.03398239
   0.46862882  0.75000000  0.46601761
   0.03137118  0.96601761  0.25000000
   0.96862882  0.03398239  0.75000000
   0.03137118  0.53398239  0.25000000
   0.96862882  0.46601761  0.75000000
   0.46699623  0.04111754  0.25000000
   0.53300377  0.95888246  0.75000000
   0.46699623  0.45888246  0.25000000
   0.53300377  0.54111754  0.75000000
   0.25000000  0.02883702  0.97116298
   0.25000000  0.02883702  0.52883702
   0.25000000  0.47116298  0.97116298
   0.25000000  0.47116298  0.52883702
   0.75000000  0.97116298  0.02883702
   0.75000000  0.97116298  0.47116298
   0.75000000  0.52883702  0.02883702
   0.75000000  0.52883702  0.47116298

 position of ions in cartesian coordinates  (Angst):
   2.59876078  2.92831263  2.92831263
   2.94392113  2.92831263  8.78493790
   2.94392113  8.78493790  2.92831263
   3.28908149  8.78493790  8.78493790
   8.48660304  2.92831263  2.92831263
   8.83176340  2.92831263  8.78493790
   8.83176340  8.78493790  2.92831263
   9.17692375  8.78493790  8.78493790
   0.00000000  0.00000000  0.00000000
   0.00000000  0.00000000  5.85662527
   0.00000000  5.85662527  0.00000000
   0.00000000  5.85662527  5.85662527
   5.88784226  0.00000000  0.00000000
   5.88784226  0.00000000  5.85662527
   5.88784226  5.85662527  0.00000000
   5.88784226  5.85662527  5.85662527
  11.38704250  2.92831263  0.48162007
  11.38704250  2.92831263  5.37500520
   0.38864203  8.78493790 11.23163046
   0.38864203  8.78493790  6.33824534
   6.25725938  2.92831263 11.31520626
   6.25725938  2.92831263  6.25466954
   5.51842514  8.78493790  0.39804428
   5.51842514  8.78493790  5.45858099
   0.36941712 11.31520626  2.92831263
  11.40626741  0.39804428  8.78493790
   0.36941712  6.25466954  2.92831263
  11.40626741  5.45858099  8.78493790
   5.49920024  0.48162007  2.92831263
   6.27648429 11.23163046  8.78493790
   5.49920024  5.37500520  2.92831263
   6.27648429  6.33824534  8.78493790
   2.94392113  0.33777522 11.37547531
   2.94392113  0.33777522  6.19440049
   2.94392113  5.51885004 11.37547531
   2.94392113  5.51885004  6.19440049
   8.83176340 11.37547531  0.33777522
   8.83176340 11.37547531  5.51885004
   8.83176340  6.19440049  0.33777522
   8.83176340  6.19440049  5.51885004



--------------------------------------------------------------------------------------------------------


 k-point  1 :   0.0000 0.0000 0.0000  plane waves:   19109
 k-point  2 :   0.5000 0.0000 0.0000  plane waves:   19026
 k-point  3 :   0.0000 0.5000 0.0000  plane waves:   19042
 k-point  4 :   0.5000 0.5000 0.0000  plane waves:   19028
 k-point  5 :   0.0000 0.5000 0.5000  plane waves:   19032
 k-point  6 :   0.5000 0.5000 0.5000  plane waves:   19112

 maximum and minimum number of plane-waves per node :      2426     2352

 maximum number of plane-waves:     19112
 maximum index in each direction: 
   IXMAX=   16   IYMAX=   16   IZMAX=   16
   IXMIN=  -17   IYMIN=  -17   IZMIN=  -17


 real space projection operators:
  total allocation   :      16845.25 KBytes
  max/ min on nodes  :       2211.31       1819.25


 parallel 3D FFT for wavefunctions:
    minimum data exchange during FFTs selected (reduces bandwidth)
 parallel 3D FFT for charge:
    minimum data exchange during FFTs selected (reduces bandwidth)


 total amount of memory used by VASP MPI-rank0    58960. kBytes
=======================================================================

   base      :      30000. kBytes
   nonlr-proj:       6588. kBytes
   fftplans  :       8423. kBytes
   grid      :       7465. kBytes
   one-center:         77. kBytes
   wavefun   :       6407. kBytes

     INWAV:  cpu time    0.0002: real time    0.0005
 Broyden mixing: mesh for mixing (old mesh)
   NGX = 33   NGY = 33   NGZ = 33
  (NGX  =140   NGY  =140   NGZ  =140)
  gives a total of  35937 points

 initial charge density was supplied:
 charge density of overlapping atoms calculated
 number of electron     352.0000000 magnetization 
 keeping initial charge density in first step


--------------------------------------------------------------------------------------------------------


 Maximum index for non-local projection operator          732
 Maximum index for augmentation-charges         2954 (set IRDMAX)


--------------------------------------------------------------------------------------------------------


 First call to EWALD:  gamma=   0.151
 Maximum number of real-space cells 3x 3x 3
 Maximum number of reciprocal cells 3x 3x 3

    FEWALD:  cpu time    0.0039: real time    0.0039


--------------------------------------- Iteration      1(   1)  ---------------------------------------


    POTLOK:  cpu time    0.2550: real time    0.2946
    SETDIJ:  cpu time    1.1969: real time    1.1969
     EDDAV:  cpu time   12.7100: real time   12.7166
       DOS:  cpu time    0.0007: real time    0.0007
    --------------------------------------------
      LOOP:  cpu time   14.1625: real time   14.2088

 eigenvalue-minimisations  :  2672
 total energy-change (2. order) : 0.1344211E+04  (-0.1128243E+05)
 number of electron     352.0000000 magnetization 
 augmentation part      352.0000000 magnetization 

 Free energy of the ion-electron system (eV)
  ---------------------------------------------------
  alpha Z        PSCENC =       893.29776289
  Ewald energy   TEWEN  =    -18378.50120562
  -Hartree energ DENC   =     -7371.89425088
  -exchange      EXHF   =         0.00000000
  -V(xc)+E(xc)   XCENC  =       924.05999740
  PAW double counting   =     21633.96174531   -22707.92185401
  entropy T*S    EENTRO =        -0.00088025
  eigenvalues    EBANDS =      -229.35040986
  atomic energy  EATOM  =     26580.56019858
  Solvation  Ediel_sol  =         0.00000000
  ---------------------------------------------------
  free energy    TOTEN  =      1344.21110355 eV

  energy without entropy =     1344.21198380  energy(sigma->0) =     1344.21154368


--------------------------------------------------------------------------------------------------------




--------------------------------------- Iteration      1(   2)  ---------------------------------------


     EDDAV:  cpu time   14.0194: real time   14.0642
       DOS:  cpu time    0.0004: real time    0.0003
    --------------------------------------------
      LOOP:  cpu time   14.0198: real time   14.0646

 eigenvalue-minimisations  :  3120
 total energy-change (2. order) :-0.2476139E+04  (-0.2387520E+04)
 number of electron     352.0000000 magnetization 
 augmentation part      352.0000000 magnetization 

 Free energy of the ion-electron system (eV)
  ---------------------------------------------------
  alpha Z        PSCENC =       893.29776289
  Ewald energy   TEWEN  =    -18378.50120562
  -Hartree energ DENC   =     -7371.89425088
  -exchange      EXHF   =         0.00000000
  -V(xc)+E(xc)   XCENC  =       924.05999740
  PAW double counting   =     21633.96174531   -22707.92185401
  entropy T*S    EENTRO =        -0.00000000
  eigenvalues    EBANDS =     -2705.48989170
  atomic energy  EATOM  =     26580.56019858
  Solvation  Ediel_sol  =         0.00000000
  ---------------------------------------------------
  free energy    TOTEN  =     -1131.92749803 eV

  energy without entropy =    -1131.92749803  energy(sigma->0) =    -1131.92749803


--------------------------------------------------------------------------------------------------------




--------------------------------------- Iteration      1(   3)  ---------------------------------------


     EDDAV:  cpu time   15.1097: real time   15.1584
       DOS:  cpu time    0.0003: real time    0.0003
    --------------------------------------------
      LOOP:  cpu time   15.1100: real time   15.1587

 eigenvalue-minimisations  :  3504
 total energy-change (2. order) :-0.3647039E+03  (-0.3626035E+03)
 number of electron     352.0000000 magnetization 
 augmentation part      352.0000000 magnetization 

 Free energy of the ion-electron system (eV)
  ---------------------------------------------------
  alpha Z        PSCENC =       893.29776289
  Ewald energy   TEWEN  =    -18378.50120562
  -Hartree energ DENC   =     -7371.89425088
  -exchange      EXHF   =         0.00000000
  -V(xc)+E(xc)   XCENC  =       924.05999740
  PAW double counting   =     21633.96174531   -22707.92185401
  entropy T*S    EENTRO =        -0.00000000
  eigenvalues    EBANDS =     -3070.19376764
  atomic energy  EATOM  =     26580.56019858
  Solvation  Ediel_sol  =         0.00000000
  ---------------------------------------------------
  free energy    TOTEN  =     -1496.63137397 eV

  energy without entropy =    -1496.63137397  energy(sigma->0) =    -1496.63137397


--------------------------------------------------------------------------------------------------------




--------------------------------------- Iteration      1(   4)  ---------------------------------------


     EDDAV:  cpu time   13.8852: real time   13.9090
       DOS:  cpu time    0.0004: real time    0.0004
    --------------------------------------------
      LOOP:  cpu time   13.8855: real time   13.9093

 eigenvalue-minimisations  :  3072
 total energy-change (2. order) :-0.1179532E+02  (-0.1175494E+02)
 number of electron     352.0000000 magnetization 
 augmentation part      352.0000000 magnetization 

 Free energy of the ion-electron system (eV)
  ---------------------------------------------------
  alpha Z        PSCENC =       893.29776289
  Ewald energy   TEWEN  =    -18378.50120562
  -Hartree energ DENC   =     -7371.89425088
  -exchange      EXHF   =         0.00000000
  -V(xc)+E(xc)   XCENC  =       924.05999740
  PAW double counting   =     21633.96174531   -22707.92185401
  entropy T*S    EENTRO =        -0.00000000
  eigenvalues    EBANDS =     -3081.98909068
  atomic energy  EATOM  =     26580.56019858
  Solvation  Ediel_sol  =         0.00000000
  ---------------------------------------------------
  free energy    TOTEN  =     -1508.42669701 eV

  energy without entropy =    -1508.42669701  energy(sigma->0) =    -1508.42669701


--------------------------------------------------------------------------------------------------------




--------------------------------------- Iteration      1(   5)  ---------------------------------------


     EDDAV:  cpu time   14.9950: real time   15.0201
       DOS:  cpu time    0.0010: real time    0.0010
    CHARGE:  cpu time    2.5954: real time    2.5956
    MIXING:  cpu time    0.0014: real time    0.0014
    --------------------------------------------
      LOOP:  cpu time   17.5929: real time   17.6182

 eigenvalue-minimisations  :  3464
 total energy-change (2. order) :-0.5485084E+00  (-0.5482105E+00)
 number of electron     351.9999993 magnetization 
 augmentation part       -6.5082491 magnetization 

 Broyden mixing:
  rms(total) = 0.10112E+01    rms(broyden)= 0.10108E+01
  rms(prec ) = 0.13826E+01
  weight for this iteration     100.00

 Free energy of the ion-electron system (eV)
  ---------------------------------------------------
  alpha Z        PSCENC =       893.29776289
  Ewald energy   TEWEN  =    -18378.50120562
  -Hartree energ DENC   =     -7371.89425088
  -exchange      EXHF   =         0.00000000
  -V(xc)+E(xc)   XCENC  =       924.05999740
  PAW double counting   =     21633.96174531   -22707.92185401
  entropy T*S    EENTRO =        -0.00000000
  eigenvalues    EBANDS =     -3082.53759910
  atomic energy  EATOM  =     26580.56019858
  Solvation  Ediel_sol  =         0.00000000
  ---------------------------------------------------
  free energy    TOTEN  =     -1508.97520543 eV

  energy without entropy =    -1508.97520543  energy(sigma->0) =    -1508.97520543


--------------------------------------------------------------------------------------------------------




--------------------------------------- Iteration      1(   6)  ---------------------------------------


    POTLOK:  cpu time    0.2701: real time    0.2954
    SETDIJ:  cpu time    1.1955: real time    1.1956
     EDDAV:  cpu time   14.8039: real time   14.8048
       DOS:  cpu time    0.0004: real time    0.0004
    CHARGE:  cpu time    2.6245: real time    2.6246
    MIXING:  cpu time    0.0017: real time    0.0017
    --------------------------------------------
      LOOP:  cpu time   18.8962: real time   18.9226

 eigenvalue-minimisations  :  3400
 total energy-change (2. order) : 0.7923810E+02  (-0.2339848E+01)
 number of electron     351.9999993 magnetization 
 augmentation part       -5.0688404 magnetization 

 Broyden mixing:
  rms(total) = 0.71968E+00    rms(broyden)= 0.71959E+00
  rms(prec ) = 0.88672E+00
  weight for this iteration     100.00

 eigenvalues of (default mixing * dielectric matrix)
  average eigenvalue GAMMA=   1.1881
  1.1881

 Free energy of the ion-electron system (eV)
  ---------------------------------------------------
  alpha Z        PSCENC =       893.29776289
  Ewald energy   TEWEN  =    -18378.50120562
  -Hartree energ DENC   =     -7354.63564758
  -exchange      EXHF   =         0.00000000
  -V(xc)+E(xc)   XCENC  =       955.02236957
  PAW double counting   =     21955.29141289   -23027.89616328
  entropy T*S    EENTRO =        -0.00000000
  eigenvalues    EBANDS =     -3052.87583289
  atomic energy  EATOM  =     26580.56019858
  Solvation  Ediel_sol  =         0.00000000
  ---------------------------------------------------
  free energy    TOTEN  =     -1429.73710545 eV

  energy without entropy =    -1429.73710545  energy(sigma->0) =    -1429.73710545


--------------------------------------------------------------------------------------------------------




--------------------------------------- Iteration      1(   7)  ---------------------------------------


    POTLOK:  cpu time    0.2670: real time    0.3130
    SETDIJ:  cpu time    1.1953: real time    1.1954
     EDDAV:  cpu time   14.1853: real time   14.1859
       DOS:  cpu time    0.0004: real time    0.0004
    CHARGE:  cpu time    2.6424: real time    2.6424
    MIXING:  cpu time    0.0015: real time    0.0015
    --------------------------------------------
      LOOP:  cpu time   18.2918: real time   18.3386

 eigenvalue-minimisations  :  3184
 total energy-change (2. order) : 0.4662605E+00  (-0.7742733E+00)
 number of electron     351.9999993 magnetization 
 augmentation part       -4.5523335 magnetization 

 Broyden mixing:
  rms(total) = 0.36473E+00    rms(broyden)= 0.36472E+00
  rms(prec ) = 0.39951E+00
  weight for this iteration     100.00

 eigenvalues of (default mixing * dielectric matrix)
  average eigenvalue GAMMA=   1.3233
  1.3233  1.3233

 Free energy of the ion-electron system (eV)
  ---------------------------------------------------
  alpha Z        PSCENC =       893.29776289
  Ewald energy   TEWEN  =    -18378.50120562
  -Hartree energ DENC   =     -7396.01744133
  -exchange      EXHF   =         0.00000000
  -V(xc)+E(xc)   XCENC  =       960.44187650
  PAW double counting   =     22592.12111671   -23663.19658809
  entropy T*S    EENTRO =        -0.00000000
  eigenvalues    EBANDS =     -3017.97656453
  atomic energy  EATOM  =     26580.56019858
  Solvation  Ediel_sol  =         0.00000000
  ---------------------------------------------------
  free energy    TOTEN  =     -1429.27084490 eV

  energy without entropy =    -1429.27084490  energy(sigma->0) =    -1429.27084490


--------------------------------------------------------------------------------------------------------




--------------------------------------- Iteration      1(   8)  ---------------------------------------


    POTLOK:  cpu time    0.2526: real time    0.3107
    SETDIJ:  cpu time    1.1951: real time    1.1951
     EDDAV:  cpu time   14.0608: real time   14.0615
       DOS:  cpu time    0.0004: real time    0.0004
    CHARGE:  cpu time    2.6374: real time    2.6391
    MIXING:  cpu time    0.0015: real time    0.0015
    --------------------------------------------
      LOOP:  cpu time   18.1479: real time   18.2083

 eigenvalue-minimisations  :  3144
 total energy-change (2. order) :-0.1889146E+00  (-0.3744815E-01)
 number of electron     351.9999993 magnetization 
 augmentation part       -4.6295794 magnetization 

 Broyden mixing:
  rms(total) = 0.20837E+00    rms(broyden)= 0.20837E+00
  rms(prec ) = 0.22992E+00
  weight for this iteration     100.00

 eigenvalues of (default mixing * dielectric matrix)
  average eigenvalue GAMMA=   1.7199
  1.0966  1.3339  2.7291

 Free energy of the ion-electron system (eV)
  ---------------------------------------------------
  alpha Z        PSCENC =       893.29776289
  Ewald energy   TEWEN  =    -18378.50120562
  -Hartree energ DENC   =     -7400.99707855
  -exchange      EXHF   =         0.00000000
  -V(xc)+E(xc)   XCENC  =       961.22538371
  PAW double counting   =     22846.15051731   -23917.54865246
  entropy T*S    EENTRO =        -0.00000000
  eigenvalues    EBANDS =     -3013.64668530
  atomic energy  EATOM  =     26580.56019858
  Solvation  Ediel_sol  =         0.00000000
  ---------------------------------------------------
  free energy    TOTEN  =     -1429.45975945 eV

  energy without entropy =    -1429.45975945  energy(sigma->0) =    -1429.45975945


--------------------------------------------------------------------------------------------------------




--------------------------------------- Iteration      1(   9)  ---------------------------------------


    POTLOK:  cpu time    0.2739: real time    0.2883
    SETDIJ:  cpu time    1.1995: real time    1.1996
     EDDAV:  cpu time   13.2241: real time   13.2248
       DOS:  cpu time    0.0004: real time    0.0004
    CHARGE:  cpu time    2.6361: real time    2.6363
    MIXING:  cpu time    0.0015: real time    0.0015
    --------------------------------------------
      LOOP:  cpu time   17.3356: real time   17.3508

 eigenvalue-minimisations  :  2848
 total energy-change (2. order) :-0.8135253E-01  (-0.1563737E-01)
 number of electron     351.9999993 magnetization 
 augmentation part       -4.6720512 magnetization 

 Broyden mixing:
  rms(total) = 0.44199E-01    rms(broyden)= 0.44197E-01
  rms(prec ) = 0.47272E-01
  weight for this iteration     100.00

 eigenvalues of (default mixing * dielectric matrix)
  average eigenvalue GAMMA=   1.4700
  2.5535  1.2484  1.2484  0.8297

 Free energy of the ion-electron system (eV)
  ---------------------------------------------------
  alpha Z        PSCENC =       893.29776289
  Ewald energy   TEWEN  =    -18378.50120562
  -Hartree energ DENC   =     -7406.39436646
  -exchange      EXHF   =         0.00000000
  -V(xc)+E(xc)   XCENC  =       963.19938211
  PAW double counting   =     23193.72831266   -24265.88822334
  entropy T*S    EENTRO =        -0.00000000
  eigenvalues    EBANDS =     -3009.54297280
  atomic energy  EATOM  =     26580.56019858
  Solvation  Ediel_sol  =         0.00000000
  ---------------------------------------------------
  free energy    TOTEN  =     -1429.54111198 eV

  energy without entropy =    -1429.54111198  energy(sigma->0) =    -1429.54111198


--------------------------------------------------------------------------------------------------------




--------------------------------------- Iteration      1(  10)  ---------------------------------------


    POTLOK:  cpu time    0.2506: real time    0.2906
    SETDIJ:  cpu time    1.1959: real time    1.1959
     EDDAV:  cpu time   15.7854: real time   15.7862
       DOS:  cpu time    0.0004: real time    0.0004
    CHARGE:  cpu time    2.6376: real time    2.6384
    MIXING:  cpu time    0.0016: real time    0.0016
    --------------------------------------------
      LOOP:  cpu time   19.8715: real time   19.9131

 eigenvalue-minimisations  :  3744
 total energy-change (2. order) :-0.1620128E-02  (-0.9147462E-03)
 number of electron     351.9999993 magnetization 
 augmentation part       -4.6583578 magnetization 

 Broyden mixing:
  rms(total) = 0.26390E-01    rms(broyden)= 0.26389E-01
  rms(prec ) = 0.29108E-01
  weight for this iteration     100.00

 eigenvalues of (default mixing * dielectric matrix)
  average eigenvalue GAMMA=   1.5839
  2.4060  2.4060  1.1291  1.1291  0.8494

 Free energy of the ion-electron system (eV)
  ---------------------------------------------------
  alpha Z        PSCENC =       893.29776289
  Ewald energy   TEWEN  =    -18378.50120562
  -Hartree energ DENC   =     -7404.69543189
  -exchange      EXHF   =         0.00000000
  -V(xc)+E(xc)   XCENC  =       963.00619825
  PAW double counting   =     23158.89978867   -24231.12435766
  entropy T*S    EENTRO =        -0.00000000
  eigenvalues    EBANDS =     -3010.98568533
  atomic energy  EATOM  =     26580.56019858
  Solvation  Ediel_sol  =         0.00000000
  ---------------------------------------------------
  free energy    TOTEN  =     -1429.54273211 eV

  energy without entropy =    -1429.54273211  energy(sigma->0) =    -1429.54273211


--------------------------------------------------------------------------------------------------------




--------------------------------------- Iteration      1(  11)  ---------------------------------------


    POTLOK:  cpu time    0.2681: real time    0.3082
    SETDIJ:  cpu time    1.1960: real time    1.1960
     EDDAV:  cpu time   13.4825: real time   13.4835
       DOS:  cpu time    0.0006: real time    0.0006
    CHARGE:  cpu time    2.6494: real time    2.6496
    MIXING:  cpu time    0.0016: real time    0.0016
    --------------------------------------------
      LOOP:  cpu time   17.5982: real time   17.6394

 eigenvalue-minimisations  :  2936
 total energy-change (2. order) :-0.3096781E-02  (-0.3163028E-03)
 number of electron     351.9999993 magnetization 
 augmentation part       -4.6564153 magnetization 

 Broyden mixing:
  rms(total) = 0.95278E-02    rms(broyden)= 0.95276E-02
  rms(prec ) = 0.11608E-01
  weight for this iteration     100.00

 eigenvalues of (default mixing * dielectric matrix)
  average eigenvalue GAMMA=   1.5848
  2.6141  2.6141  1.2321  1.2321  0.9082  0.9082

 Free energy of the ion-electron system (eV)
  ---------------------------------------------------
  alpha Z        PSCENC =       893.29776289
  Ewald energy   TEWEN  =    -18378.50120562
  -Hartree energ DENC   =     -7402.12076060
  -exchange      EXHF   =         0.00000000
  -V(xc)+E(xc)   XCENC  =       962.91550214
  PAW double counting   =     23128.34620707   -24200.83406969
  entropy T*S    EENTRO =        -0.00000000
  eigenvalues    EBANDS =     -3013.20946366
  atomic energy  EATOM  =     26580.56019858
  Solvation  Ediel_sol  =         0.00000000
  ---------------------------------------------------
  free energy    TOTEN  =     -1429.54582889 eV

  energy without entropy =    -1429.54582889  energy(sigma->0) =    -1429.54582889


--------------------------------------------------------------------------------------------------------




--------------------------------------- Iteration      1(  12)  ---------------------------------------


    POTLOK:  cpu time    0.2514: real time    0.2982
    SETDIJ:  cpu time    1.2020: real time    1.2020
     EDDAV:  cpu time   13.8660: real time   13.8669
       DOS:  cpu time    0.0004: real time    0.0004
    CHARGE:  cpu time    2.6480: real time    2.6481
    MIXING:  cpu time    0.0018: real time    0.0018
    --------------------------------------------
      LOOP:  cpu time   17.9696: real time   18.0174

 eigenvalue-minimisations  :  3072
 total energy-change (2. order) :-0.3039003E-03  (-0.8811459E-04)
 number of electron     351.9999993 magnetization 
 augmentation part       -4.6604815 magnetization 

 Broyden mixing:
  rms(total) = 0.33633E-02    rms(broyden)= 0.33629E-02
  rms(prec ) = 0.38307E-02
  weight for this iteration     100.00

 eigenvalues of (default mixing * dielectric matrix)
  average eigenvalue GAMMA=   1.6360
  3.0298  2.3979  1.8580  1.1997  1.0370  0.9647  0.9647

 Free energy of the ion-electron system (eV)
  ---------------------------------------------------
  alpha Z        PSCENC =       893.29776289
  Ewald energy   TEWEN  =    -18378.50120562
  -Hartree energ DENC   =     -7402.34343954
  -exchange      EXHF   =         0.00000000
  -V(xc)+E(xc)   XCENC  =       963.03821955
  PAW double counting   =     23137.97147617   -24210.56191888
  entropy T*S    EENTRO =        -0.00000000
  eigenvalues    EBANDS =     -3013.00722594
  atomic energy  EATOM  =     26580.56019858
  Solvation  Ediel_sol  =         0.00000000
  ---------------------------------------------------
  free energy    TOTEN  =     -1429.54613279 eV

  energy without entropy =    -1429.54613279  energy(sigma->0) =    -1429.54613279


--------------------------------------------------------------------------------------------------------




--------------------------------------- Iteration      1(  13)  ---------------------------------------


    POTLOK:  cpu time    0.2820: real time    0.3119
    SETDIJ:  cpu time    1.2016: real time    1.2017
     EDDAV:  cpu time   13.9794: real time   13.9802
       DOS:  cpu time    0.0004: real time    0.0004
    CHARGE:  cpu time    2.6432: real time    2.6433
    MIXING:  cpu time    0.0020: real time    0.0020
    --------------------------------------------
      LOOP:  cpu time   18.1086: real time   18.1394

 eigenvalue-minimisations  :  3112
 total energy-change (2. order) : 0.2237173E-04  (-0.9104299E-05)
 number of electron     351.9999993 magnetization 
 augmentation part       -4.6602615 magnetization 

 Broyden mixing:
  rms(total) = 0.10560E-02    rms(broyden)= 0.10559E-02
  rms(prec ) = 0.11170E-02
  weight for this iteration     100.00

 eigenvalues of (default mixing * dielectric matrix)
  average eigenvalue GAMMA=   1.6087
  2.9744  2.4635  1.9357  1.2409  1.2409  1.0400  1.0400  0.9342

 Free energy of the ion-electron system (eV)
  ---------------------------------------------------
  alpha Z        PSCENC =       893.29776289
  Ewald energy   TEWEN  =    -18378.50120562
  -Hartree energ DENC   =     -7402.67987341
  -exchange      EXHF   =         0.00000000
  -V(xc)+E(xc)   XCENC  =       963.06721084
  PAW double counting   =     23135.44745781   -24208.04339003
  entropy T*S    EENTRO =        -0.00000000
  eigenvalues    EBANDS =     -3012.69427147
  atomic energy  EATOM  =     26580.56019858
  Solvation  Ediel_sol  =         0.00000000
  ---------------------------------------------------
  free energy    TOTEN  =     -1429.54611042 eV

  energy without entropy =    -1429.54611042  energy(sigma->0) =    -1429.54611042


--------------------------------------------------------------------------------------------------------




--------------------------------------- Iteration      1(  14)  ---------------------------------------


    POTLOK:  cpu time    0.2589: real time    0.2903
    SETDIJ:  cpu time    1.1949: real time    1.1949
     EDDAV:  cpu time   13.2130: real time   13.2137
       DOS:  cpu time    0.0004: real time    0.0004
    CHARGE:  cpu time    2.6502: real time    2.6503
    MIXING:  cpu time    0.0018: real time    0.0018
    --------------------------------------------
      LOOP:  cpu time   17.3190: real time   17.3514

 eigenvalue-minimisations  :  2832
 total energy-change (2. order) :-0.1620472E-04  (-0.7239830E-06)
 number of electron     351.9999993 magnetization 
 augmentation part       -4.6599154 magnetization 

 Broyden mixing:
  rms(total) = 0.29837E-03    rms(broyden)= 0.29830E-03
  rms(prec ) = 0.33664E-03
  weight for this iteration     100.00

 eigenvalues of (default mixing * dielectric matrix)
  average eigenvalue GAMMA=   1.6578
  2.8752  2.7105  2.0816  2.0816  1.1312  1.1312  1.0007  1.0007  0.9075

 Free energy of the ion-electron system (eV)
  ---------------------------------------------------
  alpha Z        PSCENC =       893.29776289
  Ewald energy   TEWEN  =    -18378.50120562
  -Hartree energ DENC   =     -7402.69150928
  -exchange      EXHF   =         0.00000000
  -V(xc)+E(xc)   XCENC  =       963.06640953
  PAW double counting   =     23134.91236817   -24207.50463515
  entropy T*S    EENTRO =        -0.00000000
  eigenvalues    EBANDS =     -3012.68551573
  atomic energy  EATOM  =     26580.56019858
  Solvation  Ediel_sol  =         0.00000000
  ---------------------------------------------------
  free energy    TOTEN  =     -1429.54612663 eV

  energy without entropy =    -1429.54612663  energy(sigma->0) =    -1429.54612663


--------------------------------------------------------------------------------------------------------




--------------------------------------- Iteration      1(  15)  ---------------------------------------


    POTLOK:  cpu time    0.2584: real time    0.2838
    SETDIJ:  cpu time    1.1943: real time    1.1943
     EDDAV:  cpu time   10.2411: real time   10.2416
       DOS:  cpu time    0.0004: real time    0.0004
    --------------------------------------------
      LOOP:  cpu time   11.6941: real time   11.7200

 eigenvalue-minimisations  :  1776
 total energy-change (2. order) :-0.2374322E-06  (-0.7001041E-07)
 number of electron     351.9999993 magnetization 
 augmentation part       -4.6599154 magnetization 

 Free energy of the ion-electron system (eV)
  ---------------------------------------------------
  alpha Z        PSCENC =       893.29776289
  Ewald energy   TEWEN  =    -18378.50120562
  -Hartree energ DENC   =     -7402.67541446
  -exchange      EXHF   =         0.00000000
  -V(xc)+E(xc)   XCENC  =       963.06568991
  PAW double counting   =     23134.95645800   -24207.54732985
  entropy T*S    EENTRO =        -0.00000000
  eigenvalues    EBANDS =     -3012.70228630
  atomic energy  EATOM  =     26580.56019858
  Solvation  Ediel_sol  =         0.00000000
  ---------------------------------------------------
  free energy    TOTEN  =     -1429.54612686 eV

  energy without entropy =    -1429.54612686  energy(sigma->0) =    -1429.54612686


--------------------------------------------------------------------------------------------------------




 average (electrostatic) potential at core
  the test charge radii are     1.1312  1.1541  1.0178
  (the norm of the test charge is              1.0000)
       1 -55.4178       2 -55.3649       3 -55.2875       4 -55.4178       5 -55.4178
       6 -55.2875       7 -55.3649       8 -55.4178       9-101.5947      10-101.5947
      11-101.5947      12-101.5947      13-101.5947      14-101.5947      15-101.5947
      16-101.5947      17 -68.9586      18 -68.9586      19 -68.9586      20 -68.9586
      21 -68.9943      22 -68.9943      23 -68.9943      24 -68.9943      25 -68.9943
      26 -68.9943      27 -68.9943      28 -68.9943      29 -68.9586      30 -68.9586
      31 -68.9586      32 -68.9586      33 -68.9748      34 -68.9748      35 -68.9748
      36 -68.9748      37 -68.9748      38 -68.9748      39 -68.9748      40 -68.9748



 E-fermi :   0.6720     XC(G=0):  -8.0485     alpha+bet : -7.0072


 k-point     1 :       0.0000    0.0000    0.0000
  band No.  band energies     occupation 
      1     -20.9276      2.00000
      2     -20.9275      2.00000
      3     -20.9262      2.00000
      4     -20.9259      2.00000
      5     -20.8887      2.00000
      6     -20.8886      2.00000
      7     -20.8173      2.00000
      8     -20.8173      2.00000
      9     -16.4360      2.00000
     10     -16.4323      2.00000
     11     -16.4323      2.00000
     12     -16.4300      2.00000
     13     -16.4257      2.00000
     14     -16.4038      2.00000
     15     -16.4006      2.00000
     16     -16.4006      2.00000
     17     -16.3713      2.00000
     18     -16.3702      2.00000
     19     -16.3702      2.00000
     20     -16.3377      2.00000
     21     -16.3352      2.00000
     22     -16.3352      2.00000
     23     -16.3331      2.00000
     24     -16.3318      2.00000
     25     -16.2616      2.00000
     26     -16.2613      2.00000
     27     -16.2612      2.00000
     28     -16.2612      2.00000
     29     -16.2606      2.00000
     30     -16.2606      2.00000
     31     -16.2603      2.00000
     32     -16.2601      2.00000
     33     -16.2575      2.00000
     34     -16.2572      2.00000
     35     -16.2572      2.00000
     36     -16.2571      2.00000
     37     -16.2564      2.00000
     38     -16.2564      2.00000
     39     -16.2564      2.00000
     40     -16.2562      2.00000
     41     -16.2538      2.00000
     42     -16.2535      2.00000
     43     -16.2533      2.00000
     44     -16.2533      2.00000
     45     -16.2528      2.00000
     46     -16.2528      2.00000
     47     -16.2525      2.00000
     48     -16.2521      2.00000
     49     -14.3556      2.00000
     50     -14.1678      2.00000
     51     -14.1652      2.00000
     52     -14.1652      2.00000
     53     -14.0452      2.00000
     54     -14.0373      2.00000
     55     -14.0373      2.00000
     56     -14.0356      2.00000
     57     -14.0154      2.00000
     58     -14.0148      2.00000
     59     -14.0148      2.00000
     60     -14.0027      2.00000
     61     -13.9830      2.00000
     62     -13.9823      2.00000
     63     -13.9768      2.00000
     64     -13.9768      2.00000
     65     -13.9408      2.00000
     66     -13.9408      2.00000
     67     -13.9387      2.00000
     68     -13.7229      2.00000
     69     -13.7218      2.00000
     70     -13.7117      2.00000
     71     -13.7117      2.00000
     72     -13.7024      2.00000
     73      -8.1948      2.00000
     74      -7.6846      2.00000
     75      -7.6846      2.00000
     76      -7.6599      2.00000
     77      -7.3281      2.00000
     78      -7.3281      2.00000
     79      -7.3194      2.00000
     80      -7.3164      2.00000
     81      -7.3164      2.00000
     82      -7.3082      2.00000
     83      -7.2971      2.00000
     84      -7.2971      2.00000
     85      -7.2919      2.00000
     86      -7.2919      2.00000
     87      -7.2878      2.00000
     88      -7.2873      2.00000
     89      -7.2847      2.00000
     90      -7.2784      2.00000
     91      -7.2676      2.00000
     92      -7.2676      2.00000
     93      -7.2616      2.00000
     94      -7.2616      2.00000
     95      -7.2288      2.00000
     96      -7.2189      2.00000
     97      -7.2189      2.00000
     98      -7.2092      2.00000
     99      -7.2092      2.00000
    100      -7.1936      2.00000
    101      -7.0836      2.00000
    102      -7.0836      2.00000
    103      -7.0612      2.00000
    104      -6.4610      2.00000
    105      -3.3244      2.00000
    106      -3.3239      2.00000
    107      -3.3239      2.00000
    108      -3.2603      2.00000
    109      -3.2603      2.00000
    110      -3.2428      2.00000
    111      -3.2357      2.00000
    112      -3.1881      2.00000
    113      -3.1881      2.00000
    114      -3.1117      2.00000
    115      -3.0564      2.00000
    116      -3.0290      2.00000
    117      -2.1436      2.00000
    118      -2.1353      2.00000
    119      -2.1266      2.00000
    120      -1.9812      2.00000
    121      -1.9291      2.00000
    122      -1.9236      2.00000
    123      -1.8950      2.00000
    124      -1.8950      2.00000
    125      -1.8871      2.00000
    126      -1.7304      2.00000
    127      -1.6959      2.00000
    128      -1.6065      2.00000
    129      -1.6065      2.00000
    130      -1.5717      2.00000
    131      -1.5717      2.00000
    132      -1.5387      2.00000
    133      -1.5185      2.00000
    134      -1.5185      2.00000
    135      -1.4972      2.00000
    136      -1.4441      2.00000
    137      -1.4441      2.00000
    138      -1.4317      2.00000
    139      -1.4225      2.00000
    140      -1.4157      2.00000
    141      -1.4029      2.00000
    142      -1.4029      2.00000
    143      -1.3868      2.00000
    144      -1.3798      2.00000
    145      -1.3741      2.00000
    146      -1.3652      2.00000
    147      -1.3468      2.00000
    148      -1.3448      2.00000
    149      -1.3448      2.00000
    150      -1.3168      2.00000
    151      -1.3168      2.00000
    152      -1.3063      2.00000
    153      -1.2994      2.00000
    154      -1.2922      2.00000
    155      -1.2922      2.00000
    156      -1.2919      2.00000
    157      -1.2919      2.00000
    158      -1.2197      2.00000
    159      -1.2122      2.00000
    160      -1.2122      2.00000
    161      -1.1283      2.00000
    162      -1.1283      2.00000
    163      -1.1245      2.00000
    164      -0.9766      2.00000
    165      -0.9509      2.00000
    166      -0.9177      2.00000
    167      -0.9177      2.00000
    168      -0.8911      2.00000
    169      -0.8432      2.00000
    170      -0.6388      2.00000
    171      -0.6388      2.00000
    172      -0.5869      2.00000
    173      -0.0649      2.00000
    174      -0.0495      2.00000
    175      -0.0495      2.00000
    176       0.5768      2.00000
    177       2.7435      0.00000
    178       2.8155      0.00000
    179       2.8155      0.00000
    180       3.1753      0.00000
    181       3.1787      0.00000
    182       3.1787      0.00000
    183       3.2364      0.00000
    184       3.2364      0.00000
    185       3.2388      0.00000
    186       3.5589      0.00000
    187       3.5853      0.00000
    188       3.6780      0.00000
    189       4.7481      0.00000
    190       5.6458      0.00000
    191       5.6648      0.00000
    192       5.7971      0.00000
    193       5.7985      0.00000
    194       5.9342      0.00000
    195       6.0480      0.00000
    196       6.0480      0.00000
    197       6.0912      0.00000
    198       6.1434      0.00000
    199       6.1492      0.00000
    200       6.1808      0.00000
    201       6.1980      0.00000
    202       6.1980      0.00000
    203       6.2313      0.00000
    204       6.2628      0.00000
    205       6.4651      0.00000
    206       6.5129      0.00000
    207       6.5129      0.00000
    208       6.5985      0.00000
    209       6.6067      0.00000
    210       6.6144      0.00000
    211       6.6808      0.00000
    212       6.6840      0.00000
    213       6.6979      0.00000
    214       6.6990      0.00000
    215       6.7124      0.00000
    216       6.7420      0.00000

 k-point     2 :       0.5000    0.0000    0.0000
  band No.  band energies     occupation 
      1     -20.9268      2.00000
      2     -20.9268      2.00000
      3     -20.9267      2.00000
      4     -20.9267      2.00000
      5     -20.8886      2.00000
      6     -20.8886      2.00000
      7     -20.8172      2.00000
      8     -20.8172      2.00000
      9     -16.4304      2.00000
     10     -16.4304      2.00000
     11     -16.4176      2.00000
     12     -16.4176      2.00000
     13     -16.4068      2.00000
     14     -16.4068      2.00000
     15     -16.4013      2.00000
     16     -16.4013      2.00000
     17     -16.3706      2.00000
     18     -16.3706      2.00000
     19     -16.3596      2.00000
     20     -16.3596      2.00000
     21     -16.3550      2.00000
     22     -16.3550      2.00000
     23     -16.3332      2.00000
     24     -16.3332      2.00000
     25     -16.2614      2.00000
     26     -16.2614      2.00000
     27     -16.2610      2.00000
     28     -16.2610      2.00000
     29     -16.2605      2.00000
     30     -16.2605      2.00000
     31     -16.2601      2.00000
     32     -16.2601      2.00000
     33     -16.2572      2.00000
     34     -16.2572      2.00000
     35     -16.2571      2.00000
     36     -16.2571      2.00000
     37     -16.2564      2.00000
     38     -16.2564      2.00000
     39     -16.2561      2.00000
     40     -16.2561      2.00000
     41     -16.2537      2.00000
     42     -16.2537      2.00000
     43     -16.2531      2.00000
     44     -16.2531      2.00000
     45     -16.2528      2.00000
     46     -16.2528      2.00000
     47     -16.2522      2.00000
     48     -16.2522      2.00000
     49     -14.2954      2.00000
     50     -14.2954      2.00000
     51     -14.1319      2.00000
     52     -14.1319      2.00000
     53     -14.1064      2.00000
     54     -14.1064      2.00000
     55     -14.0402      2.00000
     56     -14.0402      2.00000
     57     -14.0371      2.00000
     58     -14.0371      2.00000
     59     -13.9871      2.00000
     60     -13.9871      2.00000
     61     -13.9792      2.00000
     62     -13.9792      2.00000
     63     -13.9699      2.00000
     64     -13.9699      2.00000
     65     -13.8262      2.00000
     66     -13.8262      2.00000
     67     -13.8073      2.00000
     68     -13.8073      2.00000
     69     -13.7831      2.00000
     70     -13.7831      2.00000
     71     -13.7165      2.00000
     72     -13.7165      2.00000
     73      -7.9522      2.00000
     74      -7.9522      2.00000
     75      -7.4590      2.00000
     76      -7.4590      2.00000
     77      -7.4242      2.00000
     78      -7.4242      2.00000
     79      -7.3207      2.00000
     80      -7.3207      2.00000
     81      -7.3152      2.00000
     82      -7.3152      2.00000
     83      -7.3021      2.00000
     84      -7.3021      2.00000
     85      -7.2970      2.00000
     86      -7.2970      2.00000
     87      -7.2906      2.00000
     88      -7.2906      2.00000
     89      -7.2868      2.00000
     90      -7.2868      2.00000
     91      -7.2836      2.00000
     92      -7.2836      2.00000
     93      -7.2598      2.00000
     94      -7.2598      2.00000
     95      -7.2532      2.00000
     96      -7.2532      2.00000
     97      -7.2140      2.00000
     98      -7.2140      2.00000
     99      -7.1990      2.00000
    100      -7.1990      2.00000
    101      -7.1965      2.00000
    102      -7.1965      2.00000
    103      -6.8287      2.00000
    104      -6.8287      2.00000
    105      -3.2955      2.00000
    106      -3.2955      2.00000
    107      -3.2440      2.00000
    108      -3.2440      2.00000
    109      -3.1919      2.00000
    110      -3.1919      2.00000
    111      -3.1123      2.00000
    112      -3.1123      2.00000
    113      -2.5019      2.00000
    114      -2.5019      2.00000
    115      -2.4350      2.00000
    116      -2.4350      2.00000
    117      -2.4278      2.00000
    118      -2.4278      2.00000
    119      -2.2955      2.00000
    120      -2.2955      2.00000
    121      -2.0591      2.00000
    122      -2.0591      2.00000
    123      -2.0224      2.00000
    124      -2.0224      2.00000
    125      -2.0129      2.00000
    126      -2.0129      2.00000
    127      -1.7944      2.00000
    128      -1.7944      2.00000
    129      -1.7896      2.00000
    130      -1.7896      2.00000
    131      -1.6376      2.00000
    132      -1.6376      2.00000
    133      -1.5769      2.00000
    134      -1.5769      2.00000
    135      -1.4651      2.00000
    136      -1.4651      2.00000
    137      -1.4418      2.00000
    138      -1.4418      2.00000
    139      -1.3949      2.00000
    140      -1.3949      2.00000
    141      -1.3792      2.00000
    142      -1.3792      2.00000
    143      -1.3693      2.00000
    144      -1.3693      2.00000
    145      -1.3371      2.00000
    146      -1.3371      2.00000
    147      -1.3324      2.00000
    148      -1.3324      2.00000
    149      -1.3239      2.00000
    150      -1.3239      2.00000
    151      -1.3126      2.00000
    152      -1.3126      2.00000
    153      -1.2799      2.00000
    154      -1.2799      2.00000
    155      -1.2452      2.00000
    156      -1.2452      2.00000
    157      -1.1954      2.00000
    158      -1.1954      2.00000
    159      -1.1832      2.00000
    160      -1.1832      2.00000
    161      -1.0723      2.00000
    162      -1.0723      2.00000
    163      -1.0717      2.00000
    164      -1.0717      2.00000
    165      -1.0619      2.00000
    166      -1.0619      2.00000
    167      -1.0114      2.00000
    168      -1.0114      2.00000
    169      -0.8278      2.00000
    170      -0.8278      2.00000
    171      -0.5303      2.00000
    172      -0.5303      2.00000
    173      -0.4906      2.00000
    174      -0.4906      2.00000
    175       0.0862      2.00000
    176       0.0862      2.00000
    177       3.0100      0.00000
    178       3.0100      0.00000
    179       3.0439      0.00000
    180       3.0439      0.00000
    181       3.3708      0.00000
    182       3.3708      0.00000
    183       3.4600      0.00000
    184       3.4600      0.00000
    185       4.3238      0.00000
    186       4.3238      0.00000
    187       4.7057      0.00000
    188       4.7057      0.00000
    189       4.7071      0.00000
    190       4.7071      0.00000
    191       4.9786      0.00000
    192       4.9786      0.00000
    193       5.4622      0.00000
    194       5.4622      0.00000
    195       5.8142      0.00000
    196       5.8142      0.00000
    197       5.9669      0.00000
    198       5.9669      0.00000
    199       6.0234      0.00000
    200       6.0234      0.00000
    201       6.2013      0.00000
    202       6.2013      0.00000
    203       6.2456      0.00000
    204       6.2456      0.00000
    205       6.2691      0.00000
    206       6.2691      0.00000
    207       6.5469      0.00000
    208       6.5477      0.00000
    209       6.6027      0.00000
    210       6.6038      0.00000
    211       6.6412      0.00000
    212       6.6463      0.00000
    213       6.6649      0.00000
    214       6.6775      0.00000
    215       6.6855      0.00000
    216       6.7497      0.00000

 k-point     3 :       0.0000    0.5000    0.0000
  band No.  band energies     occupation 
      1     -20.9275      2.00000
      2     -20.9275      2.00000
      3     -20.9260      2.00000
      4     -20.9260      2.00000
[...]
 total charge-density along one line

 pseudopotential strength for first ion, spin component:           1
 18.030  -4.720  -0.000   0.000   0.000   0.000  -0.000  -0.000
 -4.720   1.244   0.000  -0.000  -0.000  -0.000   0.000   0.000
 -0.000   0.000   2.289   0.000  -0.000  -2.743  -0.000   0.000
  0.000  -0.000   0.000   2.290  -0.000  -0.000  -2.744   0.000
  0.000  -0.000  -0.000  -0.000   2.288   0.000   0.000  -2.741
  0.000  -0.000  -2.743  -0.000   0.000   3.256   0.000  -0.000
 -0.000   0.000  -0.000  -2.744   0.000   0.000   3.258  -0.000
 -0.000   0.000   0.000   0.000  -2.741  -0.000  -0.000   3.254
 -0.000   0.000  -0.001   0.000  -0.000   0.001  -0.000   0.000
  0.000  -0.000  -0.000  -0.000   0.000   0.000   0.000  -0.000
  0.001  -0.000  -0.000  -0.000   0.001   0.000   0.000  -0.001
 -0.000   0.000   0.000   0.001   0.000  -0.000  -0.002  -0.000
 -0.001   0.000  -0.000   0.000   0.000   0.000  -0.000  -0.001
 total augmentation occupancy for first ion, spin component:           1
  1.908  -0.146  -0.000  -0.000   0.000   0.000   0.000   0.000   0.000   0.000   0.002   0.000  -0.001
 -0.146   0.096   0.000   0.000   0.001  -0.000   0.000  -0.001   0.000   0.000  -0.005   0.000   0.002
 -0.000   0.000   2.014   0.000   0.000   0.001   0.000   0.000  -0.002   0.000  -0.000   0.000   0.000
 -0.000   0.000   0.000   2.018  -0.000   0.000   0.004  -0.000  -0.000  -0.000   0.000   0.003  -0.000
  0.000   0.001   0.000  -0.000   2.011   0.000  -0.000  -0.001   0.000  -0.000   0.002   0.000   0.001
  0.000  -0.000   0.001   0.000   0.000   0.006   0.000   0.000   0.001  -0.000   0.000  -0.000   0.000
  0.000   0.000   0.000   0.004  -0.000   0.000   0.005   0.000  -0.000  -0.000   0.000  -0.002   0.000
  0.000  -0.001   0.000  -0.000  -0.001   0.000   0.000   0.008   0.000   0.000  -0.001  -0.000  -0.001
  0.000   0.000  -0.002  -0.000   0.000   0.001  -0.000   0.000   0.006  -0.000  -0.000  -0.000  -0.000
  0.000   0.000   0.000  -0.000  -0.000  -0.000  -0.000   0.000  -0.000   0.003   0.000   0.000  -0.000
  0.002  -0.005   0.000  -0.000   0.002   0.000   0.000  -0.001  -0.000  -0.000   0.003  -0.000  -0.000
  0.000   0.000   0.000   0.003   0.000  -0.000  -0.002  -0.000  -0.000   0.000  -0.000   0.004  -0.000
 -0.001   0.002   0.000  -0.000   0.001   0.000   0.000  -0.001   0.000   0.000  -0.000   0.000   0.003


------------------------ aborting loop because EDIFF is reached ----------------------------------------





 total charge     

# of ion       s       p       d       tot
------------------------------------------
    1        1.783   4.718   0.014   6.515
    2        1.785   4.719   0.017   6.520
    3        1.786   4.719   0.018   6.523
    4        1.783   4.718   0.014   6.515
    5        1.783   4.718   0.014   6.515
    6        1.786   4.719   0.018   6.523
    7        1.785   4.719   0.017   6.520
    8        1.783   4.718   0.014   6.515
    9        1.555   0.423   9.835  11.814
   10        1.555   0.423   9.835  11.814
   11        1.555   0.423   9.835  11.814
   12        1.555   0.423   9.835  11.814
   13        1.554   0.425   9.835  11.815
   14        1.554   0.425   9.835  11.815
   15        1.554   0.425   9.835  11.815
   16        1.554   0.425   9.835  11.815
   17        1.615   3.265   0.007   4.887
   18        1.615   3.265   0.007   4.887
   19        1.615   3.265   0.007   4.887
   20        1.615   3.265   0.007   4.887
   21        1.616   3.268   0.007   4.891
   22        1.616   3.268   0.007   4.891
   23        1.616   3.268   0.007   4.891
   24        1.616   3.268   0.007   4.891
   25        1.613   3.306   0.006   4.925
   26        1.613   3.306   0.006   4.925
   27        1.613   3.306   0.006   4.925
   28        1.613   3.306   0.006   4.925
   29        1.613   3.301   0.006   4.919
   30        1.613   3.301   0.006   4.919
   31        1.613   3.301   0.006   4.919
   32        1.613   3.301   0.006   4.919
   33        1.614   3.285   0.006   4.906
   34        1.614   3.285   0.006   4.906
   35        1.614   3.285   0.006   4.906
   36        1.614   3.285   0.006   4.906
   37        1.614   3.285   0.006   4.906
   38        1.614   3.285   0.006   4.906
   39        1.614   3.285   0.006   4.906
   40        1.614   3.285   0.006   4.906
--------------------------------------------------
tot         65.454 119.986  78.960 264.401

    CHARGE:  cpu time    0.3705: real time    0.3705
    FORLOC:  cpu time    0.0113: real time    0.0113
    FORNL :  cpu time    1.5735: real time    1.5737
    STRESS:  cpu time   39.4625: real time   39.4642
    FORCOR:  cpu time    0.2411: real time    0.2411
    FORHAR:  cpu time    0.0276: real time    0.0276
    MIXING:  cpu time    0.0017: real time    0.0017
    OFIELD:  cpu time    0.0000: real time    0.0000

  FORCE on cell =-STRESS in cart. coord.  units (eV):
  Direction    XX          YY          ZZ          XY          YZ          ZX
  --------------------------------------------------------------------------------------
  Alpha Z   893.29776   893.29776   893.29776
  Ewald   -6119.01195 -6129.78750 -6129.78750    -0.00000    -0.00000     0.00000
  Hartree  2456.10262  2473.29546  2473.29546    -0.00000    -0.00000    -0.00000
  E(xc)   -1477.97573 -1478.05422 -1477.82726     0.00000    -0.00000     0.00002
  Local   -2867.73551 -2875.18877 -2875.18877    -0.00000    -0.00000     0.00000
  n-local  1801.63365  1801.84874  1800.69221    -0.00001    -0.00000     0.00000
  augment   812.13447   812.23594   812.23574    -0.00000    -0.00007    -0.00002
  Kinetic  4500.90160  4496.80059  4507.28070     0.00003    -0.00002     0.00001
  Fock        0.00000     0.00000     0.00000     0.00000     0.00000     0.00000
  -------------------------------------------------------------------------------------
  Total      -0.65308    -0.77684    -0.77684    -0.00000     0.00000     0.00000
  in kB      -0.64765    -0.77037    -0.77037    -0.00000     0.00000     0.00000
  external pressure =       -0.73 kB  Pullay stress =        0.00 kB


 VOLUME and BASIS-vectors are now :
 -----------------------------------------------------------------------------
  energy-cutoff  :      300.00
  volume of cell :     1615.63
      direct lattice vectors                 reciprocal lattice vectors
    11.775684527  0.000000000 -0.000000000     0.084920753  0.000000000  0.000000000
    -0.000000000 11.713250534 -0.000000000     0.000000000  0.085373398  0.000000000
     0.000000000 -0.000000000 11.713250534     0.000000000  0.000000000  0.085373398

  length of vectors
    11.775684527 11.713250534 11.713250534     0.084920753  0.085373398  0.085373398


 FORCES acting on ions
    electron-ion (+dipol)            ewald-force                    non-local-force                 convergence-correction
 -----------------------------------------------------------------------------------------------
   -.188E+02 -.126E-10 0.188E-06   0.187E+02 0.426E-13 -.178E-14   0.569E-01 0.000E+00 0.515E-25   0.133E-03 0.229E-13 -.628E-12
   -.112E-06 -.347E-08 0.217E-08   0.102E-13 0.000E+00 0.000E+00   0.000E+00 0.000E+00 -.699E-25   0.697E-13 0.173E-12 0.440E-13
   0.127E-06 -.351E-08 -.187E-09   0.176E-14 0.444E-14 0.107E-13   0.136E-19 -.414E-24 -.101E-23   -.492E-13 0.211E-13 0.345E-12
   0.188E+02 -.124E-10 -.216E-06   -.187E+02 0.266E-13 0.151E-13   -.569E-01 0.000E+00 0.266E-24   -.133E-03 -.120E-12 0.956E-12
   -.188E+02 -.781E-11 0.216E-06   0.187E+02 0.213E-13 0.000E+00   0.569E-01 0.165E-23 -.216E-24   0.133E-03 0.810E-13 -.940E-12
   -.138E-06 -.364E-08 0.351E-09   -.370E-13 0.711E-14 0.711E-14   -.136E-19 0.000E+00 0.836E-24   -.119E-12 0.255E-12 -.290E-12
   0.102E-06 -.345E-08 -.217E-08   0.362E-13 0.000E+00 0.000E+00   0.000E+00 0.103E-24 0.690E-25   0.683E-13 -.478E-13 0.855E-13
   0.188E+02 -.982E-11 -.188E-06   -.187E+02 0.213E-13 0.711E-14   -.569E-01 0.000E+00 -.823E-24   -.133E-03 -.209E-12 0.583E-12
   -.409E-10 0.688E-13 0.123E-10   -.435E-13 0.575E-13 -.322E-13   0.000E+00 0.000E+00 0.413E-23   0.154E-12 0.134E-12 0.316E-12
   -.368E-10 0.134E-10 -.465E-11   -.675E-13 -.488E-13 -.258E-13   0.000E+00 0.000E+00 0.496E-23   0.130E-12 0.943E-15 -.693E-12
   -.281E-10 0.158E-11 -.127E-10   -.355E-14 -.711E-13 -.266E-13   0.000E+00 0.000E+00 -.498E-23   0.498E-13 -.163E-12 0.945E-13
   -.316E-10 0.156E-10 0.670E-11   -.568E-13 0.000E+00 -.284E-13   0.000E+00 0.000E+00 -.395E-23   -.405E-14 -.669E-13 -.488E-12
   -.201E-10 0.918E-11 -.543E-11   -.808E-13 0.107E-13 0.333E-14   0.000E+00 0.000E+00 0.864E-23   -.115E-12 0.484E-12 0.462E-12
   -.195E-10 0.642E-11 -.100E-10   0.711E-14 -.613E-13 -.639E-13   0.000E+00 0.000E+00 0.861E-23   -.860E-13 0.369E-12 -.844E-12
   -.437E-10 0.695E-11 0.117E-10   -.568E-13 -.644E-13 -.506E-13   0.000E+00 0.000E+00 -.307E-23   0.124E-13 -.504E-12 0.141E-12
   -.495E-10 0.109E-11 0.824E-12   0.284E-13 0.000E+00 -.711E-14   0.000E+00 0.000E+00 -.690E-24   0.945E-13 -.415E-12 -.526E-12
   0.238E+02 -.144E-10 -.222E+02   -.240E+02 0.329E-13 0.225E+02   0.238E+00 -.331E-23 -.214E+00   0.225E-03 0.246E-13 -.115E-03
   0.238E+02 -.141E-10 0.222E+02   -.240E+02 0.284E-13 -.225E+02   0.238E+00 0.796E-22 0.214E+00   0.225E-03 0.739E-13 0.115E-03
   -.238E+02 -.149E-10 0.222E+02   0.240E+02 -.355E-14 -.225E+02   -.238E+00 0.165E-22 0.214E+00   -.225E-03 -.958E-13 0.115E-03
   -.238E+02 -.145E-10 -.222E+02   0.240E+02 -.355E-14 0.225E+02   -.238E+00 -.414E-24 -.214E+00   -.225E-03 -.126E-12 -.115E-03
   -.140E+02 -.140E-10 0.227E+02   0.142E+02 0.471E-13 -.229E+02   -.148E+00 0.662E-22 0.155E+00   -.415E-03 0.887E-13 -.695E-04
   -.140E+02 -.118E-10 -.227E+02   0.142E+02 0.639E-13 0.229E+02   -.148E+00 -.596E-22 -.155E+00   -.415E-03 0.128E-12 0.695E-04
   0.140E+02 -.153E-10 -.227E+02   -.142E+02 0.382E-13 0.229E+02   0.148E+00 -.662E-22 -.155E+00   0.415E-03 -.103E-12 0.695E-04
   0.140E+02 -.126E-10 0.227E+02   -.142E+02 0.355E-13 -.229E+02   0.148E+00 0.662E-22 0.155E+00   0.415E-03 -.130E-12 -.695E-04
   -.140E+02 0.227E+02 0.268E-06   0.142E+02 -.229E+02 0.355E-13   -.148E+00 0.155E+00 -.464E-22   -.415E-03 -.695E-04 0.119E-11
   0.140E+02 -.227E+02 -.268E-06   -.142E+02 0.229E+02 0.329E-13   0.148E+00 -.155E+00 0.624E-22   0.415E-03 0.695E-04 -.104E-11
   -.140E+02 -.227E+02 0.291E-06   0.142E+02 0.229E+02 0.284E-13   -.148E+00 -.155E+00 0.375E-23   -.415E-03 0.695E-04 0.128E-11
   0.140E+02 0.227E+02 -.291E-06   -.142E+02 -.229E+02 0.320E-13   0.148E+00 0.155E+00 -.498E-22   0.415E-03 -.695E-04 -.114E-11
   0.238E+02 -.222E+02 0.869E-07   -.240E+02 0.225E+02 0.204E-13   0.238E+00 -.214E+00 -.522E-22   0.225E-03 -.115E-03 -.199E-11
   -.238E+02 0.222E+02 -.869E-07   0.240E+02 -.225E+02 0.320E-13   -.238E+00 0.214E+00 0.451E-23   -.225E-03 0.115E-03 0.210E-11
   0.238E+02 0.222E+02 0.279E-07   -.240E+02 -.225E+02 0.284E-13   0.238E+00 0.214E+00 -.603E-22   0.225E-03 0.115E-03 -.200E-11
   -.238E+02 -.222E+02 -.279E-07   0.240E+02 0.225E+02 0.284E-13   -.238E+00 -.214E+00 -.301E-22   -.225E-03 -.115E-03 0.211E-11
   -.140E-07 -.177E+02 0.177E+02   0.138E-13 0.178E+02 -.178E+02   -.108E-18 -.122E+00 0.122E+00   -.190E-12 0.343E-03 -.343E-03
   -.932E-08 -.177E+02 -.177E+02   -.765E-15 0.178E+02 0.178E+02   0.108E-18 -.122E+00 -.122E+00   0.113E-13 0.343E-03 0.343E-03
   -.125E-07 0.177E+02 0.177E+02   -.289E-13 -.178E+02 -.178E+02   0.542E-19 0.122E+00 0.122E+00   -.824E-13 -.343E-03 -.343E-03
   -.109E-07 0.177E+02 -.177E+02   -.470E-13 -.178E+02 0.178E+02   0.000E+00 0.122E+00 -.122E+00   0.278E-13 -.343E-03 0.343E-03
   0.140E-07 0.177E+02 -.177E+02   -.360E-13 -.178E+02 0.178E+02   0.108E-18 0.122E+00 -.122E+00   0.110E-12 -.343E-03 0.343E-03
   0.927E-08 0.177E+02 0.177E+02   -.392E-13 -.178E+02 -.178E+02   -.108E-18 0.122E+00 0.122E+00   -.971E-13 -.343E-03 -.343E-03
   0.124E-07 -.177E+02 -.177E+02   0.398E-14 0.178E+02 0.178E+02   -.542E-19 -.122E+00 -.122E+00   0.742E-14 0.343E-03 0.343E-03
   0.108E-07 -.177E+02 0.177E+02   0.849E-15 0.178E+02 -.178E+02   0.000E+00 -.122E+00 0.122E+00   -.119E-12 0.343E-03 -.343E-03
 -----------------------------------------------------------------------------------------------
   -.227E-07 -.144E-07 0.143E-09   -.267E-13 0.746E-13 -.142E-13   0.000E+00 0.416E-16 0.139E-16   0.227E-12 -.914E-13 -.152E-11


 POSITION                                       TOTAL-FORCE (eV/Angst)
 -----------------------------------------------------------------------------------
      2.59876      2.92831      2.92831         0.005982     -0.000000      0.000000
      2.94392      2.92831      8.78494         0.000000     -0.000000      0.000000
      2.94392      8.78494      2.92831        -0.000000     -0.000000      0.000000
      3.28908      8.78494      8.78494        -0.005982     -0.000000      0.000000
      8.48660      2.92831      2.92831         0.005982     -0.000000      0.000000
      8.83176      2.92831      8.78494         0.000000     -0.000000      0.000000
      8.83176      8.78494      2.92831         0.000000     -0.000000      0.000000
      9.17692      8.78494      8.78494        -0.005982     -0.000000      0.000000
      0.00000      0.00000      0.00000         0.000000     -0.000000      0.000000
      0.00000      0.00000      5.85663         0.000000     -0.000000      0.000000
      0.00000      5.85663      0.00000         0.000000     -0.000000      0.000000
      0.00000      5.85663      5.85663         0.000000     -0.000000      0.000000
      5.88784      0.00000      0.00000         0.000000     -0.000000      0.000000
      5.88784      0.00000      5.85663         0.000000     -0.000000      0.000000
      5.88784      5.85663      0.00000         0.000000     -0.000000      0.000000
      5.88784      5.85663      5.85663         0.000000     -0.000000      0.000000
     11.38704      2.92831      0.48162        -0.004694     -0.000000      0.014238
     11.38704      2.92831      5.37501        -0.004694     -0.000000     -0.014238
      0.38864      8.78494     11.23163         0.004694     -0.000000     -0.014238
      0.38864      8.78494      6.33825         0.004694     -0.000000      0.014238
      6.25726      2.92831     11.31521        -0.007373     -0.000000     -0.014570
      6.25726      2.92831      6.25467        -0.007373     -0.000000      0.014570
      5.51843      8.78494      0.39804         0.007373     -0.000000      0.014570
      5.51843      8.78494      5.45858         0.007373     -0.000000     -0.014570
      0.36942     11.31521      2.92831        -0.007373     -0.014570      0.000000
     11.40627      0.39804      8.78494         0.007373      0.014570      0.000000
      0.36942      6.25467      2.92831        -0.007373      0.014570      0.000000
     11.40627      5.45858      8.78494         0.007373     -0.014570      0.000000
      5.49920      0.48162      2.92831        -0.004694      0.014238      0.000000
      6.27648     11.23163      8.78494         0.004694     -0.014238      0.000000
      5.49920      5.37501      2.92831        -0.004694     -0.014238      0.000000
      6.27648      6.33825      8.78494         0.004694      0.014238      0.000000
      2.94392      0.33778     11.37548         0.000000      0.012932     -0.012932
      2.94392      0.33778      6.19440         0.000000      0.012932      0.012932
      2.94392      5.51885     11.37548         0.000000     -0.012932     -0.012932
      2.94392      5.51885      6.19440         0.000000     -0.012932      0.012932
      8.83176     11.37548      0.33778         0.000000     -0.012932      0.012932
      8.83176     11.37548      5.51885        -0.000000     -0.012932     -0.012932
      8.83176      6.19440      0.33778        -0.000000      0.012932      0.012932
      8.83176      6.19440      5.51885         0.000000      0.012932     -0.012932
 -----------------------------------------------------------------------------------
    total drift:                               -0.000000     -0.000000      0.000000


--------------------------------------------------------------------------------------------------------



  FREE ENERGIE OF THE ION-ELECTRON SYSTEM (eV)
  ---------------------------------------------------
  free  energy   TOTEN  =     -1429.54612686 eV

  energy  without entropy=    -1429.54612686  energy(sigma->0) =    -1429.54612686



--------------------------------------------------------------------------------------------------------


    POTLOK:  cpu time    1.4317: real time    1.4318


--------------------------------------------------------------------------------------------------------


 stress matrix after NEB project (eV)
     -0.65308     -0.00000      0.00000
     -0.00000     -0.77684      0.00000
      0.00000      0.00000     -0.77684
  FORCES: max atom, RMS     0.018288    0.012990
  FORCE total and by dimension    0.082159    0.014570
  Stress total and by dimension    1.278071    0.776835
     LOOP+:  cpu time  294.4013: real time  295.0316
    4ORBIT:  cpu time    0.0000: real time    0.0000



 total charge     

# of ion       s       p       d       tot
------------------------------------------
    1        1.783   4.718   0.014   6.515
    2        1.785   4.719   0.017   6.520
    3        1.786   4.719   0.018   6.523
    4        1.783   4.718   0.014   6.515
    5        1.783   4.718   0.014   6.515
    6        1.786   4.719   0.018   6.523
    7        1.785   4.719   0.017   6.520
    8        1.783   4.718   0.014   6.515
    9        1.555   0.423   9.835  11.814
   10        1.555   0.423   9.835  11.814
   11        1.555   0.423   9.835  11.814
   12        1.555   0.423   9.835  11.814
   13        1.554   0.425   9.835  11.815
   14        1.554   0.425   9.835  11.815
   15        1.554   0.425   9.835  11.815
   16        1.554   0.425   9.835  11.815
   17        1.615   3.265   0.007   4.887
   18        1.615   3.265   0.007   4.887
   19        1.615   3.265   0.007   4.887
   20        1.615   3.265   0.007   4.887
   21        1.616   3.268   0.007   4.891
   22        1.616   3.268   0.007   4.891
   23        1.616   3.268   0.007   4.891
   24        1.616   3.268   0.007   4.891
   25        1.613   3.306   0.006   4.925
   26        1.613   3.306   0.006   4.925
   27        1.613   3.306   0.006   4.925
   28        1.613   3.306   0.006   4.925
   29        1.613   3.301   0.006   4.919
   30        1.613   3.301   0.006   4.919
   31        1.613   3.301   0.006   4.919
   32        1.613   3.301   0.006   4.919
   33        1.614   3.285   0.006   4.906
   34        1.614   3.285   0.006   4.906
   35        1.614   3.285   0.006   4.906
   36        1.614   3.285   0.006   4.906
   37        1.614   3.285   0.006   4.906
   38        1.614   3.285   0.006   4.906
   39        1.614   3.285   0.006   4.906
   40        1.614   3.285   0.006   4.906
--------------------------------------------------
tot         65.454 119.986  78.960 264.401


 total amount of memory used by VASP MPI-rank0    58960. kBytes
=======================================================================

   base      :      30000. kBytes
   nonlr-proj:       6588. kBytes
   fftplans  :       8423. kBytes
   grid      :       7465. kBytes
   one-center:         77. kBytes
   wavefun   :       6407. kBytes

  
  
 General timing and accounting informations for this job:
 ========================================================
  
                  Total CPU time used (sec):      306.010
                            User time (sec):      303.642
                          System time (sec):        2.368
                         Elapsed time (sec):      306.881
  
                   Maximum memory used (kb):      127760.
                   Average memory used (kb):           0.
  
                          Minor page faults:       191994
                          Major page faults:            0
                 Voluntary context switches:         1720
