CsPbBr3 cubic bulk                      
           1
    11.775685    0.000000   -0.000000
    -0.000000   11.713251   -0.000000
     0.000000   -0.000000   11.713251
   Cs   Pb   Br
   8   8  24
Direct configuration=     1
   0.22068872  0.25000000  0.25000000
   0.25000000  0.25000000  0.75000000
   0.25000000  0.75000000  0.25000000
   0.27931128  0.75000000  0.75000000
   0.72068872  0.25000000  0.25000000
   0.75000000  0.25000000  0.75000000
   0.75000000  0.75000000  0.25000000
   0.77931128  0.75000000  0.75000000
   0.00000000  0.00000000  0.00000000
   0.00000000  0.00000000  0.50000000
   0.00000000  0.50000000  0.00000000
   0.00000000  0.50000000  0.50000000
   0.50000000  0.00000000  0.00000000
   0.50000000  0.00000000  0.50000000
   0.50000000  0.50000000  0.00000000
   0.50000000  0.50000000  0.50000000
   0.96699623  0.25000000  0.04111754
   0.96699623  0.25000000  0.45888246
   0.03300377  0.75000000  0.95888246
   0.03300377  0.75000000  0.54111754
   0.53137118  0.25000000  0.96601761
   0.53137118  0.25000000  0.53398239
   0.46862882  0.75000000  0.03398239
   0.46862882  0.75000000  0.46601761
   0.03137118  0.96601761  0.25000000
   0.96862882  0.03398239  0.75000000
   0.03137118  0.53398239  0.25000000
   0.96862882  0.46601761  0.75000000
   0.46699623  0.04111754  0.25000000
   0.53300377  0.95888246  0.75000000
   0.46699623  0.45888246  0.25000000
   0.53300377  0.54111754  0.75000000
   0.25000000  0.02883702  0.97116298
   0.25000000  0.02883702  0.52883702
   0.25000000  0.47116298  0.97116298
   0.25000000  0.47116298  0.52883702
   0.75000000  0.97116298  0.02883702
   0.75000000  0.97116298  0.47116298
   0.75000000  0.52883702  0.02883702
   0.75000000  0.52883702  0.47116298
