  20  20   1   0
  0.4037315E+02  0.8401482E-09  0.1211672E-08  0.7931981E-09  0.5000000E-15
   1.0000000000000000E-004
  CAR 
 CsPbBr3 cubic bulk                      
      8.54663296    -22.22898274  301      0.46803384      1.00000000
    -22.229  0.0000E+00  0.0000E+00
    -22.126  0.0000E+00  0.0000E+00
    -22.024  0.0000E+00  0.0000E+00
    -21.921  0.0000E+00  0.0000E+00
    -21.819  0.0000E+00  0.0000E+00
    -21.716  0.0000E+00  0.0000E+00
    -21.613  0.0000E+00  0.0000E+00
    -21.511  0.0000E+00  0.0000E+00
    -21.408  0.0000E+00  0.0000E+00
    -21.306  0.0000E+00  0.0000E+00
    -21.203  0.0000E+00  0.0000E+00
    -21.101  0.0000E+00  0.0000E+00
    -20.998  0.0000E+00  0.0000E+00
    -20.895  0.0000E+00  0.0000E+00
    -20.793  0.7798E+02  0.8000E+01
    -20.690  0.0000E+00  0.8000E+01
    -20.588  0.0000E+00  0.8000E+01
    -20.485  0.0000E+00  0.8000E+01
    -20.382  0.0000E+00  0.8000E+01
    -20.280  0.0000E+00  0.8000E+01
    -20.177  0.0000E+00  0.8000E+01
    -20.075  0.0000E+00  0.8000E+01
    -19.972  0.0000E+00  0.8000E+01
    -19.870  0.0000E+00  0.8000E+01
    -19.767  0.0000E+00  0.8000E+01
    -19.664  0.0000E+00  0.8000E+01
    -19.562  0.0000E+00  0.8000E+01
    -19.459  0.0000E+00  0.8000E+01
    -19.357  0.0000E+00  0.8000E+01
    -19.254  0.0000E+00  0.8000E+01
    -19.151  0.0000E+00  0.8000E+01
    -19.049  0.0000E+00  0.8000E+01
    -18.946  0.0000E+00  0.8000E+01
    -18.844  0.0000E+00  0.8000E+01
    -18.741  0.0000E+00  0.8000E+01
    -18.638  0.0000E+00  0.8000E+01
    -18.536  0.0000E+00  0.8000E+01
    -18.433  0.0000E+00  0.8000E+01
    -18.331  0.0000E+00  0.8000E+01
    -18.228  0.0000E+00  0.8000E+01
    -18.126  0.0000E+00  0.8000E+01
    -18.023  0.0000E+00  0.8000E+01
    -17.920  0.0000E+00  0.8000E+01
    -17.818  0.0000E+00  0.8000E+01
    -17.715  0.0000E+00  0.8000E+01
    -17.613  0.0000E+00  0.8000E+01
    -17.510  0.0000E+00  0.8000E+01
    -17.407  0.0000E+00  0.8000E+01
    -17.305  0.0000E+00  0.8000E+01
    -17.202  0.0000E+00  0.8000E+01
    -17.100  0.0000E+00  0.8000E+01
    -16.997  0.0000E+00  0.8000E+01
    -16.895  0.0000E+00  0.8000E+01
    -16.792  0.0000E+00  0.8000E+01
    -16.689  0.0000E+00  0.8000E+01
    -16.587  0.0000E+00  0.8000E+01
    -16.484  0.3743E+02  0.1184E+02
    -16.382  0.7859E+02  0.2406E+02
    -16.279  0.1559E+03  0.4800E+02
    -16.176  0.0000E+00  0.4800E+02
    -16.074  0.0000E+00  0.4800E+02
    -15.971  0.0000E+00  0.4800E+02
    -15.869  0.0000E+00  0.4800E+02
    -15.766  0.0000E+00  0.4800E+02
    -15.664  0.0000E+00  0.4800E+02
    -15.561  0.0000E+00  0.4800E+02
    -15.458  0.0000E+00  0.4800E+02
    -15.356  0.0000E+00  0.4800E+02
    -15.253  0.0000E+00  0.4800E+02
    -15.151  0.0000E+00  0.4800E+02
    -15.048  0.0000E+00  0.4800E+02
    -14.945  0.0000E+00  0.4800E+02
    -14.843  0.0000E+00  0.4800E+02
    -14.740  0.0000E+00  0.4800E+02
    -14.638  0.0000E+00  0.4800E+02
    -14.535  0.0000E+00  0.4800E+02
    -14.432  0.0000E+00  0.4800E+02
    -14.330  0.6589E+00  0.4807E+02
    -14.227  0.1584E+02  0.4974E+02
    -14.125  0.2242E+02  0.5241E+02
    -14.022  0.3421E+02  0.5729E+02
    -13.920  0.5561E+02  0.6337E+02
    -13.817  0.4819E+02  0.6861E+02
    -13.714  0.1841E+02  0.7200E+02
    -13.612  0.0000E+00  0.7200E+02
    -13.509  0.0000E+00  0.7200E+02
    -13.407  0.0000E+00  0.7200E+02
    -13.304  0.0000E+00  0.7200E+02
    -13.201  0.0000E+00  0.7200E+02
    -13.099  0.0000E+00  0.7200E+02
    -12.996  0.0000E+00  0.7200E+02
    -12.894  0.0000E+00  0.7200E+02
    -12.791  0.0000E+00  0.7200E+02
    -12.689  0.0000E+00  0.7200E+02
    -12.586  0.0000E+00  0.7200E+02
    -12.483  0.0000E+00  0.7200E+02
    -12.381  0.0000E+00  0.7200E+02
    -12.278  0.0000E+00  0.7200E+02
    -12.176  0.0000E+00  0.7200E+02
    -12.073  0.0000E+00  0.7200E+02
    -11.970  0.0000E+00  0.7200E+02
    -11.868  0.0000E+00  0.7200E+02
    -11.765  0.0000E+00  0.7200E+02
    -11.663  0.0000E+00  0.7200E+02
    -11.560  0.0000E+00  0.7200E+02
    -11.458  0.0000E+00  0.7200E+02
    -11.355  0.0000E+00  0.7200E+02
    -11.252  0.0000E+00  0.7200E+02
    -11.150  0.0000E+00  0.7200E+02
    -11.047  0.0000E+00  0.7200E+02
    -10.945  0.0000E+00  0.7200E+02
    -10.842  0.0000E+00  0.7200E+02
    -10.739  0.0000E+00  0.7200E+02
    -10.637  0.0000E+00  0.7200E+02
    -10.534  0.0000E+00  0.7200E+02
    -10.432  0.0000E+00  0.7200E+02
    -10.329  0.0000E+00  0.7200E+02
    -10.226  0.0000E+00  0.7200E+02
    -10.124  0.0000E+00  0.7200E+02
    -10.021  0.0000E+00  0.7200E+02
     -9.919  0.0000E+00  0.7200E+02
     -9.816  0.0000E+00  0.7200E+02
     -9.714  0.0000E+00  0.7200E+02
     -9.611  0.0000E+00  0.7200E+02
     -9.508  0.0000E+00  0.7200E+02
     -9.406  0.0000E+00  0.7200E+02
     -9.303  0.0000E+00  0.7200E+02
     -9.201  0.0000E+00  0.7200E+02
     -9.098  0.0000E+00  0.7200E+02
     -8.995  0.0000E+00  0.7200E+02
     -8.893  0.0000E+00  0.7200E+02
     -8.790  0.0000E+00  0.7200E+02
     -8.688  0.0000E+00  0.7200E+02
     -8.585  0.0000E+00  0.7200E+02
     -8.483  0.0000E+00  0.7200E+02
     -8.380  0.0000E+00  0.7200E+02
     -8.277  0.0000E+00  0.7200E+02
     -8.175  0.3419E-01  0.7200E+02
     -8.072  0.0000E+00  0.7211E+02
     -7.970  0.3788E+00  0.7215E+02
     -7.867  0.4331E+01  0.7278E+02
     -7.764  0.4360E+01  0.7323E+02
     -7.662  0.1083E+01  0.7422E+02
     -7.559  0.1150E+02  0.7540E+02
     -7.457  0.5567E+01  0.7613E+02
     -7.354  0.1200E+02  0.7768E+02
     -7.252  0.3014E+02  0.8087E+02
     -7.149  0.1624E+03  0.1023E+03
     -7.046  0.4619E+01  0.1031E+03
     -6.944  0.1083E+01  0.1033E+03
     -6.841  0.2166E+01  0.1039E+03
     -6.739  0.0000E+00  0.1039E+03
     -6.636  0.4441E-11  0.1039E+03
     -6.533  0.1083E+01  0.1040E+03
     -6.431  0.0000E+00  0.1040E+03
     -6.328  0.0000E+00  0.1040E+03
     -6.226  0.0000E+00  0.1040E+03
     -6.123  0.0000E+00  0.1040E+03
     -6.020  0.0000E+00  0.1040E+03
     -5.918  0.0000E+00  0.1040E+03
     -5.815  0.0000E+00  0.1040E+03
     -5.713  0.0000E+00  0.1040E+03
     -5.610  0.0000E+00  0.1040E+03
     -5.508  0.0000E+00  0.1040E+03
     -5.405  0.0000E+00  0.1040E+03
     -5.302  0.0000E+00  0.1040E+03
     -5.200  0.0000E+00  0.1040E+03
     -5.097  0.0000E+00  0.1040E+03
     -4.995  0.0000E+00  0.1040E+03
     -4.892  0.0000E+00  0.1040E+03
     -4.789  0.0000E+00  0.1040E+03
     -4.687  0.0000E+00  0.1040E+03
     -4.584  0.0000E+00  0.1040E+03
     -4.482  0.0000E+00  0.1040E+03
     -4.379  0.0000E+00  0.1040E+03
     -4.277  0.0000E+00  0.1040E+03
     -4.174  0.0000E+00  0.1040E+03
     -4.071  0.0000E+00  0.1040E+03
     -3.969  0.0000E+00  0.1040E+03
     -3.866  0.0000E+00  0.1040E+03
     -3.764  0.0000E+00  0.1040E+03
     -3.661  0.0000E+00  0.1040E+03
     -3.558  0.0000E+00  0.1040E+03
     -3.456  0.0000E+00  0.1040E+03
     -3.353  0.5129E-07  0.1040E+03
     -3.251  0.5007E+01  0.1045E+03
     -3.148  0.2141E+02  0.1068E+03
     -3.046  0.2197E+01  0.1079E+03
     -2.943  0.1165E+02  0.1095E+03
     -2.840  0.2178E+01  0.1104E+03
     -2.738  0.2162E+02  0.1131E+03
     -2.635  0.6496E+01  0.1140E+03
     -2.533  0.0000E+00  0.1140E+03
     -2.430  0.1083E+02  0.1151E+03
     -2.327  0.2599E+02  0.1178E+03
     -2.225  0.1083E+02  0.1189E+03
     -2.122  0.2363E+02  0.1213E+03
     -2.020  0.1952E+02  0.1237E+03
     -1.917  0.2598E+02  0.1268E+03
     -1.814  0.4311E+01  0.1272E+03
     -1.712  0.3350E+02  0.1307E+03
     -1.609  0.3333E+02  0.1344E+03
     -1.507  0.2360E+02  0.1370E+03
     -1.404  0.4464E+02  0.1426E+03
     -1.302  0.6068E+02  0.1498E+03
     -1.199  0.4729E+02  0.1559E+03
     -1.096  0.5693E+02  0.1628E+03
     -0.994  0.3285E+02  0.1677E+03
     -0.891  0.3260E+01  0.1682E+03
     -0.789  0.1986E+02  0.1707E+03
     -0.686  0.1937E+01  0.1712E+03
     -0.583  0.9186E+01  0.1727E+03
     -0.481  0.6500E+01  0.1742E+03
     -0.378  0.4331E+01  0.1747E+03
     -0.276  0.0000E+00  0.1747E+03
     -0.173  0.4423E+01  0.1751E+03
     -0.071  0.3249E+01  0.1757E+03
      0.032  0.2166E+01  0.1759E+03
      0.135  0.0000E+00  0.1759E+03
      0.237  0.0000E+00  0.1759E+03
      0.340  0.2931E-06  0.1759E+03
      0.442  0.1083E+01  0.1760E+03
      0.545  0.0000E+00  0.1760E+03
      0.648  0.0000E+00  0.1760E+03
      0.750  0.0000E+00  0.1760E+03
      0.853  0.0000E+00  0.1760E+03
      0.955  0.0000E+00  0.1760E+03
      1.058  0.0000E+00  0.1760E+03
      1.160  0.0000E+00  0.1760E+03
      1.263  0.0000E+00  0.1760E+03
      1.366  0.0000E+00  0.1760E+03
      1.468  0.0000E+00  0.1760E+03
      1.571  0.0000E+00  0.1760E+03
      1.673  0.0000E+00  0.1760E+03
      1.776  0.0000E+00  0.1760E+03
      1.879  0.0000E+00  0.1760E+03
      1.981  0.0000E+00  0.1760E+03
      2.084  0.0000E+00  0.1760E+03
      2.186  0.0000E+00  0.1760E+03
      2.289  0.0000E+00  0.1760E+03
      2.392  0.0000E+00  0.1760E+03
      2.494  0.0000E+00  0.1760E+03
      2.597  0.1083E+01  0.1761E+03
      2.699  0.5171E-14  0.1761E+03
      2.802  0.5416E+01  0.1767E+03
      2.904  0.4332E+01  0.1771E+03
      3.007  0.3374E+01  0.1775E+03
      3.110  0.4602E+00  0.1779E+03
      3.212  0.3249E+01  0.1791E+03
      3.315  0.8710E+01  0.1800E+03
      3.417  0.1083E+01  0.1802E+03
      3.520  0.4827E+01  0.1807E+03
      3.623  0.7376E-03  0.1809E+03
      3.725  0.8664E+01  0.1818E+03
      3.828  0.5254E+01  0.1823E+03
      3.930  0.7307E+01  0.1832E+03
      4.033  0.7929E+01  0.1844E+03
      4.135  0.1083E+02  0.1856E+03
      4.238  0.1182E+02  0.1868E+03
      4.341  0.8665E+01  0.1880E+03
      4.443  0.8665E+01  0.1889E+03
      4.546  0.8665E+01  0.1898E+03
      4.648  0.1155E+00  0.1898E+03
      4.751  0.0000E+00  0.1900E+03
      4.854  0.4715E+01  0.1905E+03
      4.956  0.0000E+00  0.1906E+03
      5.059  0.4325E+01  0.1910E+03
      5.161  0.1451E+02  0.1925E+03
      5.264  0.1014E+02  0.1940E+03
      5.366  0.1084E+02  0.1952E+03
      5.469  0.8454E+01  0.1962E+03
      5.572  0.2317E+01  0.1965E+03
      5.674  0.9519E+00  0.1968E+03
      5.777  0.1848E+01  0.1971E+03
      5.879  0.3774E+01  0.1988E+03
      5.982  0.2381E+02  0.2016E+03
      6.085  0.4332E+01  0.2023E+03
      6.187  0.1020E+02  0.2034E+03
      6.290  0.1879E+02  0.2054E+03
      6.392  0.2071E+02  0.2079E+03
      6.495  0.4022E+01  0.2086E+03
      6.598  0.1301E+02  0.2103E+03
      6.700  0.2817E+02  0.2146E+03
      6.803  0.2183E+02  0.2169E+03
      6.905  0.2818E+02  0.2200E+03
      7.008  0.6565E+01  0.2209E+03
      7.110  0.1024E+02  0.2229E+03
      7.213  0.4332E+01  0.2240E+03
      7.316  0.0000E+00  0.2240E+03
      7.418  0.0000E+00  0.2240E+03
      7.521  0.0000E+00  0.2240E+03
      7.623  0.0000E+00  0.2240E+03
      7.726  0.0000E+00  0.2240E+03
      7.829  0.0000E+00  0.2240E+03
      7.931  0.0000E+00  0.2240E+03
      8.034  0.0000E+00  0.2240E+03
      8.136  0.0000E+00  0.2240E+03
      8.239  0.0000E+00  0.2240E+03
      8.341  0.0000E+00  0.2240E+03
      8.444  0.0000E+00  0.2240E+03
      8.547  0.0000E+00  0.2240E+03
      8.54663296    -22.22898274  301      0.46803384      1.00000000
    -22.229  0.0000E+00  0.0000E+00  0.0000E+00
    -22.126  0.0000E+00  0.0000E+00  0.0000E+00
    -22.024  0.0000E+00  0.0000E+00  0.0000E+00
    -21.921  0.0000E+00  0.0000E+00  0.0000E+00
    -21.819  0.0000E+00  0.0000E+00  0.0000E+00
    -21.716  0.0000E+00  0.0000E+00  0.0000E+00
    -21.613  0.0000E+00  0.0000E+00  0.0000E+00
    -21.511  0.0000E+00  0.0000E+00  0.0000E+00
    -21.408  0.0000E+00  0.0000E+00  0.0000E+00
    -21.306  0.0000E+00  0.0000E+00  0.0000E+00
    -21.203  0.0000E+00  0.0000E+00  0.0000E+00
    -21.101  0.0000E+00  0.0000E+00  0.0000E+00
    -20.998  0.0000E+00  0.0000E+00  0.0000E+00
    -20.895  0.0000E+00  0.0000E+00  0.0000E+00
    -20.793  0.1731E+02  0.7479E-05  0.5498E-05
    -20.690  0.0000E+00  0.0000E+00  0.0000E+00
    -20.588  0.0000E+00  0.0000E+00  0.0000E+00
    -20.485  0.0000E+00  0.0000E+00  0.0000E+00
    -20.382  0.0000E+00  0.0000E+00  0.0000E+00
    -20.280  0.0000E+00  0.0000E+00  0.0000E+00
    -20.177  0.0000E+00  0.0000E+00  0.0000E+00
    -20.075  0.0000E+00  0.0000E+00  0.0000E+00
    -19.972  0.0000E+00  0.0000E+00  0.0000E+00
    -19.870  0.0000E+00  0.0000E+00  0.0000E+00
    -19.767  0.0000E+00  0.0000E+00  0.0000E+00
    -19.664  0.0000E+00  0.0000E+00  0.0000E+00
    -19.562  0.0000E+00  0.0000E+00  0.0000E+00
    -19.459  0.0000E+00  0.0000E+00  0.0000E+00
    -19.357  0.0000E+00  0.0000E+00  0.0000E+00
    -19.254  0.0000E+00  0.0000E+00  0.0000E+00
    -19.151  0.0000E+00  0.0000E+00  0.0000E+00
    -19.049  0.0000E+00  0.0000E+00  0.0000E+00
    -18.946  0.0000E+00  0.0000E+00  0.0000E+00
    -18.844  0.0000E+00  0.0000E+00  0.0000E+00
    -18.741  0.0000E+00  0.0000E+00  0.0000E+00
    -18.638  0.0000E+00  0.0000E+00  0.0000E+00
    -18.536  0.0000E+00  0.0000E+00  0.0000E+00
    -18.433  0.0000E+00  0.0000E+00  0.0000E+00
    -18.331  0.0000E+00  0.0000E+00  0.0000E+00
    -18.228  0.0000E+00  0.0000E+00  0.0000E+00
    -18.126  0.0000E+00  0.0000E+00  0.0000E+00
    -18.023  0.0000E+00  0.0000E+00  0.0000E+00
    -17.920  0.0000E+00  0.0000E+00  0.0000E+00
    -17.818  0.0000E+00  0.0000E+00  0.0000E+00
    -17.715  0.0000E+00  0.0000E+00  0.0000E+00
    -17.613  0.0000E+00  0.0000E+00  0.0000E+00
    -17.510  0.0000E+00  0.0000E+00  0.0000E+00
    -17.407  0.0000E+00  0.0000E+00  0.0000E+00
    -17.305  0.0000E+00  0.0000E+00  0.0000E+00
    -17.202  0.0000E+00  0.0000E+00  0.0000E+00
    -17.100  0.0000E+00  0.0000E+00  0.0000E+00
    -16.997  0.0000E+00  0.0000E+00  0.0000E+00
    -16.895  0.0000E+00  0.0000E+00  0.0000E+00
    -16.792  0.0000E+00  0.0000E+00  0.0000E+00
    -16.689  0.0000E+00  0.0000E+00  0.0000E+00
    -16.587  0.0000E+00  0.0000E+00  0.0000E+00
    -16.484  0.6000E-04  0.3553E-04  0.8459E-05
    -16.382  0.2401E-04  0.3843E-04  0.4061E-05
    -16.279  0.4731E-04  0.2774E-04  0.3506E-05
    -16.176  0.0000E+00  0.0000E+00  0.0000E+00
    -16.074  0.0000E+00  0.0000E+00  0.0000E+00
    -15.971  0.0000E+00  0.0000E+00  0.0000E+00
    -15.869  0.0000E+00  0.0000E+00  0.0000E+00
    -15.766  0.0000E+00  0.0000E+00  0.0000E+00
    -15.664  0.0000E+00  0.0000E+00  0.0000E+00
    -15.561  0.0000E+00  0.0000E+00  0.0000E+00
    -15.458  0.0000E+00  0.0000E+00  0.0000E+00
    -15.356  0.0000E+00  0.0000E+00  0.0000E+00
    -15.253  0.0000E+00  0.0000E+00  0.0000E+00
    -15.151  0.0000E+00  0.0000E+00  0.0000E+00
    -15.048  0.0000E+00  0.0000E+00  0.0000E+00
    -14.945  0.0000E+00  0.0000E+00  0.0000E+00
    -14.843  0.0000E+00  0.0000E+00  0.0000E+00
    -14.740  0.0000E+00  0.0000E+00  0.0000E+00
    -14.638  0.0000E+00  0.0000E+00  0.0000E+00
    -14.535  0.0000E+00  0.0000E+00  0.0000E+00
    -14.432  0.0000E+00  0.0000E+00  0.0000E+00
    -14.330  0.2611E-03  0.1007E-05  0.8501E-06
    -14.227  0.3310E-02  0.1829E-02  0.3528E-04
    -14.125  0.1312E-02  0.3873E-02  0.1116E-03
    -14.022  0.1914E-02  0.5109E-02  0.3643E-03
    -13.920  0.1602E-02  0.5320E-02  0.4540E-03
    -13.817  0.8609E-03  0.3563E-02  0.5190E-03
    -13.714  0.4882E-03  0.1139E-02  0.1558E-03
    -13.612  0.0000E+00  0.0000E+00  0.0000E+00
    -13.509  0.0000E+00  0.0000E+00  0.0000E+00
    -13.407  0.0000E+00  0.0000E+00  0.0000E+00
    -13.304  0.0000E+00  0.0000E+00  0.0000E+00
    -13.201  0.0000E+00  0.0000E+00  0.0000E+00
    -13.099  0.0000E+00  0.0000E+00  0.0000E+00
    -12.996  0.0000E+00  0.0000E+00  0.0000E+00
    -12.894  0.0000E+00  0.0000E+00  0.0000E+00
    -12.791  0.0000E+00  0.0000E+00  0.0000E+00
    -12.689  0.0000E+00  0.0000E+00  0.0000E+00
    -12.586  0.0000E+00  0.0000E+00  0.0000E+00
    -12.483  0.0000E+00  0.0000E+00  0.0000E+00
    -12.381  0.0000E+00  0.0000E+00  0.0000E+00
    -12.278  0.0000E+00  0.0000E+00  0.0000E+00
    -12.176  0.0000E+00  0.0000E+00  0.0000E+00
    -12.073  0.0000E+00  0.0000E+00  0.0000E+00
    -11.970  0.0000E+00  0.0000E+00  0.0000E+00
    -11.868  0.0000E+00  0.0000E+00  0.0000E+00
    -11.765  0.0000E+00  0.0000E+00  0.0000E+00
    -11.663  0.0000E+00  0.0000E+00  0.0000E+00
    -11.560  0.0000E+00  0.0000E+00  0.0000E+00
    -11.458  0.0000E+00  0.0000E+00  0.0000E+00
    -11.355  0.0000E+00  0.0000E+00  0.0000E+00
    -11.252  0.0000E+00  0.0000E+00  0.0000E+00
    -11.150  0.0000E+00  0.0000E+00  0.0000E+00
    -11.047  0.0000E+00  0.0000E+00  0.0000E+00
    -10.945  0.0000E+00  0.0000E+00  0.0000E+00
    -10.842  0.0000E+00  0.0000E+00  0.0000E+00
    -10.739  0.0000E+00  0.0000E+00  0.0000E+00
    -10.637  0.0000E+00  0.0000E+00  0.0000E+00
    -10.534  0.0000E+00  0.0000E+00  0.0000E+00
    -10.432  0.0000E+00  0.0000E+00  0.0000E+00
    -10.329  0.0000E+00  0.0000E+00  0.0000E+00
    -10.226  0.0000E+00  0.0000E+00  0.0000E+00
    -10.124  0.0000E+00  0.0000E+00  0.0000E+00
    -10.021  0.0000E+00  0.0000E+00  0.0000E+00
     -9.919  0.0000E+00  0.0000E+00  0.0000E+00
     -9.816  0.0000E+00  0.0000E+00  0.0000E+00
     -9.714  0.0000E+00  0.0000E+00  0.0000E+00
     -9.611  0.0000E+00  0.0000E+00  0.0000E+00
     -9.508  0.0000E+00  0.0000E+00  0.0000E+00
     -9.406  0.0000E+00  0.0000E+00  0.0000E+00
     -9.303  0.0000E+00  0.0000E+00  0.0000E+00
     -9.201  0.0000E+00  0.0000E+00  0.0000E+00
     -9.098  0.0000E+00  0.0000E+00  0.0000E+00
     -8.995  0.0000E+00  0.0000E+00  0.0000E+00
     -8.893  0.0000E+00  0.0000E+00  0.0000E+00
     -8.790  0.0000E+00  0.0000E+00  0.0000E+00
     -8.688  0.0000E+00  0.0000E+00  0.0000E+00
     -8.585  0.0000E+00  0.0000E+00  0.0000E+00
     -8.483  0.0000E+00  0.0000E+00  0.0000E+00
     -8.380  0.0000E+00  0.0000E+00  0.0000E+00
     -8.277  0.0000E+00  0.0000E+00  0.0000E+00
     -8.175  0.1284E-18  0.7497E-06  0.1888E-06
     -8.072  0.0000E+00  0.0000E+00  0.0000E+00
     -7.970  0.1849E-07  0.2921E-03  0.1504E-05
     -7.867  0.6134E-17  0.2861E-02  0.2371E-04
     -7.764  0.3090E-07  0.7514E-02  0.3284E-04
     -7.662  0.1019E-06  0.4178E-02  0.1797E-05
     -7.559  0.1332E-04  0.5646E-01  0.5608E-04
     -7.457  0.9579E-05  0.6965E-01  0.1417E-04
     -7.354  0.3939E-04  0.3510E+00  0.2860E-04
     -7.252  0.3369E-04  0.4950E+01  0.3372E-04
     -7.149  0.5392E-04  0.3001E+02  0.6890E-04
     -7.046  0.1760E-04  0.1467E+00  0.2116E-04
     -6.944  0.9846E-05  0.9081E-02  0.2732E-05
     -6.841  0.1386E-04  0.7745E-02  0.1231E-04
     -6.739  0.0000E+00  0.0000E+00  0.0000E+00
     -6.636  0.4407E-16  0.1050E-13  0.6606E-17
     -6.533  0.1075E-04  0.2560E-02  0.1611E-05
     -6.431  0.0000E+00  0.0000E+00  0.0000E+00
     -6.328  0.0000E+00  0.0000E+00  0.0000E+00
     -6.226  0.0000E+00  0.0000E+00  0.0000E+00
     -6.123  0.0000E+00  0.0000E+00  0.0000E+00
     -6.020  0.0000E+00  0.0000E+00  0.0000E+00
     -5.918  0.0000E+00  0.0000E+00  0.0000E+00
     -5.815  0.0000E+00  0.0000E+00  0.0000E+00
     -5.713  0.0000E+00  0.0000E+00  0.0000E+00
     -5.610  0.0000E+00  0.0000E+00  0.0000E+00
     -5.508  0.0000E+00  0.0000E+00  0.0000E+00
     -5.405  0.0000E+00  0.0000E+00  0.0000E+00
     -5.302  0.0000E+00  0.0000E+00  0.0000E+00
     -5.200  0.0000E+00  0.0000E+00  0.0000E+00
     -5.097  0.0000E+00  0.0000E+00  0.0000E+00
     -4.995  0.0000E+00  0.0000E+00  0.0000E+00
     -4.892  0.0000E+00  0.0000E+00  0.0000E+00
     -4.789  0.0000E+00  0.0000E+00  0.0000E+00
     -4.687  0.0000E+00  0.0000E+00  0.0000E+00
     -4.584  0.0000E+00  0.0000E+00  0.0000E+00
     -4.482  0.0000E+00  0.0000E+00  0.0000E+00
     -4.379  0.0000E+00  0.0000E+00  0.0000E+00
     -4.277  0.0000E+00  0.0000E+00  0.0000E+00
     -4.174  0.0000E+00  0.0000E+00  0.0000E+00
     -4.071  0.0000E+00  0.0000E+00  0.0000E+00
     -3.969  0.0000E+00  0.0000E+00  0.0000E+00
     -3.866  0.0000E+00  0.0000E+00  0.0000E+00
     -3.764  0.0000E+00  0.0000E+00  0.0000E+00
     -3.661  0.0000E+00  0.0000E+00  0.0000E+00
     -3.558  0.0000E+00  0.0000E+00  0.0000E+00
     -3.456  0.0000E+00  0.0000E+00  0.0000E+00
     -3.353  0.1958E-11  0.9832E-10  0.1090E-11
     -3.251  0.1082E-03  0.6056E-02  0.2591E-03
     -3.148  0.3063E-03  0.2433E-01  0.2172E-02
     -3.046  0.2595E-06  0.8520E-03  0.1900E-03
     -2.943  0.2985E-03  0.1052E-01  0.1069E-02
     -2.840  0.6769E-07  0.1514E-02  0.3385E-03
     -2.738  0.4573E-03  0.1761E-01  0.1295E-02
     -2.635  0.1049E-14  0.2808E-02  0.2687E-03
     -2.533  0.0000E+00  0.0000E+00  0.0000E+00
     -2.430  0.4550E-03  0.2324E-01  0.1395E-02
     -2.327  0.2968E-02  0.2291E-01  0.3108E-02
     -2.225  0.3445E-02  0.6697E-02  0.1320E-02
     -2.122  0.8490E-02  0.3298E-01  0.2407E-02
     -2.020  0.1689E-01  0.2226E-01  0.4003E-02
     -1.917  0.1442E-01  0.5466E-01  0.4540E-02
     -1.814  0.6635E-04  0.2830E-01  0.4460E-03
     -1.712  0.4370E-02  0.1358E+00  0.9438E-02
     -1.609  0.2813E-02  0.1053E+00  0.1310E-01
     -1.507  0.2285E-02  0.5529E-01  0.1072E-01
     -1.404  0.4339E-02  0.6957E-01  0.2040E-01
     -1.302  0.7076E-02  0.9519E-01  0.1924E-01
     -1.199  0.3248E-02  0.7378E-01  0.1180E-01
     -1.096  0.1858E-02  0.9040E-01  0.1383E-01
     -0.994  0.1079E-02  0.2467E-01  0.7623E-02
     -0.891  0.1652E-03  0.2131E-02  0.8583E-03
     -0.789  0.1242E-02  0.2368E-01  0.5010E-02
     -0.686  0.8712E-04  0.1143E-02  0.1660E-03
     -0.583  0.4870E-03  0.2449E-02  0.1338E-02
     -0.481  0.2959E-03  0.2775E-02  0.7048E-03
     -0.378  0.1732E-15  0.2985E-02  0.6257E-04
     -0.276  0.0000E+00  0.0000E+00  0.0000E+00
     -0.173  0.5350E-15  0.4265E-03  0.8310E-03
     -0.071  0.4744E-05  0.1029E-02  0.2625E-03
      0.032  0.3219E-05  0.2491E-03  0.2242E-03
      0.135  0.0000E+00  0.0000E+00  0.0000E+00
      0.237  0.0000E+00  0.0000E+00  0.0000E+00
      0.340  0.1553E-22  0.9975E-11  0.2657E-10
      0.442  0.5741E-16  0.3687E-04  0.9822E-04
      0.545  0.0000E+00  0.0000E+00  0.0000E+00
      0.648  0.0000E+00  0.0000E+00  0.0000E+00
      0.750  0.0000E+00  0.0000E+00  0.0000E+00
      0.853  0.0000E+00  0.0000E+00  0.0000E+00
      0.955  0.0000E+00  0.0000E+00  0.0000E+00
      1.058  0.0000E+00  0.0000E+00  0.0000E+00
      1.160  0.0000E+00  0.0000E+00  0.0000E+00
      1.263  0.0000E+00  0.0000E+00  0.0000E+00
      1.366  0.0000E+00  0.0000E+00  0.0000E+00
      1.468  0.0000E+00  0.0000E+00  0.0000E+00
      1.571  0.0000E+00  0.0000E+00  0.0000E+00
      1.673  0.0000E+00  0.0000E+00  0.0000E+00
      1.776  0.0000E+00  0.0000E+00  0.0000E+00
      1.879  0.0000E+00  0.0000E+00  0.0000E+00
      1.981  0.0000E+00  0.0000E+00  0.0000E+00
      2.084  0.0000E+00  0.0000E+00  0.0000E+00
      2.186  0.0000E+00  0.0000E+00  0.0000E+00
      2.289  0.0000E+00  0.0000E+00  0.0000E+00
      2.392  0.0000E+00  0.0000E+00  0.0000E+00
      2.494  0.0000E+00  0.0000E+00  0.0000E+00
      2.597  0.1531E-04  0.1525E-03  0.4447E-03
      2.699  0.1910E-18  0.5584E-18  0.1877E-17
      2.802  0.1720E-03  0.7614E-03  0.2449E-02
      2.904  0.9150E-05  0.9898E-03  0.1594E-02
      3.007  0.2116E-03  0.1837E-03  0.2218E-02
      3.110  0.5678E-06  0.4330E-03  0.1439E-03
      3.212  0.2184E-03  0.3350E-03  0.1313E-02
      3.315  0.8961E-03  0.5113E-02  0.3019E-02
      3.417  0.5633E-04  0.1261E-03  0.1361E-03
      3.520  0.1021E-02  0.1287E-02  0.2283E-02
      3.623  0.5273E-19  0.1210E-06  0.1026E-05
      3.725  0.5817E-03  0.1851E-02  0.7774E-02
      3.828  0.4198E-03  0.1230E-02  0.4351E-02
      3.930  0.8991E-03  0.1140E-02  0.4305E-02
      4.033  0.7597E-03  0.2017E-02  0.4310E-02
      4.135  0.2253E-03  0.1666E-02  0.5251E-02
      4.238  0.7746E-03  0.3458E-02  0.8025E-02
      4.341  0.3518E-04  0.4080E-02  0.6840E-02
      4.443  0.1038E-02  0.1306E-02  0.2607E-02
      4.546  0.1455E-02  0.2872E-02  0.4004E-02
      4.648  0.6420E-04  0.3707E-04  0.6670E-04
      4.751  0.0000E+00  0.0000E+00  0.0000E+00
      4.854  0.1173E-01  0.3341E-03  0.5964E-02
      4.956  0.0000E+00  0.0000E+00  0.0000E+00
      5.059  0.2864E-06  0.2026E-02  0.5179E-02
      5.161  0.1699E-02  0.2836E-02  0.1697E-01
      5.264  0.2489E-01  0.9713E-02  0.6932E-02
      5.366  0.8567E-02  0.6355E-02  0.1093E-01
      5.469  0.1986E-01  0.3020E-02  0.2419E-01
      5.572  0.8935E-14  0.1167E-03  0.3749E-02
      5.674  0.4527E-02  0.7510E-03  0.4168E-02
      5.777  0.2596E-02  0.4994E-03  0.3106E-02
      5.879  0.3935E-03  0.8487E-03  0.4260E-01
      5.982  0.9837E-01  0.3204E-01  0.1133E+00
      6.085  0.2393E-02  0.4347E-02  0.1252E+00
      6.187  0.1617E-01  0.6350E-02  0.2131E+00
      6.290  0.7179E-01  0.3764E-01  0.3163E+00
      6.392  0.6414E-01  0.3161E-01  0.4920E+00
      6.495  0.5437E-02  0.3745E-02  0.1047E+00
      6.598  0.2453E-01  0.2207E-01  0.3472E+00
      6.700  0.4982E-01  0.5570E-01  0.6981E+00
      6.803  0.1064E-01  0.4092E-01  0.6264E+00
      6.905  0.7923E-02  0.3050E-01  0.1106E+01
      7.008  0.1247E-02  0.1004E-01  0.2876E+00
      7.110  0.3653E-02  0.2586E-01  0.3249E+00
      7.213  0.6248E-03  0.1089E-01  0.8601E-01
      7.316  0.0000E+00  0.0000E+00  0.0000E+00
      7.418  0.0000E+00  0.0000E+00  0.0000E+00
      7.521  0.0000E+00  0.0000E+00  0.0000E+00
      7.623  0.0000E+00  0.0000E+00  0.0000E+00
      7.726  0.0000E+00  0.0000E+00  0.0000E+00
      7.829  0.0000E+00  0.0000E+00  0.0000E+00
      7.931  0.0000E+00  0.0000E+00  0.0000E+00
      8.034  0.0000E+00  0.0000E+00  0.0000E+00
      8.136  0.0000E+00  0.0000E+00  0.0000E+00
      8.239  0.0000E+00  0.0000E+00  0.0000E+00
      8.341  0.0000E+00  0.0000E+00  0.0000E+00
      8.444  0.0000E+00  0.0000E+00  0.0000E+00
      8.547  0.0000E+00  0.0000E+00  0.0000E+00
      8.54663296    -22.22898274  301      0.46803384      1.00000000
    -22.229  0.0000E+00  0.0000E+00  0.0000E+00
    -22.126  0.0000E+00  0.0000E+00  0.0000E+00
    -22.024  0.0000E+00  0.0000E+00  0.0000E+00
    -21.921  0.0000E+00  0.0000E+00  0.0000E+00
    -21.819  0.0000E+00  0.0000E+00  0.0000E+00
    -21.716  0.0000E+00  0.0000E+00  0.0000E+00
    -21.613  0.0000E+00  0.0000E+00  0.0000E+00
    -21.511  0.0000E+00  0.0000E+00  0.0000E+00
    -21.408  0.0000E+00  0.0000E+00  0.0000E+00
    -21.306  0.0000E+00  0.0000E+00  0.0000E+00
    -21.203  0.0000E+00  0.0000E+00  0.0000E+00
    -21.101  0.0000E+00  0.0000E+00  0.0000E+00
    -20.998  0.0000E+00  0.0000E+00  0.0000E+00
    -20.895  0.0000E+00  0.0000E+00  0.0000E+00
    -20.793  0.1731E+02  0.7477E-05  0.5512E-05
    -20.690  0.0000E+00  0.0000E+00  0.0000E+00
    -20.588  0.0000E+00  0.0000E+00  0.0000E+00
    -20.485  0.0000E+00  0.0000E+00  0.0000E+00
    -20.382  0.0000E+00  0.0000E+00  0.0000E+00
    -20.280  0.0000E+00  0.0000E+00  0.0000E+00
    -20.177  0.0000E+00  0.0000E+00  0.0000E+00
    -20.075  0.0000E+00  0.0000E+00  0.0000E+00
    -19.972  0.0000E+00  0.0000E+00  0.0000E+00
    -19.870  0.0000E+00  0.0000E+00  0.0000E+00
    -19.767  0.0000E+00  0.0000E+00  0.0000E+00
    -19.664  0.0000E+00  0.0000E+00  0.0000E+00
    -19.562  0.0000E+00  0.0000E+00  0.0000E+00
    -19.459  0.0000E+00  0.0000E+00  0.0000E+00
    -19.357  0.0000E+00  0.0000E+00  0.0000E+00
    -19.254  0.0000E+00  0.0000E+00  0.0000E+00
    -19.151  0.0000E+00  0.0000E+00  0.0000E+00
    -19.049  0.0000E+00  0.0000E+00  0.0000E+00
    -18.946  0.0000E+00  0.0000E+00  0.0000E+00
    -18.844  0.0000E+00  0.0000E+00  0.0000E+00
    -18.741  0.0000E+00  0.0000E+00  0.0000E+00
    -18.638  0.0000E+00  0.0000E+00  0.0000E+00
    -18.536  0.0000E+00  0.0000E+00  0.0000E+00
    -18.433  0.0000E+00  0.0000E+00  0.0000E+00
    -18.331  0.0000E+00  0.0000E+00  0.0000E+00
    -18.228  0.0000E+00  0.0000E+00  0.0000E+00
    -18.126  0.0000E+00  0.0000E+00  0.0000E+00
    -18.023  0.0000E+00  0.0000E+00  0.0000E+00
    -17.920  0.0000E+00  0.0000E+00  0.0000E+00
    -17.818  0.0000E+00  0.0000E+00  0.0000E+00
    -17.715  0.0000E+00  0.0000E+00  0.0000E+00
    -17.613  0.0000E+00  0.0000E+00  0.0000E+00
    -17.510  0.0000E+00  0.0000E+00  0.0000E+00
    -17.407  0.0000E+00  0.0000E+00  0.0000E+00
    -17.305  0.0000E+00  0.0000E+00  0.0000E+00
    -17.202  0.0000E+00  0.0000E+00  0.0000E+00
    -17.100  0.0000E+00  0.0000E+00  0.0000E+00
    -16.997  0.0000E+00  0.0000E+00  0.0000E+00
    -16.895  0.0000E+00  0.0000E+00  0.0000E+00
    -16.792  0.0000E+00  0.0000E+00  0.0000E+00
    -16.689  0.0000E+00  0.0000E+00  0.0000E+00
    -16.587  0.0000E+00  0.0000E+00  0.0000E+00
    -16.484  0.5011E-04  0.2526E-04  0.5293E-05
    -16.382  0.2001E-04  0.5193E-04  0.5396E-05
    -16.279  0.4666E-04  0.2753E-04  0.3496E-05
    -16.176  0.0000E+00  0.0000E+00  0.0000E+00
    -16.074  0.0000E+00  0.0000E+00  0.0000E+00
    -15.971  0.0000E+00  0.0000E+00  0.0000E+00
    -15.869  0.0000E+00  0.0000E+00  0.0000E+00
    -15.766  0.0000E+00  0.0000E+00  0.0000E+00
    -15.664  0.0000E+00  0.0000E+00  0.0000E+00
    -15.561  0.0000E+00  0.0000E+00  0.0000E+00
    -15.458  0.0000E+00  0.0000E+00  0.0000E+00
    -15.356  0.0000E+00  0.0000E+00  0.0000E+00
    -15.253  0.0000E+00  0.0000E+00  0.0000E+00
    -15.151  0.0000E+00  0.0000E+00  0.0000E+00
    -15.048  0.0000E+00  0.0000E+00  0.0000E+00
    -14.945  0.0000E+00  0.0000E+00  0.0000E+00
    -14.843  0.0000E+00  0.0000E+00  0.0000E+00
    -14.740  0.0000E+00  0.0000E+00  0.0000E+00
    -14.638  0.0000E+00  0.0000E+00  0.0000E+00
    -14.535  0.0000E+00  0.0000E+00  0.0000E+00
    -14.432  0.0000E+00  0.0000E+00  0.0000E+00
    -14.330  0.2611E-03  0.1007E-05  0.8501E-06
    -14.227  0.3491E-02  0.1595E-02  0.4101E-04
    -14.125  0.1752E-02  0.3956E-02  0.9818E-04
    -14.022  0.2950E-03  0.3483E-02  0.2373E-03
    -13.920  0.1840E-02  0.5931E-02  0.6911E-03
    -13.817  0.1343E-02  0.3724E-02  0.4814E-03
    -13.714  0.5287E-03  0.1101E-02  0.1446E-03
    -13.612  0.0000E+00  0.0000E+00  0.0000E+00
    -13.509  0.0000E+00  0.0000E+00  0.0000E+00
    -13.407  0.0000E+00  0.0000E+00  0.0000E+00
    -13.304  0.0000E+00  0.0000E+00  0.0000E+00
    -13.201  0.0000E+00  0.0000E+00  0.0000E+00
    -13.099  0.0000E+00  0.0000E+00  0.0000E+00