 vasp.5.4.4.18Apr17-6-g9f103f2a35 (build Jun 29 2021 14:23:36) complex           
 executed on tx2_gcc-7.3_libsci-1 date 2021.09.21  08:28:56
 running on   64 total cores
 distrk:  each k-point on   64 cores,    1 groups
 distr:  one band on NCORES_PER_BAND=   8 cores,    8 groups


--------------------------------------------------------------------------------------------------------


 INCAR:
 POTCAR:    PAW_PBE Cs_sv 08Apr2002               
 POTCAR:    PAW_PBE Pb_d 06Sep2000                
 POTCAR:    PAW_PBE Br 06Sep2000                  
 POTCAR:    PAW_PBE Cs_sv 08Apr2002               
   SHA256 =  c1463496f0f6037ed62c6012a8013a89ee9ad6ffb38599dcd6c079e7ed31779b Cs
   COPYR  = (c) Copyright 08Apr2002 Georg Kresse                                
   COPYR  = This file is part of the software VASP. Any use, copying, and all ot
   COPYR  = If you do not have a valid VASP license, you may not use, copy or di
   VRHFIN =Cs: 5s5p6s                                                           
   LEXCH  = PE                                                                  
   EATOM  =   555.6835 eV,   40.8416 Ry                                         
                                                                                
   TITEL  = PAW_PBE Cs_sv 08Apr2002                                             
   LULTRA =        F    use ultrasoft PP ?                                      
   IUNSCR =        1    unscreen: 0-lin 1-nonlin 2-no                           
   RPACOR =    2.200    partial core radius                                     
   POMASS =  132.900; ZVAL   =    9.000    mass and valenz                      
   RCORE  =    2.500    outmost cutoff radius                                   
   RWIGS  =    2.500; RWIGS  =    1.323    wigner-seitz radius (au A)           
   ENMAX  =  220.318; ENMIN  =  165.238 eV                                      
   RCLOC  =    2.207    cutoff for local pot                                    
   LCOR   =        T    correct aug charges                                     
   LPAW   =        T    paw PP                                                  
   EAUG   =  407.933                                                            
   DEXC   =    0.000                                                            
   RMAX   =    2.554    core radius for proj-oper                               
   RAUG   =    1.300    factor for augmentation sphere                          
   RDEP   =    2.590    radius for radial grids                                 
   RDEPT  =    2.117    core radius for aug-charge                              
                                                                                
   Atomic configuration                                                         
   13 entries                                                                   
     n  l   j            E        occ.                                          
     1  0  0.50    -35790.1377   2.0000                                         
     2  0  0.50     -5613.6201   2.0000                                         
     2  1  1.50     -5035.0101   6.0000                                         
     3  0  0.50     -1167.0767   2.0000                                         
     3  1  1.50      -980.9754   6.0000                                         
     3  2  2.50      -708.0703  10.0000                                         
     4  0  0.50      -220.2386   2.0000                                         
     4  1  1.50      -160.7596   6.0000                                         
     4  2  2.50       -74.2354  10.0000                                         
     5  0  0.50       -26.7287   2.0000                                         
     6  0  0.50        -2.0862   1.0000                                         
     5  1  1.50       -13.5159   6.0000                                         
     5  2  2.50        -0.4136   0.0000                                         
   Description                                                                  
     l       E           TYP  RCUT    TYP  RCUT                                 
     0    -26.7287425     23  1.900                                             
     0     -2.0862306     23  1.900                                             
     1    -13.5158719     23  2.500                                             
     1     -2.7211652     23  2.500                                             
     2     -0.4136171     23  2.500                                             
  local pseudopotential read in
  partial core-charges read in
  partial kinetic energy density read in
  atomic valenz-charges read in
  non local Contribution for L=           0  read in
    real space projection operators read in
  non local Contribution for L=           0  read in
    real space projection operators read in
  non local Contribution for L=           1  read in
    real space projection operators read in
  non local Contribution for L=           1  read in
    real space projection operators read in
  non local Contribution for L=           2  read in
    real space projection operators read in
    PAW grid and wavefunctions read in

   number of l-projection  operators is LMAX  =           5
   number of lm-projection operators is LMMAX =          13

 POTCAR:    PAW_PBE Pb_d 06Sep2000                
   SHA256 =  fb885b08f0fba73a15f6a6b0e39bd200c13ec96ef97cf3ecd8e63bade5137abd Pb
   COPYR  = (c) Copyright 06Sep2000 Georg Kresse                                
   COPYR  = This file is part of the software VASP. Any use, copying, and all ot
   COPYR  = If you do not have a valid VASP license, you may not use, copy or di
   VRHFIN =Pb:                                                                  
   LEXCH  = PE                                                                  
   EATOM  =  1661.6185 eV,  122.1255 Ry                                         
                                                                                
   TITEL  = PAW_PBE Pb_d 06Sep2000                                              
   LULTRA =        F    use ultrasoft PP ?                                      
   IUNSCR =        1    unscreen: 0-lin 1-nonlin 2-no                           
   RPACOR =    2.200    partial core radius                                     
   POMASS =  207.200; ZVAL   =   14.000    mass and valenz                      
   RCORE  =    2.500    outmost cutoff radius                                   
   RWIGS  =    3.260; RWIGS  =    1.725    wigner-seitz radius (au A)           
   ENMAX  =  237.835; ENMIN  =  178.376 eV                                      
   ICORE  =        3    local potential                                         
   LCOR   =        T    correct aug charges                                     
   LPAW   =        T    paw PP                                                  
   EAUG   =  391.914                                                            
   DEXC   =    0.000                                                            
   RMAX   =    2.565    core radius for proj-oper                               
   RAUG   =    1.300    factor for augmentation sphere                          
   RDEP   =    2.643    radius for radial grids                                 
   RDEPT  =    2.092    core radius for aug-charge                              
                                                                                
   Atomic configuration                                                         
   16 entries                                                                   
     n  l   j            E        occ.                                          
     1  0  0.50    -88091.8466   2.0000                                         
     2  0  0.50    -15753.4197   2.0000                                         
     2  1  1.50    -13508.1797   6.0000                                         
     3  0  0.50     -3781.7194   2.0000                                         
     3  1  1.50     -3138.2529   6.0000                                         
     3  2  2.50     -2483.2977  10.0000                                         
     4  0  0.50      -856.2895   2.0000                                         
     4  1  1.50      -645.4942   6.0000                                         
     4  2  2.50      -401.8768  10.0000                                         
     4  3  3.50      -132.9059  14.0000                                         
     5  0  0.50      -144.0950   2.0000                                         
     5  1  1.50       -85.7879   6.0000                                         
     5  2  2.50       -21.1769  10.0000                                         
     6  0  0.50       -12.0372   2.0000                                         
     6  1  1.50        -3.4971   2.0000                                         
     5  3  2.50        -2.7212   0.0000                                         
   Description                                                                  
     l       E           TYP  RCUT    TYP  RCUT                                 
     2    -21.1768523     23  2.500                                             
     2      1.3605826     23  2.500                                             
     0    -12.0371562     23  2.500                                             
     0     13.6058260     23  2.500                                             
     1     -3.4971339     23  2.500                                             
     1     13.6058260     23  2.500                                             
     3     -1.3605826      7  2.500                                             
  local pseudopotential read in
  partial core-charges read in
  partial kinetic energy density read in
  atomic valenz-charges read in
  non local Contribution for L=           2  read in
    real space projection operators read in
  non local Contribution for L=           2  read in
    real space projection operators read in
  non local Contribution for L=           0  read in
    real space projection operators read in
  non local Contribution for L=           0  read in
    real space projection operators read in
  non local Contribution for L=           1  read in
    real space projection operators read in
  non local Contribution for L=           1  read in
    real space projection operators read in
    PAW grid and wavefunctions read in

   number of l-projection  operators is LMAX  =           6
   number of lm-projection operators is LMMAX =          18

 POTCAR:    PAW_PBE Br 06Sep2000                  
   SHA256 =  96a73d2954943bbee26f4990d676cc6c3bf44b8dd2c75cd4b3b825d8403f0103 Br
   COPYR  = (c) Copyright 06Sep2000 Georg Kresse                                
   COPYR  = This file is part of the software VASP. Any use, copying, and all ot
   COPYR  = If you do not have a valid VASP license, you may not use, copy or di
   VRHFIN =Br: s2p5                                                             
   LEXCH  = PE                                                                  
   EATOM  =   368.4488 eV,   27.0802 Ry                                         
                                                                                
   TITEL  = PAW_PBE Br 06Sep2000                                                
   LULTRA =        F    use ultrasoft PP ?                                      
   IUNSCR =        1    unscreen: 0-lin 1-nonlin 2-no                           
   RPACOR =    1.900    partial core radius                                     
   POMASS =   79.904; ZVAL   =    7.000    mass and valenz                      
   RCORE  =    2.100    outmost cutoff radius                                   
   RWIGS  =    2.200; RWIGS  =    1.164    wigner-seitz radius (au A)           
   ENMAX  =  216.285; ENMIN  =  162.214 eV                                      
   ICORE  =        3    local potential                                         
   LCOR   =        T    correct aug charges                                     
   LPAW   =        T    paw PP                                                  
   EAUG   =  503.852                                                            
   DEXC   =    0.000                                                            
   RMAX   =    2.139    core radius for proj-oper                               
   RAUG   =    1.300    factor for augmentation sphere                          
   RDEP   =    2.186    radius for radial grids                                 
   RDEPT  =    1.890    core radius for aug-charge                              
                                                                                
   Atomic configuration                                                         
   10 entries                                                                   
     n  l   j            E        occ.                                          
     1  0  0.50    -13316.2796   2.0000                                         
     2  0  0.50     -1732.8239   2.0000                                         
     2  1  1.50     -1528.2193   6.0000                                         
     3  0  0.50      -238.0460   2.0000                                         
     3  1  1.50      -173.4609   6.0000                                         
     3  2  2.50       -66.7132  10.0000                                         
     4  0  0.50       -20.1334   2.0000                                         
     4  1  0.50        -7.8591   5.0000                                         
     4  2  2.50        -8.1635   0.0000                                         
     4  3  2.50        -8.1635   0.0000                                         
   Description                                                                  
     l       E           TYP  RCUT    TYP  RCUT                                 
     0    -20.1333652     23  2.100                                             
     0    -21.4939478     23  2.100                                             
     1     -7.8591052     23  2.100                                             
     1     -3.1608434     23  2.100                                             
     2     -8.1634956     23  2.100                                             
     3     -1.3605826      7  2.100                                             
  local pseudopotential read in
  partial core-charges read in
  partial kinetic energy density read in
  atomic valenz-charges read in
  non local Contribution for L=           0  read in
    real space projection operators read in
  non local Contribution for L=           0  read in
    real space projection operators read in
  non local Contribution for L=           1  read in
    real space projection operators read in
  non local Contribution for L=           1  read in
    real space projection operators read in
  non local Contribution for L=           2  read in
    real space projection operators read in
    PAW grid and wavefunctions read in

   number of l-projection  operators is LMAX  =           5
   number of lm-projection operators is LMMAX =          13

 Optimization of the real space projectors (new method)

 maximal supplied QI-value         = 15.12
 optimisation between [QCUT,QGAM] = [  8.77, 17.69] = [ 21.53, 87.61] Ry 
 Optimized for a Real-space Cutoff    1.85 Angstroem

   l    n(q)    QCUT    max X(q) W(low)/X(q) W(high)/X(q)  e(spline) 
   0     10     8.768    25.322    0.81E-04    0.51E-04    0.48E-06
   0     10     8.768    99.187    0.78E-04    0.50E-04    0.47E-06
   1      9     8.768    11.761    0.21E-03    0.20E-03    0.37E-06
   1      9     8.768     8.275    0.24E-03    0.22E-03    0.41E-06
   2      9     8.768     3.829    0.23E-04    0.15E-03    0.18E-06
 Optimization of the real space projectors (new method)

 maximal supplied QI-value         = 15.12
 optimisation between [QCUT,QGAM] = [  8.77, 17.69] = [ 21.53, 87.61] Ry 
 Optimized for a Real-space Cutoff    1.59 Angstroem

   l    n(q)    QCUT    max X(q) W(low)/X(q) W(high)/X(q)  e(spline) 
   2      7     8.768     3.846    0.48E-04    0.11E-03    0.11E-06
   2      7     8.768     8.593    0.20E-03    0.22E-04    0.24E-06
   0      8     8.768    20.082    0.68E-04    0.88E-04    0.41E-07
   0      8     8.768     8.597    0.89E-04    0.13E-03    0.59E-07
   1      8     8.768    33.223    0.15E-03    0.53E-04    0.87E-07
   1      8     8.768    15.899    0.14E-03    0.44E-04    0.78E-07
 Optimization of the real space projectors (new method)

 maximal supplied QI-value         = 17.95
 optimisation between [QCUT,QGAM] = [  8.80, 17.59] = [ 21.67, 86.68] Ry 
 Optimized for a Real-space Cutoff    1.59 Angstroem

   l    n(q)    QCUT    max X(q) W(low)/X(q) W(high)/X(q)  e(spline) 
   0      8     8.797   175.082    0.82E-04    0.14E-03    0.89E-07
   0      8     8.797   174.004    0.79E-04    0.14E-03    0.86E-07
   1      8     8.797    54.315    0.16E-03    0.14E-04    0.30E-06
   1      8     8.797    42.441    0.16E-03    0.14E-04    0.30E-06
   2      7     8.797     3.596    0.92E-04    0.15E-03    0.85E-07
  PAW_PBE Cs_sv 08Apr2002               :
 energy of atom  1       EATOM= -555.6835
 kinetic energy error for atom=    0.0069 (will be added to EATOM!!)
  PAW_PBE Pb_d 06Sep2000                :
 energy of atom  2       EATOM=-1661.6185
 kinetic energy error for atom=    0.0498 (will be added to EATOM!!)
  PAW_PBE Br 06Sep2000                  :
 energy of atom  3       EATOM= -368.4488
 kinetic energy error for atom=    0.0072 (will be added to EATOM!!)


 POSCAR: Cs4 Pb4 Br12                            
  positions in direct lattice
  velocities in cartesian coordinates

 METAGGA = SCAN     LMAXTAU =  6    LMIXTAU =  F

 exchange correlation table for  LEXCH =        8
   RHO(1)=    0.500       N(1)  =     2000
   RHO(2)=  100.500       N(2)  =     4000

 VTST: version 3.2, (02/03/18)

 CHAIN: initializing optimizer
 
 OPT: Using VASP Conjugate-Gradient optimizer
 CHAIN: Read ICHAIN            0

 POSCAR: Cs4 Pb4 Br12                            
  positions in direct lattice
  velocities in cartesian coordinates



--------------------------------------------------------------------------------------------------------


 ion  position               nearest neighbor table
   1  0.063  0.250  0.480-
   2  0.437  0.750  0.980-
   3  0.563  0.250  0.020-
   4  0.937  0.750  0.520-
   5  0.000  0.000  0.000-  15 2.99  18 2.99  16 3.00  17 3.00  10 3.05  11 3.05
   6  0.500  0.000  0.500-  17 2.99  16 2.99  15 3.00  18 3.00   9 3.05  12 3.05
   7  0.500  0.500  0.500-  13 2.99  19 2.99  14 3.00  20 3.00   9 3.05  12 3.05
   8  0.000  0.500  0.000-  14 2.99  20 2.99  19 3.00  13 3.00  10 3.05  11 3.05
   9  0.502  0.750  0.453-   6 3.05   7 3.05
  10  0.998  0.250  0.953-   5 3.05   8 3.05
  11  0.002  0.750  0.047-   5 3.05   8 3.05
  12  0.498  0.250  0.547-   6 3.05   7 3.05
  13  0.308  0.472  0.186-   7 2.99   8 3.00
  14  0.192  0.528  0.686-   8 2.99   7 3.00
  15  0.808  0.028  0.314-   5 2.99   6 3.00
  16  0.692  0.972  0.814-   6 2.99   5 3.00
  17  0.308  0.028  0.186-   6 2.99   5 3.00
  18  0.192  0.972  0.686-   5 2.99   6 3.00
  19  0.692  0.528  0.814-   7 2.99   8 3.00
  20  0.808  0.472  0.314-   8 2.99   7 3.00

  LATTYP: Found a simple orthorhombic cell.
 ALAT       =     7.9319807319
 B/A-ratio  =     1.0591908620
 C/A-ratio  =     1.5275783474
  
  Lattice vectors:
  
 A1 = (   0.0000000000,   0.0000000000,   7.9319807319)
 A2 = (  -8.4014815090,   0.0000000000,   0.0000000000)
 A3 = (   0.0000000000, -12.1167220182,   0.0000000000)


Analysis of symmetry for initial positions (statically):
=====================================================================
 Subroutine PRICEL returns:
 Original cell was already a primitive cell.
 

 Routine SETGRP: Setting up the symmetry group for a 
 simple orthorhombic supercell.


 Subroutine GETGRP returns: Found  8 space group operations
 (whereof  2 operations were pure point group operations)
 out of a pool of  8 trial point group operations.


The static configuration has the point symmetry S_2 .
 The point group associated with its full space group is D_2h.


Analysis of symmetry for dynamics (positions and initial velocities):
=====================================================================
 Subroutine PRICEL returns:
 Original cell was already a primitive cell.
 

 Routine SETGRP: Setting up the symmetry group for a 
 simple orthorhombic supercell.


 Subroutine GETGRP returns: Found  8 space group operations
 (whereof  2 operations were pure point group operations)
 out of a pool of  8 trial point group operations.


The dynamic configuration has the point symmetry S_2 .
 The point group associated with its full space group is D_2h.


 Subroutine INISYM returns: Found  8 space group operations
 (whereof  2 operations are pure point group operations),
 and found     1 'primitive' translations



 KPOINTS: 1x1x1                                   

Automatic generation of k-mesh.
Space group operators:
 irot       det(A)        alpha          n_x          n_y          n_z        tau_x        tau_y        tau_z
    1     1.000000     0.000000     1.000000     0.000000     0.000000     0.000000     0.000000     0.000000
    2    -1.000000     0.000000     1.000000     0.000000     0.000000     0.000000     0.000000     0.000000
    3     1.000000   180.000000     0.000000     1.000000     0.000000     0.000000    -0.500000     0.000000
    4    -1.000000   180.000000     0.000000     1.000000     0.000000     0.000000    -0.500000     0.000000
    5     1.000000   180.000000     1.000000     0.000000     0.000000    -0.500000    -0.500000     0.500000
    6    -1.000000   180.000000     1.000000     0.000000     0.000000    -0.500000    -0.500000     0.500000
    7     1.000000   180.000000     0.000000     0.000000     1.000000    -0.500000     0.000000     0.500000
    8    -1.000000   180.000000     0.000000     0.000000     1.000000    -0.500000     0.000000     0.500000
 
 Subroutine IBZKPT returns following result:
 ===========================================
 
 Found      8 irreducible k-points:
 
 Following reciprocal coordinates:
            Coordinates               Weight
  0.000000  0.000000  0.000000      1.000000
  0.333333  0.000000  0.000000      2.000000
  0.000000  0.500000  0.000000      1.000000
  0.333333  0.500000  0.000000      2.000000
  0.000000  0.000000  0.333333      2.000000
  0.333333  0.000000  0.333333      4.000000
  0.000000  0.500000  0.333333      2.000000
  0.333333  0.500000  0.333333      4.000000
 
 Following cartesian coordinates:
            Coordinates               Weight
  0.000000  0.000000  0.000000      1.000000
  0.039676  0.000000  0.000000      2.000000
  0.000000  0.041265  0.000000      1.000000
  0.039676  0.041265  0.000000      2.000000
  0.000000  0.000000  0.042024      2.000000
  0.039676  0.000000  0.042024      4.000000
  0.000000  0.041265  0.042024      2.000000
  0.039676  0.041265  0.042024      4.000000
 


--------------------------------------------------------------------------------------------------------




 Dimension of arrays:
   k-points           NKPTS =      8   k-points in BZ     NKDIM =      8   number of bands    NBANDS=    112
   number of dos      NEDOS =    301   number of ions     NIONS =     20
   non local maximal  LDIM  =      6   non local SUM 2l+1 LMDIM =     18
   total plane-waves  NPLWV = 161280
   max r-space proj   IRMAX =   5330   max aug-charges    IRDMAX=  85025
   dimension x,y,z NGX =    48 NGY =   70 NGZ =   48
   dimension x,y,z NGXF=    96 NGYF=  140 NGZF=   96
   support grid    NGXF=   192 NGYF=  280 NGZF=  192
   ions per type =               4   4  12
   NGX,Y,Z   is equivalent  to a cutoff of   9.50,  9.60, 10.06 a.u.
   NGXF,Y,Z  is equivalent  to a cutoff of  19.00, 19.21, 20.12 a.u.

 SYSTEM =  CsPbBr3 cubic bulk                      
 POSCAR =  Cs4 Pb4 Br12                            

 Startparameter for this run:
   NWRITE =      2    write-flag & timer
   PREC   = accura    normal or accurate (medium, high low for compatibility)
   ISTART =      0    job   : 0-new  1-cont  2-samecut
   ICHARG =      2    charge: 1-file 2-atom 10-const
   ISPIN  =      1    spin polarized calculation?
   LNONCOLLINEAR =      F non collinear calculations
   LSORBIT =      F    spin-orbit coupling
   INIWAV =      1    electr: 0-lowe 1-rand  2-diag
   LASPH  =      T    aspherical Exc in radial PAW
   METAGGA=      F    non-selfconsistent MetaGGA calc.

 Electronic Relaxation 1
   ENCUT  =  300.0 eV  22.05 Ry    4.70 a.u.  11.87 17.11 11.20*2*pi/ulx,y,z
   ENINI  =  300.0     initial cutoff
   ENAUG  =  503.9 eV  augmentation charge cutoff
   NELM   =    200;   NELMIN=  2; NELMDL= -5     # of ELM steps 
   EDIFF  = 0.1E-05   stopping-criterion for ELM
   LREAL  =      T    real-space projection
   NLSPLINE    = F    spline interpolate recip. space projectors
   LCOMPAT=      F    compatible to vasp.4.4
   GGA_COMPAT  = T    GGA compatible to vasp.4.4-vasp.4.6
   LMAXPAW     = -100 max onsite density
   LMAXMIX     =    2 max onsite mixed and CHGCAR
   VOSKOWN=      0    Vosko Wilk Nusair interpolation
   ROPT   =   -0.00025  -0.00025  -0.00025
 Ionic relaxation
   EDIFFG = -.1E-01   stopping-criterion for IOM
   NSW    =      0    number of steps for IOM
   NBLOCK =      1;   KBLOCK =      1    inner block; outer block 
   IBRION =     -1    ionic relax: 0-MD 1-quasi-New 2-CG
   NFREE  =      1    steps in history (QN), initial steepest desc. (CG)
   ISIF   =      3    stress and relaxation
   IWAVPR =     10    prediction:  0-non 1-charg 2-wave 3-comb
   ISYM   =      2    0-nonsym 1-usesym 2-fastsym
   LCORR  =      T    Harris-Foulkes like correction to forces

   POTIM  = 0.5000    time-step for ionic-motion
   TEIN   =    0.0    initial temperature
   TEBEG  =    0.0;   TEEND  =   0.0 temperature during run
   SMASS  =  -3.00    Nose mass-parameter (am)
   estimated Nose-frequenzy (Omega)   =  0.10E-29 period in steps =****** mass=  -0.161E-26a.u.
   SCALEE = 1.0000    scale energy and forces
   NPACO  =    256;   APACO  = 16.0  distance and # of slots for P.C.
   PSTRESS=    0.0 pullay stress

  Mass of Ions in am
   POMASS = 132.90207.20 79.90
  Ionic Valenz
   ZVAL   =   9.00 14.00  7.00
  Atomic Wigner-Seitz radii
   RWIGS  =  -1.00 -1.00 -1.00
  virtual crystal weights 
   VCA    =   1.00  1.00  1.00
   NELECT =     176.0000    total number of electrons
   NUPDOWN=      -1.0000    fix difference up-down

 DOS related values:
   EMIN   =  10.00;   EMAX   =-10.00  energy-range for DOS
   EFERMI =   0.00
   ISMEAR =     0;   SIGMA  =   0.01  broadening in eV -4-tet -1-fermi 0-gaus

 Electronic relaxation 2 (details)
   IALGO  =     38    algorithm
   LDIAG  =      T    sub-space diagonalisation (order eigenvalues)
   LSUBROT=      F    optimize rotation matrix (better conditioning)
   TURBO    =      0    0=normal 1=particle mesh
   IRESTART =      0    0=no restart 2=restart with 2 vectors
   NREBOOT  =      0    no. of reboots
   NMIN     =      0    reboot dimension
   EREF     =   0.00    reference energy to select bands
   IMIX   =      4    mixing-type and parameters
     AMIX     =   0.40;   BMIX     =  1.00
     AMIX_MAG =   1.60;   BMIX_MAG =  1.00
     AMIN     =   0.10
     WC   =   100.;   INIMIX=   1;  MIXPRE=   1;  MAXMIX= -45

 Intra band minimization:
   WEIMIN = 0.0000     energy-eigenvalue tresh-hold
   EBREAK =  0.22E-08  absolut break condition
   DEPER  =   0.30     relativ break condition  

   TIME   =   0.40     timestep for ELM

  volume/ion in A,a.u.               =      40.37       272.45
  Fermi-wavevector in a.u.,A,eV,Ry     =   0.985231  1.861817 13.206911  0.970681
  Thomas-Fermi vector in A             =   2.116523

 Write flags
   LWAVE        =      F    write WAVECAR
   LDOWNSAMPLE  =      F    k-point downsampling of WAVECAR
   LCHARG       =      F    write CHGCAR
   LVTOT        =      F    write LOCPOT, total local potential
   LVHAR        =      T    write LOCPOT, Hartree potential only
   LELF         =      F    write electronic localiz. function (ELF)
   LORBIT       =     10    0 simple, 1 ext, 2 COOP (PROOUT), +10 PAW based schemes


 Dipole corrections
   LMONO  =      F    monopole corrections only (constant potential shift)
   LDIPOL =      F    correct potential (dipole corrections)
   IDIPOL =      0    1-x, 2-y, 3-z, 4-all directions 
   EPSILON=  1.0000000 bulk dielectric constant

 Exchange correlation treatment:
   GGA     =    --    GGA type
   LEXCH   =     8    internal setting for exchange type
   VOSKOWN=      0    Vosko Wilk Nusair interpolation
   LHFCALC =     F    Hartree Fock is set to
   LHFONE  =     F    Hartree Fock one center treatment
   AEXX    =    0.0000 exact exchange contribution

 Linear response parameters
   LEPSILON=     F    determine dielectric tensor
   LRPA    =     F    only Hartree local field effects (RPA)
   LNABLA  =     F    use nabla operator in PAW spheres
   LVEL    =     F    velocity operator in full k-point grid
   LINTERFAST=   F  fast interpolation
   KINTER  =     0    interpolate to denser k-point grid
   CSHIFT  =0.1000    complex shift for real part using Kramers Kronig
   OMEGAMAX=  -1.0    maximum frequency
   DEG_THRESHOLD= 0.2000000E-02 threshold for treating states as degnerate
   RTIME   =   -0.100 relaxation time in fs
  (WPLASMAI=    0.000 imaginary part of plasma frequency in eV, 0.658/RTIME)
   DFIELD  = 0.0000000 0.0000000 0.0000000 field for delta impulse in time

 Orbital magnetization related:
   ORBITALMAG=     F  switch on orbital magnetization
   LCHIMAG   =     F  perturbation theory with respect to B field
   DQ        =  0.001000  dq finite difference perturbation B field
   LLRAUG    =     F  two centre corrections for induced B field



--------------------------------------------------------------------------------------------------------


 Static calculation
 charge density and potential will be updated during run
 non-spin polarized calculation
 Variant of blocked Davidson
 Davidson routine will perform the subspace rotation
 perform sub-space diagonalisation
    after iterative eigenvector-optimisation
 modified Broyden-mixing scheme, WC =      100.0
 initial mixing is a Kerker type mixing with AMIX =  0.4000 and BMIX =      1.0000
 Hartree-type preconditioning will be used
 using additional bands           24
 real space projection scheme for non local part
 use partial core corrections
 calculate Harris-corrections to forces   (improved forces if not selfconsistent)
 use gradient corrections 
 use of overlap-Matrix (Vanderbilt PP)
 Gauss-broadening in eV      SIGMA  =   0.01


--------------------------------------------------------------------------------------------------------


  energy-cutoff  :      300.00
  volume of cell :      807.46
      direct lattice vectors                 reciprocal lattice vectors
     8.401481509  0.000000000  0.000000000     0.119026626  0.000000000  0.000000000
     0.000000000 12.116722018  0.000000000     0.000000000  0.082530572  0.000000000
     0.000000000  0.000000000  7.931980732     0.000000000  0.000000000  0.126071915

  length of vectors
     8.401481509 12.116722018  7.931980732     0.119026626  0.082530572  0.126071915



 k-points in units of 2pi/SCALE and weight: 1x1x1                                   
   0.00000000  0.00000000  0.00000000       0.056
   0.03967554  0.00000000  0.00000000       0.111
   0.00000000  0.04126529  0.00000000       0.056
   0.03967554  0.04126529  0.00000000       0.111
   0.00000000  0.00000000  0.04202397       0.111
   0.03967554  0.00000000  0.04202397       0.222
   0.00000000  0.04126529  0.04202397       0.111
   0.03967554  0.04126529  0.04202397       0.222

 k-points in reciprocal lattice and weights: 1x1x1                                   
   0.00000000  0.00000000  0.00000000       0.056
   0.33333333  0.00000000  0.00000000       0.111
   0.00000000  0.50000000  0.00000000       0.056
   0.33333333  0.50000000  0.00000000       0.111
   0.00000000  0.00000000  0.33333333       0.111
   0.33333333  0.00000000  0.33333333       0.222
   0.00000000  0.50000000  0.33333333       0.111
   0.33333333  0.50000000  0.33333333       0.222

 position of ions in fractional coordinates (direct lattice) 
   0.06280470  0.25000000  0.47959687
   0.43719530  0.75000000  0.97959687
   0.56280470  0.25000000  0.02040313
   0.93719530  0.75000000  0.52040313
   0.00000000  0.00000000  0.00000000
   0.50000000  0.00000000  0.50000000
   0.50000000  0.50000000  0.50000000
   0.00000000  0.50000000  0.00000000
   0.50197573  0.75000000  0.45339607
   0.99802427  0.25000000  0.95339607
   0.00197573  0.75000000  0.04660393
   0.49802427  0.25000000  0.54660393
   0.30764996  0.47203110  0.18599845
   0.19235004  0.52796890  0.68599845
   0.80764996  0.02796890  0.31400155
   0.69235004  0.97203110  0.81400155
   0.30764996  0.02796890  0.18599845
   0.19235004  0.97203110  0.68599845
   0.69235004  0.52796890  0.81400155
   0.80764996  0.47203110  0.31400155

 position of ions in cartesian coordinates  (Angst):
   0.52765256  3.02918050  3.80415316
   3.67308820  9.08754151  7.77014353
   4.72839331  3.02918050  0.16183721
   7.87382895  9.08754151  4.12782757
   0.00000000  0.00000000  0.00000000
   4.20074075  0.00000000  3.96599037
   4.20074075  6.05836101  3.96599037
   0.00000000  6.05836101  0.00000000
   4.21733985  9.08754151  3.59632891
   8.38488242  3.02918050  7.56231928
   0.01659909  9.08754151  0.36966145
   4.18414166  3.02918050  4.33565182
   2.58471548  5.71946960  1.47533610
   1.61602528  6.39725241  5.44132647
   6.78545623  0.33889140  2.49065426
   5.81676603 11.77783061  6.45664463
   2.58471548  0.33889140  1.47533610
   1.61602528 11.77783061  5.44132647
   5.81676603  6.39725241  6.45664463
   6.78545623  5.71946960  2.49065426



--------------------------------------------------------------------------------------------------------


 k-point  1 :   0.0000 0.0000 0.0000  plane waves:    9571
 k-point  2 :   0.3333 0.0000 0.0000  plane waves:    9510
 k-point  3 :   0.0000 0.5000 0.0000  plane waves:    9498
 k-point  4 :   0.3333 0.5000 0.0000  plane waves:    9524
 k-point  5 :   0.0000 0.0000 0.3333  plane waves:    9504
 k-point  6 :   0.3333 0.0000 0.3333  plane waves:    9527
 k-point  7 :   0.0000 0.5000 0.3333  plane waves:    9514
 k-point  8 :   0.3333 0.5000 0.3333  plane waves:    9536

 maximum and minimum number of plane-waves per node :      1216     1168

 maximum number of plane-waves:      9571
 maximum index in each direction: 
   IXMAX=   11   IYMAX=   17   IZMAX=   11
   IXMIN=  -12   IYMIN=  -17   IZMIN=  -11


 real space projection operators:
  total allocation   :       7923.12 KBytes
  max/ min on nodes  :       1037.94        945.94


 parallel 3D FFT for wavefunctions:
    minimum data exchange during FFTs selected (reduces bandwidth)
 parallel 3D FFT for charge:
    minimum data exchange during FFTs selected (reduces bandwidth)


 total amount of memory used by VASP MPI-rank0    42333. kBytes
=======================================================================

   base      :      30000. kBytes
   nonlr-proj:       2959. kBytes
   fftplans  :       3668. kBytes
   grid      :       3424. kBytes
   one-center:         46. kBytes
   wavefun   :       2236. kBytes

     INWAV:  cpu time    0.0000: real time    0.0000
 Broyden mixing: mesh for mixing (old mesh)
   NGX = 23   NGY = 35   NGZ = 23
  (NGX  = 96   NGY  =140   NGZ  = 96)
  gives a total of  18515 points

 initial charge density was supplied:
 charge density of overlapping atoms calculated
 number of electron     176.0000000 magnetization 
 keeping initial charge density in first step


--------------------------------------------------------------------------------------------------------


 Maximum index for non-local projection operator          612
 Maximum index for augmentation-charges         2335 (set IRDMAX)


--------------------------------------------------------------------------------------------------------


 First call to EWALD:  gamma=   0.190
 Maximum number of real-space cells 3x 2x 3
 Maximum number of reciprocal cells 3x 3x 2

    FEWALD:  cpu time    0.0022: real time    0.0022


--------------------------------------- Iteration      1(   1)  ---------------------------------------


    POTLOK:  cpu time    0.1284: real time    0.1424
    SETDIJ:  cpu time    1.0899: real time    1.0899
     EDDAV:  cpu time    3.9651: real time    3.9693
       DOS:  cpu time    0.0004: real time    0.0003
    --------------------------------------------
      LOOP:  cpu time    5.1837: real time    5.2020

 eigenvalue-minimisations  :  1856
 total energy-change (2. order) : 0.6635902E+03  (-0.5602896E+04)
 number of electron     176.0000000 magnetization 
 augmentation part      176.0000000 magnetization 

 Free energy of the ion-electron system (eV)
  ---------------------------------------------------
  alpha Z        PSCENC =       446.84264249
  Ewald energy   TEWEN  =     -9216.00586227
  -Hartree energ DENC   =     -3659.66910474
  -exchange      EXHF   =         0.00000000
  -V(xc)+E(xc)   XCENC  =       461.79984491
  PAW double counting   =     10816.98087266   -11353.96092700
  entropy T*S    EENTRO =        -0.00000000
  eigenvalues    EBANDS =      -122.67740344
  atomic energy  EATOM  =     13290.28009929
  Solvation  Ediel_sol  =         0.00000000
  ---------------------------------------------------
  free energy    TOTEN  =       663.59016190 eV

  energy without entropy =      663.59016190  energy(sigma->0) =      663.59016190


--------------------------------------------------------------------------------------------------------




--------------------------------------- Iteration      1(   2)  ---------------------------------------


     EDDAV:  cpu time    4.4242: real time    4.4667
       DOS:  cpu time    0.0003: real time    0.0003
    --------------------------------------------
      LOOP:  cpu time    4.4245: real time    4.4670

 eigenvalue-minimisations  :  2184
 total energy-change (2. order) :-0.1237916E+04  (-0.1183916E+04)
 number of electron     176.0000000 magnetization 
 augmentation part      176.0000000 magnetization 

 Free energy of the ion-electron system (eV)
  ---------------------------------------------------
  alpha Z        PSCENC =       446.84264249
  Ewald energy   TEWEN  =     -9216.00586227
  -Hartree energ DENC   =     -3659.66910474
  -exchange      EXHF   =         0.00000000
  -V(xc)+E(xc)   XCENC  =       461.79984491
  PAW double counting   =     10816.98087266   -11353.96092700
  entropy T*S    EENTRO =        -0.00000000
  eigenvalues    EBANDS =     -1360.59360892
  atomic energy  EATOM  =     13290.28009929
  Solvation  Ediel_sol  =         0.00000000
  ---------------------------------------------------
  free energy    TOTEN  =      -574.32604358 eV

  energy without entropy =     -574.32604358  energy(sigma->0) =     -574.32604358


--------------------------------------------------------------------------------------------------------




--------------------------------------- Iteration      1(   3)  ---------------------------------------


     EDDAV:  cpu time    4.7778: real time    4.8096
       DOS:  cpu time    0.0003: real time    0.0003
    --------------------------------------------
      LOOP:  cpu time    4.7781: real time    4.8099

 eigenvalue-minimisations  :  2448
 total energy-change (2. order) :-0.1749170E+03  (-0.1738103E+03)
 number of electron     176.0000000 magnetization 
 augmentation part      176.0000000 magnetization 

 Free energy of the ion-electron system (eV)
  ---------------------------------------------------
  alpha Z        PSCENC =       446.84264249
  Ewald energy   TEWEN  =     -9216.00586227
  -Hartree energ DENC   =     -3659.66910474
  -exchange      EXHF   =         0.00000000
  -V(xc)+E(xc)   XCENC  =       461.79984491
  PAW double counting   =     10816.98087266   -11353.96092700
  entropy T*S    EENTRO =        -0.00000000
  eigenvalues    EBANDS =     -1535.51062949
  atomic energy  EATOM  =     13290.28009929
  Solvation  Ediel_sol  =         0.00000000
  ---------------------------------------------------
  free energy    TOTEN  =      -749.24306415 eV

  energy without entropy =     -749.24306415  energy(sigma->0) =     -749.24306415


--------------------------------------------------------------------------------------------------------




--------------------------------------- Iteration      1(   4)  ---------------------------------------


     EDDAV:  cpu time    4.3778: real time    4.4224
       DOS:  cpu time    0.0003: real time    0.0003
    --------------------------------------------
      LOOP:  cpu time    4.3781: real time    4.4227

 eigenvalue-minimisations  :  2160
 total energy-change (2. order) :-0.5284124E+01  (-0.5267760E+01)
 number of electron     176.0000000 magnetization 
 augmentation part      176.0000000 magnetization 

 Free energy of the ion-electron system (eV)
  ---------------------------------------------------
  alpha Z        PSCENC =       446.84264249
  Ewald energy   TEWEN  =     -9216.00586227
  -Hartree energ DENC   =     -3659.66910474
  -exchange      EXHF   =         0.00000000
  -V(xc)+E(xc)   XCENC  =       461.79984491
  PAW double counting   =     10816.98087266   -11353.96092700
  entropy T*S    EENTRO =        -0.00000000
  eigenvalues    EBANDS =     -1540.79475392
  atomic energy  EATOM  =     13290.28009929
  Solvation  Ediel_sol  =         0.00000000
  ---------------------------------------------------
  free energy    TOTEN  =      -754.52718858 eV

  energy without entropy =     -754.52718858  energy(sigma->0) =     -754.52718858


--------------------------------------------------------------------------------------------------------




--------------------------------------- Iteration      1(   5)  ---------------------------------------


     EDDAV:  cpu time    4.6762: real time    4.7171
       DOS:  cpu time    0.0004: real time    0.0004
    CHARGE:  cpu time    0.8661: real time    0.8661
    MIXING:  cpu time    0.0009: real time    0.0009
    --------------------------------------------
      LOOP:  cpu time    5.5435: real time    5.5845

 eigenvalue-minimisations  :  2384
 total energy-change (2. order) :-0.2343672E+00  (-0.2342330E+00)
 number of electron     175.9999999 magnetization 
 augmentation part       -3.2445275 magnetization 

 Broyden mixing:
  rms(total) = 0.70083E+00    rms(broyden)= 0.70058E+00
  rms(prec ) = 0.96485E+00
  weight for this iteration     100.00

 Free energy of the ion-electron system (eV)
  ---------------------------------------------------
  alpha Z        PSCENC =       446.84264249
  Ewald energy   TEWEN  =     -9216.00586227
  -Hartree energ DENC   =     -3659.66910474
  -exchange      EXHF   =         0.00000000
  -V(xc)+E(xc)   XCENC  =       461.79984491
  PAW double counting   =     10816.98087266   -11353.96092700
  entropy T*S    EENTRO =        -0.00000000
  eigenvalues    EBANDS =     -1541.02912114
  atomic energy  EATOM  =     13290.28009929
  Solvation  Ediel_sol  =         0.00000000
  ---------------------------------------------------
  free energy    TOTEN  =      -754.76155580 eV

  energy without entropy =     -754.76155580  energy(sigma->0) =     -754.76155580


--------------------------------------------------------------------------------------------------------




--------------------------------------- Iteration      1(   6)  ---------------------------------------


    POTLOK:  cpu time    0.1296: real time    0.1550
    SETDIJ:  cpu time    1.0883: real time    1.0884
     EDDAV:  cpu time    4.6838: real time    4.6841
       DOS:  cpu time    0.0004: real time    0.0004
    CHARGE:  cpu time    0.8390: real time    0.8390
    MIXING:  cpu time    0.0009: real time    0.0009
    --------------------------------------------
      LOOP:  cpu time    6.7420: real time    6.7677

 eigenvalue-minimisations  :  2400
 total energy-change (2. order) : 0.3979848E+02  (-0.1182770E+01)
 number of electron     175.9999999 magnetization 
 augmentation part       -2.5154683 magnetization 

 Broyden mixing:
  rms(total) = 0.50031E+00    rms(broyden)= 0.50023E+00
  rms(prec ) = 0.61739E+00
  weight for this iteration     100.00

 eigenvalues of (default mixing * dielectric matrix)
  average eigenvalue GAMMA=   1.1521
  1.1521

 Free energy of the ion-electron system (eV)
  ---------------------------------------------------
  alpha Z        PSCENC =       446.84264249
  Ewald energy   TEWEN  =     -9216.00586227
  -Hartree energ DENC   =     -3649.77544097
  -exchange      EXHF   =         0.00000000
  -V(xc)+E(xc)   XCENC  =       477.27472304
  PAW double counting   =     10956.97407689   -11492.99739814
  entropy T*S    EENTRO =        -0.00000000
  eigenvalues    EBANDS =     -1527.55591778
  atomic energy  EATOM  =     13290.28009929
  Solvation  Ediel_sol  =         0.00000000
  ---------------------------------------------------
  free energy    TOTEN  =      -714.96307745 eV

  energy without entropy =     -714.96307745  energy(sigma->0) =     -714.96307745


--------------------------------------------------------------------------------------------------------




--------------------------------------- Iteration      1(   7)  ---------------------------------------


    POTLOK:  cpu time    0.1640: real time    0.1774
    SETDIJ:  cpu time    1.0895: real time    1.0897
     EDDAV:  cpu time    4.4075: real time    4.4077
       DOS:  cpu time    0.0003: real time    0.0003
    CHARGE:  cpu time    0.8359: real time    0.8359
    MIXING:  cpu time    0.0009: real time    0.0009
    --------------------------------------------
      LOOP:  cpu time    6.4981: real time    6.5120

 eigenvalue-minimisations  :  2200
 total energy-change (2. order) : 0.2411241E+00  (-0.3848960E+00)
 number of electron     175.9999999 magnetization 
 augmentation part       -2.2533298 magnetization 

 Broyden mixing:
  rms(total) = 0.25886E+00    rms(broyden)= 0.25885E+00
  rms(prec ) = 0.28313E+00
  weight for this iteration     100.00

 eigenvalues of (default mixing * dielectric matrix)
  average eigenvalue GAMMA=   1.3159
  1.3159  1.3159

 Free energy of the ion-electron system (eV)
  ---------------------------------------------------
  alpha Z        PSCENC =       446.84264249
  Ewald energy   TEWEN  =     -9216.00586227
  -Hartree energ DENC   =     -3669.31934996
  -exchange      EXHF   =         0.00000000
  -V(xc)+E(xc)   XCENC  =       479.85134563
  PAW double counting   =     11257.04788476   -11792.11432142
  entropy T*S    EENTRO =        -0.00000000
  eigenvalues    EBANDS =     -1511.30439188
  atomic energy  EATOM  =     13290.28009929
  Solvation  Ediel_sol  =         0.00000000
  ---------------------------------------------------
  free energy    TOTEN  =      -714.72195335 eV

  energy without entropy =     -714.72195335  energy(sigma->0) =     -714.72195335


--------------------------------------------------------------------------------------------------------




--------------------------------------- Iteration      1(   8)  ---------------------------------------


    POTLOK:  cpu time    0.1446: real time    0.1765
    SETDIJ:  cpu time    1.0900: real time    1.0900
     EDDAV:  cpu time    4.3903: real time    4.3906
       DOS:  cpu time    0.0004: real time    0.0004
    CHARGE:  cpu time    0.8384: real time    0.8385
    MIXING:  cpu time    0.0009: real time    0.0009
    --------------------------------------------
      LOOP:  cpu time    6.4645: real time    6.4968

 eigenvalue-minimisations  :  2184
 total energy-change (2. order) :-0.9683206E-01  (-0.1846980E-01)
 number of electron     175.9999999 magnetization 
 augmentation part       -2.2951776 magnetization 

 Broyden mixing:
  rms(total) = 0.14805E+00    rms(broyden)= 0.14805E+00
  rms(prec ) = 0.16346E+00
  weight for this iteration     100.00

 eigenvalues of (default mixing * dielectric matrix)
  average eigenvalue GAMMA=   1.7123
  1.1042  1.3098  2.7229

 Free energy of the ion-electron system (eV)
  ---------------------------------------------------
  alpha Z        PSCENC =       446.84264249
  Ewald energy   TEWEN  =     -9216.00586227
  -Hartree energ DENC   =     -3671.52666507
  -exchange      EXHF   =         0.00000000
  -V(xc)+E(xc)   XCENC  =       480.21524557
  PAW double counting   =     11376.65617924   -11911.86282956
  entropy T*S    EENTRO =        -0.00000000
  eigenvalues    EBANDS =     -1509.41759510
  atomic energy  EATOM  =     13290.28009929
  Solvation  Ediel_sol  =         0.00000000
  ---------------------------------------------------
  free energy    TOTEN  =      -714.81878541 eV

  energy without entropy =     -714.81878541  energy(sigma->0) =     -714.81878541


--------------------------------------------------------------------------------------------------------




--------------------------------------- Iteration      1(   9)  ---------------------------------------


    POTLOK:  cpu time    0.1652: real time    0.1966
    SETDIJ:  cpu time    1.0904: real time    1.0904
     EDDAV:  cpu time    4.0770: real time    4.0771
       DOS:  cpu time    0.0007: real time    0.0007
    CHARGE:  cpu time    0.8358: real time    0.8359
    MIXING:  cpu time    0.0012: real time    0.0012
    --------------------------------------------
      LOOP:  cpu time    6.1703: real time    6.2019

 eigenvalue-minimisations  :  1952
 total energy-change (2. order) :-0.4153002E-01  (-0.8531804E-02)
 number of electron     175.9999999 magnetization 
 augmentation part       -2.3169246 magnetization 

 Broyden mixing:
  rms(total) = 0.32062E-01    rms(broyden)= 0.32059E-01
  rms(prec ) = 0.34298E-01
  weight for this iteration     100.00

 eigenvalues of (default mixing * dielectric matrix)
  average eigenvalue GAMMA=   1.4659
  2.5545  1.2417  1.2417  0.8258

 Free energy of the ion-electron system (eV)
  ---------------------------------------------------
  alpha Z        PSCENC =       446.84264249
  Ewald energy   TEWEN  =     -9216.00586227
  -Hartree energ DENC   =     -3674.03978225
  -exchange      EXHF   =         0.00000000
  -V(xc)+E(xc)   XCENC  =       481.22419847
  PAW double counting   =     11545.81945196   -12081.37219274
  entropy T*S    EENTRO =        -0.00000000
  eigenvalues    EBANDS =     -1507.60887039
  atomic energy  EATOM  =     13290.28009929
  Solvation  Ediel_sol  =         0.00000000
  ---------------------------------------------------
  free energy    TOTEN  =      -714.86031543 eV

  energy without entropy =     -714.86031543  energy(sigma->0) =     -714.86031543


--------------------------------------------------------------------------------------------------------




--------------------------------------- Iteration      1(  10)  ---------------------------------------


    POTLOK:  cpu time    0.1459: real time    0.1774
    SETDIJ:  cpu time    1.0903: real time    1.0903
     EDDAV:  cpu time    4.9558: real time    4.9561
       DOS:  cpu time    0.0003: real time    0.0003
    CHARGE:  cpu time    0.8375: real time    0.8375
    MIXING:  cpu time    0.0009: real time    0.0009
    --------------------------------------------
      LOOP:  cpu time    7.0308: real time    7.0626

 eigenvalue-minimisations  :  2608
 total energy-change (2. order) :-0.9316774E-03  (-0.5099373E-03)
 number of electron     175.9999999 magnetization 
 augmentation part       -2.3101957 magnetization 

 Broyden mixing:
  rms(total) = 0.18798E-01    rms(broyden)= 0.18798E-01
  rms(prec ) = 0.20822E-01
  weight for this iteration     100.00

 eigenvalues of (default mixing * dielectric matrix)
  average eigenvalue GAMMA=   1.5794
  2.3980  2.3980  1.1262  1.1262  0.8483

 Free energy of the ion-electron system (eV)
  ---------------------------------------------------
  alpha Z        PSCENC =       446.84264249
  Ewald energy   TEWEN  =     -9216.00586227
  -Hartree energ DENC   =     -3673.16222497
  -exchange      EXHF   =         0.00000000
  -V(xc)+E(xc)   XCENC  =       481.11998863
  PAW double counting   =     11529.09732176   -12064.69419357
  entropy T*S    EENTRO =        -0.00000000
  eigenvalues    EBANDS =     -1508.33901848
  atomic energy  EATOM  =     13290.28009929
  Solvation  Ediel_sol  =         0.00000000
  ---------------------------------------------------
  free energy    TOTEN  =      -714.86124711 eV

  energy without entropy =     -714.86124711  energy(sigma->0) =     -714.86124711


--------------------------------------------------------------------------------------------------------




--------------------------------------- Iteration      1(  11)  ---------------------------------------


    POTLOK:  cpu time    0.1322: real time    0.1743
    SETDIJ:  cpu time    1.0901: real time    1.0901
     EDDAV:  cpu time    4.0895: real time    4.0897
       DOS:  cpu time    0.0003: real time    0.0003
    CHARGE:  cpu time    0.8299: real time    0.8299
    MIXING:  cpu time    0.0013: real time    0.0013
    --------------------------------------------
      LOOP:  cpu time    6.1433: real time    6.1856

 eigenvalue-minimisations  :  1960
 total energy-change (2. order) :-0.1555433E-02  (-0.1640807E-03)
 number of electron     175.9999999 magnetization 
 augmentation part       -2.3098442 magnetization 

 Broyden mixing:
  rms(total) = 0.65069E-02    rms(broyden)= 0.65066E-02
  rms(prec ) = 0.79613E-02
  weight for this iteration     100.00

 eigenvalues of (default mixing * dielectric matrix)
  average eigenvalue GAMMA=   1.5765
  2.5920  2.5920  1.2248  1.2248  0.9128  0.9128

 Free energy of the ion-electron system (eV)
  ---------------------------------------------------
  alpha Z        PSCENC =       446.84264249
  Ewald energy   TEWEN  =     -9216.00586227
  -Hartree energ DENC   =     -3671.88621638
  -exchange      EXHF   =         0.00000000
  -V(xc)+E(xc)   XCENC  =       481.07566633
  PAW double counting   =     11515.60774265   -12051.36182881
  entropy T*S    EENTRO =        -0.00000000
  eigenvalues    EBANDS =     -1509.41504585
  atomic energy  EATOM  =     13290.28009929
  Solvation  Ediel_sol  =         0.00000000
  ---------------------------------------------------
  free energy    TOTEN  =      -714.86280254 eV

  energy without entropy =     -714.86280254  energy(sigma->0) =     -714.86280254


--------------------------------------------------------------------------------------------------------




--------------------------------------- Iteration      1(  12)  ---------------------------------------


    POTLOK:  cpu time    0.1294: real time    0.1558
    SETDIJ:  cpu time    1.0886: real time    1.0887
     EDDAV:  cpu time    4.2522: real time    4.2523
       DOS:  cpu time    0.0003: real time    0.0003
    CHARGE:  cpu time    0.8243: real time    0.8243
    MIXING:  cpu time    0.0010: real time    0.0010
    --------------------------------------------
      LOOP:  cpu time    6.2959: real time    6.3225

 eigenvalue-minimisations  :  2080
 total energy-change (2. order) :-0.1482985E-03  (-0.4507117E-04)
 number of electron     175.9999999 magnetization 
 augmentation part       -2.3115832 magnetization 

 Broyden mixing:
  rms(total) = 0.23522E-02    rms(broyden)= 0.23516E-02
  rms(prec ) = 0.26490E-02
  weight for this iteration     100.00

 eigenvalues of (default mixing * dielectric matrix)
  average eigenvalue GAMMA=   1.6370
  3.0654  2.3340  1.9081  1.1862  1.0501  0.9577  0.9577

 Free energy of the ion-electron system (eV)
  ---------------------------------------------------
  alpha Z        PSCENC =       446.84264249
  Ewald energy   TEWEN  =     -9216.00586227
  -Hartree energ DENC   =     -3671.98929208
  -exchange      EXHF   =         0.00000000
  -V(xc)+E(xc)   XCENC  =       481.13563960
  PAW double counting   =     11520.12159297   -12055.92831555
  entropy T*S    EENTRO =        -0.00000000
  eigenvalues    EBANDS =     -1509.31945529
  atomic energy  EATOM  =     13290.28009929
  Solvation  Ediel_sol  =         0.00000000
  ---------------------------------------------------
  free energy    TOTEN  =      -714.86295084 eV

  energy without entropy =     -714.86295084  energy(sigma->0) =     -714.86295084


--------------------------------------------------------------------------------------------------------




--------------------------------------- Iteration      1(  13)  ---------------------------------------


    POTLOK:  cpu time    0.1386: real time    0.1582
    SETDIJ:  cpu time    1.0898: real time    1.0898
     EDDAV:  cpu time    4.4944: real time    4.4946
       DOS:  cpu time    0.0004: real time    0.0004
    CHARGE:  cpu time    0.8327: real time    0.8327
    MIXING:  cpu time    0.0012: real time    0.0012
    --------------------------------------------
      LOOP:  cpu time    6.5570: real time    6.5769

 eigenvalue-minimisations  :  2264
 total energy-change (2. order) :-0.5917771E-05  (-0.4527681E-05)
 number of electron     175.9999999 magnetization 
 augmentation part       -2.3115683 magnetization 

 Broyden mixing:
  rms(total) = 0.74366E-03    rms(broyden)= 0.74295E-03
  rms(prec ) = 0.80169E-03
  weight for this iteration     100.00

 eigenvalues of (default mixing * dielectric matrix)
  average eigenvalue GAMMA=   1.6504
  2.9785  2.3237  2.3237  1.3243  1.3243  0.9456  0.9917  0.9917

 Free energy of the ion-electron system (eV)
  ---------------------------------------------------
  alpha Z        PSCENC =       446.84264249
  Ewald energy   TEWEN  =     -9216.00586227
  -Hartree energ DENC   =     -3672.14489812
  -exchange      EXHF   =         0.00000000
  -V(xc)+E(xc)   XCENC  =       481.14919091
  PAW double counting   =     11518.78569372   -12054.59884456
  entropy T*S    EENTRO =        -0.00000000
  eigenvalues    EBANDS =     -1509.17097822
  atomic energy  EATOM  =     13290.28009929
  Solvation  Ediel_sol  =         0.00000000
  ---------------------------------------------------
  free energy    TOTEN  =      -714.86295676 eV

  energy without entropy =     -714.86295676  energy(sigma->0) =     -714.86295676


--------------------------------------------------------------------------------------------------------




--------------------------------------- Iteration      1(  14)  ---------------------------------------


    POTLOK:  cpu time    0.1390: real time    0.1592
    SETDIJ:  cpu time    1.0886: real time    1.0886
     EDDAV:  cpu time    3.9303: real time    3.9305
       DOS:  cpu time    0.0004: real time    0.0004
    CHARGE:  cpu time    0.8379: real time    0.8380
    MIXING:  cpu time    0.0012: real time    0.0012
    --------------------------------------------
      LOOP:  cpu time    5.9974: real time    6.0178

 eigenvalue-minimisations  :  1816
 total energy-change (2. order) :-0.8136394E-05  (-0.3804272E-06)
 number of electron     175.9999999 magnetization 
 augmentation part       -2.3113636 magnetization 

 Broyden mixing:
  rms(total) = 0.20533E-03    rms(broyden)= 0.20300E-03
  rms(prec ) = 0.25339E-03
  weight for this iteration     100.00

 eigenvalues of (default mixing * dielectric matrix)
  average eigenvalue GAMMA=   1.6361
  2.9600  2.5329  2.0259  2.0259  1.1497  1.1497  0.9329  0.9739  0.9739

 Free energy of the ion-electron system (eV)
  ---------------------------------------------------
  alpha Z        PSCENC =       446.84264249
  Ewald energy   TEWEN  =     -9216.00586227
  -Hartree energ DENC   =     -3672.16043130
  -exchange      EXHF   =         0.00000000
  -V(xc)+E(xc)   XCENC  =       481.14922290
  PAW double counting   =     11518.46482069   -12054.27373920
  entropy T*S    EENTRO =        -0.00000000
  eigenvalues    EBANDS =     -1509.15971750
  atomic energy  EATOM  =     13290.28009929
  Solvation  Ediel_sol  =         0.00000000
  ---------------------------------------------------
  free energy    TOTEN  =      -714.86296489 eV

  energy without entropy =     -714.86296489  energy(sigma->0) =     -714.86296489


--------------------------------------------------------------------------------------------------------




--------------------------------------- Iteration      1(  15)  ---------------------------------------


    POTLOK:  cpu time    0.1195: real time    0.1451
    SETDIJ:  cpu time    1.0903: real time    1.0903
     EDDAV:  cpu time    3.5416: real time    3.5417
       DOS:  cpu time    0.0004: real time    0.0004
    CHARGE:  cpu time    0.8267: real time    0.8267
    MIXING:  cpu time    0.0011: real time    0.0011
    --------------------------------------------
      LOOP:  cpu time    5.5797: real time    5.6054

 eigenvalue-minimisations  :  1512
 total energy-change (2. order) :-0.4612874E-05  (-0.1879664E-06)
 number of electron     175.9999999 magnetization 
 augmentation part       -2.3113935 magnetization 

 Broyden mixing:
  rms(total) = 0.12649E-03    rms(broyden)= 0.12274E-03
  rms(prec ) = 0.13646E-03
  weight for this iteration     100.00

 eigenvalues of (default mixing * dielectric matrix)
  average eigenvalue GAMMA=   1.5869
  2.8576  2.8576  2.1900  2.1900  1.1680  1.1680  0.9992  0.9992  0.9277  0.5121

 Free energy of the ion-electron system (eV)
  ---------------------------------------------------
  alpha Z        PSCENC =       446.84264249
  Ewald energy   TEWEN  =     -9216.00586227
  -Hartree energ DENC   =     -3672.14573200
  -exchange      EXHF   =         0.00000000
  -V(xc)+E(xc)   XCENC  =       481.14831475
  PAW double counting   =     11518.46936390   -12054.28252727
  entropy T*S    EENTRO =        -0.00000000
  eigenvalues    EBANDS =     -1509.16926840
  atomic energy  EATOM  =     13290.28009929
  Solvation  Ediel_sol  =         0.00000000
  ---------------------------------------------------
  free energy    TOTEN  =      -714.86296951 eV

  energy without entropy =     -714.86296951  energy(sigma->0) =     -714.86296951


--------------------------------------------------------------------------------------------------------




--------------------------------------- Iteration      1(  16)  ---------------------------------------


    POTLOK:  cpu time    0.1428: real time    0.1781
    SETDIJ:  cpu time    1.0893: real time    1.0894
     EDDAV:  cpu time    3.4378: real time    3.4380
       DOS:  cpu time    0.0004: real time    0.0004
    CHARGE:  cpu time    0.8296: real time    0.8297
    MIXING:  cpu time    0.0012: real time    0.0012
    --------------------------------------------
      LOOP:  cpu time    5.5010: real time    5.5368

 eigenvalue-minimisations  :  1424
 total energy-change (2. order) : 0.2121140E-05  (-0.1445843E-06)
 number of electron     175.9999999 magnetization 
 augmentation part       -2.3114224 magnetization 

 Broyden mixing:
  rms(total) = 0.75127E-04    rms(broyden)= 0.68620E-04
  rms(prec ) = 0.77810E-04
  weight for this iteration     100.00

 eigenvalues of (default mixing * dielectric matrix)
  average eigenvalue GAMMA=   1.5437
  3.0957  2.6248  2.6248  1.7686  1.3661  1.1447  1.1447  0.9429  0.9429  0.9304
  0.3953

 Free energy of the ion-electron system (eV)
  ---------------------------------------------------
  alpha Z        PSCENC =       446.84264249
  Ewald energy   TEWEN  =     -9216.00586227
  -Hartree energ DENC   =     -3672.14766912
  -exchange      EXHF   =         0.00000000
  -V(xc)+E(xc)   XCENC  =       481.14844873
  PAW double counting   =     11518.44901361   -12054.25810165
  entropy T*S    EENTRO =        -0.00000000
  eigenvalues    EBANDS =     -1509.17153847
  atomic energy  EATOM  =     13290.28009929
  Solvation  Ediel_sol  =         0.00000000
  ---------------------------------------------------
  free energy    TOTEN  =      -714.86296739 eV

  energy without entropy =     -714.86296739  energy(sigma->0) =     -714.86296739


--------------------------------------------------------------------------------------------------------




--------------------------------------- Iteration      1(  17)  ---------------------------------------


    POTLOK:  cpu time    0.1274: real time    0.1635
    SETDIJ:  cpu time    1.0883: real time    1.0883
     EDDAV:  cpu time    3.0589: real time    3.0591
       DOS:  cpu time    0.0004: real time    0.0004
    CHARGE:  cpu time    0.8390: real time    0.8390
    MIXING:  cpu time    0.0012: real time    0.0012
    --------------------------------------------
      LOOP:  cpu time    5.1152: real time    5.1515

 eigenvalue-minimisations  :  1128
 total energy-change (2. order) : 0.1727597E-05  (-0.9015144E-08)
 number of electron     175.9999999 magnetization 
 augmentation part       -2.3114214 magnetization 

 Broyden mixing:
  rms(total) = 0.59471E-04    rms(broyden)= 0.51010E-04
  rms(prec ) = 0.55245E-04
  weight for this iteration     100.00
  WARNING: grid for Broyden might be to small

 eigenvalues of (default mixing * dielectric matrix)
  average eigenvalue GAMMA=   1.6246
  3.0671  3.0671  2.5175  2.0479  2.0479  1.1672  1.1672  1.0032  1.0032  0.9770
  0.9770  0.4533

 Free energy of the ion-electron system (eV)
  ---------------------------------------------------
  alpha Z        PSCENC =       446.84264249
  Ewald energy   TEWEN  =     -9216.00586227
  -Hartree energ DENC   =     -3672.15270111
  -exchange      EXHF   =         0.00000000
  -V(xc)+E(xc)   XCENC  =       481.14888394
  PAW double counting   =     11518.44915038   -12054.25819847
  entropy T*S    EENTRO =        -0.00000000
  eigenvalues    EBANDS =     -1509.16697992
  atomic energy  EATOM  =     13290.28009929
  Solvation  Ediel_sol  =         0.00000000
  ---------------------------------------------------
  free energy    TOTEN  =      -714.86296566 eV

  energy without entropy =     -714.86296566  energy(sigma->0) =     -714.86296566


--------------------------------------------------------------------------------------------------------




--------------------------------------- Iteration      1(  18)  ---------------------------------------


    POTLOK:  cpu time    0.1339: real time    0.1523
    SETDIJ:  cpu time    1.0883: real time    1.0883
     EDDAV:  cpu time    3.0405: real time    3.0406
       DOS:  cpu time    0.0003: real time    0.0003
    --------------------------------------------
      LOOP:  cpu time    4.2629: real time    4.2814

 eigenvalue-minimisations  :  1112
 total energy-change (2. order) : 0.2713205E-06  (-0.2813984E-08)
 number of electron     175.9999999 magnetization 
 augmentation part       -2.3114214 magnetization 

 Free energy of the ion-electron system (eV)
  ---------------------------------------------------
  alpha Z        PSCENC =       446.84264249
  Ewald energy   TEWEN  =     -9216.00586227
  -Hartree energ DENC   =     -3672.15538864
  -exchange      EXHF   =         0.00000000
  -V(xc)+E(xc)   XCENC  =       481.14910377
  PAW double counting   =     11518.44055259   -12054.24966840
  entropy T*S    EENTRO =        -0.00000000
  eigenvalues    EBANDS =     -1509.16444423
  atomic energy  EATOM  =     13290.28009929
  Solvation  Ediel_sol  =         0.00000000
  ---------------------------------------------------
  free energy    TOTEN  =      -714.86296539 eV

  energy without entropy =     -714.86296539  energy(sigma->0) =     -714.86296539


--------------------------------------------------------------------------------------------------------




 average (electrostatic) potential at core
  the test charge radii are     1.1312  1.1541  1.0178
  (the norm of the test charge is              1.0000)
       1 -55.3026       2 -55.3025       3 -55.3026       4 -55.3025       5-101.6985
       6-101.6985       7-101.6985       8-101.6985       9 -68.9633      10 -68.9633
      11 -68.9633      12 -68.9633      13 -69.0035      14 -69.0035      15 -69.0035
      16 -69.0035      17 -69.0035      18 -69.0035      19 -69.0035      20 -69.0035



 E-fermi :   0.4680     XC(G=0):  -8.0551     alpha+bet : -7.0102


 k-point     1 :       0.0000    0.0000    0.0000
  band No.  band energies     occupation 
      1     -20.8301      2.00000
      2     -20.8286      2.00000
      3     -20.8263      2.00000
      4     -20.8253      2.00000
      5     -16.5079      2.00000
      6     -16.5078      2.00000
      7     -16.4965      2.00000
      8     -16.4675      2.00000
      9     -16.4558      2.00000
     10     -16.4220      2.00000
     11     -16.4167      2.00000
     12     -16.4165      2.00000
     13     -16.3652      2.00000
     14     -16.3647      2.00000
     15     -16.3643      2.00000
     16     -16.3637      2.00000
     17     -16.3579      2.00000
     18     -16.3575      2.00000
     19     -16.3571      2.00000
     20     -16.3565      2.00000
     21     -16.3431      2.00000
     22     -16.3430      2.00000
     23     -16.3417      2.00000
     24     -16.3415      2.00000
     25     -14.3319      2.00000
     26     -14.1947      2.00000
     27     -14.0404      2.00000
     28     -14.0334      2.00000
     29     -14.0079      2.00000
     30     -13.9990      2.00000
     31     -13.9610      2.00000
     32     -13.9602      2.00000
     33     -13.9196      2.00000
     34     -13.7572      2.00000
     35     -13.7550      2.00000
     36     -13.7473      2.00000
     37      -8.1616      2.00000
     38      -7.7349      2.00000
     39      -7.2770      2.00000
     40      -7.2624      2.00000
     41      -7.2598      2.00000
     42      -7.2406      2.00000
     43      -7.2351      2.00000
     44      -7.2251      2.00000
     45      -7.2190      2.00000
     46      -7.2170      2.00000
     47      -7.2114      2.00000
     48      -7.2113      2.00000
     49      -7.1932      2.00000
     50      -7.1835      2.00000
     51      -7.1078      2.00000
     52      -6.5877      2.00000
     53      -3.3155      2.00000
     54      -3.2739      2.00000
     55      -3.2529      2.00000
     56      -3.1834      2.00000
     57      -3.1560      2.00000
     58      -2.9464      2.00000
     59      -2.1778      2.00000
     60      -1.9522      2.00000
     61      -1.9513      2.00000
     62      -1.8336      2.00000
     63      -1.8295      2.00000
     64      -1.6630      2.00000
     65      -1.5901      2.00000
     66      -1.5558      2.00000
     67      -1.5427      2.00000
     68      -1.5346      2.00000
     69      -1.4457      2.00000
     70      -1.4370      2.00000
     71      -1.4267      2.00000
     72      -1.3832      2.00000
     73      -1.3704      2.00000
     74      -1.3689      2.00000
     75      -1.3066      2.00000
     76      -1.2857      2.00000
     77      -1.2840      2.00000
     78      -1.1518      2.00000
     79      -1.1334      2.00000
     80      -1.1198      2.00000
     81      -1.1177      2.00000
     82      -1.0228      2.00000
     83      -1.0159      2.00000
     84      -0.9656      2.00000
     85      -0.8402      2.00000
     86      -0.6640      2.00000
     87      -0.1227      2.00000
     88       0.3752      2.00000
     89       2.5689      0.00000
     90       2.7613      0.00000
     91       2.9510      0.00000
     92       3.1597      0.00000
     93       3.3270      0.00000
     94       3.3604      0.00000
     95       4.8357      0.00000
     96       5.3832      0.00000
     97       5.8603      0.00000
     98       5.8804      0.00000
     99       5.8912      0.00000
    100       5.8928      0.00000
    101       5.9826      0.00000
    102       6.2760      0.00000
    103       6.2801      0.00000
    104       6.3069      0.00000
    105       6.3720      0.00000
    106       6.4098      0.00000
    107       6.4692      0.00000
    108       6.6953      0.00000
    109       6.8733      0.00000
    110       6.8816      0.00000
    111       6.9880      0.00000
    112       7.0587      0.00000

 k-point     2 :       0.3333    0.0000    0.0000
  band No.  band energies     occupation 
      1     -20.8291      2.00000
      2     -20.8276      2.00000
      3     -20.8271      2.00000
      4     -20.8260      2.00000
      5     -16.4891      2.00000
      6     -16.4861      2.00000
      7     -16.4861      2.00000
      8     -16.4745      2.00000
      9     -16.4472      2.00000
     10     -16.4406      2.00000
     11     -16.4406      2.00000
     12     -16.4302      2.00000
     13     -16.3650      2.00000
     14     -16.3648      2.00000
     15     -16.3640      2.00000
     16     -16.3638      2.00000
     17     -16.3577      2.00000
     18     -16.3573      2.00000
     19     -16.3572      2.00000
     20     -16.3566      2.00000
     21     -16.3428      2.00000
     22     -16.3426      2.00000
     23     -16.3419      2.00000
     24     -16.3419      2.00000
     25     -14.2835      2.00000
     26     -14.1574      2.00000
     27     -14.1562      2.00000
     28     -14.0769      2.00000
     29     -13.9709      2.00000
     30     -13.9634      2.00000
     31     -13.9376      2.00000
     32     -13.9348      2.00000
     33     -13.8355      2.00000
     34     -13.8168      2.00000
     35     -13.8160      2.00000
     36     -13.7674      2.00000
     37      -7.9462      2.00000
     38      -7.5158      2.00000
     39      -7.4578      2.00000
     40      -7.2764      2.00000
     41      -7.2501      2.00000
     42      -7.2497      2.00000
     43      -7.2355      2.00000
     44      -7.2254      2.00000
     45      -7.2242      2.00000
     46      -7.2147      2.00000
     47      -7.2055      2.00000
     48      -7.1965      2.00000
     49      -7.1963      2.00000
     50      -7.1942      2.00000
     51      -7.1786      2.00000
     52      -6.9416      2.00000
     53      -3.1493      2.00000
     54      -3.0461      2.00000
     55      -2.9737      2.00000
     56      -2.8677      2.00000
     57      -2.7643      2.00000
     58      -2.7507      2.00000
     59      -2.2501      2.00000
     60      -2.1228      2.00000
     61      -2.0913      2.00000
     62      -1.9918      2.00000
     63      -1.9749      2.00000
     64      -1.9482      2.00000
     65      -1.7836      2.00000
     66      -1.6740      2.00000
     67      -1.6626      2.00000
     68      -1.6204      2.00000
     69      -1.4709      2.00000
     70      -1.4424      2.00000
     71      -1.4387      2.00000
     72      -1.4008      2.00000
     73      -1.3462      2.00000
     74      -1.3216      2.00000
     75      -1.3211      2.00000
     76      -1.2970      2.00000
     77      -1.2363      2.00000
     78      -1.2134      2.00000
     79      -1.2076      2.00000
     80      -1.1361      2.00000
     81      -1.1231      2.00000
     82      -1.0872      2.00000
     83      -1.0009      2.00000
     84      -0.9982      2.00000
     85      -0.7995      2.00000
     86      -0.6321      2.00000
     87      -0.5374      2.00000
     88      -0.1431      2.00000
     89       2.7549      0.00000
     90       3.1297      0.00000
     91       3.5252      0.00000
     92       3.8290      0.00000
     93       3.8533      0.00000
     94       4.1812      0.00000
     95       5.0197      0.00000
     96       5.2108      0.00000
     97       5.2204      0.00000
     98       5.3305      0.00000
     99       5.5615      0.00000
    100       5.7788      0.00000
    101       5.9180      0.00000
    102       6.1353      0.00000
    103       6.2784      0.00000
    104       6.3144      0.00000
    105       6.3879      0.00000
    106       6.3954      0.00000
    107       6.6338      0.00000
    108       6.6498      0.00000
    109       6.8733      0.00000
    110       7.0099      0.00000
    111       7.0670      0.00000
    112       7.0796      0.00000

 k-point     3 :       0.0000    0.5000    0.0000
  band No.  band energies     occupation 
      1     -20.8293      2.00000
      2     -20.8293      2.00000
      3     -20.8257      2.00000
      4     -20.8257      2.00000
      5     -16.5078      2.00000
      6     -16.5078      2.00000
      7     -16.4764      2.00000
      8     -16.4764      2.00000
      9     -16.4448      2.00000
     10     -16.4448      2.00000
     11     -16.4165      2.00000
     12     -16.4165      2.00000
     13     -16.3646      2.00000
     14     -16.3646      2.00000
     15     -16.3641      2.00000
     16     -16.3641      2.00000
     17     -16.3576      2.00000
     18     -16.3576      2.00000
     19     -16.3567      2.00000
     20     -16.3567      2.00000
     21     -16.3430      2.00000
     22     -16.3430      2.00000
     23     -16.3415      2.00000
     24     -16.3415      2.00000
     25     -14.2818      2.00000
     26     -14.2818      2.00000
     27     -14.0369      2.00000
     28     -14.0369      2.00000
     29     -14.0018      2.00000
     30     -14.0018      2.00000
     31     -13.9399      2.00000
     32     -13.9399      2.00000
     33     -13.8365      2.00000
     34     -13.8365      2.00000
     35     -13.7560      2.00000
     36     -13.7560      2.00000
     37      -7.9630      2.00000
     38      -7.9630      2.00000
     39      -7.2676      2.00000
     40      -7.2676      2.00000
     41      -7.2521      2.00000
     42      -7.2521      2.00000
     43      -7.2211      2.00000
     44      -7.2211      2.00000
     45      -7.2142      2.00000
     46      -7.2142      2.00000
     47      -7.2099      2.00000
     48      -7.2099      2.00000
     49      -7.2002      2.00000
     50      -7.2002      2.00000
     51      -6.8858      2.00000
     52      -6.8858      2.00000
     53      -3.2823      2.00000
     54      -3.2823      2.00000
     55      -3.2144      2.00000
     56      -3.2144      2.00000
     57      -2.4580      2.00000
     58      -2.4580      2.00000
     59      -2.2466      2.00000
     60      -2.2466      2.00000
     61      -2.0695      2.00000
     62      -2.0695      2.00000
     63      -1.7817      2.00000
     64      -1.7817      2.00000
     65      -1.7653      2.00000
     66      -1.7653      2.00000
     67      -1.5038      2.00000
     68      -1.5038      2.00000
     69      -1.4534      2.00000
     70      -1.4534      2.00000
     71      -1.3798      2.00000
     72      -1.3798      2.00000
     73      -1.3234      2.00000
     74      -1.3234      2.00000
     75      -1.3105      2.00000
     76      -1.3105      2.00000
     77      -1.2005      2.00000
     78      -1.2005      2.00000
     79      -1.1897      2.00000
     80      -1.1897      2.00000
     81      -1.0958      2.00000
     82      -1.0958      2.00000
     83      -1.0458      2.00000
     84      -1.0458      2.00000
     85      -0.8487      2.00000
     86      -0.8487      2.00000
     87      -0.0128      2.00000
     88      -0.0128      2.00000
     89       2.9622      0.00000
     90       2.9622      0.00000
     91       3.1556      0.00000
     92       3.1556      0.00000
     93       4.0668      0.00000
     94       4.0668      0.00000
     95       4.6598      0.00000
     96       4.6598      0.00000
     97       5.4286      0.00000
     98       5.4286      0.00000
     99       5.9835      0.00000
    100       5.9835      0.00000
    101       6.0548      0.00000
    102       6.0548      0.00000
    103       6.1369      0.00000
    104       6.1369      0.00000
    105       6.4799      0.00000
    106       6.4799      0.00000
    107       6.7243      0.00000
[...]
     60      -2.3692      2.00000
     61      -2.1989      2.00000
     62      -2.1989      2.00000
     63      -2.0018      2.00000
     64      -2.0018      2.00000
     65      -1.7217      2.00000
     66      -1.7217      2.00000
     67      -1.6654      2.00000
     68      -1.6654      2.00000
     69      -1.5225      2.00000
     70      -1.5225      2.00000
     71      -1.4658      2.00000
     72      -1.4658      2.00000
     73      -1.3531      2.00000
     74      -1.3531      2.00000
     75      -1.3297      2.00000
     76      -1.3297      2.00000
     77      -1.1832      2.00000
     78      -1.1832      2.00000
     79      -1.1365      2.00000
     80      -1.1365      2.00000
     81      -1.1261      2.00000
     82      -1.1261      2.00000
     83      -1.0783      2.00000
     84      -1.0783      2.00000
     85      -0.8716      2.00000
     86      -0.8716      2.00000
     87      -0.6254      2.00000
     88      -0.6254      2.00000
     89       3.8049      0.00000
     90       3.8049      0.00000
     91       3.8506      0.00000
     92       3.8506      0.00000
     93       4.1964      0.00000
     94       4.1964      0.00000
     95       4.5165      0.00000
     96       4.5165      0.00000
     97       5.1812      0.00000
     98       5.1812      0.00000
     99       5.3070      0.00000
    100       5.3070      0.00000
    101       5.9610      0.00000
    102       5.9610      0.00000
    103       6.1797      0.00000
    104       6.1797      0.00000
    105       6.5200      0.00000
    106       6.5200      0.00000
    107       6.5484      0.00000
    108       6.5484      0.00000
    109       6.7711      0.00000
    110       6.7711      0.00000
    111       7.0793      0.00000
    112       7.0795      0.00000

 k-point     8 :       0.3333    0.5000    0.3333
  band No.  band energies     occupation 
      1     -20.8279      2.00000
      2     -20.8279      2.00000
      3     -20.8269      2.00000
      4     -20.8269      2.00000
      5     -16.4902      2.00000
      6     -16.4902      2.00000
      7     -16.4743      2.00000
      8     -16.4743      2.00000
      9     -16.4492      2.00000
     10     -16.4492      2.00000
     11     -16.4343      2.00000
     12     -16.4343      2.00000
     13     -16.3645      2.00000
     14     -16.3645      2.00000
     15     -16.3644      2.00000
     16     -16.3644      2.00000
     17     -16.3573      2.00000
     18     -16.3573      2.00000
     19     -16.3571      2.00000
     20     -16.3571      2.00000
     21     -16.3425      2.00000
     22     -16.3425      2.00000
     23     -16.3421      2.00000
     24     -16.3421      2.00000
     25     -14.1851      2.00000
     26     -14.1851      2.00000
     27     -14.0811      2.00000
     28     -14.0811      2.00000
     29     -14.0355      2.00000
     30     -14.0355      2.00000
     31     -13.9312      2.00000
     32     -13.9312      2.00000
     33     -13.8313      2.00000
     34     -13.8313      2.00000
     35     -13.8056      2.00000
     36     -13.8056      2.00000
     37      -7.6087      2.00000
     38      -7.6087      2.00000
     39      -7.3626      2.00000
     40      -7.3626      2.00000
     41      -7.2438      2.00000
     42      -7.2438      2.00000
     43      -7.2285      2.00000
     44      -7.2285      2.00000
     45      -7.2089      2.00000
     46      -7.2089      2.00000
     47      -7.2041      2.00000
     48      -7.2041      2.00000
     49      -7.1973      2.00000
     50      -7.1973      2.00000
     51      -7.1731      2.00000
     52      -7.1731      2.00000
     53      -3.1502      2.00000
     54      -3.1502      2.00000
     55      -2.7745      2.00000
     56      -2.7745      2.00000
     57      -2.4683      2.00000
     58      -2.4683      2.00000
     59      -2.3557      2.00000
     60      -2.3557      2.00000
     61      -2.1642      2.00000
     62      -2.1642      2.00000
     63      -1.9853      2.00000
     64      -1.9853      2.00000
     65      -1.7581      2.00000
     66      -1.7581      2.00000
     67      -1.6859      2.00000
     68      -1.6859      2.00000
     69      -1.5056      2.00000
     70      -1.5056      2.00000
     71      -1.4071      2.00000
     72      -1.4071      2.00000
     73      -1.3532      2.00000
     74      -1.3532      2.00000
     75      -1.2476      2.00000
     76      -1.2476      2.00000
     77      -1.2124      2.00000
     78      -1.2124      2.00000
     79      -1.1598      2.00000
     80      -1.1598      2.00000
     81      -1.0997      2.00000
     82      -1.0997      2.00000
     83      -1.0549      2.00000
     84      -1.0549      2.00000
     85      -0.8313      2.00000
     86      -0.8313      2.00000
     87      -0.5744      2.00000
     88      -0.5744      2.00000
     89       3.2856      0.00000
     90       3.2856      0.00000
     91       4.0715      0.00000
     92       4.0715      0.00000
     93       4.2697      0.00000
     94       4.2697      0.00000
     95       4.4100      0.00000
     96       4.4100      0.00000
     97       5.0827      0.00000
     98       5.0827      0.00000
     99       5.7991      0.00000
    100       5.7991      0.00000
    101       6.2493      0.00000
    102       6.2493      0.00000
    103       6.3718      0.00000
    104       6.3718      0.00000
    105       6.6192      0.00000
    106       6.6192      0.00000
    107       6.7401      0.00000
    108       6.7401      0.00000
    109       6.8375      0.00000
    110       6.8375      0.00000
    111       7.0206      0.00000
    112       7.0206      0.00000


--------------------------------------------------------------------------------------------------------


 soft charge-density along one line, spin component           1
         0         1         2         3         4         5         6         7         8         9
 total charge-density along one line

 pseudopotential strength for first ion, spin component:           1
 17.982  -4.707  -0.000  -0.001  -0.001   0.000   0.001   0.001
 -4.707   1.241   0.000   0.000   0.000  -0.000  -0.000  -0.000
 -0.000   0.000   2.268  -0.000   0.000  -2.714   0.000  -0.000
 -0.001   0.000  -0.000   2.271  -0.001   0.000  -2.717   0.001
 -0.001   0.000   0.000  -0.001   2.270  -0.000   0.001  -2.716
  0.000  -0.000  -2.714   0.000  -0.000   3.215  -0.000   0.000
  0.001  -0.000   0.000  -2.717   0.001  -0.000   3.219  -0.002
  0.001  -0.000  -0.000   0.001  -2.716   0.000  -0.002   3.217
  0.000  -0.000   0.001  -0.000  -0.000  -0.001   0.000   0.000
 -0.000   0.000   0.000   0.000  -0.000  -0.000  -0.000   0.000
  0.001  -0.000   0.000  -0.001   0.001  -0.000   0.002  -0.001
 -0.001   0.000  -0.000  -0.000   0.000   0.000   0.000  -0.000
  0.001  -0.000   0.000  -0.000  -0.002  -0.000   0.000   0.003
 total augmentation occupancy for first ion, spin component:           1
  1.911  -0.141   0.000  -0.000  -0.000   0.000  -0.000  -0.000   0.000  -0.000   0.001  -0.002   0.001
 -0.141   0.114   0.000  -0.003  -0.002   0.000   0.001   0.002   0.000  -0.000  -0.003   0.006  -0.000
  0.000   0.000   2.014   0.000   0.000   0.001   0.000   0.000   0.002   0.000   0.000   0.000   0.000
 -0.000  -0.003   0.000   2.018  -0.003   0.000   0.004  -0.002   0.000   0.000  -0.003  -0.000   0.000
 -0.000  -0.002   0.000  -0.003   2.017   0.000  -0.002   0.003   0.000  -0.000   0.001   0.001  -0.004
  0.000   0.000   0.001   0.000   0.000   0.008   0.000   0.000  -0.002  -0.001  -0.000  -0.000   0.000
 -0.000   0.001   0.000   0.004  -0.002   0.000   0.007   0.002   0.000  -0.000   0.002  -0.001   0.000
 -0.000   0.002   0.000  -0.002   0.003   0.000   0.002   0.008   0.000  -0.000  -0.001  -0.001   0.003
  0.000   0.000   0.002   0.000   0.000  -0.002   0.000   0.000   0.006   0.002   0.000  -0.000   0.000
 -0.000  -0.000   0.000   0.000  -0.000  -0.001  -0.000  -0.000   0.002   0.004   0.000  -0.000   0.000
  0.001  -0.003   0.000  -0.003   0.001  -0.000   0.002  -0.001   0.000   0.000   0.005  -0.002  -0.000
 -0.002   0.006   0.000  -0.000   0.001  -0.000  -0.001  -0.001  -0.000  -0.000  -0.002   0.003   0.000
  0.001  -0.000   0.000   0.000  -0.004   0.000   0.000   0.003   0.000   0.000  -0.000   0.000   0.005


------------------------ aborting loop because EDIFF is reached ----------------------------------------





 total charge     

# of ion       s       p       d       tot
------------------------------------------
    1        1.785   4.719   0.017   6.521
    2        1.785   4.719   0.017   6.521
    3        1.785   4.719   0.017   6.521
    4        1.785   4.719   0.017   6.521
    5        1.553   0.415   9.832  11.800
    6        1.553   0.415   9.832  11.800
    7        1.553   0.415   9.832  11.800
    8        1.553   0.415   9.832  11.800
    9        1.613   3.280   0.005   4.898
   10        1.613   3.281   0.005   4.899
   11        1.613   3.281   0.005   4.899
   12        1.613   3.280   0.005   4.898
   13        1.615   3.271   0.007   4.893
   14        1.614   3.294   0.006   4.914
   15        1.614   3.294   0.006   4.914
   16        1.615   3.271   0.007   4.893
   17        1.615   3.271   0.007   4.893
   18        1.614   3.294   0.006   4.914
   19        1.615   3.271   0.007   4.893
   20        1.614   3.294   0.006   4.914
--------------------------------------------------
tot         32.721  59.917  39.470 132.108

    CHARGE:  cpu time    0.1269: real time    0.1269
    FORLOC:  cpu time    0.0035: real time    0.0035
    FORNL :  cpu time    0.5620: real time    0.5621
    STRESS:  cpu time   12.3167: real time   12.3170
    FORCOR:  cpu time    0.1023: real time    0.1023
    FORHAR:  cpu time    0.0107: real time    0.0107
    MIXING:  cpu time    0.0011: real time    0.0011
    OFIELD:  cpu time    0.0000: real time    0.0000

  FORCE on cell =-STRESS in cart. coord.  units (eV):
  Direction    XX          YY          ZZ          XY          YZ          ZX
  --------------------------------------------------------------------------------------
  Alpha Z   446.84264   446.84264   446.84264
  Ewald   -2985.42441 -3116.86197 -3113.74559     0.00000    -0.00000     0.00000
  Hartree  1288.98390  1174.05221  1209.11963    -0.00000    -0.00000    -0.00000
  E(xc)    -738.56915  -738.82239  -738.64274    -0.00000     0.00000    -0.02976
  Local   -1568.38426 -1320.56376 -1361.89621    -0.00000    -0.00000     0.00000
  n-local   900.20582   897.15284   899.27296    -0.00000    -0.00000     0.00165
  augment   406.78590   406.28719   406.21368    -0.00000    -0.00004    -0.00001
  Kinetic  2248.79325  2247.37296  2252.12713    -0.00000     0.00000    -1.55183
  Fock        0.00000     0.00000     0.00000     0.00000     0.00000     0.00000
  -------------------------------------------------------------------------------------
  Total      -0.76631    -4.54027    -0.70851     0.00000     0.00000     0.00000
  in kB      -1.52052    -9.00886    -1.40583     0.00000     0.00000     0.00000
  external pressure =       -3.98 kB  Pullay stress =        0.00 kB


 VOLUME and BASIS-vectors are now :
 -----------------------------------------------------------------------------
  energy-cutoff  :      300.00
  volume of cell :      807.46
      direct lattice vectors                 reciprocal lattice vectors
     8.401481509  0.000000000  0.000000000     0.119026626  0.000000000  0.000000000
     0.000000000 12.116722018  0.000000000     0.000000000  0.082530572  0.000000000
     0.000000000  0.000000000  7.931980732     0.000000000  0.000000000  0.126071915

  length of vectors
     8.401481509 12.116722018  7.931980732     0.119026626  0.082530572  0.126071915


 FORCES acting on ions
    electron-ion (+dipol)            ewald-force                    non-local-force                 convergence-correction
 -----------------------------------------------------------------------------------------------
   0.241E+02 0.113E-12 -.140E+02   -.240E+02 0.355E-14 0.141E+02   -.834E-01 0.000E+00 -.763E-01   -.220E-04 -.102E-12 0.645E-05
   -.241E+02 -.230E-12 -.140E+02   0.240E+02 -.107E-13 0.141E+02   0.834E-01 0.000E+00 -.763E-01   0.220E-04 0.972E-13 0.645E-05
   0.241E+02 -.177E-11 0.140E+02   -.240E+02 -.711E-14 -.141E+02   -.834E-01 0.000E+00 0.763E-01   -.220E-04 -.717E-13 -.645E-05
   -.241E+02 0.396E-13 0.140E+02   0.240E+02 0.142E-13 -.141E+02   0.834E-01 0.000E+00 0.763E-01   0.220E-04 0.128E-12 -.645E-05
   -.939E-11 -.258E-11 -.215E-10   -.161E-11 0.473E-12 0.114E-12   0.000E+00 0.000E+00 0.127E-24   -.743E-14 -.936E-13 -.493E-13
   0.796E-11 0.528E-11 -.298E-10   0.353E-11 -.139E-11 0.568E-13   0.000E+00 0.000E+00 0.482E-23   -.174E-12 -.101E-12 0.118E-12
   0.847E-11 -.738E-11 -.273E-10   0.351E-11 0.131E-11 0.426E-13   0.000E+00 0.000E+00 -.535E-23   -.167E-12 0.675E-13 0.106E-12
   -.944E-11 0.380E-11 -.215E-10   -.163E-11 -.512E-12 0.853E-13   0.000E+00 0.000E+00 0.268E-23   0.174E-13 0.634E-13 -.457E-13
   0.120E+02 -.663E-12 0.283E+02   -.121E+02 0.142E-13 -.284E+02   0.124E+00 0.132E-22 0.133E+00   -.681E-05 0.742E-13 -.807E-05
   -.120E+02 0.176E-11 0.283E+02   0.121E+02 0.142E-13 -.284E+02   -.124E+00 0.132E-22 0.133E+00   0.681E-05 -.119E-12 -.807E-05
   0.120E+02 -.238E-12 -.283E+02   -.121E+02 0.284E-13 0.284E+02   0.124E+00 0.000E+00 -.133E+00   -.681E-05 0.603E-13 0.807E-05
   -.120E+02 0.441E-12 -.283E+02   0.121E+02 -.142E-13 0.284E+02   -.124E+00 -.132E-22 -.133E+00   0.681E-05 -.130E-12 0.807E-05
   -.231E+02 0.150E+02 0.285E+02   0.234E+02 -.152E+02 -.288E+02   -.218E+00 0.134E+00 0.266E+00   0.163E-04 -.110E-04 -.149E-04
   0.231E+02 -.150E+02 0.285E+02   -.234E+02 0.152E+02 -.288E+02   0.218E+00 -.134E+00 0.266E+00   -.163E-04 0.110E-04 -.149E-04
   -.231E+02 -.150E+02 -.285E+02   0.234E+02 0.152E+02 0.288E+02   -.218E+00 -.134E+00 -.266E+00   0.163E-04 0.110E-04 0.149E-04
   0.231E+02 0.150E+02 -.285E+02   -.234E+02 -.152E+02 0.288E+02   0.218E+00 0.134E+00 -.266E+00   -.163E-04 -.110E-04 0.149E-04
   -.231E+02 -.150E+02 0.285E+02   0.234E+02 0.152E+02 -.288E+02   -.218E+00 -.134E+00 0.266E+00   0.163E-04 0.110E-04 -.149E-04
   0.231E+02 0.150E+02 0.285E+02   -.234E+02 -.152E+02 -.288E+02   0.218E+00 0.134E+00 0.266E+00   -.163E-04 -.110E-04 -.149E-04
   0.231E+02 -.150E+02 -.285E+02   -.234E+02 0.152E+02 0.288E+02   0.218E+00 -.134E+00 -.266E+00   -.163E-04 0.110E-04 0.149E-04
   -.231E+02 0.150E+02 -.285E+02   0.234E+02 -.152E+02 0.288E+02   -.218E+00 0.134E+00 -.266E+00   0.163E-04 -.110E-04 0.149E-04
 -----------------------------------------------------------------------------------------------
   -.160E-10 0.924E-13 -.262E-09   0.426E-13 -.213E-13 0.355E-13   0.000E+00 0.555E-16 -.555E-16   -.354E-12 -.143E-12 0.161E-12


 POSITION                                       TOTAL-FORCE (eV/Angst)
 -----------------------------------------------------------------------------------
      0.52765      3.02918      3.80415         0.001547      0.000000     -0.002233
      3.67309      9.08754      7.77014        -0.001547     -0.000000     -0.002233
      4.72839      3.02918      0.16184         0.001547      0.000000      0.002233
      7.87383      9.08754      4.12783        -0.001547      0.000000      0.002233
      0.00000      0.00000      0.00000         0.000000      0.000000      0.000000
      4.20074      0.00000      3.96599         0.000000      0.000000      0.000000
      4.20074      6.05836      3.96599         0.000000      0.000000      0.000000
      0.00000      6.05836      0.00000         0.000000      0.000000      0.000000
      4.21734      9.08754      3.59633         0.002810      0.000000     -0.009531
      8.38488      3.02918      7.56232        -0.002810      0.000000     -0.009531
      0.01660      9.08754      0.36966         0.002810      0.000000      0.009531
      4.18414      3.02918      4.33565        -0.002810      0.000000      0.009531
      2.58472      5.71947      1.47534         0.005960     -0.008923     -0.006425
      1.61603      6.39725      5.44133        -0.005960      0.008923     -0.006425
      6.78546      0.33889      2.49065         0.005960      0.008923      0.006425
      5.81677     11.77783      6.45664        -0.005960     -0.008923      0.006425
      2.58472      0.33889      1.47534         0.005960      0.008923     -0.006425
      1.61603     11.77783      5.44133        -0.005960     -0.008923     -0.006425
      5.81677      6.39725      6.45664        -0.005960      0.008923      0.006425
      6.78546      5.71947      2.49065         0.005960     -0.008923      0.006425
 -----------------------------------------------------------------------------------
    total drift:                               -0.000000     -0.000000     -0.000000


--------------------------------------------------------------------------------------------------------



  FREE ENERGIE OF THE ION-ELECTRON SYSTEM (eV)
  ---------------------------------------------------
  free  energy   TOTEN  =      -714.86296539 eV

  energy  without entropy=     -714.86296539  energy(sigma->0) =     -714.86296539



--------------------------------------------------------------------------------------------------------


    POTLOK:  cpu time    1.1906: real time    1.1906


--------------------------------------------------------------------------------------------------------


 stress matrix after NEB project (eV)
     -0.76631      0.00000      0.00000
      0.00000     -4.54027      0.00000
     -0.00000      0.00000     -0.70851
  FORCES: max atom, RMS     0.012507    0.009154
  FORCE total and by dimension    0.040938    0.009531
  Stress total and by dimension    4.658678    4.540271
     LOOP+:  cpu time  118.1534: real time  118.7181
    4ORBIT:  cpu time    0.0000: real time    0.0000



 total charge     

# of ion       s       p       d       tot
------------------------------------------
    1        1.785   4.719   0.017   6.521
    2        1.785   4.719   0.017   6.521
    3        1.785   4.719   0.017   6.521
    4        1.785   4.719   0.017   6.521
    5        1.553   0.415   9.832  11.800
    6        1.553   0.415   9.832  11.800
    7        1.553   0.415   9.832  11.800
    8        1.553   0.415   9.832  11.800
    9        1.613   3.280   0.005   4.898
   10        1.613   3.281   0.005   4.899
   11        1.613   3.281   0.005   4.899
   12        1.613   3.280   0.005   4.898
   13        1.615   3.271   0.007   4.893
   14        1.614   3.294   0.006   4.914
   15        1.614   3.294   0.006   4.914
   16        1.615   3.271   0.007   4.893
   17        1.615   3.271   0.007   4.893
   18        1.614   3.294   0.006   4.914
   19        1.615   3.271   0.007   4.893
   20        1.614   3.294   0.006   4.914
--------------------------------------------------
tot         32.721  59.917  39.470 132.108


 total amount of memory used by VASP MPI-rank0    42333. kBytes
=======================================================================

   base      :      30000. kBytes
   nonlr-proj:       2959. kBytes
   fftplans  :       3668. kBytes
   grid      :       3424. kBytes
   one-center:         46. kBytes
   wavefun   :       2236. kBytes

  
  
 General timing and accounting informations for this job:
 ========================================================
  
                  Total CPU time used (sec):      124.573
                            User time (sec):      123.857
                          System time (sec):        0.716
                         Elapsed time (sec):      125.334
  
                   Maximum memory used (kb):       78620.
                   Average memory used (kb):           0.
  
                          Minor page faults:        19131
                          Major page faults:            2
                 Voluntary context switches:         1881
