 running on   64 total cores
 distrk:  each k-point on   64 cores,    1 groups
 distr:  one band on    8 cores,    8 groups
 using from now: INCAR     
 vasp.5.4.4.18Apr17-6-g9f103f2a35 (build Jun 29 2021 14:23:36) complex           
 POSCAR found type information on POSCAR  Cs Pb Br
 POSCAR found :  3 types and      20 ions
 scaLAPACK will be used
 LDA part: xc-table for Pade appr. of Perdew
 POSCAR found type information on POSCAR  Cs Pb Br
 POSCAR found :  3 types and      20 ions
 POSCAR, INCAR and KPOINTS ok, starting setup
 FFT: planning ...
 WAVECAR not read
 entering main loop
       N       E                     dE             d eps       ncg     rms          rms(c)
DAV:   1     0.663590161902E+03    0.66359E+03   -0.56029E+04  1856   0.922E+02
DAV:   2    -0.574326043579E+03   -0.12379E+04   -0.11839E+04  2184   0.286E+02
DAV:   3    -0.749243064151E+03   -0.17492E+03   -0.17381E+03  2448   0.128E+02
DAV:   4    -0.754527188580E+03   -0.52841E+01   -0.52678E+01  2160   0.290E+01
DAV:   5    -0.754761555804E+03   -0.23437E+00   -0.23423E+00  2384   0.492E+00    0.701E+00
DAV:   6    -0.714963077448E+03    0.39798E+02   -0.11828E+01  2400   0.285E+01    0.500E+00
DAV:   7    -0.714721953353E+03    0.24112E+00   -0.38490E+00  2200   0.484E+00    0.259E+00
DAV:   8    -0.714818785414E+03   -0.96832E-01   -0.18470E-01  2184   0.171E+00    0.148E+00
DAV:   9    -0.714860315430E+03   -0.41530E-01   -0.85318E-02  1952   0.120E+00    0.321E-01
DAV:  10    -0.714861247107E+03   -0.93168E-03   -0.50994E-03  2608   0.328E-01    0.188E-01
DAV:  11    -0.714862802541E+03   -0.15554E-02   -0.16408E-03  1960   0.164E-01    0.651E-02
DAV:  12    -0.714862950839E+03   -0.14830E-03   -0.45071E-04  2080   0.901E-02    0.235E-02
DAV:  13    -0.714862956757E+03   -0.59178E-05   -0.45277E-05  2264   0.262E-02    0.744E-03
DAV:  14    -0.714862964893E+03   -0.81364E-05   -0.38043E-06  1816   0.627E-03    0.205E-03
DAV:  15    -0.714862969506E+03   -0.46129E-05   -0.18797E-06  1512   0.414E-03    0.126E-03
DAV:  16    -0.714862967385E+03    0.21211E-05   -0.14458E-06  1424   0.277E-03    0.751E-04
DAV:  17    -0.714862965658E+03    0.17276E-05   -0.90151E-08  1128   0.120E-03    0.595E-04
DAV:  18    -0.714862965386E+03    0.27132E-06   -0.28140E-08  1112   0.804E-04
   1 F= -.71486297E+03 E0= -.71486297E+03  d E =-.125086E-40
Application 1866166 resources: utime ~7937s, stime ~67s, Rss ~78620, inblocks ~1328, outblocks ~50896
