CsPbBr3 cubic bulk                      
           1
     8.401482    0.000000    0.000000
     0.000000   12.116722    0.000000
     0.000000    0.000000    7.931981
   Cs   Pb   Br
   4   4  12
Direct configuration=     1
   0.06280470  0.25000000  0.47959687
   0.43719530  0.75000000  0.97959687
   0.56280470  0.25000000  0.02040313
   0.93719530  0.75000000  0.52040313
   0.00000000  0.00000000  0.00000000
   0.50000000  0.00000000  0.50000000
   0.50000000  0.50000000  0.50000000
   0.00000000  0.50000000  0.00000000
   0.50197573  0.75000000  0.45339607
   0.99802427  0.25000000  0.95339607
   0.00197573  0.75000000  0.04660393
   0.49802427  0.25000000  0.54660393
   0.30764996  0.47203110  0.18599845
   0.19235004  0.52796890  0.68599845
   0.80764996  0.02796890  0.31400155
   0.69235004  0.97203110  0.81400155
   0.30764996  0.02796890  0.18599845
   0.19235004  0.97203110  0.68599845
   0.69235004  0.52796890  0.81400155
   0.80764996  0.47203110  0.31400155
