 running on  256 total cores
 distrk:  each k-point on  256 cores,    1 groups
 distr:  one band on   32 cores,    8 groups
 using from now: INCAR     
 vasp.5.4.4.18Apr17-6-g9f103f2a35 (build Jun 29 2021 14:23:36) complex           
 POSCAR found type information on POSCAR  Cs Pb Br
 POSCAR found :  3 types and      20 ions
 scaLAPACK will be used
 LDA part: xc-table for Pade appr. of Perdew
 POSCAR found type information on POSCAR  Cs Pb Br
 POSCAR found :  3 types and      20 ions
 POSCAR, INCAR and KPOINTS ok, starting setup
 FFT: planning ...
 WAVECAR not read
 WARNING: random wavefunctions but no delay for mixing, default for NELMDL
 entering main loop
       N       E                     dE             d eps       ncg     rms          rms(c)
DAV:   1     0.112264319198E+04    0.11226E+04   -0.79664E+04 22400   0.157E+03
DAV:   2    -0.448360550368E+03   -0.15710E+04   -0.14688E+04 25264   0.353E+02
DAV:   3    -0.741283520595E+03   -0.29292E+03   -0.28881E+03 31368   0.174E+02
DAV:   4    -0.754329037212E+03   -0.13046E+02   -0.12978E+02 27376   0.442E+01
DAV:   5    -0.754901884100E+03   -0.57285E+00   -0.57230E+00 29320   0.858E+00    0.709E+00
DAV:   6    -0.715115903204E+03    0.39786E+02   -0.11958E+01 29976   0.309E+01    0.496E+00
DAV:   7    -0.714902766319E+03    0.21314E+00   -0.40933E+00 28168   0.566E+00    0.252E+00
DAV:   8    -0.715010841622E+03   -0.10808E+00   -0.21158E-01 27920   0.204E+00    0.149E+00
DAV:   9    -0.715059579011E+03   -0.48737E-01   -0.97786E-02 24176   0.155E+00    0.339E-01
DAV:  10    -0.715060310623E+03   -0.73161E-03   -0.51821E-03 33136   0.367E-01    0.193E-01
DAV:  11    -0.715061468386E+03   -0.11578E-02   -0.12902E-03 25080   0.163E-01    0.677E-02
DAV:  12    -0.715061876169E+03   -0.40778E-03   -0.61229E-04 24032   0.118E-01    0.271E-02
DAV:  13    -0.715061899951E+03   -0.23782E-04   -0.44215E-05 31688   0.293E-02    0.923E-03
DAV:  14    -0.715061900698E+03   -0.74628E-06   -0.41784E-06 30536   0.640E-03    0.266E-03
DAV:  15    -0.715061907148E+03   -0.64501E-05   -0.45405E-07 27720   0.271E-03    0.133E-03
DAV:  16    -0.715061906051E+03    0.10968E-05   -0.18294E-07 22864   0.175E-03    0.366E-04
DAV:  17    -0.715061906871E+03   -0.81995E-06   -0.10971E-08 18152   0.682E-04    0.353E-04
DAV:  18    -0.715061905721E+03    0.11493E-05   -0.11574E-08 15096   0.554E-04    0.148E-04
DAV:  19    -0.715061905461E+03    0.26040E-06   -0.10029E-08 16808   0.391E-04    0.148E-04
DAV:  20    -0.715061905461E+03    0.12733E-10   -0.17429E-09 13544   0.210E-04
   1 F= -.71506191E+03 E0= -.71506191E+03  d E =-.715062E+03
 curvature:   0.00 expect dE= 0.000E+00 dE for cont linesearch  0.000E+00
 trial: gam= 0.00000 g(F)=  0.302E-06 g(S)=  0.101E-05 ort = 0.000E+00 (trialstep = 0.100E+01)
 search vector abs. value=  0.132E-05
 reached required accuracy - stopping structural energy minimisation
Application 1863103 resources: utime ~349718s, stime ~6692s, Rss ~170328, inblocks ~5472, outblocks ~166864
