  20  20   1   0
  0.4031870E+02  0.8284798E-09  0.1169808E-08  0.8320320E-09  0.5000000E-15
   1.0000000000000000E-004
  CAR 
 CsPbBr3 cubic bulk                      
      8.58701830    -22.21558860  301      0.50133399      1.00000000
    -22.216  0.0000E+00  0.0000E+00
    -22.113  0.0000E+00  0.0000E+00
    -22.010  0.0000E+00  0.0000E+00
    -21.908  0.0000E+00  0.0000E+00
    -21.805  0.0000E+00  0.0000E+00
    -21.702  0.0000E+00  0.0000E+00
    -21.600  0.0000E+00  0.0000E+00
    -21.497  0.0000E+00  0.0000E+00
    -21.394  0.0000E+00  0.0000E+00
    -21.292  0.0000E+00  0.0000E+00
    -21.189  0.0000E+00  0.0000E+00
    -21.086  0.0000E+00  0.0000E+00
    -20.983  0.0000E+00  0.0000E+00
    -20.881  0.0000E+00  0.0000E+00
    -20.778  0.7792E+02  0.8000E+01
    -20.675  0.0000E+00  0.8000E+01
    -20.573  0.0000E+00  0.8000E+01
    -20.470  0.0000E+00  0.8000E+01
    -20.367  0.0000E+00  0.8000E+01
    -20.265  0.0000E+00  0.8000E+01
    -20.162  0.0000E+00  0.8000E+01
    -20.059  0.0000E+00  0.8000E+01
    -19.957  0.0000E+00  0.8000E+01
    -19.854  0.0000E+00  0.8000E+01
    -19.751  0.0000E+00  0.8000E+01
    -19.649  0.0000E+00  0.8000E+01
    -19.546  0.0000E+00  0.8000E+01
    -19.443  0.0000E+00  0.8000E+01
    -19.341  0.0000E+00  0.8000E+01
    -19.238  0.0000E+00  0.8000E+01
    -19.135  0.0000E+00  0.8000E+01
    -19.033  0.0000E+00  0.8000E+01
    -18.930  0.0000E+00  0.8000E+01
    -18.827  0.0000E+00  0.8000E+01
    -18.725  0.0000E+00  0.8000E+01
    -18.622  0.0000E+00  0.8000E+01
    -18.519  0.0000E+00  0.8000E+01
    -18.417  0.0000E+00  0.8000E+01
    -18.314  0.0000E+00  0.8000E+01
    -18.211  0.0000E+00  0.8000E+01
    -18.109  0.0000E+00  0.8000E+01
    -18.006  0.0000E+00  0.8000E+01
    -17.903  0.0000E+00  0.8000E+01
    -17.801  0.0000E+00  0.8000E+01
    -17.698  0.0000E+00  0.8000E+01
    -17.595  0.0000E+00  0.8000E+01
    -17.493  0.0000E+00  0.8000E+01
    -17.390  0.0000E+00  0.8000E+01
    -17.287  0.0000E+00  0.8000E+01
    -17.184  0.0000E+00  0.8000E+01
    -17.082  0.0000E+00  0.8000E+01
    -16.979  0.0000E+00  0.8000E+01
    -16.876  0.0000E+00  0.8000E+01
    -16.774  0.0000E+00  0.8000E+01
    -16.671  0.0000E+00  0.8000E+01
    -16.568  0.0000E+00  0.8000E+01
    -16.466  0.1432E+02  0.9470E+01
    -16.363  0.9951E+02  0.2400E+02
    -16.260  0.2337E+03  0.4800E+02
    -16.158  0.0000E+00  0.4800E+02
    -16.055  0.0000E+00  0.4800E+02
    -15.952  0.0000E+00  0.4800E+02
    -15.850  0.0000E+00  0.4800E+02
    -15.747  0.0000E+00  0.4800E+02
    -15.644  0.0000E+00  0.4800E+02
    -15.542  0.0000E+00  0.4800E+02
    -15.439  0.0000E+00  0.4800E+02
    -15.336  0.0000E+00  0.4800E+02
    -15.234  0.0000E+00  0.4800E+02
    -15.131  0.0000E+00  0.4800E+02
    -15.028  0.0000E+00  0.4800E+02
    -14.926  0.0000E+00  0.4800E+02
    -14.823  0.0000E+00  0.4800E+02
    -14.720  0.0000E+00  0.4800E+02
    -14.618  0.0000E+00  0.4800E+02
    -14.515  0.0000E+00  0.4800E+02
    -14.412  0.0000E+00  0.4800E+02
    -14.310  0.1233E+01  0.4813E+02
    -14.207  0.1419E+02  0.5024E+02
    -14.104  0.3099E+02  0.5418E+02
    -14.002  0.4992E+02  0.5935E+02
    -13.899  0.4391E+02  0.6451E+02
    -13.796  0.5297E+02  0.6999E+02
    -13.694  0.1190E+02  0.7200E+02
    -13.591  0.0000E+00  0.7200E+02
    -13.488  0.0000E+00  0.7200E+02
    -13.386  0.0000E+00  0.7200E+02
    -13.283  0.0000E+00  0.7200E+02
    -13.180  0.0000E+00  0.7200E+02
    -13.077  0.0000E+00  0.7200E+02
    -12.975  0.0000E+00  0.7200E+02
    -12.872  0.0000E+00  0.7200E+02
    -12.769  0.0000E+00  0.7200E+02
    -12.667  0.0000E+00  0.7200E+02
    -12.564  0.0000E+00  0.7200E+02
    -12.461  0.0000E+00  0.7200E+02
    -12.359  0.0000E+00  0.7200E+02
    -12.256  0.0000E+00  0.7200E+02
    -12.153  0.0000E+00  0.7200E+02
    -12.051  0.0000E+00  0.7200E+02
    -11.948  0.0000E+00  0.7200E+02
    -11.845  0.0000E+00  0.7200E+02
    -11.743  0.0000E+00  0.7200E+02
    -11.640  0.0000E+00  0.7200E+02
    -11.537  0.0000E+00  0.7200E+02
    -11.435  0.0000E+00  0.7200E+02
    -11.332  0.0000E+00  0.7200E+02
    -11.229  0.0000E+00  0.7200E+02
    -11.127  0.0000E+00  0.7200E+02
    -11.024  0.0000E+00  0.7200E+02
    -10.921  0.0000E+00  0.7200E+02
    -10.819  0.0000E+00  0.7200E+02
    -10.716  0.0000E+00  0.7200E+02
    -10.613  0.0000E+00  0.7200E+02
    -10.511  0.0000E+00  0.7200E+02
    -10.408  0.0000E+00  0.7200E+02
    -10.305  0.0000E+00  0.7200E+02
    -10.203  0.0000E+00  0.7200E+02
    -10.100  0.0000E+00  0.7200E+02
     -9.997  0.0000E+00  0.7200E+02
     -9.895  0.0000E+00  0.7200E+02
     -9.792  0.0000E+00  0.7200E+02
     -9.689  0.0000E+00  0.7200E+02
     -9.587  0.0000E+00  0.7200E+02
     -9.484  0.0000E+00  0.7200E+02
     -9.381  0.0000E+00  0.7200E+02
     -9.278  0.0000E+00  0.7200E+02
     -9.176  0.0000E+00  0.7200E+02
     -9.073  0.0000E+00  0.7200E+02
     -8.970  0.0000E+00  0.7200E+02
     -8.868  0.0000E+00  0.7200E+02
     -8.765  0.0000E+00  0.7200E+02
     -8.662  0.0000E+00  0.7200E+02
     -8.560  0.0000E+00  0.7200E+02
     -8.457  0.0000E+00  0.7200E+02
     -8.354  0.0000E+00  0.7200E+02
     -8.252  0.0000E+00  0.7200E+02
     -8.149  0.1082E+01  0.7211E+02
     -8.046  0.0000E+00  0.7211E+02
     -7.944  0.5335E+01  0.7266E+02
     -7.841  0.1347E+01  0.7292E+02
     -7.738  0.1181E+01  0.7334E+02
     -7.636  0.1082E+01  0.7422E+02
     -7.533  0.1299E+02  0.7556E+02
     -7.430  0.8655E+01  0.7644E+02
     -7.328  0.1033E+02  0.7750E+02
     -7.225  0.5072E+02  0.8299E+02
     -7.122  0.1255E+03  0.1028E+03
     -7.020  0.4511E-02  0.1028E+03
     -6.917  0.3693E-01  0.1032E+03
     -6.814  0.4329E+01  0.1039E+03
     -6.712  0.0000E+00  0.1039E+03
     -6.609  0.0000E+00  0.1039E+03
     -6.506  0.1082E+01  0.1040E+03
     -6.404  0.0000E+00  0.1040E+03
     -6.301  0.0000E+00  0.1040E+03
     -6.198  0.0000E+00  0.1040E+03
     -6.096  0.0000E+00  0.1040E+03
     -5.993  0.0000E+00  0.1040E+03
     -5.890  0.0000E+00  0.1040E+03
     -5.788  0.0000E+00  0.1040E+03
     -5.685  0.0000E+00  0.1040E+03
     -5.582  0.0000E+00  0.1040E+03
     -5.480  0.0000E+00  0.1040E+03
     -5.377  0.0000E+00  0.1040E+03
     -5.274  0.0000E+00  0.1040E+03
     -5.171  0.0000E+00  0.1040E+03
     -5.069  0.0000E+00  0.1040E+03
     -4.966  0.0000E+00  0.1040E+03
     -4.863  0.0000E+00  0.1040E+03
     -4.761  0.0000E+00  0.1040E+03
     -4.658  0.0000E+00  0.1040E+03
     -4.555  0.0000E+00  0.1040E+03
     -4.453  0.0000E+00  0.1040E+03
     -4.350  0.0000E+00  0.1040E+03
     -4.247  0.0000E+00  0.1040E+03
     -4.145  0.0000E+00  0.1040E+03
     -4.042  0.0000E+00  0.1040E+03
     -3.939  0.0000E+00  0.1040E+03
     -3.837  0.0000E+00  0.1040E+03
     -3.734  0.0000E+00  0.1040E+03
     -3.631  0.0000E+00  0.1040E+03
     -3.529  0.0000E+00  0.1040E+03
     -3.426  0.0000E+00  0.1040E+03
     -3.323  0.1784E+00  0.1040E+03
     -3.221  0.1153E+02  0.1054E+03
     -3.118  0.1575E+02  0.1081E+03
     -3.015  0.5447E+01  0.1087E+03
     -2.913  0.6491E+01  0.1096E+03
     -2.810  0.1679E+02  0.1113E+03
     -2.707  0.1287E+02  0.1131E+03
     -2.605  0.6493E+01  0.1140E+03
     -2.502  0.8673E+01  0.1149E+03
     -2.399  0.1041E+02  0.1162E+03
     -2.297  0.6560E+01  0.1180E+03
     -2.194  0.3966E+01  0.1186E+03
     -2.091  0.1855E+02  0.1212E+03
     -1.989  0.3000E+02  0.1252E+03
     -1.886  0.1080E+02  0.1270E+03
     -1.783  0.1022E+02  0.1282E+03
     -1.681  0.3032E+02  0.1313E+03
     -1.578  0.2922E+02  0.1346E+03
     -1.475  0.3741E+02  0.1384E+03
     -1.372  0.4092E+02  0.1438E+03
     -1.270  0.4648E+02  0.1529E+03
     -1.167  0.5203E+02  0.1596E+03
     -1.064  0.6332E+02  0.1662E+03
     -0.962  0.9739E+01  0.1680E+03
     -0.859  0.6563E+01  0.1687E+03
     -0.756  0.1623E+02  0.1710E+03
     -0.654  0.5787E+01  0.1716E+03
     -0.551  0.1183E+02  0.1732E+03
     -0.448  0.8656E+01  0.1742E+03
     -0.346  0.4329E+01  0.1747E+03
     -0.243  0.0000E+00  0.1747E+03
     -0.140  0.1765E+01  0.1748E+03
     -0.038  0.6505E+01  0.1757E+03
      0.065  0.0000E+00  0.1759E+03
      0.168  0.0000E+00  0.1759E+03
      0.270  0.0000E+00  0.1759E+03
      0.373  0.0000E+00  0.1759E+03
      0.476  0.1081E+01  0.1760E+03
      0.578  0.0000E+00  0.1760E+03
      0.681  0.0000E+00  0.1760E+03
      0.784  0.0000E+00  0.1760E+03
      0.886  0.0000E+00  0.1760E+03
      0.989  0.0000E+00  0.1760E+03
      1.092  0.0000E+00  0.1760E+03
      1.194  0.0000E+00  0.1760E+03
      1.297  0.0000E+00  0.1760E+03
      1.400  0.0000E+00  0.1760E+03
      1.502  0.0000E+00  0.1760E+03
      1.605  0.0000E+00  0.1760E+03
      1.708  0.0000E+00  0.1760E+03
      1.810  0.0000E+00  0.1760E+03
      1.913  0.0000E+00  0.1760E+03
      2.016  0.0000E+00  0.1760E+03
      2.118  0.0000E+00  0.1760E+03
      2.221  0.0000E+00  0.1760E+03
      2.324  0.0000E+00  0.1760E+03
      2.426  0.0000E+00  0.1760E+03
      2.529  0.0000E+00  0.1760E+03
      2.632  0.0000E+00  0.1760E+03
      2.735  0.1027E-02  0.1760E+03
      2.837  0.2132E+01  0.1763E+03
      2.940  0.9687E-01  0.1763E+03
      3.043  0.9508E+01  0.1775E+03
      3.145  0.5411E+01  0.1782E+03
      3.248  0.1074E+02  0.1793E+03
      3.351  0.3633E+01  0.1800E+03
      3.453  0.4304E+01  0.1806E+03
      3.556  0.2176E+01  0.1808E+03
      3.659  0.4015E+01  0.1813E+03
      3.761  0.7222E+01  0.1821E+03
      3.864  0.9339E+01  0.1834E+03
      3.967  0.4326E+01  0.1842E+03
      4.069  0.1178E+02  0.1854E+03
      4.172  0.1444E-10  0.1856E+03
      4.275  0.4329E+01  0.1860E+03
      4.377  0.2164E+01  0.1862E+03
      4.480  0.6889E+01  0.1869E+03
      4.583  0.8642E+01  0.1880E+03
      4.685  0.3079E-01  0.1880E+03
      4.788  0.8657E+01  0.1898E+03
      4.891  0.5465E+01  0.1903E+03
      4.993  0.2164E+01  0.1908E+03
      5.096  0.1082E+02  0.1919E+03
      5.199  0.1508E+02  0.1934E+03
      5.301  0.1061E+02  0.1945E+03
      5.404  0.6492E+01  0.1952E+03
      5.507  0.2164E+01  0.1954E+03
      5.609  0.6401E+01  0.1961E+03
      5.712  0.1082E+01  0.1962E+03
      5.815  0.1405E+02  0.1977E+03
      5.917  0.8657E+01  0.1986E+03
      6.020  0.1016E+02  0.1996E+03
      6.123  0.7575E+01  0.2011E+03
      6.225  0.1449E+02  0.2026E+03
      6.328  0.1954E+02  0.2048E+03
      6.431  0.1870E+02  0.2069E+03
      6.534  0.8205E+01  0.2094E+03
      6.636  0.2376E+02  0.2123E+03
      6.739  0.2738E+02  0.2154E+03
      6.842  0.1581E+02  0.2176E+03
      6.944  0.4631E+02  0.2226E+03
      7.047  0.4329E+01  0.2236E+03
      7.150  0.2793E-06  0.2236E+03
      7.252  0.4329E+01  0.2240E+03
      7.355  0.0000E+00  0.2240E+03
      7.458  0.0000E+00  0.2240E+03
      7.560  0.0000E+00  0.2240E+03
      7.663  0.0000E+00  0.2240E+03
      7.766  0.0000E+00  0.2240E+03
      7.868  0.0000E+00  0.2240E+03
      7.971  0.0000E+00  0.2240E+03
      8.074  0.0000E+00  0.2240E+03
      8.176  0.0000E+00  0.2240E+03
      8.279  0.0000E+00  0.2240E+03
      8.382  0.0000E+00  0.2240E+03
      8.484  0.0000E+00  0.2240E+03
      8.587  0.0000E+00  0.2240E+03
      8.58701830    -22.21558860  301      0.50133399      1.00000000
    -22.216  0.0000E+00  0.0000E+00  0.0000E+00
    -22.113  0.0000E+00  0.0000E+00  0.0000E+00
    -22.010  0.0000E+00  0.0000E+00  0.0000E+00
    -21.908  0.0000E+00  0.0000E+00  0.0000E+00
    -21.805  0.0000E+00  0.0000E+00  0.0000E+00
    -21.702  0.0000E+00  0.0000E+00  0.0000E+00
    -21.600  0.0000E+00  0.0000E+00  0.0000E+00
    -21.497  0.0000E+00  0.0000E+00  0.0000E+00
    -21.394  0.0000E+00  0.0000E+00  0.0000E+00
    -21.292  0.0000E+00  0.0000E+00  0.0000E+00
    -21.189  0.0000E+00  0.0000E+00  0.0000E+00
    -21.086  0.0000E+00  0.0000E+00  0.0000E+00
    -20.983  0.0000E+00  0.0000E+00  0.0000E+00
    -20.881  0.0000E+00  0.0000E+00  0.0000E+00
    -20.778  0.1729E+02  0.3109E-05  0.2766E-05
    -20.675  0.0000E+00  0.0000E+00  0.0000E+00
    -20.573  0.0000E+00  0.0000E+00  0.0000E+00
    -20.470  0.0000E+00  0.0000E+00  0.0000E+00
    -20.367  0.0000E+00  0.0000E+00  0.0000E+00
    -20.265  0.0000E+00  0.0000E+00  0.0000E+00
    -20.162  0.0000E+00  0.0000E+00  0.0000E+00
    -20.059  0.0000E+00  0.0000E+00  0.0000E+00
    -19.957  0.0000E+00  0.0000E+00  0.0000E+00
    -19.854  0.0000E+00  0.0000E+00  0.0000E+00
    -19.751  0.0000E+00  0.0000E+00  0.0000E+00
    -19.649  0.0000E+00  0.0000E+00  0.0000E+00
    -19.546  0.0000E+00  0.0000E+00  0.0000E+00
    -19.443  0.0000E+00  0.0000E+00  0.0000E+00
    -19.341  0.0000E+00  0.0000E+00  0.0000E+00
    -19.238  0.0000E+00  0.0000E+00  0.0000E+00
    -19.135  0.0000E+00  0.0000E+00  0.0000E+00
    -19.033  0.0000E+00  0.0000E+00  0.0000E+00
    -18.930  0.0000E+00  0.0000E+00  0.0000E+00
    -18.827  0.0000E+00  0.0000E+00  0.0000E+00
    -18.725  0.0000E+00  0.0000E+00  0.0000E+00
    -18.622  0.0000E+00  0.0000E+00  0.0000E+00
    -18.519  0.0000E+00  0.0000E+00  0.0000E+00
    -18.417  0.0000E+00  0.0000E+00  0.0000E+00
    -18.314  0.0000E+00  0.0000E+00  0.0000E+00
    -18.211  0.0000E+00  0.0000E+00  0.0000E+00
    -18.109  0.0000E+00  0.0000E+00  0.0000E+00
    -18.006  0.0000E+00  0.0000E+00  0.0000E+00
    -17.903  0.0000E+00  0.0000E+00  0.0000E+00
    -17.801  0.0000E+00  0.0000E+00  0.0000E+00
    -17.698  0.0000E+00  0.0000E+00  0.0000E+00
    -17.595  0.0000E+00  0.0000E+00  0.0000E+00
    -17.493  0.0000E+00  0.0000E+00  0.0000E+00
    -17.390  0.0000E+00  0.0000E+00  0.0000E+00
    -17.287  0.0000E+00  0.0000E+00  0.0000E+00
    -17.184  0.0000E+00  0.0000E+00  0.0000E+00
    -17.082  0.0000E+00  0.0000E+00  0.0000E+00
    -16.979  0.0000E+00  0.0000E+00  0.0000E+00
    -16.876  0.0000E+00  0.0000E+00  0.0000E+00
    -16.774  0.0000E+00  0.0000E+00  0.0000E+00
    -16.671  0.0000E+00  0.0000E+00  0.0000E+00
    -16.568  0.0000E+00  0.0000E+00  0.0000E+00
    -16.466  0.3681E-04  0.1580E-04  0.3238E-05
    -16.363  0.3714E-04  0.6159E-04  0.7912E-05
    -16.260  0.6431E-04  0.3599E-04  0.4247E-05
    -16.158  0.0000E+00  0.0000E+00  0.0000E+00
    -16.055  0.0000E+00  0.0000E+00  0.0000E+00
    -15.952  0.0000E+00  0.0000E+00  0.0000E+00
    -15.850  0.0000E+00  0.0000E+00  0.0000E+00
    -15.747  0.0000E+00  0.0000E+00  0.0000E+00
    -15.644  0.0000E+00  0.0000E+00  0.0000E+00
    -15.542  0.0000E+00  0.0000E+00  0.0000E+00
    -15.439  0.0000E+00  0.0000E+00  0.0000E+00
    -15.336  0.0000E+00  0.0000E+00  0.0000E+00
    -15.234  0.0000E+00  0.0000E+00  0.0000E+00
    -15.131  0.0000E+00  0.0000E+00  0.0000E+00
    -15.028  0.0000E+00  0.0000E+00  0.0000E+00
    -14.926  0.0000E+00  0.0000E+00  0.0000E+00
    -14.823  0.0000E+00  0.0000E+00  0.0000E+00
    -14.720  0.0000E+00  0.0000E+00  0.0000E+00
    -14.618  0.0000E+00  0.0000E+00  0.0000E+00
    -14.515  0.0000E+00  0.0000E+00  0.0000E+00
    -14.412  0.0000E+00  0.0000E+00  0.0000E+00
    -14.310  0.4770E-03  0.1512E-04  0.8842E-06
    -14.207  0.2311E-02  0.2135E-02  0.4364E-04
    -14.104  0.8510E-03  0.5080E-02  0.2170E-03
    -14.002  0.2983E-02  0.6686E-02  0.5220E-03
    -13.899  0.7213E-03  0.3593E-02  0.3625E-03
    -13.796  0.1267E-02  0.3758E-02  0.5530E-03
    -13.694  0.5178E-03  0.9480E-03  0.9468E-04
    -13.591  0.0000E+00  0.0000E+00  0.0000E+00
    -13.488  0.0000E+00  0.0000E+00  0.0000E+00
    -13.386  0.0000E+00  0.0000E+00  0.0000E+00
    -13.283  0.0000E+00  0.0000E+00  0.0000E+00
    -13.180  0.0000E+00  0.0000E+00  0.0000E+00
    -13.077  0.0000E+00  0.0000E+00  0.0000E+00
    -12.975  0.0000E+00  0.0000E+00  0.0000E+00
    -12.872  0.0000E+00  0.0000E+00  0.0000E+00
    -12.769  0.0000E+00  0.0000E+00  0.0000E+00
    -12.667  0.0000E+00  0.0000E+00  0.0000E+00
    -12.564  0.0000E+00  0.0000E+00  0.0000E+00
    -12.461  0.0000E+00  0.0000E+00  0.0000E+00
    -12.359  0.0000E+00  0.0000E+00  0.0000E+00
    -12.256  0.0000E+00  0.0000E+00  0.0000E+00
    -12.153  0.0000E+00  0.0000E+00  0.0000E+00
    -12.051  0.0000E+00  0.0000E+00  0.0000E+00
    -11.948  0.0000E+00  0.0000E+00  0.0000E+00
    -11.845  0.0000E+00  0.0000E+00  0.0000E+00
    -11.743  0.0000E+00  0.0000E+00  0.0000E+00
    -11.640  0.0000E+00  0.0000E+00  0.0000E+00
    -11.537  0.0000E+00  0.0000E+00  0.0000E+00
    -11.435  0.0000E+00  0.0000E+00  0.0000E+00
    -11.332  0.0000E+00  0.0000E+00  0.0000E+00
    -11.229  0.0000E+00  0.0000E+00  0.0000E+00
    -11.127  0.0000E+00  0.0000E+00  0.0000E+00
    -11.024  0.0000E+00  0.0000E+00  0.0000E+00
    -10.921  0.0000E+00  0.0000E+00  0.0000E+00
    -10.819  0.0000E+00  0.0000E+00  0.0000E+00
    -10.716  0.0000E+00  0.0000E+00  0.0000E+00
    -10.613  0.0000E+00  0.0000E+00  0.0000E+00
    -10.511  0.0000E+00  0.0000E+00  0.0000E+00
    -10.408  0.0000E+00  0.0000E+00  0.0000E+00
    -10.305  0.0000E+00  0.0000E+00  0.0000E+00
    -10.203  0.0000E+00  0.0000E+00  0.0000E+00
    -10.100  0.0000E+00  0.0000E+00  0.0000E+00
     -9.997  0.0000E+00  0.0000E+00  0.0000E+00
     -9.895  0.0000E+00  0.0000E+00  0.0000E+00
     -9.792  0.0000E+00  0.0000E+00  0.0000E+00
     -9.689  0.0000E+00  0.0000E+00  0.0000E+00
     -9.587  0.0000E+00  0.0000E+00  0.0000E+00
     -9.484  0.0000E+00  0.0000E+00  0.0000E+00
     -9.381  0.0000E+00  0.0000E+00  0.0000E+00
     -9.278  0.0000E+00  0.0000E+00  0.0000E+00
     -9.176  0.0000E+00  0.0000E+00  0.0000E+00
     -9.073  0.0000E+00  0.0000E+00  0.0000E+00
     -8.970  0.0000E+00  0.0000E+00  0.0000E+00
     -8.868  0.0000E+00  0.0000E+00  0.0000E+00
     -8.765  0.0000E+00  0.0000E+00  0.0000E+00
     -8.662  0.0000E+00  0.0000E+00  0.0000E+00
     -8.560  0.0000E+00  0.0000E+00  0.0000E+00
     -8.457  0.0000E+00  0.0000E+00  0.0000E+00
     -8.354  0.0000E+00  0.0000E+00  0.0000E+00
     -8.252  0.0000E+00  0.0000E+00  0.0000E+00
     -8.149  0.5471E-17  0.6087E-04  0.4227E-05
     -8.046  0.0000E+00  0.0000E+00  0.0000E+00
     -7.944  0.4389E-06  0.3860E-02  0.2039E-04
     -7.841  0.1056E-16  0.6005E-03  0.7219E-05
     -7.738  0.1468E-05  0.2911E-02  0.4745E-05
     -7.636  0.1197E-05  0.6478E-02  0.2254E-05
     -7.533  0.1003E-04  0.5892E-01  0.5101E-04
     -7.430  0.1190E-04  0.1017E+00  0.4265E-04
     -7.328  0.3350E-04  0.4606E+00  0.3216E-04
     -7.225  0.4395E-04  0.8809E+01  0.4211E-04
     -7.122  0.3620E-04  0.2305E+02  0.6892E-04
     -7.020  0.2644E-07  0.1139E-03  0.2716E-07
     -6.917  0.2840E-06  0.1336E-03  0.2320E-06
     -6.814  0.4398E-04  0.2684E-01  0.1391E-04
     -6.712  0.0000E+00  0.0000E+00  0.0000E+00
     -6.609  0.0000E+00  0.0000E+00  0.0000E+00
     -6.506  0.1373E-04  0.2056E-02  0.1291E-05
     -6.404  0.0000E+00  0.0000E+00  0.0000E+00
     -6.301  0.0000E+00  0.0000E+00  0.0000E+00
     -6.198  0.0000E+00  0.0000E+00  0.0000E+00
     -6.096  0.0000E+00  0.0000E+00  0.0000E+00
     -5.993  0.0000E+00  0.0000E+00  0.0000E+00
     -5.890  0.0000E+00  0.0000E+00  0.0000E+00
     -5.788  0.0000E+00  0.0000E+00  0.0000E+00
     -5.685  0.0000E+00  0.0000E+00  0.0000E+00
     -5.582  0.0000E+00  0.0000E+00  0.0000E+00
     -5.480  0.0000E+00  0.0000E+00  0.0000E+00
     -5.377  0.0000E+00  0.0000E+00  0.0000E+00
     -5.274  0.0000E+00  0.0000E+00  0.0000E+00
     -5.171  0.0000E+00  0.0000E+00  0.0000E+00
     -5.069  0.0000E+00  0.0000E+00  0.0000E+00
     -4.966  0.0000E+00  0.0000E+00  0.0000E+00
     -4.863  0.0000E+00  0.0000E+00  0.0000E+00
     -4.761  0.0000E+00  0.0000E+00  0.0000E+00
     -4.658  0.0000E+00  0.0000E+00  0.0000E+00
     -4.555  0.0000E+00  0.0000E+00  0.0000E+00
     -4.453  0.0000E+00  0.0000E+00  0.0000E+00
     -4.350  0.0000E+00  0.0000E+00  0.0000E+00
     -4.247  0.0000E+00  0.0000E+00  0.0000E+00
     -4.145  0.0000E+00  0.0000E+00  0.0000E+00
     -4.042  0.0000E+00  0.0000E+00  0.0000E+00
     -3.939  0.0000E+00  0.0000E+00  0.0000E+00
     -3.837  0.0000E+00  0.0000E+00  0.0000E+00
     -3.734  0.0000E+00  0.0000E+00  0.0000E+00
     -3.631  0.0000E+00  0.0000E+00  0.0000E+00
     -3.529  0.0000E+00  0.0000E+00  0.0000E+00
     -3.426  0.0000E+00  0.0000E+00  0.0000E+00
     -3.323  0.1564E-05  0.3810E-03  0.7114E-05
     -3.221  0.1627E-04  0.1345E-01  0.1075E-02
     -3.118  0.8774E-04  0.1048E-01  0.1657E-02
     -3.015  0.6536E-06  0.1081E-02  0.3876E-03
     -2.913  0.1712E-03  0.1073E-01  0.3936E-03
     -2.810  0.3273E-03  0.1824E-01  0.1400E-02
     -2.707  0.3161E-03  0.1086E-01  0.1078E-02
     -2.605  0.8207E-16  0.1195E-02  0.4871E-03
     -2.502  0.2589E-03  0.1531E-01  0.1011E-02
     -2.399  0.8044E-03  0.8183E-02  0.9899E-03
     -2.297  0.1015E-02  0.5077E-02  0.9674E-03
     -2.194  0.1001E-02  0.4977E-02  0.2541E-03
     -2.091  0.1127E-01  0.1378E-01  0.2520E-02
     -1.989  0.1556E-01  0.4535E-01  0.5380E-02
     -1.886  0.4802E-02  0.3454E-01  0.1607E-02
     -1.783  0.1182E-02  0.6074E-01  0.2460E-02
     -1.681  0.2426E-02  0.1223E+00  0.1013E-01
     -1.578  0.1365E-02  0.8293E-01  0.1191E-01
     -1.475  0.3487E-02  0.9103E-01  0.1294E-01
     -1.372  0.3329E-02  0.5835E-01  0.1981E-01
     -1.270  0.3690E-02  0.6224E-01  0.1125E-01
     -1.167  0.2923E-02  0.8947E-01  0.1510E-01
     -1.064  0.2518E-02  0.8747E-01  0.1578E-01
     -0.962  0.3420E-03  0.9372E-02  0.3582E-02
     -0.859  0.9463E-04  0.8623E-02  0.2528E-02
     -0.756  0.1104E-02  0.2165E-01  0.4542E-02
     -0.654  0.4373E-03  0.3384E-02  0.5660E-03
     -0.551  0.3841E-03  0.4331E-02  0.1263E-02
     -0.448  0.2140E-03  0.1787E-02  0.6798E-03
     -0.346  0.2632E-15  0.2968E-02  0.1460E-04
     -0.243  0.0000E+00  0.0000E+00  0.0000E+00
     -0.140  0.1382E-05  0.3074E-03  0.2359E-03
     -0.038  0.3681E-07  0.4438E-03  0.9178E-03
      0.065  0.0000E+00  0.0000E+00  0.0000E+00
      0.168  0.0000E+00  0.0000E+00  0.0000E+00
      0.270  0.0000E+00  0.0000E+00  0.0000E+00
      0.373  0.0000E+00  0.0000E+00  0.0000E+00
      0.476  0.2494E-16  0.1386E-08  0.4058E-04
      0.578  0.0000E+00  0.0000E+00  0.0000E+00
      0.681  0.0000E+00  0.0000E+00  0.0000E+00
      0.784  0.0000E+00  0.0000E+00  0.0000E+00
      0.886  0.0000E+00  0.0000E+00  0.0000E+00
      0.989  0.0000E+00  0.0000E+00  0.0000E+00
      1.092  0.0000E+00  0.0000E+00  0.0000E+00
      1.194  0.0000E+00  0.0000E+00  0.0000E+00
      1.297  0.0000E+00  0.0000E+00  0.0000E+00
      1.400  0.0000E+00  0.0000E+00  0.0000E+00
      1.502  0.0000E+00  0.0000E+00  0.0000E+00
      1.605  0.0000E+00  0.0000E+00  0.0000E+00
      1.708  0.0000E+00  0.0000E+00  0.0000E+00
      1.810  0.0000E+00  0.0000E+00  0.0000E+00
      1.913  0.0000E+00  0.0000E+00  0.0000E+00
      2.016  0.0000E+00  0.0000E+00  0.0000E+00
      2.118  0.0000E+00  0.0000E+00  0.0000E+00
      2.221  0.0000E+00  0.0000E+00  0.0000E+00
      2.324  0.0000E+00  0.0000E+00  0.0000E+00
      2.426  0.0000E+00  0.0000E+00  0.0000E+00
      2.529  0.0000E+00  0.0000E+00  0.0000E+00
      2.632  0.0000E+00  0.0000E+00  0.0000E+00
      2.735  0.2532E-20  0.6169E-08  0.6164E-06
      2.837  0.1762E-04  0.1415E-03  0.1841E-02
      2.940  0.1400E-04  0.3985E-05  0.4272E-04
      3.043  0.3147E-03  0.2822E-02  0.4282E-02
      3.145  0.2448E-03  0.1051E-02  0.2591E-02
      3.248  0.6031E-03  0.4783E-02  0.2982E-02
      3.351  0.2065E-03  0.1546E-02  0.6429E-03
      3.453  0.5822E-03  0.1492E-02  0.1828E-02
      3.556  0.3453E-07  0.3270E-03  0.2212E-02
      3.659  0.1239E-11  0.7509E-03  0.3480E-02
      3.761  0.2458E-03  0.1310E-02  0.6317E-02
      3.864  0.7393E-03  0.2586E-02  0.6764E-02
      3.967  0.8039E-03  0.6084E-03  0.2629E-02
      4.069  0.3933E-03  0.3528E-02  0.3952E-02
      4.172  0.1883E-15  0.4478E-14  0.3639E-14
      4.275  0.5648E-04  0.1343E-02  0.1091E-02
      4.377  0.4322E-05  0.2007E-03  0.3449E-02
      4.480  0.6313E-03  0.2138E-02  0.8509E-02
      4.583  0.3055E-04  0.3201E-02  0.7083E-02
      4.685  0.5143E-05  0.7395E-05  0.1508E-04
      4.788  0.2639E-02  0.3845E-02  0.4669E-02
      4.891  0.1190E-01  0.2964E-03  0.7094E-02
      4.993  0.9014E-14  0.3936E-03  0.2397E-02
      5.096  0.1499E-02  0.4026E-02  0.1281E-01
      5.199  0.1661E-01  0.1020E-01  0.1263E-01
      5.301  0.1806E-01  0.1039E-01  0.7532E-02
      5.404  0.1372E-02  0.1038E-02  0.6589E-02
      5.507  0.1263E-02  0.9348E-04  0.5319E-02
      5.609  0.1857E-01  0.4110E-02  0.1538E-01
      5.712  0.4237E-08  0.1663E-03  0.1299E-02
      5.815  0.1843E-01  0.3564E-02  0.2802E-01
      5.917  0.3495E-01  0.1196E-01  0.2258E-01
      6.020  0.1401E-01  0.3586E-02  0.6188E-01
      6.123  0.3960E-01  0.7578E-02  0.6942E-01
      6.225  0.4701E-02  0.3276E-02  0.1226E+00
      6.328  0.8647E-01  0.3193E-01  0.3347E+00
      6.431  0.2586E-01  0.2726E-01  0.4721E+00
      6.534  0.2645E-01  0.5665E-02  0.1594E+00
      6.636  0.4566E-01  0.4290E-01  0.7084E+00
      6.739  0.2490E-01  0.6642E-01  0.7490E+00
      6.842  0.3544E-01  0.1599E-01  0.4538E+00
      6.944  0.3032E-01  0.1139E+00  0.1394E+01
      7.047  0.8912E-02  0.1085E-01  0.1144E+00
      7.150  0.1750E-09  0.3222E-09  0.4201E-08
      7.252  0.2711E-02  0.4994E-02  0.6510E-01
      7.355  0.0000E+00  0.0000E+00  0.0000E+00
      7.458  0.0000E+00  0.0000E+00  0.0000E+00
      7.560  0.0000E+00  0.0000E+00  0.0000E+00
      7.663  0.0000E+00  0.0000E+00  0.0000E+00
      7.766  0.0000E+00  0.0000E+00  0.0000E+00
      7.868  0.0000E+00  0.0000E+00  0.0000E+00
      7.971  0.0000E+00  0.0000E+00  0.0000E+00
      8.074  0.0000E+00  0.0000E+00  0.0000E+00
      8.176  0.0000E+00  0.0000E+00  0.0000E+00
      8.279  0.0000E+00  0.0000E+00  0.0000E+00
      8.382  0.0000E+00  0.0000E+00  0.0000E+00
      8.484  0.0000E+00  0.0000E+00  0.0000E+00
      8.587  0.0000E+00  0.0000E+00  0.0000E+00
      8.58701830    -22.21558860  301      0.50133399      1.00000000
    -22.216  0.0000E+00  0.0000E+00  0.0000E+00
    -22.113  0.0000E+00  0.0000E+00  0.0000E+00
    -22.010  0.0000E+00  0.0000E+00  0.0000E+00
    -21.908  0.0000E+00  0.0000E+00  0.0000E+00
    -21.805  0.0000E+00  0.0000E+00  0.0000E+00
    -21.702  0.0000E+00  0.0000E+00  0.0000E+00
    -21.600  0.0000E+00  0.0000E+00  0.0000E+00
    -21.497  0.0000E+00  0.0000E+00  0.0000E+00
    -21.394  0.0000E+00  0.0000E+00  0.0000E+00
    -21.292  0.0000E+00  0.0000E+00  0.0000E+00
    -21.189  0.0000E+00  0.0000E+00  0.0000E+00
    -21.086  0.0000E+00  0.0000E+00  0.0000E+00
    -20.983  0.0000E+00  0.0000E+00  0.0000E+00
    -20.881  0.0000E+00  0.0000E+00  0.0000E+00
    -20.778  0.1729E+02  0.3113E-05  0.2784E-05
    -20.675  0.0000E+00  0.0000E+00  0.0000E+00
    -20.573  0.0000E+00  0.0000E+00  0.0000E+00
    -20.470  0.0000E+00  0.0000E+00  0.0000E+00
    -20.367  0.0000E+00  0.0000E+00  0.0000E+00
    -20.265  0.0000E+00  0.0000E+00  0.0000E+00
    -20.162  0.0000E+00  0.0000E+00  0.0000E+00
    -20.059  0.0000E+00  0.0000E+00  0.0000E+00
    -19.957  0.0000E+00  0.0000E+00  0.0000E+00
    -19.854  0.0000E+00  0.0000E+00  0.0000E+00
    -19.751  0.0000E+00  0.0000E+00  0.0000E+00
    -19.649  0.0000E+00  0.0000E+00  0.0000E+00
    -19.546  0.0000E+00  0.0000E+00  0.0000E+00
    -19.443  0.0000E+00  0.0000E+00  0.0000E+00
    -19.341  0.0000E+00  0.0000E+00  0.0000E+00
    -19.238  0.0000E+00  0.0000E+00  0.0000E+00
    -19.135  0.0000E+00  0.0000E+00  0.0000E+00
    -19.033  0.0000E+00  0.0000E+00  0.0000E+00
    -18.930  0.0000E+00  0.0000E+00  0.0000E+00
    -18.827  0.0000E+00  0.0000E+00  0.0000E+00
    -18.725  0.0000E+00  0.0000E+00  0.0000E+00
    -18.622  0.0000E+00  0.0000E+00  0.0000E+00
    -18.519  0.0000E+00  0.0000E+00  0.0000E+00
    -18.417  0.0000E+00  0.0000E+00  0.0000E+00
    -18.314  0.0000E+00  0.0000E+00  0.0000E+00
    -18.211  0.0000E+00  0.0000E+00  0.0000E+00
    -18.109  0.0000E+00  0.0000E+00  0.0000E+00
    -18.006  0.0000E+00  0.0000E+00  0.0000E+00
    -17.903  0.0000E+00  0.0000E+00  0.0000E+00
    -17.801  0.0000E+00  0.0000E+00  0.0000E+00
    -17.698  0.0000E+00  0.0000E+00  0.0000E+00
    -17.595  0.0000E+00  0.0000E+00  0.0000E+00
    -17.493  0.0000E+00  0.0000E+00  0.0000E+00
    -17.390  0.0000E+00  0.0000E+00  0.0000E+00
    -17.287  0.0000E+00  0.0000E+00  0.0000E+00
    -17.184  0.0000E+00  0.0000E+00  0.0000E+00
    -17.082  0.0000E+00  0.0000E+00  0.0000E+00
    -16.979  0.0000E+00  0.0000E+00  0.0000E+00
    -16.876  0.0000E+00  0.0000E+00  0.0000E+00
    -16.774  0.0000E+00  0.0000E+00  0.0000E+00
    -16.671  0.0000E+00  0.0000E+00  0.0000E+00
    -16.568  0.0000E+00  0.0000E+00  0.0000E+00
    -16.466  0.2925E-04  0.1511E-04  0.3164E-05
    -16.363  0.5218E-04  0.6994E-04  0.1081E-04
    -16.260  0.6433E-04  0.3596E-04  0.4250E-05
    -16.158  0.0000E+00  0.0000E+00  0.0000E+00
    -16.055  0.0000E+00  0.0000E+00  0.0000E+00
    -15.952  0.0000E+00  0.0000E+00  0.0000E+00
    -15.850  0.0000E+00  0.0000E+00  0.0000E+00
    -15.747  0.0000E+00  0.0000E+00  0.0000E+00
    -15.644  0.0000E+00  0.0000E+00  0.0000E+00
    -15.542  0.0000E+00  0.0000E+00  0.0000E+00
    -15.439  0.0000E+00  0.0000E+00  0.0000E+00
    -15.336  0.0000E+00  0.0000E+00  0.0000E+00
    -15.234  0.0000E+00  0.0000E+00  0.0000E+00
    -15.131  0.0000E+00  0.0000E+00  0.0000E+00
    -15.028  0.0000E+00  0.0000E+00  0.0000E+00
    -14.926  0.0000E+00  0.0000E+00  0.0000E+00
    -14.823  0.0000E+00  0.0000E+00  0.0000E+00
    -14.720  0.0000E+00  0.0000E+00  0.0000E+00
    -14.618  0.0000E+00  0.0000E+00  0.0000E+00
    -14.515  0.0000E+00  0.0000E+00  0.0000E+00
    -14.412  0.0000E+00  0.0000E+00  0.0000E+00
    -14.310  0.4770E-03  0.1512E-04  0.8842E-06
    -14.207  0.2581E-02  0.1626E-02  0.5089E-04
    -14.104  0.8369E-03  0.6707E-02  0.2335E-03
    -14.002  0.1623E-02  0.5201E-02  0.3863E-03
    -13.899  0.1468E-02  0.4469E-02  0.5646E-03
    -13.796  0.1538E-02  0.3777E-02  0.4907E-03
    -13.694  0.1923E-03  0.8537E-03  0.1017E-03
    -13.591  0.0000E+00  0.0000E+00  0.0000E+00
    -13.488  0.0000E+00  0.0000E+00  0.0000E+00
    -13.386  0.0000E+00  0.0000E+00  0.0000E+00
    -13.283  0.0000E+00  0.0000E+00  0.0000E+00
    -13.180  0.0000E+00  0.0000E+00  0.0000E+00
    -13.077  0.0000E+00  0.0000E+00  0.0000E+00