 running on   64 total cores
 distrk:  each k-point on   64 cores,    1 groups
 distr:  one band on    8 cores,    8 groups
 using from now: INCAR     
 vasp.5.4.4.18Apr17-6-g9f103f2a35 (build Jun 29 2021 13:39:03) complex           
 POSCAR found type information on POSCAR  Cs Pb Br
 POSCAR found :  3 types and      20 ions
 scaLAPACK will be used
 LDA part: xc-table for Pade appr. of Perdew
 POSCAR found type information on POSCAR  Cs Pb Br
 POSCAR found :  3 types and      20 ions
 POSCAR, INCAR and KPOINTS ok, starting setup
 FFT: planning ...
 WAVECAR not read
 entering main loop
       N       E                     dE             d eps       ncg     rms          rms(c)
DAV:   1     0.664623187435E+03    0.66462E+03   -0.56138E+04  1840   0.923E+02
DAV:   2    -0.576017771397E+03   -0.12406E+04   -0.11892E+04  2216   0.285E+02
DAV:   3    -0.748874438295E+03   -0.17286E+03   -0.17182E+03  2416   0.127E+02
DAV:   4    -0.754451222494E+03   -0.55768E+01   -0.55597E+01  2152   0.298E+01
DAV:   5    -0.754721725578E+03   -0.27050E+00   -0.27036E+00  2368   0.525E+00    0.705E+00
DAV:   6    -0.714995121739E+03    0.39727E+02   -0.11782E+01  2368   0.282E+01    0.502E+00
DAV:   7    -0.714766631905E+03    0.22849E+00   -0.38367E+00  2272   0.482E+00    0.258E+00
DAV:   8    -0.714861814690E+03   -0.95183E-01   -0.18105E-01  2136   0.169E+00    0.149E+00
DAV:   9    -0.714903237418E+03   -0.41423E-01   -0.82182E-02  1992   0.119E+00    0.328E-01
DAV:  10    -0.714903973797E+03   -0.73638E-03   -0.46186E-03  2584   0.324E-01    0.184E-01
DAV:  11    -0.714905412374E+03   -0.14386E-02   -0.15719E-03  2008   0.162E-01    0.676E-02
DAV:  12    -0.714905511098E+03   -0.98724E-04   -0.45804E-04  2120   0.935E-02    0.241E-02
DAV:  13    -0.714905526760E+03   -0.15662E-04   -0.35988E-05  2240   0.231E-02    0.714E-03
DAV:  14    -0.714905532446E+03   -0.56858E-05   -0.28084E-06  1760   0.521E-03    0.197E-03
DAV:  15    -0.714905537251E+03   -0.48048E-05   -0.56209E-07  1272   0.343E-03    0.866E-04
DAV:  16    -0.714905533386E+03    0.38652E-05   -0.12797E-07  1224   0.194E-03    0.341E-04
DAV:  17    -0.714905532777E+03    0.60865E-06   -0.50039E-08  1144   0.988E-04
   1 F= -.71490553E+03 E0= -.71490553E+03  d E =-.241836E-13
Application 1866174 resources: utime ~7592s, stime ~71s, Rss ~78224, inblocks ~1328, outblocks ~50744
