  40  40   1   0
  0.4040437E+02  0.1173535E-08  0.1173535E-08  0.1173535E-08  0.5000000E-15
   1.0000000000000000E-004
  CAR 
 CsPbBr3 cubic bulk                      
      8.29243820    -22.21891156  301      0.58832239      1.00000000
    -22.219  0.0000E+00  0.0000E+00
    -22.117  0.0000E+00  0.0000E+00
    -22.016  0.0000E+00  0.0000E+00
    -21.914  0.0000E+00  0.0000E+00
    -21.812  0.0000E+00  0.0000E+00
    -21.710  0.0000E+00  0.0000E+00
    -21.609  0.0000E+00  0.0000E+00
    -21.507  0.0000E+00  0.0000E+00
    -21.405  0.0000E+00  0.0000E+00
    -21.304  0.0000E+00  0.0000E+00
    -21.202  0.0000E+00  0.0000E+00
    -21.100  0.0000E+00  0.0000E+00
    -20.998  0.0000E+00  0.0000E+00
    -20.897  0.0000E+00  0.0000E+00
    -20.795  0.1573E+03  0.1600E+02
    -20.693  0.0000E+00  0.1600E+02
    -20.592  0.0000E+00  0.1600E+02
    -20.490  0.0000E+00  0.1600E+02
    -20.388  0.0000E+00  0.1600E+02
    -20.287  0.0000E+00  0.1600E+02
    -20.185  0.0000E+00  0.1600E+02
    -20.083  0.0000E+00  0.1600E+02
    -19.981  0.0000E+00  0.1600E+02
    -19.880  0.0000E+00  0.1600E+02
    -19.778  0.0000E+00  0.1600E+02
    -19.676  0.0000E+00  0.1600E+02
    -19.575  0.0000E+00  0.1600E+02
    -19.473  0.0000E+00  0.1600E+02
    -19.371  0.0000E+00  0.1600E+02
    -19.269  0.0000E+00  0.1600E+02
    -19.168  0.0000E+00  0.1600E+02
    -19.066  0.0000E+00  0.1600E+02
    -18.964  0.0000E+00  0.1600E+02
    -18.863  0.0000E+00  0.1600E+02
    -18.761  0.0000E+00  0.1600E+02
    -18.659  0.0000E+00  0.1600E+02
    -18.558  0.0000E+00  0.1600E+02
    -18.456  0.0000E+00  0.1600E+02
    -18.354  0.0000E+00  0.1600E+02
    -18.252  0.0000E+00  0.1600E+02
    -18.151  0.0000E+00  0.1600E+02
    -18.049  0.0000E+00  0.1600E+02
    -17.947  0.0000E+00  0.1600E+02
    -17.846  0.0000E+00  0.1600E+02
    -17.744  0.0000E+00  0.1600E+02
    -17.642  0.0000E+00  0.1600E+02
    -17.541  0.0000E+00  0.1600E+02
    -17.439  0.0000E+00  0.1600E+02
    -17.337  0.0000E+00  0.1600E+02
    -17.235  0.0000E+00  0.1600E+02
    -17.134  0.0000E+00  0.1600E+02
    -17.032  0.0000E+00  0.1600E+02
    -16.930  0.0000E+00  0.1600E+02
    -16.829  0.0000E+00  0.1600E+02
    -16.727  0.0000E+00  0.1600E+02
    -16.625  0.0000E+00  0.1600E+02
    -16.523  0.1695E+00  0.1602E+02
    -16.422  0.1819E+03  0.3625E+02
    -16.320  0.2942E+03  0.7342E+02
    -16.218  0.0000E+00  0.9600E+02
    -16.117  0.0000E+00  0.9600E+02
    -16.015  0.0000E+00  0.9600E+02
    -15.913  0.0000E+00  0.9600E+02
    -15.812  0.0000E+00  0.9600E+02
    -15.710  0.0000E+00  0.9600E+02
    -15.608  0.0000E+00  0.9600E+02
    -15.506  0.0000E+00  0.9600E+02
    -15.405  0.0000E+00  0.9600E+02
    -15.303  0.0000E+00  0.9600E+02
    -15.201  0.0000E+00  0.9600E+02
    -15.100  0.0000E+00  0.9600E+02
    -14.998  0.0000E+00  0.9600E+02
    -14.896  0.0000E+00  0.9600E+02
    -14.794  0.0000E+00  0.9600E+02
    -14.693  0.0000E+00  0.9600E+02
    -14.591  0.0000E+00  0.9600E+02
    -14.489  0.0000E+00  0.9600E+02
    -14.388  0.2757E-10  0.9600E+02
    -14.286  0.9374E+01  0.9695E+02
    -14.184  0.5202E+02  0.1030E+03
    -14.083  0.7212E+02  0.1116E+03
    -13.981  0.2255E+02  0.1143E+03
    -13.879  0.1109E+03  0.1270E+03
    -13.777  0.1060E+03  0.1390E+03
    -13.676  0.2704E+02  0.1440E+03
    -13.574  0.0000E+00  0.1440E+03
    -13.472  0.0000E+00  0.1440E+03
    -13.371  0.0000E+00  0.1440E+03
    -13.269  0.0000E+00  0.1440E+03
    -13.167  0.0000E+00  0.1440E+03
    -13.066  0.0000E+00  0.1440E+03
    -12.964  0.0000E+00  0.1440E+03
    -12.862  0.0000E+00  0.1440E+03
    -12.760  0.0000E+00  0.1440E+03
    -12.659  0.0000E+00  0.1440E+03
    -12.557  0.0000E+00  0.1440E+03
    -12.455  0.0000E+00  0.1440E+03
    -12.354  0.0000E+00  0.1440E+03
    -12.252  0.0000E+00  0.1440E+03
    -12.150  0.0000E+00  0.1440E+03
    -12.048  0.0000E+00  0.1440E+03
    -11.947  0.0000E+00  0.1440E+03
    -11.845  0.0000E+00  0.1440E+03
    -11.743  0.0000E+00  0.1440E+03
    -11.642  0.0000E+00  0.1440E+03
    -11.540  0.0000E+00  0.1440E+03
    -11.438  0.0000E+00  0.1440E+03
    -11.337  0.0000E+00  0.1440E+03
    -11.235  0.0000E+00  0.1440E+03
    -11.133  0.0000E+00  0.1440E+03
    -11.031  0.0000E+00  0.1440E+03
    -10.930  0.0000E+00  0.1440E+03
    -10.828  0.0000E+00  0.1440E+03
    -10.726  0.0000E+00  0.1440E+03
    -10.625  0.0000E+00  0.1440E+03
    -10.523  0.0000E+00  0.1440E+03
    -10.421  0.0000E+00  0.1440E+03
    -10.319  0.0000E+00  0.1440E+03
    -10.218  0.0000E+00  0.1440E+03
    -10.116  0.0000E+00  0.1440E+03
    -10.014  0.0000E+00  0.1440E+03
     -9.913  0.0000E+00  0.1440E+03
     -9.811  0.0000E+00  0.1440E+03
     -9.709  0.0000E+00  0.1440E+03
     -9.608  0.0000E+00  0.1440E+03
     -9.506  0.0000E+00  0.1440E+03
     -9.404  0.0000E+00  0.1440E+03
     -9.302  0.0000E+00  0.1440E+03
     -9.201  0.0000E+00  0.1440E+03
     -9.099  0.0000E+00  0.1440E+03
     -8.997  0.0000E+00  0.1440E+03
     -8.896  0.0000E+00  0.1440E+03
     -8.794  0.0000E+00  0.1440E+03
     -8.692  0.0000E+00  0.1440E+03
     -8.591  0.0000E+00  0.1440E+03
     -8.489  0.0000E+00  0.1440E+03
     -8.387  0.0000E+00  0.1440E+03
     -8.285  0.0000E+00  0.1440E+03
     -8.184  0.3539E+00  0.1440E+03
     -8.082  0.0000E+00  0.1442E+03
     -7.980  0.7820E+01  0.1450E+03
     -7.879  0.3227E+01  0.1456E+03
     -7.777  0.1070E+02  0.1468E+03
     -7.675  0.1915E+02  0.1492E+03
     -7.573  0.7561E+01  0.1500E+03
     -7.472  0.2568E+02  0.1529E+03
     -7.370  0.1159E+00  0.1535E+03
     -7.268  0.5033E+02  0.1589E+03
     -7.167  0.3563E+03  0.2020E+03
     -7.065  0.1248E+02  0.2058E+03
     -6.963  0.4908E+01  0.2067E+03
     -6.862  0.2690E-05  0.2068E+03
     -6.760  0.9832E+01  0.2078E+03
     -6.658  0.0000E+00  0.2078E+03
     -6.556  0.7793E-02  0.2078E+03
     -6.455  0.0000E+00  0.2080E+03
     -6.353  0.0000E+00  0.2080E+03
     -6.251  0.0000E+00  0.2080E+03
     -6.150  0.0000E+00  0.2080E+03
     -6.048  0.0000E+00  0.2080E+03
     -5.946  0.0000E+00  0.2080E+03
     -5.844  0.0000E+00  0.2080E+03
     -5.743  0.0000E+00  0.2080E+03
     -5.641  0.0000E+00  0.2080E+03
     -5.539  0.0000E+00  0.2080E+03
     -5.438  0.0000E+00  0.2080E+03
     -5.336  0.0000E+00  0.2080E+03
     -5.234  0.0000E+00  0.2080E+03
     -5.133  0.0000E+00  0.2080E+03
     -5.031  0.0000E+00  0.2080E+03
     -4.929  0.0000E+00  0.2080E+03
     -4.827  0.0000E+00  0.2080E+03
     -4.726  0.0000E+00  0.2080E+03
     -4.624  0.0000E+00  0.2080E+03
     -4.522  0.0000E+00  0.2080E+03
     -4.421  0.0000E+00  0.2080E+03
     -4.319  0.0000E+00  0.2080E+03
     -4.217  0.0000E+00  0.2080E+03
     -4.116  0.0000E+00  0.2080E+03
     -4.014  0.0000E+00  0.2080E+03
     -3.912  0.0000E+00  0.2080E+03
     -3.810  0.0000E+00  0.2080E+03
     -3.709  0.0000E+00  0.2080E+03
     -3.607  0.0000E+00  0.2080E+03
     -3.505  0.3152E-03  0.2080E+03
     -3.404  0.2677E+02  0.2107E+03
     -3.302  0.1228E+02  0.2120E+03
     -3.200  0.5747E-11  0.2120E+03
     -3.098  0.2087E+02  0.2141E+03
     -2.997  0.3390E+02  0.2184E+03
     -2.895  0.1948E-01  0.2195E+03
     -2.793  0.0000E+00  0.2200E+03
     -2.692  0.0000E+00  0.2200E+03
     -2.590  0.3675E+02  0.2237E+03
     -2.488  0.5234E+02  0.2303E+03
     -2.387  0.1484E+02  0.2335E+03
     -2.285  0.2105E+02  0.2371E+03
     -2.183  0.3278E+02  0.2413E+03
     -2.081  0.1709E+02  0.2457E+03
     -1.980  0.5899E+02  0.2517E+03
     -1.878  0.5027E+01  0.2533E+03
     -1.776  0.3073E+02  0.2569E+03
     -1.675  0.3169E+02  0.2605E+03
     -1.573  0.7933E+02  0.2698E+03
     -1.471  0.6043E+02  0.2779E+03
     -1.369  0.1163E+03  0.2916E+03
     -1.268  0.8606E+02  0.3020E+03
     -1.166  0.3683E+02  0.3092E+03
     -1.064  0.1827E+03  0.3286E+03
     -0.963  0.2212E+02  0.3343E+03
     -0.861  0.4633E+02  0.3390E+03
     -0.759  0.3714E+02  0.3430E+03
     -0.658  0.1786E+02  0.3451E+03
     -0.556  0.5614E-02  0.3453E+03
     -0.454  0.2064E+02  0.3473E+03
     -0.352  0.7121E-02  0.3475E+03
     -0.251  0.1001E+02  0.3485E+03
     -0.149  0.9832E+01  0.3498E+03
     -0.047  0.9832E+01  0.3507E+03
      0.054  0.9708E-04  0.3508E+03
      0.156  0.9832E+01  0.3518E+03
      0.258  0.0000E+00  0.3518E+03
      0.359  0.0000E+00  0.3518E+03
      0.461  0.1034E+00  0.3518E+03
      0.563  0.0000E+00  0.3520E+03
      0.665  0.0000E+00  0.3520E+03
      0.766  0.0000E+00  0.3520E+03
      0.868  0.0000E+00  0.3520E+03
      0.970  0.0000E+00  0.3520E+03
      1.071  0.0000E+00  0.3520E+03
      1.173  0.0000E+00  0.3520E+03
      1.275  0.0000E+00  0.3520E+03
      1.377  0.0000E+00  0.3520E+03
      1.478  0.0000E+00  0.3520E+03
      1.580  0.0000E+00  0.3520E+03
      1.682  0.0000E+00  0.3520E+03
      1.783  0.0000E+00  0.3520E+03
      1.885  0.0000E+00  0.3520E+03
      1.987  0.0000E+00  0.3520E+03
      2.088  0.0000E+00  0.3520E+03
      2.190  0.0000E+00  0.3520E+03
      2.292  0.0000E+00  0.3520E+03
      2.394  0.0000E+00  0.3520E+03
      2.495  0.0000E+00  0.3520E+03
      2.597  0.0000E+00  0.3520E+03
      2.699  0.0000E+00  0.3520E+03
      2.800  0.2458E+01  0.3522E+03
      2.902  0.4916E+01  0.3528E+03
      3.004  0.1969E+02  0.3548E+03
      3.106  0.4917E+01  0.3563E+03
      3.207  0.3884E+02  0.3602E+03
      3.309  0.2026E+02  0.3623E+03
      3.411  0.0000E+00  0.3632E+03
      3.512  0.2345E+01  0.3635E+03
      3.614  0.4916E+01  0.3640E+03
      3.716  0.0000E+00  0.3640E+03
      3.817  0.0000E+00  0.3640E+03
      3.919  0.0000E+00  0.3640E+03
      4.021  0.0000E+00  0.3640E+03
      4.123  0.5234E-01  0.3640E+03
      4.224  0.9832E+01  0.3660E+03
      4.326  0.2950E+02  0.3690E+03
      4.428  0.1969E+02  0.3710E+03
      4.529  0.1966E+02  0.3750E+03
      4.631  0.3421E+02  0.3785E+03
      4.733  0.3151E+02  0.3817E+03
      4.834  0.1772E-05  0.3828E+03
      4.936  0.2950E+02  0.3857E+03
      5.038  0.2408E+02  0.3882E+03
      5.140  0.0000E+00  0.3882E+03
      5.241  0.0000E+00  0.3882E+03
      5.343  0.3253E+00  0.3883E+03
      5.445  0.9832E+01  0.3897E+03
      5.546  0.1147E+02  0.3909E+03
      5.648  0.1229E+02  0.3925E+03
      5.750  0.2322E+02  0.3949E+03
      5.852  0.1365E+02  0.3964E+03
      5.953  0.3933E+02  0.4013E+03
      6.055  0.9895E+01  0.4023E+03
      6.157  0.2699E+02  0.4070E+03
      6.258  0.1044E+02  0.4081E+03
      6.360  0.1004E+02  0.4098E+03
      6.462  0.3001E+02  0.4138E+03
      6.563  0.4087E+02  0.4184E+03
      6.665  0.3407E+02  0.4230E+03
      6.767  0.1658E+02  0.4249E+03
      6.869  0.5941E+02  0.4313E+03
      6.970  0.4916E+01  0.4320E+03
      7.072  0.0000E+00  0.4320E+03
      7.174  0.0000E+00  0.4320E+03
      7.275  0.0000E+00  0.4320E+03
      7.377  0.0000E+00  0.4320E+03
      7.479  0.0000E+00  0.4320E+03
      7.581  0.0000E+00  0.4320E+03
      7.682  0.0000E+00  0.4320E+03
      7.784  0.0000E+00  0.4320E+03
      7.886  0.0000E+00  0.4320E+03
      7.987  0.0000E+00  0.4320E+03
      8.089  0.0000E+00  0.4320E+03
      8.191  0.0000E+00  0.4320E+03
      8.292  0.0000E+00  0.4320E+03
      8.29243820    -22.21891156  301      0.58832239      1.00000000
    -22.219  0.0000E+00  0.0000E+00  0.0000E+00
    -22.117  0.0000E+00  0.0000E+00  0.0000E+00
    -22.016  0.0000E+00  0.0000E+00  0.0000E+00
    -21.914  0.0000E+00  0.0000E+00  0.0000E+00
    -21.812  0.0000E+00  0.0000E+00  0.0000E+00
    -21.710  0.0000E+00  0.0000E+00  0.0000E+00
    -21.609  0.0000E+00  0.0000E+00  0.0000E+00
    -21.507  0.0000E+00  0.0000E+00  0.0000E+00
    -21.405  0.0000E+00  0.0000E+00  0.0000E+00
    -21.304  0.0000E+00  0.0000E+00  0.0000E+00
    -21.202  0.0000E+00  0.0000E+00  0.0000E+00
    -21.100  0.0000E+00  0.0000E+00  0.0000E+00
    -20.998  0.0000E+00  0.0000E+00  0.0000E+00
    -20.897  0.0000E+00  0.0000E+00  0.0000E+00
    -20.795  0.1745E+02  0.1960E-06  0.1727E-04
    -20.693  0.0000E+00  0.0000E+00  0.0000E+00
    -20.592  0.0000E+00  0.0000E+00  0.0000E+00
    -20.490  0.0000E+00  0.0000E+00  0.0000E+00
    -20.388  0.0000E+00  0.0000E+00  0.0000E+00
    -20.287  0.0000E+00  0.0000E+00  0.0000E+00
    -20.185  0.0000E+00  0.0000E+00  0.0000E+00
    -20.083  0.0000E+00  0.0000E+00  0.0000E+00
    -19.981  0.0000E+00  0.0000E+00  0.0000E+00
    -19.880  0.0000E+00  0.0000E+00  0.0000E+00
    -19.778  0.0000E+00  0.0000E+00  0.0000E+00
    -19.676  0.0000E+00  0.0000E+00  0.0000E+00
    -19.575  0.0000E+00  0.0000E+00  0.0000E+00
    -19.473  0.0000E+00  0.0000E+00  0.0000E+00
    -19.371  0.0000E+00  0.0000E+00  0.0000E+00
    -19.269  0.0000E+00  0.0000E+00  0.0000E+00
    -19.168  0.0000E+00  0.0000E+00  0.0000E+00
    -19.066  0.0000E+00  0.0000E+00  0.0000E+00
    -18.964  0.0000E+00  0.0000E+00  0.0000E+00
    -18.863  0.0000E+00  0.0000E+00  0.0000E+00
    -18.761  0.0000E+00  0.0000E+00  0.0000E+00
    -18.659  0.0000E+00  0.0000E+00  0.0000E+00
    -18.558  0.0000E+00  0.0000E+00  0.0000E+00
    -18.456  0.0000E+00  0.0000E+00  0.0000E+00
    -18.354  0.0000E+00  0.0000E+00  0.0000E+00
    -18.252  0.0000E+00  0.0000E+00  0.0000E+00
    -18.151  0.0000E+00  0.0000E+00  0.0000E+00
    -18.049  0.0000E+00  0.0000E+00  0.0000E+00
    -17.947  0.0000E+00  0.0000E+00  0.0000E+00
    -17.846  0.0000E+00  0.0000E+00  0.0000E+00
    -17.744  0.0000E+00  0.0000E+00  0.0000E+00
    -17.642  0.0000E+00  0.0000E+00  0.0000E+00
    -17.541  0.0000E+00  0.0000E+00  0.0000E+00
    -17.439  0.0000E+00  0.0000E+00  0.0000E+00
    -17.337  0.0000E+00  0.0000E+00  0.0000E+00
    -17.235  0.0000E+00  0.0000E+00  0.0000E+00
    -17.134  0.0000E+00  0.0000E+00  0.0000E+00
    -17.032  0.0000E+00  0.0000E+00  0.0000E+00
    -16.930  0.0000E+00  0.0000E+00  0.0000E+00
    -16.829  0.0000E+00  0.0000E+00  0.0000E+00
    -16.727  0.0000E+00  0.0000E+00  0.0000E+00
    -16.625  0.0000E+00  0.0000E+00  0.0000E+00
    -16.523  0.3804E-08  0.5442E-08  0.1603E-07
    -16.422  0.1148E-03  0.7732E-04  0.1216E-04
    -16.320  0.1683E-04  0.1534E-04  0.2077E-05
    -16.218  0.0000E+00  0.0000E+00  0.0000E+00
    -16.117  0.0000E+00  0.0000E+00  0.0000E+00
    -16.015  0.0000E+00  0.0000E+00  0.0000E+00
    -15.913  0.0000E+00  0.0000E+00  0.0000E+00
    -15.812  0.0000E+00  0.0000E+00  0.0000E+00
    -15.710  0.0000E+00  0.0000E+00  0.0000E+00
    -15.608  0.0000E+00  0.0000E+00  0.0000E+00
    -15.506  0.0000E+00  0.0000E+00  0.0000E+00
    -15.405  0.0000E+00  0.0000E+00  0.0000E+00
    -15.303  0.0000E+00  0.0000E+00  0.0000E+00
    -15.201  0.0000E+00  0.0000E+00  0.0000E+00
    -15.100  0.0000E+00  0.0000E+00  0.0000E+00
    -14.998  0.0000E+00  0.0000E+00  0.0000E+00
    -14.896  0.0000E+00  0.0000E+00  0.0000E+00
    -14.794  0.0000E+00  0.0000E+00  0.0000E+00
    -14.693  0.0000E+00  0.0000E+00  0.0000E+00
    -14.591  0.0000E+00  0.0000E+00  0.0000E+00
    -14.489  0.0000E+00  0.0000E+00  0.0000E+00
    -14.388  0.5055E-14  0.1651E-27  0.2708E-16
    -14.286  0.1253E-02  0.2839E-03  0.1050E-04
    -14.184  0.2983E-02  0.2988E-02  0.1059E-03
    -14.083  0.3285E-03  0.2635E-02  0.1500E-03
    -13.981  0.2022E-04  0.3621E-02  0.9293E-04
    -13.879  0.3148E-02  0.7599E-02  0.7659E-03
    -13.777  0.2078E-02  0.5431E-02  0.7410E-03
    -13.676  0.7271E-03  0.1557E-02  0.1425E-03
    -13.574  0.0000E+00  0.0000E+00  0.0000E+00
    -13.472  0.0000E+00  0.0000E+00  0.0000E+00
    -13.371  0.0000E+00  0.0000E+00  0.0000E+00
    -13.269  0.0000E+00  0.0000E+00  0.0000E+00
    -13.167  0.0000E+00  0.0000E+00  0.0000E+00
    -13.066  0.0000E+00  0.0000E+00  0.0000E+00
    -12.964  0.0000E+00  0.0000E+00  0.0000E+00
    -12.862  0.0000E+00  0.0000E+00  0.0000E+00
    -12.760  0.0000E+00  0.0000E+00  0.0000E+00
    -12.659  0.0000E+00  0.0000E+00  0.0000E+00
    -12.557  0.0000E+00  0.0000E+00  0.0000E+00
    -12.455  0.0000E+00  0.0000E+00  0.0000E+00
    -12.354  0.0000E+00  0.0000E+00  0.0000E+00
    -12.252  0.0000E+00  0.0000E+00  0.0000E+00
    -12.150  0.0000E+00  0.0000E+00  0.0000E+00
    -12.048  0.0000E+00  0.0000E+00  0.0000E+00
    -11.947  0.0000E+00  0.0000E+00  0.0000E+00
    -11.845  0.0000E+00  0.0000E+00  0.0000E+00
    -11.743  0.0000E+00  0.0000E+00  0.0000E+00
    -11.642  0.0000E+00  0.0000E+00  0.0000E+00
    -11.540  0.0000E+00  0.0000E+00  0.0000E+00
    -11.438  0.0000E+00  0.0000E+00  0.0000E+00
    -11.337  0.0000E+00  0.0000E+00  0.0000E+00
    -11.235  0.0000E+00  0.0000E+00  0.0000E+00
    -11.133  0.0000E+00  0.0000E+00  0.0000E+00
    -11.031  0.0000E+00  0.0000E+00  0.0000E+00
    -10.930  0.0000E+00  0.0000E+00  0.0000E+00
    -10.828  0.0000E+00  0.0000E+00  0.0000E+00
    -10.726  0.0000E+00  0.0000E+00  0.0000E+00
    -10.625  0.0000E+00  0.0000E+00  0.0000E+00
    -10.523  0.0000E+00  0.0000E+00  0.0000E+00
    -10.421  0.0000E+00  0.0000E+00  0.0000E+00
    -10.319  0.0000E+00  0.0000E+00  0.0000E+00
    -10.218  0.0000E+00  0.0000E+00  0.0000E+00
    -10.116  0.0000E+00  0.0000E+00  0.0000E+00
    -10.014  0.0000E+00  0.0000E+00  0.0000E+00
     -9.913  0.0000E+00  0.0000E+00  0.0000E+00
     -9.811  0.0000E+00  0.0000E+00  0.0000E+00
     -9.709  0.0000E+00  0.0000E+00  0.0000E+00
     -9.608  0.0000E+00  0.0000E+00  0.0000E+00
     -9.506  0.0000E+00  0.0000E+00  0.0000E+00
     -9.404  0.0000E+00  0.0000E+00  0.0000E+00
     -9.302  0.0000E+00  0.0000E+00  0.0000E+00
     -9.201  0.0000E+00  0.0000E+00  0.0000E+00
     -9.099  0.0000E+00  0.0000E+00  0.0000E+00
     -8.997  0.0000E+00  0.0000E+00  0.0000E+00
     -8.896  0.0000E+00  0.0000E+00  0.0000E+00
     -8.794  0.0000E+00  0.0000E+00  0.0000E+00
     -8.692  0.0000E+00  0.0000E+00  0.0000E+00
     -8.591  0.0000E+00  0.0000E+00  0.0000E+00
     -8.489  0.0000E+00  0.0000E+00  0.0000E+00
     -8.387  0.0000E+00  0.0000E+00  0.0000E+00
     -8.285  0.0000E+00  0.0000E+00  0.0000E+00
     -8.184  0.3403E-19  0.3452E-17  0.4551E-18
     -8.082  0.0000E+00  0.0000E+00  0.0000E+00
     -7.980  0.6538E-16  0.3699E-02  0.9702E-06
     -7.879  0.1409E-17  0.1575E-16  0.1274E-05
     -7.777  0.4043E-16  0.1669E-01  0.4447E-05
     -7.675  0.2539E-15  0.1297E-01  0.2460E-04
     -7.573  0.4016E-07  0.3804E-01  0.5221E-05
     -7.472  0.2760E-04  0.7939E-01  0.4217E-04
     -7.370  0.1342E-18  0.1849E-02  0.6517E-07
     -7.268  0.2246E-04  0.2879E+01  0.4680E-04
     -7.167  0.5511E-04  0.3343E+02  0.7570E-04
     -7.065  0.2635E-04  0.1969E+00  0.3345E-04
     -6.963  0.3116E-04  0.2444E-01  0.8577E-05
     -6.862  0.1301E-10  0.2957E-09  0.1012E-10
     -6.760  0.4757E-04  0.1081E-02  0.3701E-04
     -6.658  0.0000E+00  0.0000E+00  0.0000E+00
     -6.556  0.6780E-07  0.2888E-19  0.2274E-07
     -6.455  0.0000E+00  0.0000E+00  0.0000E+00
     -6.353  0.0000E+00  0.0000E+00  0.0000E+00
     -6.251  0.0000E+00  0.0000E+00  0.0000E+00
     -6.150  0.0000E+00  0.0000E+00  0.0000E+00
     -6.048  0.0000E+00  0.0000E+00  0.0000E+00
     -5.946  0.0000E+00  0.0000E+00  0.0000E+00
     -5.844  0.0000E+00  0.0000E+00  0.0000E+00
     -5.743  0.0000E+00  0.0000E+00  0.0000E+00
     -5.641  0.0000E+00  0.0000E+00  0.0000E+00
     -5.539  0.0000E+00  0.0000E+00  0.0000E+00
     -5.438  0.0000E+00  0.0000E+00  0.0000E+00
     -5.336  0.0000E+00  0.0000E+00  0.0000E+00
     -5.234  0.0000E+00  0.0000E+00  0.0000E+00
     -5.133  0.0000E+00  0.0000E+00  0.0000E+00
     -5.031  0.0000E+00  0.0000E+00  0.0000E+00
     -4.929  0.0000E+00  0.0000E+00  0.0000E+00
     -4.827  0.0000E+00  0.0000E+00  0.0000E+00
     -4.726  0.0000E+00  0.0000E+00  0.0000E+00
     -4.624  0.0000E+00  0.0000E+00  0.0000E+00
     -4.522  0.0000E+00  0.0000E+00  0.0000E+00
     -4.421  0.0000E+00  0.0000E+00  0.0000E+00
     -4.319  0.0000E+00  0.0000E+00  0.0000E+00
     -4.217  0.0000E+00  0.0000E+00  0.0000E+00
     -4.116  0.0000E+00  0.0000E+00  0.0000E+00
     -4.014  0.0000E+00  0.0000E+00  0.0000E+00
     -3.912  0.0000E+00  0.0000E+00  0.0000E+00
     -3.810  0.0000E+00  0.0000E+00  0.0000E+00
     -3.709  0.0000E+00  0.0000E+00  0.0000E+00
     -3.607  0.0000E+00  0.0000E+00  0.0000E+00
     -3.505  0.8902E-20  0.3900E-06  0.1037E-08
     -3.404  0.2206E-07  0.1363E-01  0.8076E-03
     -3.302  0.8562E-16  0.3610E-03  0.2901E-03
     -3.200  0.8567E-27  0.6187E-14  0.4180E-16
     -3.098  0.4044E-14  0.1551E-01  0.6495E-03
     -2.997  0.3901E-15  0.9004E-02  0.1868E-02
     -2.895  0.1572E-17  0.1966E-19  0.2976E-07
     -2.793  0.0000E+00  0.0000E+00  0.0000E+00
     -2.692  0.0000E+00  0.0000E+00  0.0000E+00
     -2.590  0.1801E-03  0.4038E-01  0.7037E-03
     -2.488  0.6688E-03  0.8742E-02  0.3805E-02
     -2.387  0.4176E-03  0.1126E-01  0.6119E-03
     -2.285  0.3458E-02  0.1336E-01  0.2072E-02
     -2.183  0.5724E-03  0.1172E-01  0.1756E-02
     -2.081  0.8122E-02  0.3708E-02  0.2174E-02
     -1.980  0.2377E-01  0.5441E-01  0.4960E-02
     -1.878  0.3722E-04  0.1929E-01  0.5005E-03
     -1.776  0.1848E-02  0.8489E-01  0.3812E-02
     -1.675  0.2379E-02  0.5871E-01  0.4166E-02
     -1.573  0.2816E-02  0.9927E-01  0.1870E-01
     -1.471  0.1578E-02  0.7741E-01  0.1075E-01
     -1.369  0.8347E-02  0.6966E-01  0.1445E-01
     -1.268  0.5141E-02  0.5968E-01  0.1658E-01
     -1.166  0.2129E-02  0.3194E-01  0.6191E-02
     -1.064  0.1113E-02  0.1342E+00  0.2859E-01
     -0.963  0.4186E-13  0.1821E-01  0.3659E-02
     -0.861  0.5203E-03  0.1890E-01  0.8845E-02
     -0.759  0.1411E-03  0.1904E-01  0.4103E-02
     -0.658  0.3923E-13  0.6409E-02  0.4466E-03
     -0.556  0.2209E-16  0.1122E-05  0.1180E-06
     -0.454  0.7742E-13  0.4144E-02  0.4171E-03
     -0.352  0.1930E-07  0.6344E-06  0.8700E-07
     -0.251  0.2663E-04  0.8753E-03  0.1353E-03
     -0.149  0.1049E-16  0.5094E-03  0.2035E-04
     -0.047  0.6676E-15  0.4331E-03  0.5082E-03
      0.054  0.9605E-18  0.4535E-08  0.2349E-08
      0.156  0.9727E-13  0.4593E-03  0.2379E-03
      0.258  0.0000E+00  0.0000E+00  0.0000E+00
      0.359  0.0000E+00  0.0000E+00  0.0000E+00
      0.461  0.6454E-17  0.4781E-17  0.5832E-16
      0.563  0.0000E+00  0.0000E+00  0.0000E+00
      0.665  0.0000E+00  0.0000E+00  0.0000E+00
      0.766  0.0000E+00  0.0000E+00  0.0000E+00
      0.868  0.0000E+00  0.0000E+00  0.0000E+00
      0.970  0.0000E+00  0.0000E+00  0.0000E+00
      1.071  0.0000E+00  0.0000E+00  0.0000E+00
      1.173  0.0000E+00  0.0000E+00  0.0000E+00
      1.275  0.0000E+00  0.0000E+00  0.0000E+00
      1.377  0.0000E+00  0.0000E+00  0.0000E+00
      1.478  0.0000E+00  0.0000E+00  0.0000E+00
      1.580  0.0000E+00  0.0000E+00  0.0000E+00
      1.682  0.0000E+00  0.0000E+00  0.0000E+00
      1.783  0.0000E+00  0.0000E+00  0.0000E+00
      1.885  0.0000E+00  0.0000E+00  0.0000E+00
      1.987  0.0000E+00  0.0000E+00  0.0000E+00
      2.088  0.0000E+00  0.0000E+00  0.0000E+00
      2.190  0.0000E+00  0.0000E+00  0.0000E+00
      2.292  0.0000E+00  0.0000E+00  0.0000E+00
      2.394  0.0000E+00  0.0000E+00  0.0000E+00
      2.495  0.0000E+00  0.0000E+00  0.0000E+00
      2.597  0.0000E+00  0.0000E+00  0.0000E+00
      2.699  0.0000E+00  0.0000E+00  0.0000E+00
      2.800  0.1722E-13  0.1001E-13  0.8061E-03
      2.902  0.1353E-14  0.5652E-05  0.1913E-02
      3.004  0.6495E-03  0.5901E-03  0.5820E-02
      3.106  0.4304E-03  0.7346E-03  0.1039E-02
      3.207  0.6768E-03  0.3817E-02  0.6686E-02
      3.309  0.4068E-03  0.4580E-02  0.1682E-02
      3.411  0.0000E+00  0.0000E+00  0.0000E+00
      3.512  0.4299E-04  0.1996E-14  0.1976E-03
      3.614  0.6256E-04  0.1111E-02  0.1258E-03
      3.716  0.0000E+00  0.0000E+00  0.0000E+00
      3.817  0.0000E+00  0.0000E+00  0.0000E+00
      3.919  0.0000E+00  0.0000E+00  0.0000E+00
      4.021  0.0000E+00  0.0000E+00  0.0000E+00
      4.123  0.1179E-09  0.1281E-08  0.3753E-04
      4.224  0.6179E-03  0.2021E-03  0.2310E-02
      4.326  0.2771E-06  0.4119E-02  0.1253E-01
      4.428  0.1100E-02  0.2095E-02  0.4214E-02
      4.529  0.9061E-03  0.1595E-02  0.1430E-02
      4.631  0.2341E-02  0.3862E-02  0.9450E-02
      4.733  0.1972E-01  0.8415E-02  0.1120E-01
      4.834  0.1415E-09  0.4550E-09  0.1307E-08
      4.936  0.1570E-02  0.8773E-02  0.1847E-01
      5.038  0.1422E-01  0.9452E-02  0.2261E-01
      5.140  0.0000E+00  0.0000E+00  0.0000E+00
      5.241  0.0000E+00  0.0000E+00  0.0000E+00
      5.343  0.2120E-12  0.1898E-11  0.7648E-04
      5.445  0.4281E-01  0.1085E-01  0.1379E-01
      5.546  0.1221E-01  0.1171E-02  0.4679E-02
      5.648  0.5514E-10  0.3477E-04  0.3865E-01
      5.750  0.3329E-02  0.1226E-02  0.4763E-01
      5.852  0.1288E-01  0.1750E-02  0.2544E-01
      5.953  0.7509E-01  0.2190E-01  0.5553E-01
      6.055  0.6950E-04  0.8949E-02  0.1418E+00
      6.157  0.6900E-01  0.1389E-01  0.1501E+00
      6.258  0.2028E-01  0.9223E-02  0.6872E-01
      6.360  0.1365E-05  0.1877E-02  0.6464E-02
      6.462  0.2267E-01  0.2527E-01  0.2821E+00
      6.563  0.1841E-01  0.3260E-01  0.4956E+00
      6.665  0.3688E-01  0.6509E-01  0.3669E+00
      6.767  0.1075E-02  0.1191E-01  0.2902E+00
      6.869  0.2599E-01  0.8350E-01  0.7808E+00
      6.970  0.5741E-02  0.3694E-02  0.5454E-01
      7.072  0.0000E+00  0.0000E+00  0.0000E+00
      7.174  0.0000E+00  0.0000E+00  0.0000E+00
      7.275  0.0000E+00  0.0000E+00  0.0000E+00
      7.377  0.0000E+00  0.0000E+00  0.0000E+00
      7.479  0.0000E+00  0.0000E+00  0.0000E+00
      7.581  0.0000E+00  0.0000E+00  0.0000E+00
      7.682  0.0000E+00  0.0000E+00  0.0000E+00
      7.784  0.0000E+00  0.0000E+00  0.0000E+00
      7.886  0.0000E+00  0.0000E+00  0.0000E+00
      7.987  0.0000E+00  0.0000E+00  0.0000E+00
      8.089  0.0000E+00  0.0000E+00  0.0000E+00
      8.191  0.0000E+00  0.0000E+00  0.0000E+00
      8.292  0.0000E+00  0.0000E+00  0.0000E+00
      8.29243820    -22.21891156  301      0.58832239      1.00000000
    -22.219  0.0000E+00  0.0000E+00  0.0000E+00
    -22.117  0.0000E+00  0.0000E+00  0.0000E+00
    -22.016  0.0000E+00  0.0000E+00  0.0000E+00
    -21.914  0.0000E+00  0.0000E+00  0.0000E+00
    -21.812  0.0000E+00  0.0000E+00  0.0000E+00
    -21.710  0.0000E+00  0.0000E+00  0.0000E+00
    -21.609  0.0000E+00  0.0000E+00  0.0000E+00
    -21.507  0.0000E+00  0.0000E+00  0.0000E+00
    -21.405  0.0000E+00  0.0000E+00  0.0000E+00
    -21.304  0.0000E+00  0.0000E+00  0.0000E+00
    -21.202  0.0000E+00  0.0000E+00  0.0000E+00
    -21.100  0.0000E+00  0.0000E+00  0.0000E+00
    -20.998  0.0000E+00  0.0000E+00  0.0000E+00
    -20.897  0.0000E+00  0.0000E+00  0.0000E+00
    -20.795  0.1745E+02  0.1960E-06  0.1727E-04
    -20.693  0.0000E+00  0.0000E+00  0.0000E+00
    -20.592  0.0000E+00  0.0000E+00  0.0000E+00
    -20.490  0.0000E+00  0.0000E+00  0.0000E+00
    -20.388  0.0000E+00  0.0000E+00  0.0000E+00
    -20.287  0.0000E+00  0.0000E+00  0.0000E+00
    -20.185  0.0000E+00  0.0000E+00  0.0000E+00
    -20.083  0.0000E+00  0.0000E+00  0.0000E+00
    -19.981  0.0000E+00  0.0000E+00  0.0000E+00
    -19.880  0.0000E+00  0.0000E+00  0.0000E+00
    -19.778  0.0000E+00  0.0000E+00  0.0000E+00
    -19.676  0.0000E+00  0.0000E+00  0.0000E+00
    -19.575  0.0000E+00  0.0000E+00  0.0000E+00
    -19.473  0.0000E+00  0.0000E+00  0.0000E+00
    -19.371  0.0000E+00  0.0000E+00  0.0000E+00
    -19.269  0.0000E+00  0.0000E+00  0.0000E+00
    -19.168  0.0000E+00  0.0000E+00  0.0000E+00
    -19.066  0.0000E+00  0.0000E+00  0.0000E+00
    -18.964  0.0000E+00  0.0000E+00  0.0000E+00
    -18.863  0.0000E+00  0.0000E+00  0.0000E+00
    -18.761  0.0000E+00  0.0000E+00  0.0000E+00
    -18.659  0.0000E+00  0.0000E+00  0.0000E+00
    -18.558  0.0000E+00  0.0000E+00  0.0000E+00
    -18.456  0.0000E+00  0.0000E+00  0.0000E+00
    -18.354  0.0000E+00  0.0000E+00  0.0000E+00
    -18.252  0.0000E+00  0.0000E+00  0.0000E+00
    -18.151  0.0000E+00  0.0000E+00  0.0000E+00
    -18.049  0.0000E+00  0.0000E+00  0.0000E+00
    -17.947  0.0000E+00  0.0000E+00  0.0000E+00
    -17.846  0.0000E+00  0.0000E+00  0.0000E+00
    -17.744  0.0000E+00  0.0000E+00  0.0000E+00
    -17.642  0.0000E+00  0.0000E+00  0.0000E+00
    -17.541  0.0000E+00  0.0000E+00  0.0000E+00
    -17.439  0.0000E+00  0.0000E+00  0.0000E+00
    -17.337  0.0000E+00  0.0000E+00  0.0000E+00
    -17.235  0.0000E+00  0.0000E+00  0.0000E+00
    -17.134  0.0000E+00  0.0000E+00  0.0000E+00
    -17.032  0.0000E+00  0.0000E+00  0.0000E+00
    -16.930  0.0000E+00  0.0000E+00  0.0000E+00
    -16.829  0.0000E+00  0.0000E+00  0.0000E+00
    -16.727  0.0000E+00  0.0000E+00  0.0000E+00
    -16.625  0.0000E+00  0.0000E+00  0.0000E+00
    -16.523  0.3804E-08  0.5442E-08  0.1603E-07
    -16.422  0.1148E-03  0.7732E-04  0.1216E-04
    -16.320  0.1683E-04  0.1534E-04  0.2077E-05
    -16.218  0.0000E+00  0.0000E+00  0.0000E+00
    -16.117  0.0000E+00  0.0000E+00  0.0000E+00
    -16.015  0.0000E+00  0.0000E+00  0.0000E+00
    -15.913  0.0000E+00  0.0000E+00  0.0000E+00
    -15.812  0.0000E+00  0.0000E+00  0.0000E+00
    -15.710  0.0000E+00  0.0000E+00  0.0000E+00
    -15.608  0.0000E+00  0.0000E+00  0.0000E+00
    -15.506  0.0000E+00  0.0000E+00  0.0000E+00
    -15.405  0.0000E+00  0.0000E+00  0.0000E+00
    -15.303  0.0000E+00  0.0000E+00  0.0000E+00
    -15.201  0.0000E+00  0.0000E+00  0.0000E+00
    -15.100  0.0000E+00  0.0000E+00  0.0000E+00
    -14.998  0.0000E+00  0.0000E+00  0.0000E+00
    -14.896  0.0000E+00  0.0000E+00  0.0000E+00
    -14.794  0.0000E+00  0.0000E+00  0.0000E+00
    -14.693  0.0000E+00  0.0000E+00  0.0000E+00
    -14.591  0.0000E+00  0.0000E+00  0.0000E+00
    -14.489  0.0000E+00  0.0000E+00  0.0000E+00
    -14.388  0.5055E-14  0.1705E-27  0.2708E-16
    -14.286  0.1253E-02  0.2839E-03  0.1050E-04
    -14.184  0.2983E-02  0.2988E-02  0.1059E-03
    -14.083  0.3285E-03  0.2635E-02  0.1500E-03
    -13.981  0.2022E-04  0.3621E-02  0.9293E-04
    -13.879  0.3148E-02  0.7599E-02  0.7659E-03
    -13.777  0.2078E-02  0.5431E-02  0.7410E-03
    -13.676  0.7271E-03  0.1557E-02  0.1425E-03
    -13.574  0.0000E+00  0.0000E+00  0.0000E+00
    -13.472  0.0000E+00  0.0000E+00  0.0000E+00
    -13.371  0.0000E+00  0.0000E+00  0.0000E+00
    -13.269  0.0000E+00  0.0000E+00  0.0000E+00
    -13.167  0.0000E+00  0.0000E+00  0.0000E+00