       N       E                     dE             d eps       ncg     rms          rms(c)
DAV:   1     0.134421145252E+04    0.13442E+04   -0.11290E+05  2688   0.958E+02
DAV:   2    -0.113333549507E+04   -0.24775E+04   -0.23874E+04  3184   0.295E+02
DAV:   3    -0.149707174101E+04   -0.36374E+03   -0.36177E+03  3504   0.134E+02
DAV:   4    -0.150864263470E+04   -0.11571E+02   -0.11535E+02  3064   0.317E+01
DAV:   5    -0.150918479661E+04   -0.54216E+00   -0.54189E+00  3416   0.534E+00    0.101E+01
DAV:   6    -0.142951939426E+04    0.79665E+02   -0.23811E+01  3400   0.288E+01    0.716E+00
DAV:   7    -0.142901474815E+04    0.50465E+00   -0.80337E+00  3152   0.508E+00    0.366E+00
DAV:   8    -0.142921399315E+04   -0.19924E+00   -0.40617E-01  3128   0.183E+00    0.211E+00
DAV:   9    -0.142929743610E+04   -0.83443E-01   -0.16907E-01  2912   0.123E+00    0.445E-01
DAV:  10    -0.142929919278E+04   -0.17567E-02   -0.96333E-03  3648   0.318E-01    0.274E-01
DAV:  11    -0.142930218588E+04   -0.29931E-02   -0.27585E-03  2872   0.159E-01    0.887E-02
DAV:  12    -0.142930286611E+04   -0.68022E-03   -0.92788E-04  2872   0.887E-02    0.362E-02
DAV:  13    -0.142930286599E+04    0.11243E-06   -0.85026E-05  3352   0.267E-02    0.135E-02
DAV:  14    -0.142930286676E+04   -0.76873E-06   -0.88060E-06  2704   0.609E-03
   1 F= -.14293029E+04 E0= -.14293029E+04  d E =-.312852E-60
