 vasp.5.4.4.18Apr17-6-g9f103f2a35 (build Jun 22 2020 09:27:21) complex           
 executed on tx2_gcc-7.3_libsci-1 date 2021.09.22  08:37:59
 running on   64 total cores
 distrk:  each k-point on   64 cores,    1 groups
 distr:  one band on NCORES_PER_BAND=   8 cores,    8 groups


--------------------------------------------------------------------------------------------------------


 INCAR:
 POTCAR:    PAW_PBE Cs_sv 08Apr2002               
 POTCAR:    PAW_PBE Pb_d 06Sep2000                
 POTCAR:    PAW_PBE Br 06Sep2000                  
 POTCAR:    PAW_PBE Cs_sv 08Apr2002               
   SHA256 =  c1463496f0f6037ed62c6012a8013a89ee9ad6ffb38599dcd6c079e7ed31779b Cs
   COPYR  = (c) Copyright 08Apr2002 Georg Kresse                                
   COPYR  = This file is part of the software VASP. Any use, copying, and all ot
   COPYR  = If you do not have a valid VASP license, you may not use, copy or di
   VRHFIN =Cs: 5s5p6s                                                           
   LEXCH  = PE                                                                  
   EATOM  =   555.6835 eV,   40.8416 Ry                                         
                                                                                
   TITEL  = PAW_PBE Cs_sv 08Apr2002                                             
   LULTRA =        F    use ultrasoft PP ?                                      
   IUNSCR =        1    unscreen: 0-lin 1-nonlin 2-no                           
   RPACOR =    2.200    partial core radius                                     
   POMASS =  132.900; ZVAL   =    9.000    mass and valenz                      
   RCORE  =    2.500    outmost cutoff radius                                   
   RWIGS  =    2.500; RWIGS  =    1.323    wigner-seitz radius (au A)           
   ENMAX  =  220.318; ENMIN  =  165.238 eV                                      
   RCLOC  =    2.207    cutoff for local pot                                    
   LCOR   =        T    correct aug charges                                     
   LPAW   =        T    paw PP                                                  
   EAUG   =  407.933                                                            
   DEXC   =    0.000                                                            
   RMAX   =    2.554    core radius for proj-oper                               
   RAUG   =    1.300    factor for augmentation sphere                          
   RDEP   =    2.590    radius for radial grids                                 
   RDEPT  =    2.117    core radius for aug-charge                              
                                                                                
   Atomic configuration                                                         
   13 entries                                                                   
     n  l   j            E        occ.                                          
     1  0  0.50    -35790.1377   2.0000                                         
     2  0  0.50     -5613.6201   2.0000                                         
     2  1  1.50     -5035.0101   6.0000                                         
     3  0  0.50     -1167.0767   2.0000                                         
     3  1  1.50      -980.9754   6.0000                                         
     3  2  2.50      -708.0703  10.0000                                         
     4  0  0.50      -220.2386   2.0000                                         
     4  1  1.50      -160.7596   6.0000                                         
     4  2  2.50       -74.2354  10.0000                                         
     5  0  0.50       -26.7287   2.0000                                         
     6  0  0.50        -2.0862   1.0000                                         
     5  1  1.50       -13.5159   6.0000                                         
     5  2  2.50        -0.4136   0.0000                                         
   Description                                                                  
     l       E           TYP  RCUT    TYP  RCUT                                 
     0    -26.7287425     23  1.900                                             
     0     -2.0862306     23  1.900                                             
     1    -13.5158719     23  2.500                                             
     1     -2.7211652     23  2.500                                             
     2     -0.4136171     23  2.500                                             
  local pseudopotential read in
  partial core-charges read in
  partial kinetic energy density read in
  atomic valenz-charges read in
  non local Contribution for L=           0  read in
    real space projection operators read in
  non local Contribution for L=           0  read in
    real space projection operators read in
  non local Contribution for L=           1  read in
    real space projection operators read in
  non local Contribution for L=           1  read in
    real space projection operators read in
  non local Contribution for L=           2  read in
    real space projection operators read in
    PAW grid and wavefunctions read in

   number of l-projection  operators is LMAX  =           5
   number of lm-projection operators is LMMAX =          13

 POTCAR:    PAW_PBE Pb_d 06Sep2000                
   SHA256 =  fb885b08f0fba73a15f6a6b0e39bd200c13ec96ef97cf3ecd8e63bade5137abd Pb
   COPYR  = (c) Copyright 06Sep2000 Georg Kresse                                
   COPYR  = This file is part of the software VASP. Any use, copying, and all ot
   COPYR  = If you do not have a valid VASP license, you may not use, copy or di
   VRHFIN =Pb:                                                                  
   LEXCH  = PE                                                                  
   EATOM  =  1661.6185 eV,  122.1255 Ry                                         
                                                                                
   TITEL  = PAW_PBE Pb_d 06Sep2000                                              
   LULTRA =        F    use ultrasoft PP ?                                      
   IUNSCR =        1    unscreen: 0-lin 1-nonlin 2-no                           
   RPACOR =    2.200    partial core radius                                     
   POMASS =  207.200; ZVAL   =   14.000    mass and valenz                      
   RCORE  =    2.500    outmost cutoff radius                                   
   RWIGS  =    3.260; RWIGS  =    1.725    wigner-seitz radius (au A)           
   ENMAX  =  237.835; ENMIN  =  178.376 eV                                      
   ICORE  =        3    local potential                                         
   LCOR   =        T    correct aug charges                                     
   LPAW   =        T    paw PP                                                  
   EAUG   =  391.914                                                            
   DEXC   =    0.000                                                            
   RMAX   =    2.565    core radius for proj-oper                               
   RAUG   =    1.300    factor for augmentation sphere                          
   RDEP   =    2.643    radius for radial grids                                 
   RDEPT  =    2.092    core radius for aug-charge                              
                                                                                
   Atomic configuration                                                         
   16 entries                                                                   
     n  l   j            E        occ.                                          
     1  0  0.50    -88091.8466   2.0000                                         
     2  0  0.50    -15753.4197   2.0000                                         
     2  1  1.50    -13508.1797   6.0000                                         
     3  0  0.50     -3781.7194   2.0000                                         
     3  1  1.50     -3138.2529   6.0000                                         
     3  2  2.50     -2483.2977  10.0000                                         
     4  0  0.50      -856.2895   2.0000                                         
     4  1  1.50      -645.4942   6.0000                                         
     4  2  2.50      -401.8768  10.0000                                         
     4  3  3.50      -132.9059  14.0000                                         
     5  0  0.50      -144.0950   2.0000                                         
     5  1  1.50       -85.7879   6.0000                                         
     5  2  2.50       -21.1769  10.0000                                         
     6  0  0.50       -12.0372   2.0000                                         
     6  1  1.50        -3.4971   2.0000                                         
     5  3  2.50        -2.7212   0.0000                                         
   Description                                                                  
     l       E           TYP  RCUT    TYP  RCUT                                 
     2    -21.1768523     23  2.500                                             
     2      1.3605826     23  2.500                                             
     0    -12.0371562     23  2.500                                             
     0     13.6058260     23  2.500                                             
     1     -3.4971339     23  2.500                                             
     1     13.6058260     23  2.500                                             
     3     -1.3605826      7  2.500                                             
  local pseudopotential read in
  partial core-charges read in
  partial kinetic energy density read in
  atomic valenz-charges read in
  non local Contribution for L=           2  read in
    real space projection operators read in
  non local Contribution for L=           2  read in
    real space projection operators read in
  non local Contribution for L=           0  read in
    real space projection operators read in
  non local Contribution for L=           0  read in
    real space projection operators read in
  non local Contribution for L=           1  read in
    real space projection operators read in
  non local Contribution for L=           1  read in
    real space projection operators read in
    PAW grid and wavefunctions read in

   number of l-projection  operators is LMAX  =           6
   number of lm-projection operators is LMMAX =          18

 POTCAR:    PAW_PBE Br 06Sep2000                  
   SHA256 =  96a73d2954943bbee26f4990d676cc6c3bf44b8dd2c75cd4b3b825d8403f0103 Br
   COPYR  = (c) Copyright 06Sep2000 Georg Kresse                                
   COPYR  = This file is part of the software VASP. Any use, copying, and all ot
   COPYR  = If you do not have a valid VASP license, you may not use, copy or di
   VRHFIN =Br: s2p5                                                             
   LEXCH  = PE                                                                  
   EATOM  =   368.4488 eV,   27.0802 Ry                                         
                                                                                
   TITEL  = PAW_PBE Br 06Sep2000                                                
   LULTRA =        F    use ultrasoft PP ?                                      
   IUNSCR =        1    unscreen: 0-lin 1-nonlin 2-no                           
   RPACOR =    1.900    partial core radius                                     
   POMASS =   79.904; ZVAL   =    7.000    mass and valenz                      
   RCORE  =    2.100    outmost cutoff radius                                   
   RWIGS  =    2.200; RWIGS  =    1.164    wigner-seitz radius (au A)           
   ENMAX  =  216.285; ENMIN  =  162.214 eV                                      
   ICORE  =        3    local potential                                         
   LCOR   =        T    correct aug charges                                     
   LPAW   =        T    paw PP                                                  
   EAUG   =  503.852                                                            
   DEXC   =    0.000                                                            
   RMAX   =    2.139    core radius for proj-oper                               
   RAUG   =    1.300    factor for augmentation sphere                          
   RDEP   =    2.186    radius for radial grids                                 
   RDEPT  =    1.890    core radius for aug-charge                              
                                                                                
   Atomic configuration                                                         
   10 entries                                                                   
     n  l   j            E        occ.                                          
     1  0  0.50    -13316.2796   2.0000                                         
     2  0  0.50     -1732.8239   2.0000                                         
     2  1  1.50     -1528.2193   6.0000                                         
     3  0  0.50      -238.0460   2.0000                                         
     3  1  1.50      -173.4609   6.0000                                         
     3  2  2.50       -66.7132  10.0000                                         
     4  0  0.50       -20.1334   2.0000                                         
     4  1  0.50        -7.8591   5.0000                                         
     4  2  2.50        -8.1635   0.0000                                         
     4  3  2.50        -8.1635   0.0000                                         
   Description                                                                  
     l       E           TYP  RCUT    TYP  RCUT                                 
     0    -20.1333652     23  2.100                                             
     0    -21.4939478     23  2.100                                             
     1     -7.8591052     23  2.100                                             
     1     -3.1608434     23  2.100                                             
     2     -8.1634956     23  2.100                                             
     3     -1.3605826      7  2.100                                             
  local pseudopotential read in
  partial core-charges read in
  partial kinetic energy density read in
  atomic valenz-charges read in
  non local Contribution for L=           0  read in
    real space projection operators read in
  non local Contribution for L=           0  read in
    real space projection operators read in
  non local Contribution for L=           1  read in
    real space projection operators read in
  non local Contribution for L=           1  read in
    real space projection operators read in
  non local Contribution for L=           2  read in
    real space projection operators read in
    PAW grid and wavefunctions read in

   number of l-projection  operators is LMAX  =           5
   number of lm-projection operators is LMMAX =          13

 Optimization of the real space projectors (new method)

 maximal supplied QI-value         = 15.12
 optimisation between [QCUT,QGAM] = [  8.77, 17.69] = [ 21.53, 87.61] Ry 
 Optimized for a Real-space Cutoff    1.85 Angstroem

   l    n(q)    QCUT    max X(q) W(low)/X(q) W(high)/X(q)  e(spline) 
   0     10     8.768    25.322    0.81E-04    0.51E-04    0.48E-06
   0     10     8.768    99.187    0.78E-04    0.50E-04    0.47E-06
   1      9     8.768    11.761    0.21E-03    0.20E-03    0.37E-06
   1      9     8.768     8.275    0.24E-03    0.22E-03    0.41E-06
   2      9     8.768     3.829    0.23E-04    0.15E-03    0.18E-06
 Optimization of the real space projectors (new method)

 maximal supplied QI-value         = 15.12
 optimisation between [QCUT,QGAM] = [  8.77, 17.69] = [ 21.53, 87.61] Ry 
 Optimized for a Real-space Cutoff    1.59 Angstroem

   l    n(q)    QCUT    max X(q) W(low)/X(q) W(high)/X(q)  e(spline) 
   2      7     8.768     3.846    0.48E-04    0.11E-03    0.11E-06
   2      7     8.768     8.593    0.20E-03    0.22E-04    0.24E-06
   0      8     8.768    20.082    0.68E-04    0.88E-04    0.41E-07
   0      8     8.768     8.597    0.89E-04    0.13E-03    0.59E-07
   1      8     8.768    33.223    0.15E-03    0.53E-04    0.87E-07
   1      8     8.768    15.899    0.14E-03    0.44E-04    0.78E-07
 Optimization of the real space projectors (new method)

 maximal supplied QI-value         = 17.95
 optimisation between [QCUT,QGAM] = [  8.80, 17.59] = [ 21.67, 86.68] Ry 
 Optimized for a Real-space Cutoff    1.59 Angstroem

   l    n(q)    QCUT    max X(q) W(low)/X(q) W(high)/X(q)  e(spline) 
   0      8     8.797   175.082    0.82E-04    0.14E-03    0.89E-07
   0      8     8.797   174.004    0.79E-04    0.14E-03    0.86E-07
   1      8     8.797    54.315    0.16E-03    0.14E-04    0.30E-06
   1      8     8.797    42.441    0.16E-03    0.14E-04    0.30E-06
   2      7     8.797     3.596    0.92E-04    0.15E-03    0.85E-07
  PAW_PBE Cs_sv 08Apr2002               :
 energy of atom  1       EATOM= -555.6835
 kinetic energy error for atom=    0.0069 (will be added to EATOM!!)
  PAW_PBE Pb_d 06Sep2000                :
 energy of atom  2       EATOM=-1661.6185
 kinetic energy error for atom=    0.0498 (will be added to EATOM!!)
  PAW_PBE Br 06Sep2000                  :
 energy of atom  3       EATOM= -368.4488
 kinetic energy error for atom=    0.0072 (will be added to EATOM!!)


 POSCAR: Cs8 Pb8 Br24                            
  positions in direct lattice
  No initial velocities read in

 METAGGA = SCAN     LMAXTAU =  6    LMIXTAU =  F

 exchange correlation table for  LEXCH =        8
   RHO(1)=    0.500       N(1)  =     2000
   RHO(2)=  100.500       N(2)  =     4000

 VTST: version 3.2, (02/03/18)

 CHAIN: initializing optimizer
 
 OPT: Using VASP Conjugate-Gradient optimizer
 CHAIN: Read ICHAIN            0

 POSCAR: Cs8 Pb8 Br24                            
  positions in direct lattice
  No initial velocities read in



--------------------------------------------------------------------------------------------------------


 ion  position               nearest neighbor table
   1  0.250  0.250  0.250-
   2  0.250  0.250  0.750-
   3  0.250  0.750  0.250-
   4  0.250  0.750  0.750-
   5  0.750  0.250  0.250-
   6  0.750  0.250  0.750-
   7  0.750  0.750  0.250-
   8  0.750  0.750  0.750-
   9  0.000  0.000  0.000-  25 2.93  26 2.93  17 3.04  19 3.04  33 3.04  37 3.04
  10  0.000  0.000  0.500-  25 2.93  26 2.93  18 3.04  20 3.04  34 3.04  38 3.04
  11  0.000  0.500  0.000-  27 2.93  28 2.93  17 3.04  19 3.04  35 3.04  39 3.04
  12  0.000  0.500  0.500-  27 2.93  28 2.93  18 3.04  20 3.04  36 3.04  40 3.04
  13  0.500  0.000  0.000-  29 2.93  30 2.93  21 3.04  23 3.04  33 3.04  37 3.04
  14  0.500  0.000  0.500-  29 2.93  30 2.93  22 3.04  24 3.04  34 3.04  38 3.04
  15  0.500  0.500  0.000-  31 2.93  32 2.93  21 3.04  23 3.04  35 3.04  39 3.04
  16  0.500  0.500  0.500-  31 2.93  32 2.93  22 3.04  24 3.04  36 3.04  40 3.04
  17  0.932  0.250  0.000-   9 3.04  11 3.04
  18  0.068  0.250  0.500-  10 3.04  12 3.04
  19  0.068  0.750  0.000-   9 3.04  11 3.04
  20  0.932  0.750  0.500-  10 3.04  12 3.04
  21  0.568  0.250  0.000-  13 3.04  15 3.04
  22  0.432  0.250  0.500-  14 3.04  16 3.04
  23  0.432  0.750  0.000-  13 3.04  15 3.04
  24  0.568  0.750  0.500-  14 3.04  16 3.04
  25  0.000  0.000  0.250-   9 2.93  10 2.93
  26  0.000  0.000  0.750-   9 2.93  10 2.93
  27  0.000  0.500  0.250-  11 2.93  12 2.93
  28  0.000  0.500  0.750-  11 2.93  12 2.93
  29  0.500  0.000  0.250-  13 2.93  14 2.93
  30  0.500  0.000  0.750-  13 2.93  14 2.93
  31  0.500  0.500  0.250-  15 2.93  16 2.93
  32  0.500  0.500  0.750-  15 2.93  16 2.93
  33  0.250  0.068  0.000-   9 3.04  13 3.04
  34  0.250  0.932  0.500-  10 3.04  14 3.04
  35  0.250  0.432  0.000-  11 3.04  15 3.04
  36  0.250  0.568  0.500-  12 3.04  16 3.04
  37  0.750  0.932  0.000-   9 3.04  13 3.04
  38  0.750  0.068  0.500-  10 3.04  14 3.04
  39  0.750  0.568  0.000-  11 3.04  15 3.04
  40  0.750  0.432  0.500-  12 3.04  16 3.04

  LATTYP: Found a simple cubic cell.
 ALAT       =    11.7353520000
  
  Lattice vectors:
  
 A1 = (  11.7353520000,   0.0000000000,   0.0000000000)
 A2 = (   0.0000000000,  11.7353520000,   0.0000000000)
 A3 = (   0.0000000000,   0.0000000000,  11.7353520000)


Analysis of symmetry for initial positions (statically):
=====================================================================
 Subroutine PRICEL returns following result:
 
  LATTYP: Found a face centered cubic cell.
 ALAT       =    11.7353520000
  
  Lattice vectors:
  
 A1 = (   5.8676760000,   5.8676760000,   0.0000000000)
 A2 = (   5.8676760000,  -0.0000000000,  -5.8676760000)
 A3 = (   0.0000000000,   5.8676760000,  -5.8676760000)
 
   4 primitive cells build up your supercell.
 

 Routine SETGRP: Setting up the symmetry group for a 
 simple cubic supercell.


 Subroutine GETGRP returns: Found 16 space group operations
 (whereof  8 operations were pure point group operations)
 out of a pool of 48 trial point group operations.


The static configuration has the point symmetry C_4h.
 The point group associated with its full space group is D_4h.


Analysis of symmetry for dynamics (positions and initial velocities):
=====================================================================
 Subroutine PRICEL returns following result:
 
  LATTYP: Found a face centered cubic cell.
 ALAT       =    11.7353520000
  
  Lattice vectors:
  
 A1 = (   5.8676760000,   5.8676760000,   0.0000000000)
 A2 = (   5.8676760000,  -0.0000000000,  -5.8676760000)
 A3 = (   0.0000000000,   5.8676760000,  -5.8676760000)
 
   4 primitive cells build up your supercell.
 

 Routine SETGRP: Setting up the symmetry group for a 
 simple cubic supercell.


 Subroutine GETGRP returns: Found 16 space group operations
 (whereof  8 operations were pure point group operations)
 out of a pool of 48 trial point group operations.


The dynamic configuration has the point symmetry C_4h.
 The point group associated with its full space group is D_4h.


 Subroutine INISYM returns: Found 16 space group operations
 (whereof  8 operations are pure point group operations),
 and found     4 'primitive' translations



 KPOINTS: 1x1x1                                   

Automatic generation of k-mesh.
Space group operators:
 irot       det(A)        alpha          n_x          n_y          n_z        tau_x        tau_y        tau_z
    1     1.000000     0.000000     1.000000     0.000000     0.000000     0.000000     0.000000    -0.000000
    2    -1.000000     0.000000     1.000000     0.000000     0.000000     0.000000     0.000000    -0.000000
    3     1.000000    90.000000     0.000000     0.000000    -1.000000     0.000000     0.000000    -0.000000
    4    -1.000000    90.000000     0.000000     0.000000    -1.000000     0.000000     0.000000    -0.000000
    5     1.000000   180.000000     0.000000     0.000000     1.000000     0.000000     0.000000    -0.000000
    6    -1.000000   180.000000     0.000000     0.000000     1.000000     0.000000     0.000000    -0.000000
    7     1.000000    90.000000     0.000000     0.000000     1.000000     0.000000     0.000000    -0.000000
    8    -1.000000    90.000000     0.000000     0.000000     1.000000     0.000000     0.000000    -0.000000
    9     1.000000   180.000000     1.000000     0.000000     0.000000     0.500000     0.500000    -0.500000
   10    -1.000000   180.000000     1.000000     0.000000     0.000000     0.500000     0.500000    -0.500000
   11     1.000000   180.000000     0.707107     0.707107     0.000000     0.500000     0.500000    -0.500000
   12    -1.000000   180.000000     0.707107     0.707107     0.000000     0.500000     0.500000    -0.500000
   13     1.000000   180.000000     0.000000     1.000000     0.000000     0.500000     0.500000    -0.500000
   14    -1.000000   180.000000     0.000000     1.000000     0.000000     0.500000     0.500000    -0.500000
   15     1.000000   180.000000     0.707107    -0.707107     0.000000     0.500000     0.500000    -0.500000
   16    -1.000000   180.000000     0.707107    -0.707107     0.000000     0.500000     0.500000    -0.500000
 
 Subroutine IBZKPT returns following result:
 ===========================================
 
 Found      6 irreducible k-points:
 
 Following reciprocal coordinates:
            Coordinates               Weight
  0.000000  0.000000  0.000000      1.000000
  0.500000  0.000000  0.000000      2.000000
  0.500000  0.500000  0.000000      1.000000
  0.000000  0.000000  0.500000      1.000000
  0.500000  0.000000  0.500000      2.000000
  0.500000  0.500000  0.500000      1.000000
 
 Following cartesian coordinates:
            Coordinates               Weight
  0.000000  0.000000  0.000000      1.000000
  0.042606  0.000000  0.000000      2.000000
  0.042606  0.042606  0.000000      1.000000
  0.000000  0.000000  0.042606      1.000000
  0.042606  0.000000  0.042606      2.000000
  0.042606  0.042606  0.042606      1.000000
 


--------------------------------------------------------------------------------------------------------




 Dimension of arrays:
   k-points           NKPTS =      6   k-points in BZ     NKDIM =      6   number of bands    NBANDS=    216
   number of dos      NEDOS =    301   number of ions     NIONS =     40
   non local maximal  LDIM  =      6   non local SUM 2l+1 LMDIM =     18
   total plane-waves  NPLWV = 343000
   max r-space proj   IRMAX =   5660   max aug-charges    IRDMAX=  90331
   dimension x,y,z NGX =    70 NGY =   70 NGZ =   70
   dimension x,y,z NGXF=   140 NGYF=  140 NGZF=  140
   support grid    NGXF=   280 NGYF=  280 NGZF=  280
   ions per type =               8   8  24
   NGX,Y,Z   is equivalent  to a cutoff of   9.92,  9.92,  9.92 a.u.
   NGXF,Y,Z  is equivalent  to a cutoff of  19.83, 19.83, 19.83 a.u.

 SYSTEM =  CsPbBr3 cubic bulk                      
 POSCAR =  Cs8 Pb8 Br24                            

 Startparameter for this run:
   NWRITE =      2    write-flag & timer
   PREC   = accura    normal or accurate (medium, high low for compatibility)
   ISTART =      0    job   : 0-new  1-cont  2-samecut
   ICHARG =      2    charge: 1-file 2-atom 10-const
   ISPIN  =      1    spin polarized calculation?
   LNONCOLLINEAR =      F non collinear calculations
   LSORBIT =      F    spin-orbit coupling
   INIWAV =      1    electr: 0-lowe 1-rand  2-diag
   LASPH  =      T    aspherical Exc in radial PAW
   METAGGA=      F    non-selfconsistent MetaGGA calc.

 Electronic Relaxation 1
   ENCUT  =  300.0 eV  22.05 Ry    4.70 a.u.  16.57 16.57 16.57*2*pi/ulx,y,z
   ENINI  =  300.0     initial cutoff
   ENAUG  =  503.9 eV  augmentation charge cutoff
   NELM   =    200;   NELMIN=  2; NELMDL= -5     # of ELM steps 
   EDIFF  = 0.1E-05   stopping-criterion for ELM
   LREAL  =      T    real-space projection
   NLSPLINE    = F    spline interpolate recip. space projectors
   LCOMPAT=      F    compatible to vasp.4.4
   GGA_COMPAT  = T    GGA compatible to vasp.4.4-vasp.4.6
   LMAXPAW     = -100 max onsite density
   LMAXMIX     =    2 max onsite mixed and CHGCAR
   VOSKOWN=      0    Vosko Wilk Nusair interpolation
   ROPT   =   -0.00025  -0.00025  -0.00025
 Ionic relaxation
   EDIFFG = -.1E-01   stopping-criterion for IOM
   NSW    =      0    number of steps for IOM
   NBLOCK =      1;   KBLOCK =      1    inner block; outer block 
   IBRION =     -1    ionic relax: 0-MD 1-quasi-New 2-CG
   NFREE  =      1    steps in history (QN), initial steepest desc. (CG)
   ISIF   =      3    stress and relaxation
   IWAVPR =     10    prediction:  0-non 1-charg 2-wave 3-comb
   ISYM   =      2    0-nonsym 1-usesym 2-fastsym
   LCORR  =      T    Harris-Foulkes like correction to forces

   POTIM  = 0.5000    time-step for ionic-motion
   TEIN   =    0.0    initial temperature
   TEBEG  =    0.0;   TEEND  =   0.0 temperature during run
   SMASS  =  -3.00    Nose mass-parameter (am)
   estimated Nose-frequenzy (Omega)   =  0.10E-29 period in steps =****** mass=  -0.315E-26a.u.
   SCALEE = 1.0000    scale energy and forces
   NPACO  =    256;   APACO  = 16.0  distance and # of slots for P.C.
   PSTRESS=    0.0 pullay stress

  Mass of Ions in am
   POMASS = 132.90207.20 79.90
  Ionic Valenz
   ZVAL   =   9.00 14.00  7.00
  Atomic Wigner-Seitz radii
   RWIGS  =  -1.00 -1.00 -1.00
  virtual crystal weights 
   VCA    =   1.00  1.00  1.00
   NELECT =     352.0000    total number of electrons
   NUPDOWN=      -1.0000    fix difference up-down

 DOS related values:
   EMIN   =  10.00;   EMAX   =-10.00  energy-range for DOS
   EFERMI =   0.00
   ISMEAR =     0;   SIGMA  =   0.01  broadening in eV -4-tet -1-fermi 0-gaus

 Electronic relaxation 2 (details)
   IALGO  =     38    algorithm
   LDIAG  =      T    sub-space diagonalisation (order eigenvalues)
   LSUBROT=      F    optimize rotation matrix (better conditioning)
   TURBO    =      0    0=normal 1=particle mesh
   IRESTART =      0    0=no restart 2=restart with 2 vectors
   NREBOOT  =      0    no. of reboots
   NMIN     =      0    reboot dimension
   EREF     =   0.00    reference energy to select bands
   IMIX   =      4    mixing-type and parameters
     AMIX     =   0.40;   BMIX     =  1.00
     AMIX_MAG =   1.60;   BMIX_MAG =  1.00
     AMIN     =   0.10
     WC   =   100.;   INIMIX=   1;  MIXPRE=   1;  MAXMIX= -45

 Intra band minimization:
   WEIMIN = 0.0000     energy-eigenvalue tresh-hold
   EBREAK =  0.12E-08  absolut break condition
   DEPER  =   0.30     relativ break condition  

   TIME   =   0.40     timestep for ELM

  volume/ion in A,a.u.               =      40.40       272.66
  Fermi-wavevector in a.u.,A,eV,Ry     =   0.984977  1.861337 13.200107  0.970180
  Thomas-Fermi vector in A             =   2.116250

 Write flags
   LWAVE        =      F    write WAVECAR
   LDOWNSAMPLE  =      F    k-point downsampling of WAVECAR
   LCHARG       =      T    write CHGCAR
   LVTOT        =      F    write LOCPOT, total local potential
   LVHAR        =      T    write LOCPOT, Hartree potential only
   LELF         =      F    write electronic localiz. function (ELF)
   LORBIT       =     10    0 simple, 1 ext, 2 COOP (PROOUT), +10 PAW based schemes


 Dipole corrections
   LMONO  =      F    monopole corrections only (constant potential shift)
   LDIPOL =      F    correct potential (dipole corrections)
   IDIPOL =      0    1-x, 2-y, 3-z, 4-all directions 
   EPSILON=  1.0000000 bulk dielectric constant

 Exchange correlation treatment:
   GGA     =    --    GGA type
   LEXCH   =     8    internal setting for exchange type
   VOSKOWN=      0    Vosko Wilk Nusair interpolation
   LHFCALC =     F    Hartree Fock is set to
   LHFONE  =     F    Hartree Fock one center treatment
   AEXX    =    0.0000 exact exchange contribution

 Linear response parameters
   LEPSILON=     F    determine dielectric tensor
   LRPA    =     F    only Hartree local field effects (RPA)
   LNABLA  =     F    use nabla operator in PAW spheres
   LVEL    =     F    velocity operator in full k-point grid
   LINTERFAST=   F  fast interpolation
   KINTER  =     0    interpolate to denser k-point grid
   CSHIFT  =0.1000    complex shift for real part using Kramers Kronig
   OMEGAMAX=  -1.0    maximum frequency
   DEG_THRESHOLD= 0.2000000E-02 threshold for treating states as degnerate
   RTIME   =   -0.100 relaxation time in fs
  (WPLASMAI=    0.000 imaginary part of plasma frequency in eV, 0.658/RTIME)
   DFIELD  = 0.0000000 0.0000000 0.0000000 field for delta impulse in time

 Orbital magnetization related:
   ORBITALMAG=     F  switch on orbital magnetization
   LCHIMAG   =     F  perturbation theory with respect to B field
   DQ        =  0.001000  dq finite difference perturbation B field
   LLRAUG    =     F  two centre corrections for induced B field



--------------------------------------------------------------------------------------------------------


 Static calculation
 charge density and potential will be updated during run
 non-spin polarized calculation
 Variant of blocked Davidson
 Davidson routine will perform the subspace rotation
 perform sub-space diagonalisation
    after iterative eigenvector-optimisation
 modified Broyden-mixing scheme, WC =      100.0
 initial mixing is a Kerker type mixing with AMIX =  0.4000 and BMIX =      1.0000
 Hartree-type preconditioning will be used
 using additional bands           40
 real space projection scheme for non local part
 use partial core corrections
 calculate Harris-corrections to forces   (improved forces if not selfconsistent)
 use gradient corrections 
 use of overlap-Matrix (Vanderbilt PP)
 Gauss-broadening in eV      SIGMA  =   0.01


--------------------------------------------------------------------------------------------------------


  energy-cutoff  :      300.00
  volume of cell :     1616.17
      direct lattice vectors                 reciprocal lattice vectors
    11.735352000  0.000000000  0.000000000     0.085212612  0.000000000  0.000000000
     0.000000000 11.735352000  0.000000000     0.000000000  0.085212612  0.000000000
     0.000000000  0.000000000 11.735352000     0.000000000  0.000000000  0.085212612

  length of vectors
    11.735352000 11.735352000 11.735352000     0.085212612  0.085212612  0.085212612



 k-points in units of 2pi/SCALE and weight: 1x1x1                                   
   0.00000000  0.00000000  0.00000000       0.125
   0.04260631  0.00000000  0.00000000       0.250
   0.04260631  0.04260631  0.00000000       0.125
   0.00000000  0.00000000  0.04260631       0.125
   0.04260631  0.00000000  0.04260631       0.250
   0.04260631  0.04260631  0.04260631       0.125

 k-points in reciprocal lattice and weights: 1x1x1                                   
   0.00000000  0.00000000  0.00000000       0.125
   0.50000000  0.00000000  0.00000000       0.250
   0.50000000  0.50000000  0.00000000       0.125
   0.00000000  0.00000000  0.50000000       0.125
   0.50000000  0.00000000  0.50000000       0.250
   0.50000000  0.50000000  0.50000000       0.125

 position of ions in fractional coordinates (direct lattice) 
   0.25000000  0.25000000  0.25000000
   0.25000000  0.25000000  0.75000000
   0.25000000  0.75000000  0.25000000
   0.25000000  0.75000000  0.75000000
   0.75000000  0.25000000  0.25000000
   0.75000000  0.25000000  0.75000000
   0.75000000  0.75000000  0.25000000
   0.75000000  0.75000000  0.75000000
   0.00000000  0.00000000  0.00000000
   0.00000000  0.00000000  0.50000000
   0.00000000  0.50000000  0.00000000
   0.00000000  0.50000000  0.50000000
   0.50000000  0.00000000  0.00000000
   0.50000000  0.00000000  0.50000000
   0.50000000  0.50000000  0.00000000
   0.50000000  0.50000000  0.50000000
   0.93250000  0.25000000  0.00000000
   0.06750000  0.25000000  0.50000000
   0.06750000  0.75000000  0.00000000
   0.93250000  0.75000000  0.50000000
   0.56750000  0.25000000  0.00000000
   0.43250000  0.25000000  0.50000000
   0.43250000  0.75000000  0.00000000
   0.56750000  0.75000000  0.50000000
   0.00000000  0.00000000  0.25000000
   0.00000000  0.00000000  0.75000000
   0.00000000  0.50000000  0.25000000
   0.00000000  0.50000000  0.75000000
   0.50000000  0.00000000  0.25000000
   0.50000000  0.00000000  0.75000000
   0.50000000  0.50000000  0.25000000
   0.50000000  0.50000000  0.75000000
   0.25000000  0.06750000  0.00000000
   0.25000000  0.93250000  0.50000000
   0.25000000  0.43250000  0.00000000
   0.25000000  0.56750000  0.50000000
   0.75000000  0.93250000  0.00000000
   0.75000000  0.06750000  0.50000000
   0.75000000  0.56750000  0.00000000
   0.75000000  0.43250000  0.50000000

 position of ions in cartesian coordinates  (Angst):
   2.93383800  2.93383800  2.93383800
   2.93383800  2.93383800  8.80151400
   2.93383800  8.80151400  2.93383800
   2.93383800  8.80151400  8.80151400
   8.80151400  2.93383800  2.93383800
   8.80151400  2.93383800  8.80151400
   8.80151400  8.80151400  2.93383800
   8.80151400  8.80151400  8.80151400
   0.00000000  0.00000000  0.00000000
   0.00000000  0.00000000  5.86767600
   0.00000000  5.86767600  0.00000000
   0.00000000  5.86767600  5.86767600
   5.86767600  0.00000000  0.00000000
   5.86767600  0.00000000  5.86767600
   5.86767600  5.86767600  0.00000000
   5.86767600  5.86767600  5.86767600
  10.94321574  2.93383800  0.00000000
   0.79213626  2.93383800  5.86767600
   0.79213626  8.80151400  0.00000000
  10.94321574  8.80151400  5.86767600
   6.65981226  2.93383800  0.00000000
   5.07553974  2.93383800  5.86767600
   5.07553974  8.80151400  0.00000000
   6.65981226  8.80151400  5.86767600
   0.00000000  0.00000000  2.93383800
   0.00000000  0.00000000  8.80151400
   0.00000000  5.86767600  2.93383800
   0.00000000  5.86767600  8.80151400
   5.86767600  0.00000000  2.93383800
   5.86767600  0.00000000  8.80151400
   5.86767600  5.86767600  2.93383800
   5.86767600  5.86767600  8.80151400
   2.93383800  0.79213626  0.00000000
   2.93383800 10.94321574  5.86767600
   2.93383800  5.07553974  0.00000000
   2.93383800  6.65981226  5.86767600
   8.80151400 10.94321574  0.00000000
   8.80151400  0.79213626  5.86767600
   8.80151400  6.65981226  0.00000000
   8.80151400  5.07553974  5.86767600



--------------------------------------------------------------------------------------------------------


 k-point  1 :   0.0000 0.0000 0.0000  plane waves:   19093
 k-point  2 :   0.5000 0.0000 0.0000  plane waves:   19066
 k-point  3 :   0.5000 0.5000 0.0000  plane waves:   19072
 k-point  4 :   0.0000 0.0000 0.5000  plane waves:   19066
 k-point  5 :   0.5000 0.0000 0.5000  plane waves:   19072
 k-point  6 :   0.5000 0.5000 0.5000  plane waves:   19064

 maximum and minimum number of plane-waves per node :      2417     2354

 maximum number of plane-waves:     19093
 maximum index in each direction: 
   IXMAX=   16   IYMAX=   16   IZMAX=   16
   IXMIN=  -17   IYMIN=  -17   IZMIN=  -17


 real space projection operators:
  total allocation   :      16861.50 KBytes
  max/ min on nodes  :       2197.41       1842.53


 parallel 3D FFT for wavefunctions:
    minimum data exchange during FFTs selected (reduces bandwidth)
 parallel 3D FFT for charge:
    minimum data exchange during FFTs selected (reduces bandwidth)


 total amount of memory used by VASP MPI-rank0    58958. kBytes
=======================================================================

   base      :      30000. kBytes
   nonlr-proj:       6586. kBytes
   fftplans  :       8423. kBytes
   grid      :       7465. kBytes
   one-center:         77. kBytes
   wavefun   :       6407. kBytes

     INWAV:  cpu time    0.0000: real time    0.0000
 Broyden mixing: mesh for mixing (old mesh)
   NGX = 33   NGY = 33   NGZ = 33
  (NGX  =140   NGY  =140   NGZ  =140)
  gives a total of  35937 points

 initial charge density was supplied:
 charge density of overlapping atoms calculated
 number of electron     352.0000000 magnetization 
 keeping initial charge density in first step


--------------------------------------------------------------------------------------------------------


 Maximum index for non-local projection operator          712
 Maximum index for augmentation-charges         2962 (set IRDMAX)


--------------------------------------------------------------------------------------------------------


 First call to EWALD:  gamma=   0.151
 Maximum number of real-space cells 3x 3x 3
 Maximum number of reciprocal cells 3x 3x 3

    FEWALD:  cpu time    0.0039: real time    0.0039


--------------------------------------- Iteration      1(   1)  ---------------------------------------


    POTLOK:  cpu time    0.2606: real time    0.2742
    SETDIJ:  cpu time    1.2025: real time    1.2026
     EDDAV:  cpu time   12.7553: real time   12.7612
       DOS:  cpu time    0.0006: real time    0.0006
    --------------------------------------------
      LOOP:  cpu time   14.2190: real time   14.2386

 eigenvalue-minimisations  :  2688
 total energy-change (2. order) : 0.1344211E+04  (-0.1128960E+05)
 number of electron     352.0000000 magnetization 
 augmentation part      352.0000000 magnetization 

 Free energy of the ion-electron system (eV)
  ---------------------------------------------------
  alpha Z        PSCENC =       892.99476195
  Ewald energy   TEWEN  =    -18433.13816175
  -Hartree energ DENC   =     -7316.06079470
  -exchange      EXHF   =         0.00000000
  -V(xc)+E(xc)   XCENC  =       923.76572053
  PAW double counting   =     21633.96174531   -22707.92185401
  entropy T*S    EENTRO =        -0.00000014
  eigenvalues    EBANDS =      -229.95016326
  atomic energy  EATOM  =     26580.56019858
  Solvation  Ediel_sol  =         0.00000000
  ---------------------------------------------------
  free energy    TOTEN  =      1344.21145252 eV

  energy without entropy =     1344.21145265  energy(sigma->0) =     1344.21145258


--------------------------------------------------------------------------------------------------------




--------------------------------------- Iteration      1(   2)  ---------------------------------------


     EDDAV:  cpu time   14.2327: real time   14.2579
       DOS:  cpu time    0.0003: real time    0.0003
    --------------------------------------------
      LOOP:  cpu time   14.2330: real time   14.2582

 eigenvalue-minimisations  :  3184
 total energy-change (2. order) :-0.2477547E+04  (-0.2387360E+04)
 number of electron     352.0000000 magnetization 
 augmentation part      352.0000000 magnetization 

 Free energy of the ion-electron system (eV)
  ---------------------------------------------------
  alpha Z        PSCENC =       892.99476195
  Ewald energy   TEWEN  =    -18433.13816175
  -Hartree energ DENC   =     -7316.06079470
  -exchange      EXHF   =         0.00000000
  -V(xc)+E(xc)   XCENC  =       923.76572053
  PAW double counting   =     21633.96174531   -22707.92185401
  entropy T*S    EENTRO =        -0.00000000
  eigenvalues    EBANDS =     -2707.49711097
  atomic energy  EATOM  =     26580.56019858
  Solvation  Ediel_sol  =         0.00000000
  ---------------------------------------------------
  free energy    TOTEN  =     -1133.33549507 eV

  energy without entropy =    -1133.33549507  energy(sigma->0) =    -1133.33549507


--------------------------------------------------------------------------------------------------------




--------------------------------------- Iteration      1(   3)  ---------------------------------------


     EDDAV:  cpu time   15.1019: real time   15.1372
       DOS:  cpu time    0.0004: real time    0.0003
    --------------------------------------------
      LOOP:  cpu time   15.1023: real time   15.1375

 eigenvalue-minimisations  :  3504
 total energy-change (2. order) :-0.3637362E+03  (-0.3617671E+03)
 number of electron     352.0000000 magnetization 
 augmentation part      352.0000000 magnetization 

 Free energy of the ion-electron system (eV)
  ---------------------------------------------------
  alpha Z        PSCENC =       892.99476195
  Ewald energy   TEWEN  =    -18433.13816175
  -Hartree energ DENC   =     -7316.06079470
  -exchange      EXHF   =         0.00000000
  -V(xc)+E(xc)   XCENC  =       923.76572053
  PAW double counting   =     21633.96174531   -22707.92185401
  entropy T*S    EENTRO =        -0.00000000
  eigenvalues    EBANDS =     -3071.23335691
  atomic energy  EATOM  =     26580.56019858
  Solvation  Ediel_sol  =         0.00000000
  ---------------------------------------------------
  free energy    TOTEN  =     -1497.07174101 eV

  energy without entropy =    -1497.07174101  energy(sigma->0) =    -1497.07174101


--------------------------------------------------------------------------------------------------------




--------------------------------------- Iteration      1(   4)  ---------------------------------------


     EDDAV:  cpu time   13.8811: real time   13.8837
       DOS:  cpu time    0.0003: real time    0.0003
    --------------------------------------------
      LOOP:  cpu time   13.8814: real time   13.8841

 eigenvalue-minimisations  :  3064
 total energy-change (2. order) :-0.1157089E+02  (-0.1153452E+02)
 number of electron     352.0000000 magnetization 
 augmentation part      352.0000000 magnetization 

 Free energy of the ion-electron system (eV)
  ---------------------------------------------------
  alpha Z        PSCENC =       892.99476195
  Ewald energy   TEWEN  =    -18433.13816175
  -Hartree energ DENC   =     -7316.06079470
  -exchange      EXHF   =         0.00000000
  -V(xc)+E(xc)   XCENC  =       923.76572053
  PAW double counting   =     21633.96174531   -22707.92185401
  entropy T*S    EENTRO =        -0.00000000
  eigenvalues    EBANDS =     -3082.80425061
  atomic energy  EATOM  =     26580.56019858
  Solvation  Ediel_sol  =         0.00000000
  ---------------------------------------------------
  free energy    TOTEN  =     -1508.64263470 eV

  energy without entropy =    -1508.64263470  energy(sigma->0) =    -1508.64263470


--------------------------------------------------------------------------------------------------------




--------------------------------------- Iteration      1(   5)  ---------------------------------------


     EDDAV:  cpu time   14.8337: real time   14.8832
       DOS:  cpu time    0.0006: real time    0.0006
    CHARGE:  cpu time    3.0566: real time    3.0567
    MIXING:  cpu time    0.0015: real time    0.0015
    --------------------------------------------
      LOOP:  cpu time   17.8924: real time   17.9421

 eigenvalue-minimisations  :  3416
 total energy-change (2. order) :-0.5421619E+00  (-0.5418933E+00)
 number of electron     351.9999984 magnetization 
 augmentation part       -6.5075171 magnetization 

 Broyden mixing:
  rms(total) = 0.10060E+01    rms(broyden)= 0.10056E+01
  rms(prec ) = 0.14011E+01
  weight for this iteration     100.00

 Free energy of the ion-electron system (eV)
  ---------------------------------------------------
  alpha Z        PSCENC =       892.99476195
  Ewald energy   TEWEN  =    -18433.13816175
  -Hartree energ DENC   =     -7316.06079470
  -exchange      EXHF   =         0.00000000
  -V(xc)+E(xc)   XCENC  =       923.76572053
  PAW double counting   =     21633.96174531   -22707.92185401
  entropy T*S    EENTRO =        -0.00000000
  eigenvalues    EBANDS =     -3083.34641251
  atomic energy  EATOM  =     26580.56019858
  Solvation  Ediel_sol  =         0.00000000
  ---------------------------------------------------
  free energy    TOTEN  =     -1509.18479661 eV

  energy without entropy =    -1509.18479661  energy(sigma->0) =    -1509.18479661


--------------------------------------------------------------------------------------------------------




--------------------------------------- Iteration      1(   6)  ---------------------------------------


    POTLOK:  cpu time    0.2757: real time    0.2923
    SETDIJ:  cpu time    1.1892: real time    1.1892
     EDDAV:  cpu time   14.7811: real time   14.7820
       DOS:  cpu time    0.0004: real time    0.0004
    CHARGE:  cpu time    3.0774: real time    3.0801
    MIXING:  cpu time    0.0015: real time    0.0015
    --------------------------------------------
      LOOP:  cpu time   19.3253: real time   19.3455

 eigenvalue-minimisations  :  3400
 total energy-change (2. order) : 0.7966540E+02  (-0.2381071E+01)
 number of electron     351.9999984 magnetization 
 augmentation part       -5.0522985 magnetization 

 Broyden mixing:
  rms(total) = 0.71622E+00    rms(broyden)= 0.71613E+00
  rms(prec ) = 0.89276E+00
  weight for this iteration     100.00

 eigenvalues of (default mixing * dielectric matrix)
  average eigenvalue GAMMA=   1.1677
  1.1677

 Free energy of the ion-electron system (eV)
  ---------------------------------------------------
  alpha Z        PSCENC =       892.99476195
  Ewald energy   TEWEN  =    -18433.13816175
  -Hartree energ DENC   =     -7298.54336581
  -exchange      EXHF   =         0.00000000
  -V(xc)+E(xc)   XCENC  =       954.82753508
  PAW double counting   =     21933.19338390   -23005.44321791
  entropy T*S    EENTRO =        -0.00000000
  eigenvalues    EBANDS =     -3053.97052829
  atomic energy  EATOM  =     26580.56019858
  Solvation  Ediel_sol  =         0.00000000
  ---------------------------------------------------
  free energy    TOTEN  =     -1429.51939426 eV

  energy without entropy =    -1429.51939426  energy(sigma->0) =    -1429.51939426


--------------------------------------------------------------------------------------------------------




--------------------------------------- Iteration      1(   7)  ---------------------------------------


    POTLOK:  cpu time    0.2998: real time    0.3042
    SETDIJ:  cpu time    1.1965: real time    1.1966
     EDDAV:  cpu time   14.0778: real time   14.0783
       DOS:  cpu time    0.0004: real time    0.0004
    CHARGE:  cpu time    3.1002: real time    3.1005
    MIXING:  cpu time    0.0015: real time    0.0015
    --------------------------------------------
      LOOP:  cpu time   18.6761: real time   18.6814

 eigenvalue-minimisations  :  3152
 total energy-change (2. order) : 0.5046461E+00  (-0.8033706E+00)
 number of electron     351.9999984 magnetization 
 augmentation part       -4.5330222 magnetization 

 Broyden mixing:
  rms(total) = 0.36555E+00    rms(broyden)= 0.36553E+00
  rms(prec ) = 0.40195E+00
  weight for this iteration     100.00

 eigenvalues of (default mixing * dielectric matrix)
  average eigenvalue GAMMA=   1.3208
  1.3208  1.3208

 Free energy of the ion-electron system (eV)
  ---------------------------------------------------
  alpha Z        PSCENC =       892.99476195
  Ewald energy   TEWEN  =    -18433.13816175
  -Hartree energ DENC   =     -7339.85292310
  -exchange      EXHF   =         0.00000000
  -V(xc)+E(xc)   XCENC  =       960.24266434
  PAW double counting   =     22555.61306671   -23626.04308795
  entropy T*S    EENTRO =        -0.00000000
  eigenvalues    EBANDS =     -3019.39126693
  atomic energy  EATOM  =     26580.56019858
  Solvation  Ediel_sol  =         0.00000000
  ---------------------------------------------------
  free energy    TOTEN  =     -1429.01474815 eV

  energy without entropy =    -1429.01474815  energy(sigma->0) =    -1429.01474815


--------------------------------------------------------------------------------------------------------




--------------------------------------- Iteration      1(   8)  ---------------------------------------


    POTLOK:  cpu time    0.2537: real time    0.3047
    SETDIJ:  cpu time    1.1918: real time    1.1918
     EDDAV:  cpu time   14.0012: real time   14.0017
       DOS:  cpu time    0.0006: real time    0.0006
    CHARGE:  cpu time    3.0983: real time    3.0985
    MIXING:  cpu time    0.0015: real time    0.0015
    --------------------------------------------
      LOOP:  cpu time   18.5472: real time   18.5989

 eigenvalue-minimisations  :  3128
 total energy-change (2. order) :-0.1992450E+00  (-0.4061683E-01)
 number of electron     351.9999984 magnetization 
 augmentation part       -4.6120628 magnetization 

 Broyden mixing:
  rms(total) = 0.21113E+00    rms(broyden)= 0.21113E+00
  rms(prec ) = 0.23425E+00
  weight for this iteration     100.00

 eigenvalues of (default mixing * dielectric matrix)
  average eigenvalue GAMMA=   1.7143
  1.1009  1.3354  2.7066

 Free energy of the ion-electron system (eV)
  ---------------------------------------------------
  alpha Z        PSCENC =       892.99476195
  Ewald energy   TEWEN  =    -18433.13816175
  -Hartree energ DENC   =     -7344.61129999
  -exchange      EXHF   =         0.00000000
  -V(xc)+E(xc)   XCENC  =       960.99924736
  PAW double counting   =     22798.71195756   -23869.45133223
  entropy T*S    EENTRO =        -0.00000000
  eigenvalues    EBANDS =     -3015.27936463
  atomic energy  EATOM  =     26580.56019858
  Solvation  Ediel_sol  =         0.00000000
  ---------------------------------------------------
  free energy    TOTEN  =     -1429.21399315 eV

  energy without entropy =    -1429.21399315  energy(sigma->0) =    -1429.21399315


--------------------------------------------------------------------------------------------------------




--------------------------------------- Iteration      1(   9)  ---------------------------------------


    POTLOK:  cpu time    0.2630: real time    0.3120
    SETDIJ:  cpu time    1.1965: real time    1.1965
     EDDAV:  cpu time   13.3915: real time   13.3923
       DOS:  cpu time    0.0008: real time    0.0008
    CHARGE:  cpu time    3.0969: real time    3.0970
    MIXING:  cpu time    0.0016: real time    0.0016
    --------------------------------------------
      LOOP:  cpu time   17.9503: real time   18.0002

 eigenvalue-minimisations  :  2912
 total energy-change (2. order) :-0.8344296E-01  (-0.1690697E-01)
 number of electron     351.9999984 magnetization 
 augmentation part       -4.6534900 magnetization 

 Broyden mixing:
  rms(total) = 0.44466E-01    rms(broyden)= 0.44463E-01
  rms(prec ) = 0.47753E-01
  weight for this iteration     100.00

 eigenvalues of (default mixing * dielectric matrix)
  average eigenvalue GAMMA=   1.4688
  2.5670  1.2446  1.2446  0.8189

 Free energy of the ion-electron system (eV)
  ---------------------------------------------------
  alpha Z        PSCENC =       892.99476195
  Ewald energy   TEWEN  =    -18433.13816175
  -Hartree energ DENC   =     -7350.18428560
  -exchange      EXHF   =         0.00000000
  -V(xc)+E(xc)   XCENC  =       963.03239435
  PAW double counting   =     23141.34795204   -24212.81649833
  entropy T*S    EENTRO =        -0.00000000
  eigenvalues    EBANDS =     -3011.09379735
  atomic energy  EATOM  =     26580.56019858
  Solvation  Ediel_sol  =         0.00000000
  ---------------------------------------------------
  free energy    TOTEN  =     -1429.29743610 eV

  energy without entropy =    -1429.29743610  energy(sigma->0) =    -1429.29743610


--------------------------------------------------------------------------------------------------------




--------------------------------------- Iteration      1(  10)  ---------------------------------------


    POTLOK:  cpu time    0.2575: real time    0.3094
    SETDIJ:  cpu time    1.1923: real time    1.1924
     EDDAV:  cpu time   15.4893: real time   15.4899
       DOS:  cpu time    0.0004: real time    0.0004
    CHARGE:  cpu time    3.0999: real time    3.1000
    MIXING:  cpu time    0.0019: real time    0.0019
    --------------------------------------------
      LOOP:  cpu time   20.0414: real time   20.0939

 eigenvalue-minimisations  :  3648
 total energy-change (2. order) :-0.1756679E-02  (-0.9633312E-03)
 number of electron     351.9999984 magnetization 
 augmentation part       -4.6399945 magnetization 

 Broyden mixing:
  rms(total) = 0.27404E-01    rms(broyden)= 0.27403E-01
  rms(prec ) = 0.30208E-01
  weight for this iteration     100.00

 eigenvalues of (default mixing * dielectric matrix)
  average eigenvalue GAMMA=   1.5503
  2.3187  2.3187  1.1178  1.1178  0.8785

 Free energy of the ion-electron system (eV)
  ---------------------------------------------------
  alpha Z        PSCENC =       892.99476195
  Ewald energy   TEWEN  =    -18433.13816175
  -Hartree energ DENC   =     -7348.55686145
  -exchange      EXHF   =         0.00000000
  -V(xc)+E(xc)   XCENC  =       962.85397356
  PAW double counting   =     23110.63332467   -24182.17799765
  entropy T*S    EENTRO =        -0.00000000
  eigenvalues    EBANDS =     -3012.46843069
  atomic energy  EATOM  =     26580.56019858
  Solvation  Ediel_sol  =         0.00000000
  ---------------------------------------------------
  free energy    TOTEN  =     -1429.29919278 eV

  energy without entropy =    -1429.29919278  energy(sigma->0) =    -1429.29919278


--------------------------------------------------------------------------------------------------------




--------------------------------------- Iteration      1(  11)  ---------------------------------------


    POTLOK:  cpu time    0.2935: real time    0.3058
    SETDIJ:  cpu time    1.2035: real time    1.2035
     EDDAV:  cpu time   13.2839: real time   13.2844
       DOS:  cpu time    0.0004: real time    0.0004
    CHARGE:  cpu time    3.1041: real time    3.1042
    MIXING:  cpu time    0.0017: real time    0.0017
    --------------------------------------------
      LOOP:  cpu time   17.8871: real time   17.9001

 eigenvalue-minimisations  :  2872
 total energy-change (2. order) :-0.2993101E-02  (-0.2758532E-03)
 number of electron     351.9999984 magnetization 
 augmentation part       -4.6387929 magnetization 

 Broyden mixing:
  rms(total) = 0.88720E-02    rms(broyden)= 0.88718E-02
  rms(prec ) = 0.10988E-01
  weight for this iteration     100.00

 eigenvalues of (default mixing * dielectric matrix)
  average eigenvalue GAMMA=   1.5862
  2.6087  2.6087  1.2338  1.2338  0.9163  0.9163

 Free energy of the ion-electron system (eV)
  ---------------------------------------------------
  alpha Z        PSCENC =       892.99476195
  Ewald energy   TEWEN  =    -18433.13816175
  -Hartree energ DENC   =     -7346.24291461
  -exchange      EXHF   =         0.00000000
  -V(xc)+E(xc)   XCENC  =       962.76848312
  PAW double counting   =     23083.27989337   -24155.09303407
  entropy T*S    EENTRO =        -0.00000000
  eigenvalues    EBANDS =     -3014.43141247
  atomic energy  EATOM  =     26580.56019858
  Solvation  Ediel_sol  =         0.00000000
  ---------------------------------------------------
  free energy    TOTEN  =     -1429.30218588 eV

  energy without entropy =    -1429.30218588  energy(sigma->0) =    -1429.30218588


--------------------------------------------------------------------------------------------------------




--------------------------------------- Iteration      1(  12)  ---------------------------------------


    POTLOK:  cpu time    0.2852: real time    0.3017
    SETDIJ:  cpu time    1.1929: real time    1.1929
     EDDAV:  cpu time   13.2631: real time   13.2636
       DOS:  cpu time    0.0004: real time    0.0004
    CHARGE:  cpu time    3.0956: real time    3.0957
    MIXING:  cpu time    0.0017: real time    0.0017
    --------------------------------------------
      LOOP:  cpu time   17.8388: real time   17.8560

 eigenvalue-minimisations  :  2872
 total energy-change (2. order) :-0.6802215E-03  (-0.9278838E-04)
 number of electron     351.9999984 magnetization 
 augmentation part       -4.6421490 magnetization 

 Broyden mixing:
  rms(total) = 0.36189E-02    rms(broyden)= 0.36186E-02
  rms(prec ) = 0.40836E-02
  weight for this iteration     100.00

 eigenvalues of (default mixing * dielectric matrix)
  average eigenvalue GAMMA=   1.6299
  3.0093  2.4650  1.7328  1.2523  0.9924  0.9786  0.9786

 Free energy of the ion-electron system (eV)
  ---------------------------------------------------
  alpha Z        PSCENC =       892.99476195
  Ewald energy   TEWEN  =    -18433.13816175
  -Hartree energ DENC   =     -7346.24575149
  -exchange      EXHF   =         0.00000000
  -V(xc)+E(xc)   XCENC  =       962.88044814
  PAW double counting   =     23089.28811641   -24161.23240955
  entropy T*S    EENTRO =        -0.00000000
  eigenvalues    EBANDS =     -3014.41006839
  atomic energy  EATOM  =     26580.56019858
  Solvation  Ediel_sol  =         0.00000000
  ---------------------------------------------------
  free energy    TOTEN  =     -1429.30286611 eV

  energy without entropy =    -1429.30286611  energy(sigma->0) =    -1429.30286611


--------------------------------------------------------------------------------------------------------




--------------------------------------- Iteration      1(  13)  ---------------------------------------


    POTLOK:  cpu time    0.2683: real time    0.3017
    SETDIJ:  cpu time    1.2012: real time    1.2012
     EDDAV:  cpu time   14.6540: real time   14.6548
       DOS:  cpu time    0.0004: real time    0.0004
    CHARGE:  cpu time    3.1058: real time    3.1059
    MIXING:  cpu time    0.0020: real time    0.0020
    --------------------------------------------
      LOOP:  cpu time   19.2316: real time   19.2659

 eigenvalue-minimisations  :  3352
 total energy-change (2. order) : 0.1124345E-06  (-0.8502565E-05)
 number of electron     351.9999984 magnetization 
 augmentation part       -4.6420288 magnetization 

 Broyden mixing:
  rms(total) = 0.13488E-02    rms(broyden)= 0.13488E-02
  rms(prec ) = 0.14512E-02
  weight for this iteration     100.00

 eigenvalues of (default mixing * dielectric matrix)
  average eigenvalue GAMMA=   1.6395
  2.9929  2.3562  2.0060  1.5276  1.2318  0.9856  1.0078  1.0078

 Free energy of the ion-electron system (eV)
  ---------------------------------------------------
  alpha Z        PSCENC =       892.99476195
  Ewald energy   TEWEN  =    -18433.13816175
  -Hartree energ DENC   =     -7346.57787192
  -exchange      EXHF   =         0.00000000
  -V(xc)+E(xc)   XCENC  =       962.90671263
  PAW double counting   =     23086.31931518   -24158.26671975
  entropy T*S    EENTRO =        -0.00000000
  eigenvalues    EBANDS =     -3014.10110091
  atomic energy  EATOM  =     26580.56019858
  Solvation  Ediel_sol  =         0.00000000
  ---------------------------------------------------
  free energy    TOTEN  =     -1429.30286599 eV

  energy without entropy =    -1429.30286599  energy(sigma->0) =    -1429.30286599


--------------------------------------------------------------------------------------------------------




--------------------------------------- Iteration      1(  14)  ---------------------------------------


    POTLOK:  cpu time    0.2832: real time    0.3009
    SETDIJ:  cpu time    1.2008: real time    1.2008
     EDDAV:  cpu time   12.8172: real time   12.8177
       DOS:  cpu time    0.0003: real time    0.0003
    --------------------------------------------
      LOOP:  cpu time   14.3015: real time   14.3197

 eigenvalue-minimisations  :  2704
 total energy-change (2. order) :-0.7687322E-06  (-0.8805981E-06)
 number of electron     351.9999984 magnetization 
 augmentation part       -4.6420288 magnetization 

 Free energy of the ion-electron system (eV)
  ---------------------------------------------------
  alpha Z        PSCENC =       892.99476195
  Ewald energy   TEWEN  =    -18433.13816175
  -Hartree energ DENC   =     -7346.63383963
  -exchange      EXHF   =         0.00000000
  -V(xc)+E(xc)   XCENC  =       962.90970912
  PAW double counting   =     23086.06870779   -24158.00827678
  entropy T*S    EENTRO =        -0.00000000
  eigenvalues    EBANDS =     -3014.05596603
  atomic energy  EATOM  =     26580.56019858
  Solvation  Ediel_sol  =         0.00000000
  ---------------------------------------------------
  free energy    TOTEN  =     -1429.30286676 eV

  energy without entropy =    -1429.30286676  energy(sigma->0) =    -1429.30286676


--------------------------------------------------------------------------------------------------------




 average (electrostatic) potential at core
  the test charge radii are     1.1312  1.1541  1.0178
  (the norm of the test charge is              1.0000)
       1 -55.3023       2 -55.3023       3 -55.3023       4 -55.3023       5 -55.3023
       6 -55.3023       7 -55.3023       8 -55.3023       9-101.6633      10-101.6633
      11-101.6633      12-101.6633      13-101.6633      14-101.6633      15-101.6633
      16-101.6633      17 -68.9248      18 -68.9248      19 -68.9248      20 -68.9248
      21 -68.9248      22 -68.9248      23 -68.9248      24 -68.9248      25 -69.0725
      26 -69.0725      27 -69.0725      28 -69.0725      29 -69.0725      30 -69.0725
      31 -69.0725      32 -69.0725      33 -68.9248      34 -68.9248      35 -68.9248
      36 -68.9248      37 -68.9248      38 -68.9248      39 -68.9248      40 -68.9248



 E-fermi :   0.5883     XC(G=0):  -8.0463     alpha+bet : -7.0048


 k-point     1 :       0.0000    0.0000    0.0000
  band No.  band energies     occupation 
      1     -20.8320      2.00000
      2     -20.8309      2.00000
      3     -20.8309      2.00000
      4     -20.8300      2.00000
      5     -20.8293      2.00000
      6     -20.8284      2.00000
      7     -20.8284      2.00000
      8     -20.8271      2.00000
      9     -16.5100      2.00000
     10     -16.5041      2.00000
     11     -16.5041      2.00000
     12     -16.4912      2.00000
     13     -16.4554      2.00000
     14     -16.4551      2.00000
     15     -16.4395      2.00000
     16     -16.4395      2.00000
     17     -16.4297      2.00000
     18     -16.4166      2.00000
     19     -16.4166      2.00000
     20     -16.4039      2.00000
     21     -16.3970      2.00000
     22     -16.3970      2.00000
     23     -16.3828      2.00000
     24     -16.3825      2.00000
     25     -16.3255      2.00000
     26     -16.3253      2.00000
     27     -16.3249      2.00000
     28     -16.3249      2.00000
     29     -16.3247      2.00000
     30     -16.3247      2.00000
     31     -16.3239      2.00000
     32     -16.3237      2.00000
     33     -16.3196      2.00000
     34     -16.3196      2.00000
     35     -16.3193      2.00000
     36     -16.3193      2.00000
     37     -16.3191      2.00000
     38     -16.3191      2.00000
     39     -16.3189      2.00000
     40     -16.3189      2.00000
     41     -16.3186      2.00000
     42     -16.3186      2.00000
     43     -16.3185      2.00000
     44     -16.3185      2.00000
     45     -16.3178      2.00000
     46     -16.3178      2.00000
     47     -16.3177      2.00000
     48     -16.3177      2.00000
     49     -14.3404      2.00000
     50     -14.1867      2.00000
     51     -14.1867      2.00000
     52     -14.1250      2.00000
     53     -14.1250      2.00000
     54     -14.1237      2.00000
     55     -14.1208      2.00000
     56     -14.1028      2.00000
     57     -14.0333      2.00000
     58     -13.9710      2.00000
     59     -13.9710      2.00000
     60     -13.9506      2.00000
     61     -13.9506      2.00000
     62     -13.9310      2.00000
     63     -13.9310      2.00000
     64     -13.9278      2.00000
     65     -13.9278      2.00000
     66     -13.8846      2.00000
     67     -13.8846      2.00000
     68     -13.7438      2.00000
     69     -13.7368      2.00000
     70     -13.7178      2.00000
     71     -13.7178      2.00000
     72     -13.7171      2.00000
     73      -8.1762      2.00000
     74      -7.7705      2.00000
     75      -7.7705      2.00000
     76      -7.5071      2.00000
     77      -7.3582      2.00000
     78      -7.2845      2.00000
     79      -7.2845      2.00000
     80      -7.2569      2.00000
     81      -7.2569      2.00000
     82      -7.2384      2.00000
     83      -7.2384      2.00000
     84      -7.2362      2.00000
     85      -7.2362      2.00000
     86      -7.2290      2.00000
     87      -7.2252      2.00000
     88      -7.2252      2.00000
     89      -7.2230      2.00000
     90      -7.2230      2.00000
     91      -7.2145      2.00000
     92      -7.2145      2.00000
     93      -7.2139      2.00000
     94      -7.2139      2.00000
     95      -7.2046      2.00000
     96      -7.1944      2.00000
     97      -7.1944      2.00000
     98      -7.1923      2.00000
     99      -7.1737      2.00000
    100      -7.1737      2.00000
    101      -7.1123      2.00000
    102      -7.0525      2.00000
    103      -7.0525      2.00000
    104      -6.5371      2.00000
    105      -3.4794      2.00000
    106      -3.4290      2.00000
    107      -3.4290      2.00000
    108      -3.3222      2.00000
    109      -3.1506      2.00000
    110      -3.1506      2.00000
    111      -3.0814      2.00000
    112      -3.0814      2.00000
    113      -3.0691      2.00000
    114      -3.0691      2.00000
    115      -2.8763      2.00000
    116      -2.8763      2.00000
    117      -2.1438      2.00000
    118      -2.1438      2.00000
    119      -2.1081      2.00000
    120      -1.9979      2.00000
    121      -1.9979      2.00000
    122      -1.9073      2.00000
    123      -1.9073      2.00000
    124      -1.8638      2.00000
    125      -1.8638      2.00000
    126      -1.8455      2.00000
    127      -1.8420      2.00000
    128      -1.6733      2.00000
    129      -1.6733      2.00000
    130      -1.5640      2.00000
    131      -1.5640      2.00000
    132      -1.5605      2.00000
    133      -1.5605      2.00000
    134      -1.4818      2.00000
    135      -1.4818      2.00000
    136      -1.4805      2.00000
    137      -1.4805      2.00000
    138      -1.4310      2.00000
    139      -1.4267      2.00000
    140      -1.4140      2.00000
    141      -1.3929      2.00000
    142      -1.3929      2.00000
    143      -1.3752      2.00000
    144      -1.3752      2.00000
    145      -1.3734      2.00000
    146      -1.3673      2.00000
    147      -1.3673      2.00000
    148      -1.3483      2.00000
    149      -1.3483      2.00000
    150      -1.3070      2.00000
    151      -1.3070      2.00000
    152      -1.2859      2.00000
    153      -1.2859      2.00000
    154      -1.2839      2.00000
    155      -1.1745      2.00000
    156      -1.1745      2.00000
    157      -1.1354      2.00000
    158      -1.1068      2.00000
    159      -1.1068      2.00000
    160      -1.0877      2.00000
    161      -1.0877      2.00000
    162      -1.0719      2.00000
    163      -1.0719      2.00000
    164      -1.0577      2.00000
    165      -1.0404      2.00000
    166      -0.9322      2.00000
    167      -0.9322      2.00000
    168      -0.9067      2.00000
    169      -0.9067      2.00000
    170      -0.8628      2.00000
    171      -0.8628      2.00000
    172      -0.4523      2.00000
    173      -0.2405      2.00000
    174      -0.0795      2.00000
    175      -0.0795      2.00000
    176       0.4734      2.00000
    177       2.7716      0.00000
    178       2.8475      0.00000
    179       2.8475      0.00000
    180       3.0470      0.00000
    181       3.0470      0.00000
    182       3.1340      0.00000
    183       3.1340      0.00000
    184       3.1981      0.00000
    185       3.1981      0.00000
    186       3.5004      0.00000
    187       3.5621      0.00000
    188       3.5621      0.00000
    189       4.7111      0.00000
    190       5.3536      0.00000
    191       5.3536      0.00000
    192       5.6044      0.00000
    193       5.8030      0.00000
    194       5.8145      0.00000
    195       5.8145      0.00000
    196       5.8158      0.00000
    197       5.8158      0.00000
    198       6.0819      0.00000
    199       6.0819      0.00000
    200       6.1414      0.00000
    201       6.2128      0.00000
    202       6.2691      0.00000
    203       6.2691      0.00000
    204       6.4703      0.00000
    205       6.4709      0.00000
    206       6.5305      0.00000
    207       6.5305      0.00000
    208       6.5498      0.00000
    209       6.5826      0.00000
    210       6.5827      0.00000
    211       6.6711      0.00000
    212       6.7181      0.00000
    213       6.7327      0.00000
    214       6.7403      0.00000
    215       6.7808      0.00000
    216       6.8079      0.00000

 k-point     2 :       0.5000    0.0000    0.0000
  band No.  band energies     occupation 
      1     -20.8316      2.00000
      2     -20.8316      2.00000
      3     -20.8303      2.00000
      4     -20.8303      2.00000
      5     -20.8287      2.00000
      6     -20.8287      2.00000
      7     -20.8279      2.00000
      8     -20.8279      2.00000
      9     -16.5064      2.00000
     10     -16.5064      2.00000
     11     -16.4964      2.00000
     12     -16.4964      2.00000
     13     -16.4432      2.00000
     14     -16.4432      2.00000
     15     -16.4370      2.00000
     16     -16.4370      2.00000
     17     -16.4176      2.00000
     18     -16.4176      2.00000
     19     -16.4176      2.00000
     20     -16.4176      2.00000
     21     -16.4008      2.00000
     22     -16.4008      2.00000
     23     -16.3945      2.00000
     24     -16.3945      2.00000
     25     -16.3251      2.00000
     26     -16.3251      2.00000
     27     -16.3250      2.00000
     28     -16.3250      2.00000
     29     -16.3244      2.00000
     30     -16.3244      2.00000
     31     -16.3241      2.00000
     32     -16.3241      2.00000
     33     -16.3197      2.00000
     34     -16.3197      2.00000
     35     -16.3193      2.00000
     36     -16.3193      2.00000
     37     -16.3192      2.00000
     38     -16.3192      2.00000
     39     -16.3188      2.00000
     40     -16.3188      2.00000
     41     -16.3184      2.00000
     42     -16.3184      2.00000
     43     -16.3182      2.00000
     44     -16.3182      2.00000
     45     -16.3180      2.00000
     46     -16.3180      2.00000
     47     -16.3179      2.00000
     48     -16.3179      2.00000
     49     -14.2839      2.00000
     50     -14.2839      2.00000
     51     -14.1369      2.00000
     52     -14.1369      2.00000
     53     -14.1243      2.00000
     54     -14.1243      2.00000
     55     -14.1229      2.00000
     56     -14.1229      2.00000
     57     -14.0571      2.00000
     58     -14.0571      2.00000
     59     -13.9465      2.00000
     60     -13.9465      2.00000
     61     -13.9437      2.00000
     62     -13.9437      2.00000
     63     -13.9059      2.00000
     64     -13.9059      2.00000
     65     -13.8283      2.00000
     66     -13.8283      2.00000
     67     -13.7970      2.00000
     68     -13.7970      2.00000
     69     -13.7772      2.00000
     70     -13.7772      2.00000
     71     -13.7285      2.00000
     72     -13.7285      2.00000
     73      -7.9861      2.00000
     74      -7.9861      2.00000
     75      -7.5787      2.00000
     76      -7.5787      2.00000
     77      -7.3022      2.00000
     78      -7.3022      2.00000
     79      -7.2708      2.00000
     80      -7.2708      2.00000
     81      -7.2553      2.00000
     82      -7.2553      2.00000
     83      -7.2466      2.00000
     84      -7.2466      2.00000
     85      -7.2306      2.00000
     86      -7.2306      2.00000
     87      -7.2252      2.00000
     88      -7.2252      2.00000
     89      -7.2218      2.00000
     90      -7.2218      2.00000
     91      -7.2189      2.00000
     92      -7.2189      2.00000
     93      -7.2127      2.00000
     94      -7.2127      2.00000
     95      -7.2111      2.00000
     96      -7.2111      2.00000
     97      -7.2094      2.00000
     98      -7.2094      2.00000
     99      -7.1826      2.00000
    100      -7.1826      2.00000
    101      -7.1517      2.00000
    102      -7.1517      2.00000
    103      -6.8261      2.00000
    104      -6.8261      2.00000
    105      -3.4546      2.00000
    106      -3.4546      2.00000
    107      -3.3776      2.00000
    108      -3.3776      2.00000
    109      -3.1007      2.00000
    110      -3.1007      2.00000
    111      -3.0076      2.00000
    112      -3.0076      2.00000
    113      -2.4844      2.00000
    114      -2.4844      2.00000
    115      -2.4817      2.00000
    116      -2.4817      2.00000
    117      -2.3686      2.00000
    118      -2.3686      2.00000
    119      -2.2548      2.00000
    120      -2.2548      2.00000
    121      -2.0307      2.00000
    122      -2.0307      2.00000
    123      -2.0167      2.00000
    124      -2.0167      2.00000
    125      -1.9607      2.00000
    126      -1.9607      2.00000
    127      -1.8110      2.00000
    128      -1.8110      2.00000
    129      -1.7244      2.00000
    130      -1.7244      2.00000
    131      -1.6426      2.00000
    132      -1.6426      2.00000
    133      -1.5608      2.00000
    134      -1.5608      2.00000
    135      -1.5476      2.00000
    136      -1.5476      2.00000
    137      -1.5198      2.00000
    138      -1.5198      2.00000
    139      -1.4481      2.00000
    140      -1.4481      2.00000
    141      -1.3774      2.00000
    142      -1.3774      2.00000
    143      -1.3685      2.00000
    144      -1.3685      2.00000
    145      -1.3446      2.00000
    146      -1.3446      2.00000
    147      -1.3436      2.00000
    148      -1.3436      2.00000
    149      -1.2956      2.00000
    150      -1.2956      2.00000
    151      -1.2821      2.00000
    152      -1.2821      2.00000
    153      -1.2578      2.00000
    154      -1.2578      2.00000
    155      -1.1994      2.00000
    156      -1.1994      2.00000
    157      -1.1348      2.00000
    158      -1.1348      2.00000
    159      -1.0928      2.00000
    160      -1.0928      2.00000
    161      -1.0782      2.00000
    162      -1.0782      2.00000
    163      -1.0685      2.00000
    164      -1.0685      2.00000
    165      -1.0590      2.00000
    166      -1.0590      2.00000
    167      -0.9180      2.00000
    168      -0.9180      2.00000
    169      -0.9126      2.00000
    170      -0.9126      2.00000
    171      -0.6639      2.00000
    172      -0.6639      2.00000
    173      -0.3299      2.00000
    174      -0.3299      2.00000
    175       0.0846      2.00000
    176       0.0846      2.00000
    177       2.9547      0.00000
    178       2.9547      0.00000
    179       2.9653      0.00000
    180       2.9653      0.00000
    181       3.2945      0.00000
    182       3.2945      0.00000
    183       3.3142      0.00000
    184       3.3142      0.00000
    185       4.1406      0.00000
    186       4.1406      0.00000
    187       4.4502      0.00000
    188       4.4502      0.00000
    189       4.4939      0.00000
    190       4.4939      0.00000
    191       4.7013      0.00000
    192       4.7013      0.00000
    193       5.4082      0.00000
    194       5.4082      0.00000
    195       5.6132      0.00000
    196       5.6132      0.00000
    197       5.8838      0.00000
    198       5.8838      0.00000
    199       5.9923      0.00000
    200       5.9923      0.00000
    201       6.2529      0.00000
    202       6.2529      0.00000
    203       6.3327      0.00000
    204       6.3329      0.00000
    205       6.4410      0.00000
    206       6.4410      0.00000
    207       6.4983      0.00000
    208       6.4986      0.00000
    209       6.6297      0.00000
    210       6.6310      0.00000
    211       6.6494      0.00000
    212       6.6507      0.00000
    213       6.7943      0.00000
    214       6.8068      0.00000
    215       6.8184      0.00000
    216       6.8310      0.00000

 k-point     3 :       0.5000    0.5000    0.0000
  band No.  band energies     occupation 
      1     -20.8309      2.00000
      2     -20.8309      2.00000
      3     -20.8309      2.00000
      4     -20.8309      2.00000
      5     -20.8284      2.00000
      6     -20.8284      2.00000
      7     -20.8284      2.00000
      8     -20.8284      2.00000
      9     -16.5005      2.00000
     10     -16.5005      2.00000
     11     -16.5005      2.00000
     12     -16.5005      2.00000
     13     -16.4201      2.00000
     14     -16.4201      2.00000
     15     -16.4201      2.00000
     16     -16.4201      2.00000
[...]
 total charge-density along one line

 pseudopotential strength for first ion, spin component:           1
 17.982  -4.707   0.000   0.000   0.000  -0.000  -0.000  -0.000
 -4.707   1.241  -0.000  -0.000  -0.000   0.000   0.000   0.000
  0.000  -0.000   2.271  -0.000  -0.000  -2.718   0.000   0.000
  0.000  -0.000  -0.000   2.267  -0.000   0.000  -2.712   0.000
  0.000  -0.000  -0.000  -0.000   2.271   0.000   0.000  -2.718
 -0.000   0.000  -2.718   0.000   0.000   3.220  -0.000  -0.000
 -0.000   0.000   0.000  -2.712   0.000  -0.000   3.213  -0.000
 -0.000   0.000   0.000   0.000  -2.718  -0.000  -0.000   3.220
 -0.000   0.000   0.000   0.000   0.000  -0.000  -0.000  -0.000
 -0.000   0.000   0.002   0.000   0.000  -0.003  -0.000  -0.000
 -0.003   0.001  -0.000   0.000  -0.000   0.000  -0.000   0.000
 -0.000   0.000   0.000   0.000  -0.002  -0.000  -0.000   0.003
 -0.000   0.000  -0.000  -0.002   0.000   0.000   0.003  -0.000
 total augmentation occupancy for first ion, spin component:           1
  1.911  -0.140   0.000   0.000   0.000   0.000   0.000   0.000  -0.000   0.000  -0.004   0.000   0.000
 -0.140   0.116   0.000   0.000   0.000   0.000   0.000   0.000   0.000   0.000   0.013   0.000  -0.000
  0.000   0.000   2.021   0.000   0.000   0.006   0.000   0.000  -0.000   0.005   0.000  -0.000   0.000
  0.000   0.000   0.000   2.008   0.000   0.000  -0.002   0.000   0.000   0.000   0.000   0.000  -0.005
  0.000   0.000   0.000   0.000   2.021   0.000   0.000   0.006  -0.000   0.000  -0.000  -0.005   0.000
  0.000   0.000   0.006   0.000   0.000   0.006   0.000   0.000   0.000  -0.004   0.000   0.000  -0.000
  0.000   0.000   0.000  -0.002   0.000   0.000   0.012   0.000   0.000  -0.000  -0.000  -0.000   0.004
  0.000   0.000   0.000   0.000   0.006   0.000   0.000   0.006   0.000  -0.000  -0.000   0.004  -0.000
 -0.000   0.000  -0.000   0.000  -0.000   0.000   0.000   0.000   0.003   0.000  -0.000  -0.000   0.000
  0.000   0.000   0.005   0.000   0.000  -0.004  -0.000  -0.000   0.000   0.007  -0.000   0.000  -0.000
 -0.004   0.013   0.000   0.000  -0.000   0.000  -0.000  -0.000  -0.000  -0.000   0.005  -0.000  -0.000
  0.000   0.000  -0.000   0.000  -0.005   0.000  -0.000   0.004  -0.000   0.000  -0.000   0.007  -0.000
  0.000  -0.000   0.000  -0.005   0.000  -0.000   0.004  -0.000   0.000  -0.000  -0.000  -0.000   0.002


------------------------ aborting loop because EDIFF is reached ----------------------------------------





 total charge     

# of ion       s       p       d       tot
------------------------------------------
    1        1.785   4.719   0.018   6.522
    2        1.785   4.719   0.018   6.522
    3        1.785   4.719   0.018   6.522
    4        1.785   4.719   0.018   6.522
    5        1.785   4.719   0.018   6.522
    6        1.785   4.719   0.018   6.522
    7        1.785   4.719   0.018   6.522
    8        1.785   4.719   0.018   6.522
    9        1.555   0.416   9.834  11.805
   10        1.555   0.416   9.834  11.805
   11        1.555   0.416   9.834  11.805
   12        1.555   0.416   9.834  11.805
   13        1.555   0.416   9.834  11.805
   14        1.555   0.416   9.834  11.805
   15        1.555   0.416   9.834  11.805
   16        1.555   0.416   9.834  11.805
   17        1.613   3.299   0.005   4.917
   18        1.613   3.299   0.005   4.917
   19        1.613   3.299   0.005   4.917
   20        1.613   3.299   0.005   4.917
   21        1.613   3.299   0.005   4.917
   22        1.613   3.299   0.005   4.917
   23        1.613   3.299   0.005   4.917
   24        1.613   3.299   0.005   4.917
   25        1.615   3.287   0.007   4.909
   26        1.615   3.287   0.007   4.909
   27        1.615   3.287   0.007   4.909
   28        1.615   3.287   0.007   4.909
   29        1.615   3.287   0.007   4.909
   30        1.615   3.287   0.007   4.909
   31        1.615   3.287   0.007   4.909
   32        1.615   3.287   0.007   4.909
   33        1.615   3.270   0.006   4.890
   34        1.615   3.270   0.006   4.890
   35        1.615   3.270   0.006   4.890
   36        1.615   3.270   0.006   4.890
   37        1.615   3.270   0.006   4.890
   38        1.615   3.270   0.006   4.890
   39        1.615   3.270   0.006   4.890
   40        1.615   3.270   0.006   4.890
--------------------------------------------------
tot         65.460 119.921  78.961 264.342

    CHARGE:  cpu time    0.4183: real time    0.4184
    FORLOC:  cpu time    0.0112: real time    0.0112
    FORNL :  cpu time    1.5535: real time    1.5535
    STRESS:  cpu time   39.7687: real time   39.7700
    FORCOR:  cpu time    0.2407: real time    0.2407
    FORHAR:  cpu time    0.0274: real time    0.0274
    MIXING:  cpu time    0.0018: real time    0.0018
    OFIELD:  cpu time    0.0000: real time    0.0000

  FORCE on cell =-STRESS in cart. coord.  units (eV):
  Direction    XX          YY          ZZ          XY          YZ          ZX
  --------------------------------------------------------------------------------------
  Alpha Z   892.99476   892.99476   892.99476
  Ewald   -6361.02255 -6361.02255 -5711.17881    -0.00000     0.00000    -0.00000
  Hartree  2371.94739  2371.94739  2602.76348    -0.00000    -0.00000    -0.00000
  E(xc)   -1478.41613 -1478.25973 -1476.74979     0.00000    -0.00000    -0.00000
  Local   -2541.57820 -2541.57820 -3420.01486    -0.00000    -0.00000    -0.00000
  n-local  1795.86617  1796.08811  1806.64422    -0.00001     0.00002    -0.00000
  augment   812.68990   812.68990   812.18827     0.00000    -0.00006    -0.00006
  Kinetic  4495.12528  4503.42442  4505.31170     0.00001    -0.00004    -0.00000
  Fock        0.00000     0.00000     0.00000     0.00000     0.00000     0.00000
  -------------------------------------------------------------------------------------
  Total      -8.05464    -8.05464    11.95896     0.00000     0.00000     0.00000
  in kB      -7.98488    -7.98488    11.85539     0.00000     0.00000     0.00000
  external pressure =       -1.37 kB  Pullay stress =        0.00 kB


 VOLUME and BASIS-vectors are now :
 -----------------------------------------------------------------------------
  energy-cutoff  :      300.00
  volume of cell :     1616.17
      direct lattice vectors                 reciprocal lattice vectors
    11.735352000  0.000000000  0.000000000     0.085212612  0.000000000  0.000000000
     0.000000000 11.735352000  0.000000000     0.000000000  0.085212612  0.000000000
     0.000000000  0.000000000 11.735352000     0.000000000  0.000000000  0.085212612

  length of vectors
    11.735352000 11.735352000 11.735352000     0.085212612  0.085212612  0.085212612


 FORCES acting on ions
    electron-ion (+dipol)            ewald-force                    non-local-force                 convergence-correction
 -----------------------------------------------------------------------------------------------
   -.261E-10 0.131E-09 -.316E-10   0.200E-13 -.355E-14 0.000E+00   -.124E-23 0.000E+00 0.519E-19   0.306E-12 0.579E-13 0.216E-13
   -.287E-10 -.196E-11 0.131E-09   0.194E-13 -.977E-14 0.533E-14   0.414E-24 0.000E+00 -.234E-20   -.360E-13 0.203E-12 0.365E-13
   0.188E-10 0.148E-09 0.619E-11   0.372E-13 -.266E-14 0.888E-15   0.160E-23 0.000E+00 -.398E-20   -.156E-12 -.113E-13 0.853E-13
   -.131E-09 0.203E-09 0.238E-09   -.395E-14 -.711E-14 0.115E-13   -.414E-24 0.827E-24 -.102E-20   0.274E-13 -.150E-12 -.262E-13
   0.107E-09 0.135E-09 0.142E-09   0.143E-13 0.000E+00 -.711E-14   0.388E-24 0.000E+00 -.603E-20   -.274E-12 0.221E-12 0.213E-12
   0.110E-09 -.205E-10 0.203E-09   0.433E-13 0.711E-14 0.000E+00   -.414E-24 0.000E+00 -.283E-20   0.106E-12 0.258E-12 -.138E-12
   0.119E-09 -.312E-10 0.158E-10   0.185E-13 -.711E-14 -.355E-14   -.414E-24 0.827E-24 -.838E-21   0.225E-12 -.145E-12 0.110E-12
   0.597E-11 -.560E-10 0.311E-10   0.312E-13 -.178E-13 -.355E-14   0.414E-24 0.000E+00 0.179E-20   0.132E-13 -.177E-12 -.630E-13
   -.543E-14 -.338E-13 -.257E-13   0.338E-13 -.114E-12 0.340E-13   0.132E-22 0.199E-22 0.151E-23   0.301E-12 0.417E-13 -.119E-12
   -.214E-13 0.728E-14 0.116E-11   0.213E-13 -.533E-14 0.360E-13   0.000E+00 0.000E+00 -.254E-22   0.180E-12 0.104E-12 -.341E-12
   -.687E-14 0.117E-11 0.289E-13   0.409E-13 0.355E-14 0.325E-13   0.000E+00 0.000E+00 -.101E-22   0.198E-12 -.763E-13 -.183E-12
   0.121E-14 0.115E-11 0.111E-11   0.568E-13 -.853E-13 0.340E-13   0.132E-22 0.199E-22 0.171E-23   -.480E-13 -.143E-12 -.263E-12
   0.113E-11 -.100E-13 0.625E-11   0.453E-13 -.169E-13 0.307E-13   0.000E+00 0.000E+00 0.160E-23   -.284E-12 0.492E-12 0.194E-12
   0.116E-11 -.255E-13 -.766E-11   0.391E-13 -.101E-12 0.322E-13   -.132E-22 0.132E-22 0.138E-23   -.165E-12 0.430E-12 -.515E-12
   0.418E-11 -.379E-11 0.193E-11   0.213E-13 -.737E-13 0.287E-13   -.132E-22 0.132E-22 0.291E-22   -.183E-12 -.470E-12 -.109E-12
   0.117E-11 -.198E-11 -.132E-11   0.000E+00 0.000E+00 0.591E-13   0.000E+00 0.000E+00 -.126E-22   0.698E-13 -.446E-12 -.267E-12
   0.299E+02 0.428E-11 0.604E-08   -.303E+02 0.808E-13 0.334E-14   0.472E+00 0.000E+00 0.244E-24   -.347E-03 0.559E-14 -.164E-12
   -.299E+02 0.188E-12 -.602E-08   0.303E+02 0.675E-13 -.383E-14   -.472E+00 0.000E+00 0.181E-23   0.347E-03 0.203E-12 0.700E-13
   -.299E+02 0.434E-12 -.602E-08   0.303E+02 0.515E-13 -.470E-14   -.472E+00 0.000E+00 0.526E-23   0.347E-03 -.298E-13 0.201E-12
   0.299E+02 0.397E-11 0.604E-08   -.303E+02 0.995E-13 0.775E-14   0.472E+00 0.000E+00 0.292E-24   -.347E-03 -.291E-12 -.377E-12
   -.299E+02 -.418E-12 -.602E-08   0.303E+02 0.631E-13 -.115E-14   -.472E+00 0.000E+00 0.489E-23   0.347E-03 0.615E-13 0.184E-12
   0.299E+02 0.686E-12 0.602E-08   -.303E+02 0.604E-13 0.333E-14   0.472E+00 0.165E-23 -.270E-24   -.347E-03 0.107E-12 -.218E-12
   0.299E+02 0.208E-11 0.602E-08   -.303E+02 0.844E-13 -.110E-14   0.472E+00 0.000E+00 0.125E-24   -.347E-03 -.102E-12 0.375E-13
   -.299E+02 -.388E-12 -.602E-08   0.303E+02 0.924E-13 -.738E-14   -.472E+00 0.000E+00 0.209E-23   0.347E-03 -.199E-12 -.159E-12
   -.448E-13 0.251E-14 0.270E-13   -.711E-13 0.266E-14 -.284E-13   -.103E-23 -.827E-24 0.106E-23   0.107E-12 -.125E-12 0.944E-13
   0.584E-13 -.100E-13 0.969E-13   -.782E-13 0.444E-14 -.391E-13   0.165E-23 0.000E+00 -.110E-23   0.182E-12 0.210E-12 0.681E-13
   0.378E-13 0.113E-12 0.303E-13   -.639E-13 0.888E-15 -.391E-13   0.000E+00 0.827E-24 -.213E-23   -.105E-13 0.125E-12 0.226E-12
   -.509E-13 0.944E-13 0.221E-13   -.497E-13 0.888E-15 -.284E-13   -.827E-24 -.827E-24 0.297E-24   0.145E-12 -.214E-12 -.680E-13
   0.166E-12 0.216E-14 -.703E-11   -.560E-13 -.888E-14 -.391E-13   0.827E-24 0.827E-24 -.245E-23   -.493E-13 0.240E-12 -.439E-13
   0.375E-13 0.356E-14 0.201E-11   -.702E-13 -.799E-14 -.249E-13   0.000E+00 0.000E+00 -.113E-23   -.134E-12 0.201E-12 0.140E-12
   0.554E-13 -.218E-11 -.388E-11   -.462E-13 -.266E-14 -.249E-13   -.931E-24 -.827E-24 0.141E-23   0.670E-13 -.219E-12 0.136E-12
   0.155E-12 -.388E-12 -.328E-12   -.639E-13 0.266E-14 -.355E-13   0.165E-23 0.165E-23 -.161E-23   -.890E-13 -.186E-12 -.960E-14
   -.485E-14 -.299E+02 -.601E-08   0.417E-13 0.303E+02 -.483E-14   0.000E+00 -.472E+00 0.362E-24   0.120E-12 0.347E-03 0.876E-13
   0.990E-14 0.299E+02 0.601E-08   0.151E-13 -.303E+02 0.473E-14   0.165E-23 0.472E+00 0.404E-25   -.107E-12 -.347E-03 -.206E-12
   0.110E-13 0.299E+02 0.601E-08   -.347E-13 -.303E+02 -.381E-14   0.000E+00 0.472E+00 -.138E-22   0.407E-13 -.347E-03 -.933E-13
   -.183E-14 -.299E+02 -.602E-08   0.132E-13 0.303E+02 -.319E-14   0.000E+00 -.472E+00 -.280E-24   -.553E-13 0.347E-03 -.389E-13
   0.913E-13 0.299E+02 0.601E-08   0.368E-14 -.303E+02 -.399E-14   0.000E+00 0.472E+00 -.137E-22   -.802E-13 -.347E-03 0.157E-12
   0.801E-13 -.299E+02 -.601E-08   0.268E-13 0.303E+02 -.336E-14   0.000E+00 -.472E+00 0.270E-22   -.413E-14 0.347E-03 -.163E-12
   0.623E-13 -.299E+02 -.602E-08   0.702E-13 0.303E+02 -.391E-14   0.000E+00 -.472E+00 -.133E-22   -.637E-14 0.347E-03 0.198E-12
   0.860E-13 0.299E+02 0.602E-08   0.187E-13 -.303E+02 0.330E-15   0.165E-23 0.472E+00 0.431E-24   -.486E-13 -.347E-03 -.202E-12
 -----------------------------------------------------------------------------------------------
   0.184E-09 0.517E-09 0.764E-09   0.110E-12 0.117E-12 0.962E-14   -.111E-15 -.111E-15 0.366E-19   0.264E-12 -.231E-13 -.150E-11


 POSITION                                       TOTAL-FORCE (eV/Angst)
 -----------------------------------------------------------------------------------
      2.93384      2.93384      2.93384        -0.000000     -0.000000      0.000000
      2.93384      2.93384      8.80151         0.000000     -0.000000      0.000000
      2.93384      8.80151      2.93384         0.000000     -0.000000      0.000000
      2.93384      8.80151      8.80151         0.000000     -0.000000      0.000000
      8.80151      2.93384      2.93384        -0.000000     -0.000000      0.000000
      8.80151      2.93384      8.80151         0.000000     -0.000000      0.000000
      8.80151      8.80151      2.93384        -0.000000     -0.000000      0.000000
      8.80151      8.80151      8.80151         0.000000     -0.000000      0.000000
      0.00000      0.00000      0.00000         0.000000     -0.000000      0.000000
      0.00000      0.00000      5.86768         0.000000     -0.000000      0.000000
      0.00000      5.86768      0.00000        -0.000000     -0.000000      0.000000
      0.00000      5.86768      5.86768         0.000000     -0.000000      0.000000
      5.86768      0.00000      0.00000        -0.000000     -0.000000      0.000000
      5.86768      0.00000      5.86768         0.000000     -0.000000      0.000000
      5.86768      5.86768      0.00000        -0.000000     -0.000000      0.000000
      5.86768      5.86768      5.86768        -0.000000     -0.000000      0.000000
     10.94322      2.93384      0.00000         0.125298     -0.000000     -0.000000
      0.79214      2.93384      5.86768        -0.125298     -0.000000      0.000000
      0.79214      8.80151      0.00000        -0.125298     -0.000000      0.000000
     10.94322      8.80151      5.86768         0.125298     -0.000000     -0.000000
      6.65981      2.93384      0.00000        -0.125298     -0.000000      0.000000
      5.07554      2.93384      5.86768         0.125298     -0.000000     -0.000000
      5.07554      8.80151      0.00000         0.125298     -0.000000     -0.000000
      6.65981      8.80151      5.86768        -0.125298     -0.000000      0.000000
      0.00000      0.00000      2.93384         0.000000     -0.000000      0.000000
      0.00000      0.00000      8.80151        -0.000000     -0.000000      0.000000
      0.00000      5.86768      2.93384        -0.000000     -0.000000      0.000000
      0.00000      5.86768      8.80151         0.000000     -0.000000      0.000000
      5.86768      0.00000      2.93384        -0.000000     -0.000000      0.000000
      5.86768      0.00000      8.80151         0.000000     -0.000000      0.000000
      5.86768      5.86768      2.93384         0.000000     -0.000000      0.000000
      5.86768      5.86768      8.80151        -0.000000     -0.000000      0.000000
      2.93384      0.79214      0.00000        -0.000000     -0.125298      0.000000
      2.93384     10.94322      5.86768        -0.000000      0.125298     -0.000000
      2.93384      5.07554      0.00000         0.000000      0.125298     -0.000000
      2.93384      6.65981      5.86768        -0.000000     -0.125298      0.000000
      8.80151     10.94322      0.00000         0.000000      0.125298     -0.000000
      8.80151      0.79214      5.86768        -0.000000     -0.125298      0.000000
      8.80151      6.65981      0.00000        -0.000000     -0.125298      0.000000
      8.80151      5.07554      5.86768         0.000000      0.125298     -0.000000
 -----------------------------------------------------------------------------------
    total drift:                                0.000000      0.000000      0.000000


--------------------------------------------------------------------------------------------------------



  FREE ENERGIE OF THE ION-ELECTRON SYSTEM (eV)
  ---------------------------------------------------
  free  energy   TOTEN  =     -1429.30286676 eV

  energy  without entropy=    -1429.30286676  energy(sigma->0) =    -1429.30286676



--------------------------------------------------------------------------------------------------------


    POTLOK:  cpu time    1.4349: real time    1.4349


--------------------------------------------------------------------------------------------------------


 stress matrix after NEB project (eV)
     -8.05464      0.00000      0.00000
      0.00000     -8.05464      0.00000
      0.00000      0.00000     11.95896
  FORCES: max atom, RMS     0.125298    0.079245
  FORCE total and by dimension    0.501190    0.125298
  Stress total and by dimension   16.515791   11.958965
     LOOP+:  cpu time  288.6772: real time  289.3903
    4ORBIT:  cpu time    0.0000: real time    0.0000



 total charge     

# of ion       s       p       d       tot
------------------------------------------
    1        1.785   4.719   0.018   6.522
    2        1.785   4.719   0.018   6.522
    3        1.785   4.719   0.018   6.522
    4        1.785   4.719   0.018   6.522
    5        1.785   4.719   0.018   6.522
    6        1.785   4.719   0.018   6.522
    7        1.785   4.719   0.018   6.522
    8        1.785   4.719   0.018   6.522
    9        1.555   0.416   9.834  11.805
   10        1.555   0.416   9.834  11.805
   11        1.555   0.416   9.834  11.805
   12        1.555   0.416   9.834  11.805
   13        1.555   0.416   9.834  11.805
   14        1.555   0.416   9.834  11.805
   15        1.555   0.416   9.834  11.805
   16        1.555   0.416   9.834  11.805
   17        1.613   3.299   0.005   4.917
   18        1.613   3.299   0.005   4.917
   19        1.613   3.299   0.005   4.917
   20        1.613   3.299   0.005   4.917
   21        1.613   3.299   0.005   4.917
   22        1.613   3.299   0.005   4.917
   23        1.613   3.299   0.005   4.917
   24        1.613   3.299   0.005   4.917
   25        1.615   3.287   0.007   4.909
   26        1.615   3.287   0.007   4.909
   27        1.615   3.287   0.007   4.909
   28        1.615   3.287   0.007   4.909
   29        1.615   3.287   0.007   4.909
   30        1.615   3.287   0.007   4.909
   31        1.615   3.287   0.007   4.909
   32        1.615   3.287   0.007   4.909
   33        1.615   3.270   0.006   4.890
   34        1.615   3.270   0.006   4.890
   35        1.615   3.270   0.006   4.890
   36        1.615   3.270   0.006   4.890
   37        1.615   3.270   0.006   4.890
   38        1.615   3.270   0.006   4.890
   39        1.615   3.270   0.006   4.890
   40        1.615   3.270   0.006   4.890
--------------------------------------------------
tot         65.460 119.921  78.961 264.342


 total amount of memory used by VASP MPI-rank0    58958. kBytes
=======================================================================

   base      :      30000. kBytes
   nonlr-proj:       6586. kBytes
   fftplans  :       8423. kBytes
   grid      :       7465. kBytes
   one-center:         77. kBytes
   wavefun   :       6407. kBytes

  
  
 General timing and accounting informations for this job:
 ========================================================
  
                  Total CPU time used (sec):      307.606
                            User time (sec):      304.603
                          System time (sec):        3.003
                         Elapsed time (sec):      308.620
  
                   Maximum memory used (kb):      127448.
                   Average memory used (kb):           0.
  
                          Minor page faults:       175840
                          Major page faults:            1
                 Voluntary context switches:         1329
