PROCAR new format
# of k-points:    6         # of bands:  216         # of ions:   40

 k-point     1 :    0.00000000 0.00000000 0.00000000     weight = 0.12500000

band     1 # energy  -20.83203202 # occ.  2.00000000

ion      s      p      d    tot
    1  0.111  0.000  0.000  0.111
    2  0.111  0.000  0.000  0.111
    3  0.111  0.000  0.000  0.111
    4  0.111  0.000  0.000  0.111
    5  0.111  0.000  0.000  0.111
    6  0.111  0.000  0.000  0.111
    7  0.111  0.000  0.000  0.111
    8  0.111  0.000  0.000  0.111
    9  0.000  0.000  0.000  0.000
   10  0.000  0.000  0.000  0.000
   11  0.000  0.000  0.000  0.000
   12  0.000  0.000  0.000  0.000
   13  0.000  0.000  0.000  0.000
   14  0.000  0.000  0.000  0.000
   15  0.000  0.000  0.000  0.000
   16  0.000  0.000  0.000  0.000
   17  0.000  0.000  0.000  0.000
   18  0.000  0.000  0.000  0.000
   19  0.000  0.000  0.000  0.000
   20  0.000  0.000  0.000  0.000
   21  0.000  0.000  0.000  0.000
   22  0.000  0.000  0.000  0.000
   23  0.000  0.000  0.000  0.000
   24  0.000  0.000  0.000  0.000
   25  0.000  0.000  0.000  0.000
   26  0.000  0.000  0.000  0.000
   27  0.000  0.000  0.000  0.000
   28  0.000  0.000  0.000  0.000
   29  0.000  0.000  0.000  0.000
   30  0.000  0.000  0.000  0.000
   31  0.000  0.000  0.000  0.000
   32  0.000  0.000  0.000  0.000
   33  0.000  0.000  0.000  0.000
   34  0.000  0.000  0.000  0.000
   35  0.000  0.000  0.000  0.000
   36  0.000  0.000  0.000  0.000
   37  0.000  0.000  0.000  0.000
   38  0.000  0.000  0.000  0.000
   39  0.000  0.000  0.000  0.000
   40  0.000  0.000  0.000  0.000
tot    0.887  0.000  0.000  0.888

band     2 # energy  -20.83093233 # occ.  2.00000000

ion      s      p      d    tot
    1  0.139  0.000  0.000  0.139
    2  0.139  0.000  0.000  0.139
    3  0.083  0.000  0.000  0.083
    4  0.083  0.000  0.000  0.083
    5  0.083  0.000  0.000  0.083
    6  0.083  0.000  0.000  0.083
    7  0.139  0.000  0.000  0.139
    8  0.139  0.000  0.000  0.139
    9  0.000  0.000  0.000  0.000
   10  0.000  0.000  0.000  0.000
   11  0.000  0.000  0.000  0.000
   12  0.000  0.000  0.000  0.000
   13  0.000  0.000  0.000  0.000
   14  0.000  0.000  0.000  0.000
   15  0.000  0.000  0.000  0.000
   16  0.000  0.000  0.000  0.000
   17  0.000  0.000  0.000  0.000
   18  0.000  0.000  0.000  0.000
   19  0.000  0.000  0.000  0.000
   20  0.000  0.000  0.000  0.000
   21  0.000  0.000  0.000  0.000
   22  0.000  0.000  0.000  0.000
   23  0.000  0.000  0.000  0.000
   24  0.000  0.000  0.000  0.000
   25  0.000  0.000  0.000  0.000
   26  0.000  0.000  0.000  0.000
   27  0.000  0.000  0.000  0.000
   28  0.000  0.000  0.000  0.000
   29  0.000  0.000  0.000  0.000
   30  0.000  0.000  0.000  0.000
   31  0.000  0.000  0.000  0.000
   32  0.000  0.000  0.000  0.000
   33  0.000  0.000  0.000  0.000
   34  0.000  0.000  0.000  0.000
   35  0.000  0.000  0.000  0.000
   36  0.000  0.000  0.000  0.000
   37  0.000  0.000  0.000  0.000
   38  0.000  0.000  0.000  0.000
   39  0.000  0.000  0.000  0.000
   40  0.000  0.000  0.000  0.000
tot    0.888  0.000  0.000  0.888

band     3 # energy  -20.83093233 # occ.  2.00000000

ion      s      p      d    tot
    1  0.083  0.000  0.000  0.083
    2  0.083  0.000  0.000  0.083
    3  0.139  0.000  0.000  0.139
    4  0.139  0.000  0.000  0.139
    5  0.139  0.000  0.000  0.139
    6  0.139  0.000  0.000  0.139
    7  0.083  0.000  0.000  0.083
    8  0.083  0.000  0.000  0.083
    9  0.000  0.000  0.000  0.000
   10  0.000  0.000  0.000  0.000
   11  0.000  0.000  0.000  0.000
   12  0.000  0.000  0.000  0.000
   13  0.000  0.000  0.000  0.000
   14  0.000  0.000  0.000  0.000
   15  0.000  0.000  0.000  0.000
   16  0.000  0.000  0.000  0.000
   17  0.000  0.000  0.000  0.000
   18  0.000  0.000  0.000  0.000
   19  0.000  0.000  0.000  0.000
   20  0.000  0.000  0.000  0.000
   21  0.000  0.000  0.000  0.000
   22  0.000  0.000  0.000  0.000
   23  0.000  0.000  0.000  0.000
   24  0.000  0.000  0.000  0.000
   25  0.000  0.000  0.000  0.000
   26  0.000  0.000  0.000  0.000
   27  0.000  0.000  0.000  0.000
   28  0.000  0.000  0.000  0.000
   29  0.000  0.000  0.000  0.000
   30  0.000  0.000  0.000  0.000
   31  0.000  0.000  0.000  0.000
   32  0.000  0.000  0.000  0.000
   33  0.000  0.000  0.000  0.000
   34  0.000  0.000  0.000  0.000
   35  0.000  0.000  0.000  0.000
   36  0.000  0.000  0.000  0.000
   37  0.000  0.000  0.000  0.000
   38  0.000  0.000  0.000  0.000
   39  0.000  0.000  0.000  0.000
   40  0.000  0.000  0.000  0.000
tot    0.888  0.000  0.000  0.888

band     4 # energy  -20.83002127 # occ.  2.00000000

ion      s      p      d    tot
    1  0.111  0.000  0.000  0.111
    2  0.111  0.000  0.000  0.111
    3  0.111  0.000  0.000  0.111
    4  0.111  0.000  0.000  0.111
    5  0.111  0.000  0.000  0.111
    6  0.111  0.000  0.000  0.111
    7  0.111  0.000  0.000  0.111
    8  0.111  0.000  0.000  0.111
    9  0.000  0.000  0.000  0.000
   10  0.000  0.000  0.000  0.000
   11  0.000  0.000  0.000  0.000
   12  0.000  0.000  0.000  0.000
   13  0.000  0.000  0.000  0.000
   14  0.000  0.000  0.000  0.000
   15  0.000  0.000  0.000  0.000
   16  0.000  0.000  0.000  0.000
   17  0.000  0.000  0.000  0.000
   18  0.000  0.000  0.000  0.000
   19  0.000  0.000  0.000  0.000
   20  0.000  0.000  0.000  0.000
   21  0.000  0.000  0.000  0.000
   22  0.000  0.000  0.000  0.000
   23  0.000  0.000  0.000  0.000
   24  0.000  0.000  0.000  0.000
   25  0.000  0.000  0.000  0.000
   26  0.000  0.000  0.000  0.000
   27  0.000  0.000  0.000  0.000
   28  0.000  0.000  0.000  0.000
   29  0.000  0.000  0.000  0.000
   30  0.000  0.000  0.000  0.000
   31  0.000  0.000  0.000  0.000
   32  0.000  0.000  0.000  0.000
   33  0.000  0.000  0.000  0.000
   34  0.000  0.000  0.000  0.000
   35  0.000  0.000  0.000  0.000
   36  0.000  0.000  0.000  0.000
   37  0.000  0.000  0.000  0.000
   38  0.000  0.000  0.000  0.000
   39  0.000  0.000  0.000  0.000
   40  0.000  0.000  0.000  0.000
tot    0.888  0.000  0.000  0.888

band     5 # energy  -20.82934881 # occ.  2.00000000

ion      s      p      d    tot
    1  0.111  0.000  0.000  0.111
    2  0.111  0.000  0.000  0.111
    3  0.111  0.000  0.000  0.111
    4  0.111  0.000  0.000  0.111
    5  0.111  0.000  0.000  0.111
    6  0.111  0.000  0.000  0.111
    7  0.111  0.000  0.000  0.111
    8  0.111  0.000  0.000  0.111
    9  0.000  0.000  0.000  0.000
   10  0.000  0.000  0.000  0.000
   11  0.000  0.000  0.000  0.000
   12  0.000  0.000  0.000  0.000
   13  0.000  0.000  0.000  0.000
   14  0.000  0.000  0.000  0.000
   15  0.000  0.000  0.000  0.000
   16  0.000  0.000  0.000  0.000
   17  0.000  0.000  0.000  0.000
   18  0.000  0.000  0.000  0.000
   19  0.000  0.000  0.000  0.000
   20  0.000  0.000  0.000  0.000
   21  0.000  0.000  0.000  0.000
   22  0.000  0.000  0.000  0.000
   23  0.000  0.000  0.000  0.000
   24  0.000  0.000  0.000  0.000
   25  0.000  0.000  0.000  0.000
   26  0.000  0.000  0.000  0.000
   27  0.000  0.000  0.000  0.000
   28  0.000  0.000  0.000  0.000
   29  0.000  0.000  0.000  0.000
   30  0.000  0.000  0.000  0.000
   31  0.000  0.000  0.000  0.000
   32  0.000  0.000  0.000  0.000
   33  0.000  0.000  0.000  0.000
   34  0.000  0.000  0.000  0.000
   35  0.000  0.000  0.000  0.000
   36  0.000  0.000  0.000  0.000
   37  0.000  0.000  0.000  0.000
   38  0.000  0.000  0.000  0.000
   39  0.000  0.000  0.000  0.000
   40  0.000  0.000  0.000  0.000
tot    0.888  0.000  0.000  0.888

band     6 # energy  -20.82841126 # occ.  2.00000000

ion      s      p      d    tot
    1  0.033  0.000  0.000  0.033
    2  0.033  0.000  0.000  0.033
    3  0.189  0.000  0.000  0.189
    4  0.189  0.000  0.000  0.189
    5  0.189  0.000  0.000  0.189
    6  0.189  0.000  0.000  0.189
    7  0.033  0.000  0.000  0.033
    8  0.033  0.000  0.000  0.033
    9  0.000  0.000  0.000  0.000
   10  0.000  0.000  0.000  0.000
   11  0.000  0.000  0.000  0.000
   12  0.000  0.000  0.000  0.000
   13  0.000  0.000  0.000  0.000
   14  0.000  0.000  0.000  0.000
   15  0.000  0.000  0.000  0.000
   16  0.000  0.000  0.000  0.000
   17  0.000  0.000  0.000  0.000
   18  0.000  0.000  0.000  0.000
   19  0.000  0.000  0.000  0.000
   20  0.000  0.000  0.000  0.000
   21  0.000  0.000  0.000  0.000
   22  0.000  0.000  0.000  0.000
   23  0.000  0.000  0.000  0.000
   24  0.000  0.000  0.000  0.000
   25  0.000  0.000  0.000  0.000
   26  0.000  0.000  0.000  0.000
   27  0.000  0.000  0.000  0.000
   28  0.000  0.000  0.000  0.000
   29  0.000  0.000  0.000  0.000
   30  0.000  0.000  0.000  0.000
   31  0.000  0.000  0.000  0.000
   32  0.000  0.000  0.000  0.000
   33  0.000  0.000  0.000  0.000
   34  0.000  0.000  0.000  0.000
   35  0.000  0.000  0.000  0.000
   36  0.000  0.000  0.000  0.000
   37  0.000  0.000  0.000  0.000
   38  0.000  0.000  0.000  0.000
   39  0.000  0.000  0.000  0.000
   40  0.000  0.000  0.000  0.000
tot    0.888  0.000  0.000  0.888

band     7 # energy  -20.82841126 # occ.  2.00000000

ion      s      p      d    tot
    1  0.189  0.000  0.000  0.189
    2  0.189  0.000  0.000  0.189
    3  0.033  0.000  0.000  0.033
    4  0.033  0.000  0.000  0.033
    5  0.033  0.000  0.000  0.033
    6  0.033  0.000  0.000  0.033
    7  0.189  0.000  0.000  0.189
    8  0.189  0.000  0.000  0.189
    9  0.000  0.000  0.000  0.000
   10  0.000  0.000  0.000  0.000
   11  0.000  0.000  0.000  0.000
   12  0.000  0.000  0.000  0.000
   13  0.000  0.000  0.000  0.000
   14  0.000  0.000  0.000  0.000
   15  0.000  0.000  0.000  0.000
   16  0.000  0.000  0.000  0.000
   17  0.000  0.000  0.000  0.000
   18  0.000  0.000  0.000  0.000
   19  0.000  0.000  0.000  0.000
   20  0.000  0.000  0.000  0.000
   21  0.000  0.000  0.000  0.000
   22  0.000  0.000  0.000  0.000
   23  0.000  0.000  0.000  0.000
   24  0.000  0.000  0.000  0.000
   25  0.000  0.000  0.000  0.000
   26  0.000  0.000  0.000  0.000
   27  0.000  0.000  0.000  0.000
   28  0.000  0.000  0.000  0.000
   29  0.000  0.000  0.000  0.000
   30  0.000  0.000  0.000  0.000
   31  0.000  0.000  0.000  0.000
   32  0.000  0.000  0.000  0.000
   33  0.000  0.000  0.000  0.000
   34  0.000  0.000  0.000  0.000
   35  0.000  0.000  0.000  0.000
   36  0.000  0.000  0.000  0.000
   37  0.000  0.000  0.000  0.000
   38  0.000  0.000  0.000  0.000
   39  0.000  0.000  0.000  0.000
   40  0.000  0.000  0.000  0.000
tot    0.888  0.000  0.000  0.888

band     8 # energy  -20.82713682 # occ.  2.00000000

ion      s      p      d    tot
    1  0.111  0.000  0.000  0.111
    2  0.111  0.000  0.000  0.111
    3  0.111  0.000  0.000  0.111
    4  0.111  0.000  0.000  0.111
    5  0.111  0.000  0.000  0.111
    6  0.111  0.000  0.000  0.111
    7  0.111  0.000  0.000  0.111
    8  0.111  0.000  0.000  0.111
    9  0.000  0.000  0.000  0.000
   10  0.000  0.000  0.000  0.000
   11  0.000  0.000  0.000  0.000
   12  0.000  0.000  0.000  0.000
   13  0.000  0.000  0.000  0.000
   14  0.000  0.000  0.000  0.000
   15  0.000  0.000  0.000  0.000
   16  0.000  0.000  0.000  0.000
   17  0.000  0.000  0.000  0.000
   18  0.000  0.000  0.000  0.000
   19  0.000  0.000  0.000  0.000
   20  0.000  0.000  0.000  0.000
   21  0.000  0.000  0.000  0.000
   22  0.000  0.000  0.000  0.000
   23  0.000  0.000  0.000  0.000
   24  0.000  0.000  0.000  0.000
   25  0.000  0.000  0.000  0.000
   26  0.000  0.000  0.000  0.000
   27  0.000  0.000  0.000  0.000
   28  0.000  0.000  0.000  0.000
   29  0.000  0.000  0.000  0.000
   30  0.000  0.000  0.000  0.000
   31  0.000  0.000  0.000  0.000
   32  0.000  0.000  0.000  0.000
   33  0.000  0.000  0.000  0.000
   34  0.000  0.000  0.000  0.000
   35  0.000  0.000  0.000  0.000
   36  0.000  0.000  0.000  0.000
   37  0.000  0.000  0.000  0.000
   38  0.000  0.000  0.000  0.000
   39  0.000  0.000  0.000  0.000
   40  0.000  0.000  0.000  0.000
tot    0.888  0.000  0.000  0.889

band     9 # energy  -16.50996361 # occ.  2.00000000

ion      s      p      d    tot
    1  0.000  0.000  0.000  0.000
    2  0.000  0.000  0.000  0.000
    3  0.000  0.000  0.000  0.000
    4  0.000  0.000  0.000  0.000
    5  0.000  0.000  0.000  0.000
    6  0.000  0.000  0.000  0.000
    7  0.000  0.000  0.000  0.000
    8  0.000  0.000  0.000  0.000
    9  0.000  0.000  0.114  0.114
   10  0.000  0.000  0.114  0.114
   11  0.000  0.000  0.114  0.114
   12  0.000  0.000  0.114  0.114
   13  0.000  0.000  0.114  0.114
   14  0.000  0.000  0.114  0.114
   15  0.000  0.000  0.114  0.114
   16  0.000  0.000  0.114  0.114
   17  0.001  0.000  0.000  0.001
   18  0.001  0.000  0.000  0.001
   19  0.001  0.000  0.000  0.001
   20  0.001  0.000  0.000  0.001
   21  0.001  0.000  0.000  0.001
   22  0.001  0.000  0.000  0.001
   23  0.001  0.000  0.000  0.001
   24  0.001  0.000  0.000  0.001
   25  0.004  0.000  0.000  0.005
   26  0.004  0.000  0.000  0.005
   27  0.004  0.000  0.000  0.005
   28  0.004  0.000  0.000  0.005
   29  0.004  0.000  0.000  0.005
   30  0.004  0.000  0.000  0.005
   31  0.004  0.000  0.000  0.005
   32  0.004  0.000  0.000  0.005
   33  0.001  0.000  0.000  0.001
   34  0.001  0.000  0.000  0.001
   35  0.001  0.000  0.000  0.001
   36  0.001  0.000  0.000  0.001
   37  0.001  0.000  0.000  0.001
   38  0.001  0.000  0.000  0.001
   39  0.001  0.000  0.000  0.001
   40  0.001  0.000  0.000  0.001
tot    0.044  0.000  0.915  0.959

band    10 # energy  -16.50405920 # occ.  2.00000000

ion      s      p      d    tot
    1  0.000  0.000  0.000  0.000
    2  0.000  0.000  0.000  0.000
    3  0.000  0.000  0.000  0.000
    4  0.000  0.000  0.000  0.000
    5  0.000  0.000  0.000  0.000
    6  0.000  0.000  0.000  0.000
    7  0.000  0.000  0.000  0.000
    8  0.000  0.000  0.000  0.000
    9  0.000  0.000  0.031  0.031
   10  0.000  0.000  0.031  0.031
   11  0.000  0.000  0.199  0.199
   12  0.000  0.000  0.199  0.199
   13  0.000  0.000  0.199  0.199
   14  0.000  0.000  0.199  0.199
   15  0.000  0.000  0.031  0.031
   16  0.000  0.000  0.031  0.031
   17  0.001  0.000  0.000  0.001
   18  0.001  0.000  0.000  0.001
   19  0.001  0.000  0.000  0.001
   20  0.001  0.000  0.000  0.001
   21  0.001  0.000  0.000  0.001
   22  0.001  0.000  0.000  0.001
   23  0.001  0.000  0.000  0.001
   24  0.001  0.000  0.000  0.001
   25  0.001  0.000  0.000  0.001
   26  0.001  0.000  0.000  0.001
   27  0.008  0.000  0.000  0.008
   28  0.008  0.000  0.000  0.008
   29  0.008  0.000  0.000  0.008
   30  0.008  0.000  0.000  0.008
   31  0.001  0.000  0.000  0.001
   32  0.001  0.000  0.000  0.001
   33  0.000  0.000  0.000  0.000
   34  0.000  0.000  0.000  0.000
   35  0.000  0.000  0.000  0.000
   36  0.000  0.000  0.000  0.000
   37  0.000  0.000  0.000  0.000
   38  0.000  0.000  0.000  0.000
   39  0.000  0.000  0.000  0.000
   40  0.000  0.000  0.000  0.000
tot    0.042  0.000  0.917  0.960

band    11 # energy  -16.50405920 # occ.  2.00000000

ion      s      p      d    tot
    1  0.000  0.000  0.000  0.000
    2  0.000  0.000  0.000  0.000
    3  0.000  0.000  0.000  0.000
    4  0.000  0.000  0.000  0.000
    5  0.000  0.000  0.000  0.000
    6  0.000  0.000  0.000  0.000
    7  0.000  0.000  0.000  0.000
    8  0.000  0.000  0.000  0.000
    9  0.000  0.000  0.199  0.199
   10  0.000  0.000  0.199  0.199
   11  0.000  0.000  0.031  0.031
   12  0.000  0.000  0.031  0.031
   13  0.000  0.000  0.031  0.031
   14  0.000  0.000  0.031  0.031
   15  0.000  0.000  0.199  0.199
   16  0.000  0.000  0.199  0.199
   17  0.000  0.000  0.000  0.000
   18  0.000  0.000  0.000  0.000
   19  0.000  0.000  0.000  0.000
   20  0.000  0.000  0.000  0.000
   21  0.000  0.000  0.000  0.000
   22  0.000  0.000  0.000  0.000
   23  0.000  0.000  0.000  0.000
   24  0.000  0.000  0.000  0.000
   25  0.008  0.000  0.000  0.008
   26  0.008  0.000  0.000  0.008
   27  0.001  0.000  0.000  0.001
   28  0.001  0.000  0.000  0.001
   29  0.001  0.000  0.000  0.001
   30  0.001  0.000  0.000  0.001
   31  0.008  0.000  0.000  0.008
   32  0.008  0.000  0.000  0.008
   33  0.001  0.000  0.000  0.001
   34  0.001  0.000  0.000  0.001
   35  0.001  0.000  0.000  0.001
   36  0.001  0.000  0.000  0.001
   37  0.001  0.000  0.000  0.001
   38  0.001  0.000  0.000  0.001
   39  0.001  0.000  0.000  0.001
   40  0.001  0.000  0.000  0.001
tot    0.042  0.000  0.917  0.960

band    12 # energy  -16.49120688 # occ.  2.00000000

ion      s      p      d    tot
    1  0.000  0.000  0.000  0.000
    2  0.000  0.000  0.000  0.000
    3  0.000  0.000  0.000  0.000
    4  0.000  0.000  0.000  0.000
    5  0.000  0.000  0.000  0.000
    6  0.000  0.000  0.000  0.000
    7  0.000  0.000  0.000  0.000
    8  0.000  0.000  0.000  0.000
    9  0.000  0.000  0.115  0.115
   10  0.000  0.000  0.115  0.115
   11  0.000  0.000  0.115  0.115
   12  0.000  0.000  0.115  0.115
   13  0.000  0.000  0.115  0.115
   14  0.000  0.000  0.115  0.115
   15  0.000  0.000  0.115  0.115
   16  0.000  0.000  0.115  0.115
   17  0.000  0.000  0.000  0.000
   18  0.000  0.000  0.000  0.000
   19  0.000  0.000  0.000  0.000
   20  0.000  0.000  0.000  0.000
   21  0.000  0.000  0.000  0.000
   22  0.000  0.000  0.000  0.000
   23  0.000  0.000  0.000  0.000
   24  0.000  0.000  0.000  0.000
   25  0.005  0.000  0.000  0.005
   26  0.005  0.000  0.000  0.005
   27  0.005  0.000  0.000  0.005
   28  0.005  0.000  0.000  0.005
   29  0.005  0.000  0.000  0.005
   30  0.005  0.000  0.000  0.005
   31  0.005  0.000  0.000  0.005
   32  0.005  0.000  0.000  0.005
   33  0.000  0.000  0.000  0.000
   34  0.000  0.000  0.000  0.000
   35  0.000  0.000  0.000  0.000
   36  0.000  0.000  0.000  0.000
   37  0.000  0.000  0.000  0.000
   38  0.000  0.000  0.000  0.000
   39  0.000  0.000  0.000  0.000
   40  0.000  0.000  0.000  0.000
tot    0.039  0.000  0.922  0.961

band    13 # energy  -16.45541950 # occ.  2.00000000

ion      s      p      d    tot
    1  0.000  0.000  0.000  0.000
    2  0.000  0.000  0.000  0.000
    3  0.000  0.000  0.000  0.000
    4  0.000  0.000  0.000  0.000
    5  0.000  0.000  0.000  0.000
    6  0.000  0.000  0.000  0.000
    7  0.000  0.000  0.000  0.000
    8  0.000  0.000  0.000  0.000
    9  0.000  0.000  0.117  0.117
   10  0.000  0.000  0.117  0.117
   11  0.000  0.000  0.117  0.117
   12  0.000  0.000  0.117  0.117
   13  0.000  0.000  0.117  0.117
   14  0.000  0.000  0.117  0.117
   15  0.000  0.000  0.117  0.117
   16  0.000  0.000  0.117  0.117
   17  0.002  0.000  0.000  0.002
   18  0.002  0.000  0.000  0.002
   19  0.002  0.000  0.000  0.002
   20  0.002  0.000  0.000  0.002
   21  0.002  0.000  0.000  0.002
   22  0.002  0.000  0.000  0.002
   23  0.002  0.000  0.000  0.002
   24  0.002  0.000  0.000  0.002
   25  0.000  0.000  0.000  0.000
   26  0.000  0.000  0.000  0.000
   27  0.000  0.000  0.000  0.000
   28  0.000  0.000  0.000  0.000
   29  0.000  0.000  0.000  0.000
   30  0.000  0.000  0.000  0.000
   31  0.000  0.000  0.000  0.000
   32  0.000  0.000  0.000  0.000
   33  0.002  0.000  0.000  0.002
   34  0.002  0.000  0.000  0.002
   35  0.002  0.000  0.000  0.002
   36  0.002  0.000  0.000  0.002
   37  0.002  0.000  0.000  0.002
   38  0.002  0.000  0.000  0.002
   39  0.002  0.000  0.000  0.002
   40  0.002  0.000  0.000  0.002
tot    0.029  0.000  0.934  0.964

band    14 # energy  -16.45509767 # occ.  2.00000000

ion      s      p      d    tot
    1  0.000  0.000  0.000  0.000
    2  0.000  0.000  0.000  0.000
    3  0.000  0.000  0.000  0.000
    4  0.000  0.000  0.000  0.000
    5  0.000  0.000  0.000  0.000
    6  0.000  0.000  0.000  0.000
    7  0.000  0.000  0.000  0.000
    8  0.000  0.000  0.000  0.000
    9  0.000  0.000  0.117  0.117
   10  0.000  0.000  0.117  0.117
   11  0.000  0.000  0.117  0.117
   12  0.000  0.000  0.117  0.117
   13  0.000  0.000  0.117  0.117
   14  0.000  0.000  0.117  0.117
   15  0.000  0.000  0.117  0.117
   16  0.000  0.000  0.117  0.117
   17  0.002  0.000  0.000  0.002
   18  0.002  0.000  0.000  0.002
   19  0.002  0.000  0.000  0.002
   20  0.002  0.000  0.000  0.002
   21  0.002  0.000  0.000  0.002
   22  0.002  0.000  0.000  0.002
   23  0.002  0.000  0.000  0.002
   24  0.002  0.000  0.000  0.002
   25  0.000  0.000  0.000  0.000
   26  0.000  0.000  0.000  0.000
   27  0.000  0.000  0.000  0.000
   28  0.000  0.000  0.000  0.000
   29  0.000  0.000  0.000  0.000
   30  0.000  0.000  0.000  0.000
   31  0.000  0.000  0.000  0.000
   32  0.000  0.000  0.000  0.000
   33  0.002  0.000  0.000  0.002
   34  0.002  0.000  0.000  0.002
   35  0.002  0.000  0.000  0.002
   36  0.002  0.000  0.000  0.002
   37  0.002  0.000  0.000  0.002
   38  0.002  0.000  0.000  0.002
   39  0.002  0.000  0.000  0.002
   40  0.002  0.000  0.000  0.002
tot    0.029  0.000  0.935  0.964

band    15 # energy  -16.43953950 # occ.  2.00000000

ion      s      p      d    tot
    1  0.000  0.000  0.000  0.000
    2  0.000  0.000  0.000  0.000
    3  0.000  0.000  0.000  0.000
    4  0.000  0.000  0.000  0.000
    5  0.000  0.000  0.000  0.000
    6  0.000  0.000  0.000  0.000
    7  0.000  0.000  0.000  0.000
    8  0.000  0.000  0.000  0.000
    9  0.000  0.000  0.129  0.129
   10  0.000  0.000  0.129  0.129
   11  0.000  0.000  0.108  0.108
   12  0.000  0.000  0.108  0.108
   13  0.000  0.000  0.108  0.108
   14  0.000  0.000  0.108  0.108
   15  0.000  0.000  0.129  0.129
   16  0.000  0.000  0.129  0.129
   17  0.001  0.000  0.000  0.001
   18  0.001  0.000  0.000  0.001
   19  0.001  0.000  0.000  0.001
   20  0.001  0.000  0.000  0.001
   21  0.001  0.000  0.000  0.001
   22  0.001  0.000  0.000  0.001
   23  0.001  0.000  0.000  0.001
   24  0.001  0.000  0.000  0.001
   25  0.000  0.000  0.000  0.000
   26  0.000  0.000  0.000  0.000
   27  0.000  0.000  0.000  0.000
   28  0.000  0.000  0.000  0.000
   29  0.000  0.000  0.000  0.000
   30  0.000  0.000  0.000  0.000
   31  0.000  0.000  0.000  0.000
   32  0.000  0.000  0.000  0.000
   33  0.001  0.000  0.000  0.001
   34  0.001  0.000  0.000  0.001
   35  0.001  0.000  0.000  0.001
   36  0.001  0.000  0.000  0.001
   37  0.001  0.000  0.000  0.001
   38  0.001  0.000  0.000  0.001
   39  0.001  0.000  0.000  0.001
   40  0.001  0.000  0.000  0.001
tot    0.020  0.001  0.946  0.967

band    16 # energy  -16.43953950 # occ.  2.00000000

ion      s      p      d    tot
    1  0.000  0.000  0.000  0.000
    2  0.000  0.000  0.000  0.000
    3  0.000  0.000  0.000  0.000
    4  0.000  0.000  0.000  0.000
    5  0.000  0.000  0.000  0.000
    6  0.000  0.000  0.000  0.000
    7  0.000  0.000  0.000  0.000
    8  0.000  0.000  0.000  0.000
    9  0.000  0.000  0.108  0.108
   10  0.000  0.000  0.108  0.108
   11  0.000  0.000  0.129  0.129
   12  0.000  0.000  0.129  0.129
   13  0.000  0.000  0.129  0.129
   14  0.000  0.000  0.129  0.129
   15  0.000  0.000  0.108  0.108
   16  0.000  0.000  0.108  0.108
   17  0.001  0.000  0.000  0.001
   18  0.001  0.000  0.000  0.001
   19  0.001  0.000  0.000  0.001
   20  0.001  0.000  0.000  0.001
   21  0.001  0.000  0.000  0.001
   22  0.001  0.000  0.000  0.001
   23  0.001  0.000  0.000  0.001
   24  0.001  0.000  0.000  0.001
   25  0.000  0.000  0.000  0.000
   26  0.000  0.000  0.000  0.000
   27  0.000  0.000  0.000  0.000
   28  0.000  0.000  0.000  0.000
   29  0.000  0.000  0.000  0.000
   30  0.000  0.000  0.000  0.000
   31  0.000  0.000  0.000  0.000
   32  0.000  0.000  0.000  0.000
   33  0.001  0.000  0.000  0.001
   34  0.001  0.000  0.000  0.001
   35  0.001  0.000  0.000  0.001
   36  0.001  0.000  0.000  0.001
   37  0.001  0.000  0.000  0.001
   38  0.001  0.000  0.000  0.001
   39  0.001  0.000  0.000  0.001
   40  0.001  0.000  0.000  0.001
tot    0.020  0.001  0.946  0.967

band    17 # energy  -16.42969822 # occ.  2.00000000

ion      s      p      d    tot
    1  0.000  0.000  0.000  0.000
    2  0.000  0.000  0.000  0.000
    3  0.000  0.000  0.000  0.000
    4  0.000  0.000  0.000  0.000
    5  0.000  0.000  0.000  0.000
    6  0.000  0.000  0.000  0.000
    7  0.000  0.000  0.000  0.000
    8  0.000  0.000  0.000  0.000
    9  0.000  0.000  0.120  0.120
   10  0.000  0.000  0.120  0.120
   11  0.000  0.000  0.120  0.120
   12  0.000  0.000  0.120  0.120
   13  0.000  0.000  0.120  0.120
   14  0.000  0.000  0.120  0.120
   15  0.000  0.000  0.120  0.120
   16  0.000  0.000  0.120  0.120
   17  0.001  0.000  0.000  0.001
   18  0.001  0.000  0.000  0.001
   19  0.001  0.000  0.000  0.001
   20  0.001  0.000  0.000  0.001
   21  0.001  0.000  0.000  0.001
   22  0.001  0.000  0.000  0.001
   23  0.001  0.000  0.000  0.001
   24  0.001  0.000  0.000  0.001
   25  0.000  0.000  0.000  0.000
   26  0.000  0.000  0.000  0.000
   27  0.000  0.000  0.000  0.000
   28  0.000  0.000  0.000  0.000
   29  0.000  0.000  0.000  0.000
   30  0.000  0.000  0.000  0.000
   31  0.000  0.000  0.000  0.000
   32  0.000  0.000  0.000  0.000
   33  0.001  0.000  0.000  0.001
   34  0.001  0.000  0.000  0.001
   35  0.001  0.000  0.000  0.001
   36  0.001  0.000  0.000  0.001
   37  0.001  0.000  0.000  0.001
   38  0.001  0.000  0.000  0.001
   39  0.001  0.000  0.000  0.001
   40  0.001  0.000  0.000  0.001
tot    0.011  0.002  0.956  0.970

band    18 # energy  -16.41662894 # occ.  2.00000000

ion      s      p      d    tot
    1  0.000  0.000  0.000  0.000
    2  0.000  0.000  0.000  0.000
    3  0.000  0.000  0.000  0.000
    4  0.000  0.000  0.000  0.000
    5  0.000  0.000  0.000  0.000
    6  0.000  0.000  0.000  0.000
    7  0.000  0.000  0.000  0.000
    8  0.000  0.000  0.000  0.000
    9  0.000  0.000  0.058  0.058
   10  0.000  0.000  0.058  0.058
   11  0.000  0.000  0.180  0.180
   12  0.000  0.000  0.180  0.180
   13  0.000  0.000  0.180  0.180
   14  0.000  0.000  0.180  0.180
   15  0.000  0.000  0.058  0.058
   16  0.000  0.000  0.058  0.058
   17  0.001  0.000  0.000  0.001
   18  0.001  0.000  0.000  0.001
   19  0.001  0.000  0.000  0.001
   20  0.001  0.000  0.000  0.001
   21  0.001  0.000  0.000  0.001
   22  0.001  0.000  0.000  0.001
   23  0.001  0.000  0.000  0.001
   24  0.001  0.000  0.000  0.001
   25  0.000  0.000  0.000  0.000
   26  0.000  0.000  0.000  0.000
   27  0.000  0.000  0.000  0.000
   28  0.000  0.000  0.000  0.000
   29  0.000  0.000  0.000  0.000
   30  0.000  0.000  0.000  0.000
   31  0.000  0.000  0.000  0.000
   32  0.000  0.000  0.000  0.000
   33  0.000  0.000  0.000  0.000
   34  0.000  0.000  0.000  0.000
   35  0.000  0.000  0.000  0.000
   36  0.000  0.000  0.000  0.000
   37  0.000  0.000  0.000  0.000
   38  0.000  0.000  0.000  0.000
   39  0.000  0.000  0.000  0.000
   40  0.000  0.000  0.000  0.000
tot    0.015  0.001  0.954  0.970

band    19 # energy  -16.41662894 # occ.  2.00000000

ion      s      p      d    tot
    1  0.000  0.000  0.000  0.000
    2  0.000  0.000  0.000  0.000
    3  0.000  0.000  0.000  0.000
    4  0.000  0.000  0.000  0.000
    5  0.000  0.000  0.000  0.000
    6  0.000  0.000  0.000  0.000
    7  0.000  0.000  0.000  0.000
    8  0.000  0.000  0.000  0.000
    9  0.000  0.000  0.180  0.180
   10  0.000  0.000  0.180  0.180
   11  0.000  0.000  0.058  0.058
   12  0.000  0.000  0.058  0.058
   13  0.000  0.000  0.058  0.058
   14  0.000  0.000  0.058  0.058
   15  0.000  0.000  0.180  0.180
   16  0.000  0.000  0.180  0.180
   17  0.000  0.000  0.000  0.000
   18  0.000  0.000  0.000  0.000
   19  0.000  0.000  0.000  0.000
   20  0.000  0.000  0.000  0.000
   21  0.000  0.000  0.000  0.000
   22  0.000  0.000  0.000  0.000
   23  0.000  0.000  0.000  0.000
   24  0.000  0.000  0.000  0.000
   25  0.000  0.000  0.000  0.000
   26  0.000  0.000  0.000  0.000
   27  0.000  0.000  0.000  0.000
   28  0.000  0.000  0.000  0.000
   29  0.000  0.000  0.000  0.000
   30  0.000  0.000  0.000  0.000
   31  0.000  0.000  0.000  0.000
   32  0.000  0.000  0.000  0.000
   33  0.001  0.000  0.000  0.001
   34  0.001  0.000  0.000  0.001
   35  0.001  0.000  0.000  0.001
   36  0.001  0.000  0.000  0.001
   37  0.001  0.000  0.000  0.001
   38  0.001  0.000  0.000  0.001
   39  0.001  0.000  0.000  0.001
   40  0.001  0.000  0.000  0.001
tot    0.015  0.001  0.954  0.970

band    20 # energy  -16.40386159 # occ.  2.00000000

ion      s      p      d    tot
    1  0.000  0.000  0.000  0.000
    2  0.000  0.000  0.000  0.000
    3  0.000  0.000  0.000  0.000
    4  0.000  0.000  0.000  0.000
    5  0.000  0.000  0.000  0.000
    6  0.000  0.000  0.000  0.000
    7  0.000  0.000  0.000  0.000
    8  0.000  0.000  0.000  0.000
    9  0.000  0.000  0.121  0.121
   10  0.000  0.000  0.121  0.121
   11  0.000  0.000  0.121  0.121
   12  0.000  0.000  0.121  0.121
   13  0.000  0.000  0.121  0.121
   14  0.000  0.000  0.121  0.121
   15  0.000  0.000  0.121  0.121
   16  0.000  0.000  0.121  0.121
   17  0.000  0.000  0.000  0.000
   18  0.000  0.000  0.000  0.000
   19  0.000  0.000  0.000  0.000
   20  0.000  0.000  0.000  0.000
   21  0.000  0.000  0.000  0.000
   22  0.000  0.000  0.000  0.000
   23  0.000  0.000  0.000  0.000
   24  0.000  0.000  0.000  0.000
   25  0.000  0.000  0.000  0.000
   26  0.000  0.000  0.000  0.000
   27  0.000  0.000  0.000  0.000
   28  0.000  0.000  0.000  0.000
   29  0.000  0.000  0.000  0.000
   30  0.000  0.000  0.000  0.000
   31  0.000  0.000  0.000  0.000
   32  0.000  0.000  0.000  0.000
   33  0.000  0.000  0.000  0.000
   34  0.000  0.000  0.000  0.000
   35  0.000  0.000  0.000  0.000
   36  0.000  0.000  0.000  0.000
   37  0.000  0.000  0.000  0.000
   38  0.000  0.000  0.000  0.000
   39  0.000  0.000  0.000  0.000
   40  0.000  0.000  0.000  0.000
tot    0.000  0.003  0.971  0.974

band    21 # energy  -16.39703974 # occ.  2.00000000

ion      s      p      d    tot
    1  0.000  0.000  0.000  0.000
    2  0.000  0.000  0.000  0.000
    3  0.000  0.000  0.000  0.000