<?xml version="1.0" encoding="ISO-8859-1"?>
<modeling>
 <generator>
  <i name="program" type="string">vasp </i>
  <i name="version" type="string">5.4.4.18Apr17-6-g9f103f2a35  </i>
  <i name="subversion" type="string">(build Jun 22 2020 09:27:21) complex            parallel </i>
  <i name="platform" type="string">tx2_gcc-7.3_libsci-18.07_cray-fftw-3.3.8 </i>
  <i name="date" type="string">2021 09 22 </i>
  <i name="time" type="string">08:37:59 </i>
 </generator>
 <incar>
  <i type="string" name="SYSTEM"> CsPbBr3 cubic bulk</i>
  <i type="string" name="PREC">accurate</i>
  <i type="string" name="ALGO"> Normal   ! Electronic minimisation algo</i>
  <i type="logical" name="ADDGRID"> T  </i>
  <i type="int" name="NELM">   200</i>
  <i type="int" name="IBRION">     2</i>
  <i name="EDIFF">      0.00000100</i>
  <i name="EDIFFG">     -0.01000000</i>
  <i type="int" name="NSW">     0</i>
  <i type="int" name="ISIF">     3</i>
  <i type="int" name="ISYM">     2</i>
  <i name="ENCUT">    300.00000000</i>
  <i name="POTIM">      0.50000000</i>
  <i type="string" name="LREAL"> AUTO</i>
  <i type="int" name="ISMEAR">     0</i>
  <i name="SIGMA">      0.01000000</i>
  <i name="PSTRESS">      0.00000000</i>
  <i type="logical" name="LWAVE"> F  </i>
  <i type="logical" name="LCHARG"> T  </i>
  <i type="logical" name="LVHAR"> T  </i>
  <i type="int" name="LORBIT">    10</i>
  <i type="logical" name="LASPH"> T  </i>
  <v type="int" name="KPOINT_BSE">    -1     0     0     0</v>
  <i type="int" name="NELM">   200</i>
  <i type="string" name="METAGGA"> SCAN       ! PBE exchange-correlation</i>
  <i type="logical" name="LASPH"> T  </i>
 </incar>
 <structure name="primitive_cell" >
  <crystal>
   <varray name="basis" >
    <v>       5.86767600       5.86767600       0.00000000 </v>
    <v>       5.86767600      -0.00000000      -5.86767600 </v>
    <v>       0.00000000       5.86767600      -5.86767600 </v>
   </varray>
   <i name="volume">    404.04372918 </i>
   <varray name="rec_basis" >
    <v>       0.08521261       0.08521261       0.08521261 </v>
    <v>       0.08521261      -0.08521261      -0.08521261 </v>
    <v>      -0.08521261       0.08521261      -0.08521261 </v>
   </varray>
  </crystal>
  <varray name="positions" >
   <v>      -0.25000000      -0.25000000      -0.25000000 </v>
   <v>      -0.18250000       0.31750000      -0.31750000 </v>
   <v>       0.18250000      -0.31750000       0.31750000 </v>
   <v>       0.31750000       0.18250000      -0.18250000 </v>
   <v>      -0.31750000      -0.18250000       0.18250000 </v>
   <v>       0.25000000      -0.25000000      -0.25000000 </v>
   <v>      -0.25000000       0.25000000       0.25000000 </v>
   <v>       0.00000000       0.00000000       0.00000000 </v>
   <v>      -0.50000000      -0.50000000      -0.50000000 </v>
   <v>       0.25000000       0.25000000       0.25000000 </v>
  </varray>
 </structure>
 <varray name="primitive_index" >
  <v type="int" >        1 </v>
  <v type="int" >       18 </v>
  <v type="int" >       22 </v>
  <v type="int" >       33 </v>
  <v type="int" >       35 </v>
  <v type="int" >       25 </v>
  <v type="int" >       27 </v>
  <v type="int" >        9 </v>
  <v type="int" >       10 </v>
  <v type="int" >        2 </v>
 </varray>
 <kpoints>
  <generation param="Gamma">
   <v type="int" name="divisions">       2        2        2 </v>
   <v name="usershift">      0.00000000       0.00000000       0.00000000 </v>
   <v name="genvec1">      0.50000000       0.00000000       0.00000000 </v>
   <v name="genvec2">      0.00000000       0.50000000       0.00000000 </v>
   <v name="genvec3">      0.00000000       0.00000000       0.50000000 </v>
   <v name="shift">      0.00000000       0.00000000       0.00000000 </v>
  </generation>
  <varray name="kpointlist" >
   <v>       0.00000000       0.00000000       0.00000000 </v>
   <v>       0.50000000       0.00000000       0.00000000 </v>
   <v>       0.50000000       0.50000000       0.00000000 </v>
   <v>       0.00000000       0.00000000       0.50000000 </v>
   <v>       0.50000000       0.00000000       0.50000000 </v>
   <v>       0.50000000       0.50000000       0.50000000 </v>
  </varray>
  <varray name="weights" >
   <v>       0.12500000 </v>
   <v>       0.25000000 </v>
   <v>       0.12500000 </v>
   <v>       0.12500000 </v>
   <v>       0.25000000 </v>
   <v>       0.12500000 </v>
  </varray>
 </kpoints>
 <parameters>
  <separator name="general" >
   <i type="string" name="SYSTEM">CsPbBr3 cubic bulk</i>
   <i type="logical" name="LCOMPAT"> F  </i>
  </separator>
  <separator name="electronic" >
   <i type="string" name="PREC">accura</i>
   <i name="ENMAX">    300.00000000</i>
   <i name="ENAUG">    503.85200000</i>
   <i name="EDIFF">      0.00000100</i>
   <i type="int" name="IALGO">    38</i>
   <i type="int" name="IWAVPR">    10</i>
   <i type="int" name="NBANDS">   216</i>
   <i name="NELECT">    352.00000000</i>
   <i type="int" name="TURBO">     0</i>
   <i type="int" name="IRESTART">     0</i>
   <i type="int" name="NREBOOT">     0</i>
   <i type="int" name="NMIN">     0</i>
   <i name="EREF">      0.00000000</i>
   <separator name="electronic smearing" >
    <i type="int" name="ISMEAR">     0</i>
    <i name="SIGMA">      0.01000000</i>
    <i name="KSPACING">      0.50000000</i>
    <i type="logical" name="KGAMMA"> T  </i>
   </separator>
   <separator name="electronic projectors" >
    <i type="logical" name="LREAL"> T  </i>
    <v name="ROPT">     -0.00025000     -0.00025000     -0.00025000</v>
    <i type="int" name="LMAXPAW">  -100</i>
    <i type="int" name="LMAXMIX">     2</i>
    <i type="logical" name="NLSPLINE"> F  </i>
   </separator>
   <separator name="electronic startup" >
    <i type="int" name="ISTART">     0</i>
    <i type="int" name="ICHARG">     2</i>
    <i type="int" name="INIWAV">     1</i>
   </separator>
   <separator name="electronic spin" >
    <i type="int" name="ISPIN">     1</i>
    <i type="logical" name="LNONCOLLINEAR"> F  </i>
    <v name="MAGMOM">      1.00000000      1.00000000      1.00000000      1.00000000      1.00000000      1.00000000      1.00000000      1.00000000      1.00000000      1.00000000      1.00000000      1.00000000      1.00000000      1.00000000      1.00000000      1.00000000      1.00000000      1.00000000      1.00000000      1.00000000
      1.00000000      1.00000000      1.00000000      1.00000000      1.00000000      1.00000000      1.00000000      1.00000000      1.00000000      1.00000000      1.00000000      1.00000000      1.00000000      1.00000000      1.00000000      1.00000000      1.00000000      1.00000000      1.00000000      1.00000000
</v>
    <i name="NUPDOWN">     -1.00000000</i>
    <i type="logical" name="LSORBIT"> F  </i>
    <v name="SAXIS">      0.00000000      0.00000000      1.00000000</v>
    <i type="logical" name="LSPIRAL"> F  </i>
    <v name="QSPIRAL">      0.00000000      0.00000000      0.00000000</v>
    <i type="logical" name="LZEROZ"> F  </i>
   </separator>
   <separator name="electronic exchange-correlation" >
    <i type="logical" name="LASPH"> T  </i>
    <i type="logical" name="LMETAGGA"> F  </i>
   </separator>
   <separator name="electronic convergence" >
    <i type="int" name="NELM">   200</i>
    <i type="int" name="NELMDL">    -5</i>
    <i type="int" name="NELMIN">     2</i>
    <i name="ENINI">    300.00000000</i>
    <separator name="electronic convergence detail" >
     <i type="logical" name="LDIAG"> T  </i>
     <i type="logical" name="LSUBROT"> F  </i>
     <i name="WEIMIN">      0.00000000</i>
     <i name="EBREAK">      0.00000000</i>
     <i name="DEPER">      0.30000000</i>
     <i type="int" name="NRMM">     4</i>
     <i name="TIME">      0.40000000</i>
    </separator>
   </separator>
   <separator name="electronic mixer" >
    <i name="AMIX">      0.40000000</i>
    <i name="BMIX">      1.00000000</i>
    <i name="AMIN">      0.10000000</i>
    <i name="AMIX_MAG">      1.60000000</i>
    <i name="BMIX_MAG">      1.00000000</i>
    <separator name="electronic mixer details" >
     <i type="int" name="IMIX">     4</i>
     <i type="logical" name="MIXFIRST"> F  </i>
     <i type="int" name="MAXMIX">   -45</i>
     <i name="WC">    100.00000000</i>
     <i type="int" name="INIMIX">     1</i>
     <i type="int" name="MIXPRE">     1</i>
     <i type="int" name="MREMOVE">     5</i>
    </separator>
   </separator>
   <separator name="electronic dipolcorrection" >
    <i type="logical" name="LDIPOL"> F  </i>
    <i type="logical" name="LMONO"> F  </i>
    <i type="int" name="IDIPOL">     0</i>
    <i name="EPSILON">      1.00000000</i>
    <v name="DIPOL">   -100.00000000   -100.00000000   -100.00000000</v>
    <i name="EFIELD">      0.00000000</i>
   </separator>
  </separator>
  <separator name="grids" >
   <i type="int" name="NGX">    70</i>
   <i type="int" name="NGY">    70</i>
   <i type="int" name="NGZ">    70</i>
   <i type="int" name="NGXF">   140</i>
   <i type="int" name="NGYF">   140</i>
   <i type="int" name="NGZF">   140</i>
   <i type="logical" name="ADDGRID"> T  </i>
  </separator>
  <separator name="ionic" >
   <i type="int" name="NSW">     0</i>
   <i type="int" name="IBRION">    -1</i>
   <i type="int" name="MDALGO">     0</i>
   <i type="int" name="ISIF">     3</i>
   <i name="PSTRESS">      0.00000000</i>
   <i name="EDIFFG">     -0.01000000</i>
   <i type="int" name="NFREE">     1</i>
   <i name="POTIM">      0.50000000</i>
   <i name="SMASS">     -3.00000000</i>
   <i name="SCALEE">      1.00000000</i>
  </separator>
  <separator name="ionic md" >
   <i name="TEBEG">      0.00010000</i>
   <i name="TEEND">      0.00010000</i>
   <i type="int" name="NBLOCK">     1</i>
   <i type="int" name="KBLOCK">     1</i>
   <i type="int" name="NPACO">   256</i>
   <i name="APACO">     16.00000000</i>
  </separator>
  <separator name="symmetry" >
   <i type="int" name="ISYM">     2</i>
   <i name="SYMPREC">      0.00001000</i>
  </separator>
  <separator name="dos" >
   <i type="int" name="LORBIT">    10</i>
   <v name="RWIGS">     -1.00000000     -1.00000000     -1.00000000</v>
   <i type="int" name="NEDOS">   301</i>
   <i name="EMIN">     10.00000000</i>
   <i name="EMAX">    -10.00000000</i>
   <i name="EFERMI">      0.00000000</i>
  </separator>
  <separator name="writing" >
   <i type="int" name="NWRITE">     2</i>
   <i type="logical" name="LWAVE"> F  </i>
   <i type="logical" name="LDOWNSAMPLE"> F  </i>
   <i type="logical" name="LCHARG"> T  </i>
   <i type="logical" name="LPARD"> F  </i>
   <i type="logical" name="LVTOT"> F  </i>
   <i type="logical" name="LVHAR"> T  </i>
   <i type="logical" name="LELF"> F  </i>
   <i type="logical" name="LOPTICS"> F  </i>
   <v name="STM">      0.00000000      0.00000000      0.00000000      0.00000000      0.00000000      0.00000000      0.00000000</v>
  </separator>
  <separator name="performance" >
   <i type="int" name="NPAR">     8</i>
   <i type="int" name="NSIM">     4</i>
   <i type="int" name="NBLK">    -1</i>
   <i type="logical" name="LPLANE"> T  </i>
   <i type="logical" name="LSCALAPACK"> T  </i>
   <i type="logical" name="LSCAAWARE"> F  </i>
   <i type="logical" name="LSCALU"> F  </i>
   <i type="logical" name="LASYNC"> F  </i>
   <i type="logical" name="LORBITALREAL"> F  </i>
  </separator>
  <separator name="miscellaneous" >
   <i type="int" name="IDIOT">     3</i>
   <i type="int" name="ISPECIAL">     0</i>
   <i type="logical" name="LMUSIC"> F  </i>
   <v name="POMASS">    132.90000000    207.20000000     79.90400000</v>
   <v name="DARWINR">      0.00000000      0.00000000      0.00000000</v>
   <v name="DARWINV">      1.00000000      1.00000000      1.00000000</v>
   <i type="logical" name="LCORR"> T  </i>
  </separator>
  <i type="logical" name="GGA_COMPAT"> T  </i>
  <i type="logical" name="LBERRY"> F  </i>
  <i type="int" name="ICORELEVEL">     0</i>
  <i type="logical" name="LDAU"> F  </i>
  <i type="int" name="I_CONSTRAINED_M">     0</i>
  <separator name="electronic exchange-correlation" >
   <i type="string" name="GGA">--</i>
   <i type="int" name="VOSKOWN">     0</i>
   <i type="logical" name="LHFCALC"> F  </i>
   <i type="string" name="PRECFOCK"></i>
   <i type="logical" name="LSYMGRAD"> F  </i>
   <i type="logical" name="LHFONE"> F  </i>
   <i type="logical" name="LRHFCALC"> F  </i>
   <i type="logical" name="LTHOMAS"> F  </i>
   <i type="logical" name="LMODELHF"> F  </i>
   <i name="ENCUT4O">     -1.00000000</i>
   <i type="int" name="EXXOEP">     0</i>
   <i type="int" name="FOURORBIT">     0</i>
   <i name="AEXX">      0.00000000</i>
   <i name="HFALPHA">      0.00000000</i>
   <i name="MCALPHA">      0.00000000</i>
   <i name="ALDAX">      1.00000000</i>
   <i name="AGGAX">      1.00000000</i>
   <i name="ALDAC">      1.00000000</i>
   <i name="AGGAC">      1.00000000</i>
   <i type="int" name="NKREDX">     1</i>
   <i type="int" name="NKREDY">     1</i>
   <i type="int" name="NKREDZ">     1</i>
   <i type="logical" name="SHIFTRED"> F  </i>
   <i type="logical" name="ODDONLY"> F  </i>
   <i type="logical" name="EVENONLY"> F  </i>
   <i type="int" name="LMAXFOCK">     0</i>
   <i type="int" name="NMAXFOCKAE">     0</i>
   <i type="logical" name="LFOCKAEDFT"> F  </i>
   <i name="HFSCREEN">      0.00000000</i>
   <i name="HFSCREENC">      0.00000000</i>
   <i type="int" name="NBANDSGWLOW">     0</i>
  </separator>
  <separator name="vdW DFT" >
   <i type="logical" name="LUSE_VDW"> F  </i>
   <i name="Zab_VDW">     -0.84910000</i>
   <i name="PARAM1">      0.12340000</i>
   <i name="PARAM2">      1.00000000</i>
   <i name="PARAM3">      0.00000000</i>
  </separator>
  <separator name="model GW" >
   <i type="int" name="MODEL_GW">     0</i>
   <i name="MODEL_EPS0">     24.24262375</i>
   <i name="MODEL_ALPHA">      1.00000000</i>
  </separator>
  <separator name="linear response parameters" >
   <i type="logical" name="LEPSILON"> F  </i>
   <i type="logical" name="LRPA"> F  </i>
   <i type="logical" name="LNABLA"> F  </i>
   <i type="logical" name="LVEL"> F  </i>
   <i type="int" name="KINTER">     0</i>
   <i name="CSHIFT">      0.10000000</i>
   <i name="OMEGAMAX">     -1.00000000</i>
   <i name="DEG_THRESHOLD">      0.00200000</i>
   <i name="RTIME">     -0.10000000</i>
   <i name="WPLASMAI">      0.00000000</i>
   <v name="DFIELD">      0.00000000      0.00000000      0.00000000</v>
   <v name="WPLASMA">      0.00000000      0.00000000      0.00000000      0.00000000      0.00000000      0.00000000      0.00000000      0.00000000      0.00000000</v>
  </separator>
  <separator name="orbital magnetization" >
   <i type="logical" name="NUCIND"> F  </i>
   <v name="MAGPOS">      0.00000000      0.00000000      0.00000000</v>
   <i type="logical" name="LNICSALL"> T  </i>
   <i type="logical" name="ORBITALMAG"> F  </i>
   <i type="logical" name="LMAGBLOCH"> F  </i>
   <i type="logical" name="LCHIMAG"> F  </i>
   <i type="logical" name="LGAUGE"> T  </i>
   <i type="int" name="MAGATOM">     0</i>
   <v name="MAGDIPOL">      0.00000000      0.00000000      0.00000000</v>
   <v name="AVECCONST">      0.00000000      0.00000000      0.00000000</v>
  </separator>
  <separator name="response functions" >
   <i type="logical" name="LADDER"> F  </i>
   <i type="logical" name="LRPAFORCE"> F  </i>
   <i type="logical" name="LFXC"> F  </i>
   <i type="logical" name="LHARTREE"> T  </i>
   <i type="int" name="IBSE">     0</i>
   <v type="int" name="KPOINT">    -1     0     0     0</v>
   <i type="logical" name="LTCTE"> F  </i>
   <i type="logical" name="LTETE"> F  </i>
   <i type="logical" name="LTRIPLET"> F  </i>
   <i type="logical" name="LFXCEPS"> F  </i>
   <i type="logical" name="LFXHEG"> F  </i>
   <i type="int" name="NATURALO">     2</i>
   <i type="logical" name="L2ORDER"> F  </i>
   <i type="logical" name="LMP2LT"> F  </i>
   <i type="logical" name="LUSEW"> F  </i>
   <i name="ENCUTGW">     -2.00000000</i>
   <i name="ENCUTGWSOFT">     -2.00000000</i>
   <i name="ENCUTLF">     -1.00000000</i>
   <i type="int" name="LMAXMP2">    -1</i>
   <i name="SCISSOR">      0.00000000</i>
   <i type="int" name="NOMEGA">     0</i>
   <i type="int" name="NOMEGAR">     0</i>
   <i type="int" name="NBANDSGW">    -1</i>
   <i type="int" name="NBANDSO">    -1</i>
   <i type="int" name="NBANDSV">    -1</i>
   <i type="int" name="NELM">   200</i>
   <i type="int" name="NELMHF">     1</i>
   <i type="int" name="DIM">     3</i>
   <i type="int" name="ANTIRES">     0</i>
   <i name="OMEGAMAX">    -30.00000000</i>
   <i name="OMEGAMIN">    -30.00000000</i>
   <i name="OMEGATL">   -200.00000000</i>
   <i type="int" name="OMEGAGRID">   140</i>
   <i name="CSHIFT">     -0.10000000</i>
   <i type="logical" name="SELFENERGY"> F  </i>
   <i type="logical" name="LSPECTRAL"> F  </i>
   <i type="logical" name="LSPECTRALGW"> F  </i>
   <i type="logical" name="LSINGLES"> F  </i>
   <i type="logical" name="LFERMIGW"> F  </i>
   <i type="logical" name="ODDONLYGW"> F  </i>
   <i type="logical" name="EVENONLYGW"> F  </i>
   <i type="int" name="NKREDLFX">     1</i>
   <i type="int" name="NKREDLFY">     1</i>
   <i type="int" name="NKREDLFZ">     1</i>
   <i type="int" name="MAXMEM">  2800</i>
   <i type="int" name="TELESCOPE">     0</i>
   <i type="int" name="TAUPAR">     1</i>
   <i type="int" name="OMEGAPAR">    -1</i>
   <i name="LAMBDA">      1.00000000</i>
  </separator>
  <separator name="External order field" >
   <i name="OFIELD_KAPPA">      0.00000000</i>
   <v name="OFIELD_K">      0.00000000      0.00000000      0.00000000</v>
   <i name="OFIELD_Q6_NEAR">      0.00000000</i>
   <i name="OFIELD_Q6_FAR">      0.00000000</i>
   <i name="OFIELD_A">      0.00000000</i>
  </separator>
 </parameters>
 <atominfo>
  <atoms>      40 </atoms>
  <types>       3 </types>
  <array name="atoms" >
   <dimension dim="1">ion</dimension>
   <field type="string">element</field>
   <field type="int">atomtype</field>
   <set>
    <rc><c>Cs</c><c>   1</c></rc>
    <rc><c>Cs</c><c>   1</c></rc>
    <rc><c>Cs</c><c>   1</c></rc>
    <rc><c>Cs</c><c>   1</c></rc>
    <rc><c>Cs</c><c>   1</c></rc>
    <rc><c>Cs</c><c>   1</c></rc>
    <rc><c>Cs</c><c>   1</c></rc>
    <rc><c>Cs</c><c>   1</c></rc>
    <rc><c>Pb</c><c>   2</c></rc>
    <rc><c>Pb</c><c>   2</c></rc>
    <rc><c>Pb</c><c>   2</c></rc>
    <rc><c>Pb</c><c>   2</c></rc>
    <rc><c>Pb</c><c>   2</c></rc>
    <rc><c>Pb</c><c>   2</c></rc>
    <rc><c>Pb</c><c>   2</c></rc>
    <rc><c>Pb</c><c>   2</c></rc>
    <rc><c>Br</c><c>   3</c></rc>
    <rc><c>Br</c><c>   3</c></rc>
    <rc><c>Br</c><c>   3</c></rc>
    <rc><c>Br</c><c>   3</c></rc>
    <rc><c>Br</c><c>   3</c></rc>
    <rc><c>Br</c><c>   3</c></rc>
    <rc><c>Br</c><c>   3</c></rc>
    <rc><c>Br</c><c>   3</c></rc>
    <rc><c>Br</c><c>   3</c></rc>
    <rc><c>Br</c><c>   3</c></rc>
    <rc><c>Br</c><c>   3</c></rc>
    <rc><c>Br</c><c>   3</c></rc>
    <rc><c>Br</c><c>   3</c></rc>
    <rc><c>Br</c><c>   3</c></rc>
    <rc><c>Br</c><c>   3</c></rc>
    <rc><c>Br</c><c>   3</c></rc>
    <rc><c>Br</c><c>   3</c></rc>
    <rc><c>Br</c><c>   3</c></rc>
    <rc><c>Br</c><c>   3</c></rc>
    <rc><c>Br</c><c>   3</c></rc>
    <rc><c>Br</c><c>   3</c></rc>
    <rc><c>Br</c><c>   3</c></rc>
    <rc><c>Br</c><c>   3</c></rc>
    <rc><c>Br</c><c>   3</c></rc>
   </set>
  </array>
  <array name="atomtypes" >
   <dimension dim="1">type</dimension>
   <field type="int">atomspertype</field>
   <field type="string">element</field>
   <field>mass</field>
   <field>valence</field>
   <field type="string">pseudopotential</field>
   <set>
    <rc><c>   8</c><c>Cs</c><c>    132.90000000</c><c>      9.00000000</c><c>  PAW_PBE Cs_sv 08Apr2002               </c></rc>
    <rc><c>   8</c><c>Pb</c><c>    207.20000000</c><c>     14.00000000</c><c>  PAW_PBE Pb_d 06Sep2000                </c></rc>
    <rc><c>  24</c><c>Br</c><c>     79.90400000</c><c>      7.00000000</c><c>  PAW_PBE Br 06Sep2000                  </c></rc>
   </set>
  </array>
 </atominfo>
 <structure name="initialpos" >
  <crystal>
   <varray name="basis" >
    <v>      11.73535200       0.00000000       0.00000000 </v>
    <v>       0.00000000      11.73535200       0.00000000 </v>
    <v>       0.00000000       0.00000000      11.73535200 </v>
   </varray>
   <i name="volume">   1616.17491673 </i>
   <varray name="rec_basis" >
    <v>       0.08521261       0.00000000       0.00000000 </v>
    <v>       0.00000000       0.08521261       0.00000000 </v>
    <v>       0.00000000       0.00000000       0.08521261 </v>
   </varray>
  </crystal>
  <varray name="positions" >
   <v>       0.25000000       0.25000000       0.25000000 </v>
   <v>       0.25000000       0.25000000       0.75000000 </v>
   <v>       0.25000000       0.75000000       0.25000000 </v>
   <v>       0.25000000       0.75000000       0.75000000 </v>
   <v>       0.75000000       0.25000000       0.25000000 </v>
   <v>       0.75000000       0.25000000       0.75000000 </v>
   <v>       0.75000000       0.75000000       0.25000000 </v>
   <v>       0.75000000       0.75000000       0.75000000 </v>
   <v>       0.00000000       0.00000000       0.00000000 </v>
   <v>       0.00000000       0.00000000       0.50000000 </v>
   <v>       0.00000000       0.50000000       0.00000000 </v>
   <v>       0.00000000       0.50000000       0.50000000 </v>
   <v>       0.50000000       0.00000000       0.00000000 </v>
   <v>       0.50000000       0.00000000       0.50000000 </v>
   <v>       0.50000000       0.50000000       0.00000000 </v>
   <v>       0.50000000       0.50000000       0.50000000 </v>
   <v>       0.93250000       0.25000000       0.00000000 </v>
   <v>       0.06750000       0.25000000       0.50000000 </v>
   <v>       0.06750000       0.75000000       0.00000000 </v>
   <v>       0.93250000       0.75000000       0.50000000 </v>
   <v>       0.56750000       0.25000000       0.00000000 </v>
   <v>       0.43250000       0.25000000       0.50000000 </v>
   <v>       0.43250000       0.75000000       0.00000000 </v>
   <v>       0.56750000       0.75000000       0.50000000 </v>
   <v>       0.00000000       0.00000000       0.25000000 </v>
   <v>       0.00000000       0.00000000       0.75000000 </v>
   <v>       0.00000000       0.50000000       0.25000000 </v>
   <v>       0.00000000       0.50000000       0.75000000 </v>
   <v>       0.50000000       0.00000000       0.25000000 </v>
   <v>       0.50000000       0.00000000       0.75000000 </v>
   <v>       0.50000000       0.50000000       0.25000000 </v>
   <v>       0.50000000       0.50000000       0.75000000 </v>
   <v>       0.25000000       0.06750000       0.00000000 </v>
   <v>       0.25000000       0.93250000       0.50000000 </v>
   <v>       0.25000000       0.43250000       0.00000000 </v>
   <v>       0.25000000       0.56750000       0.50000000 </v>
   <v>       0.75000000       0.93250000       0.00000000 </v>
   <v>       0.75000000       0.06750000       0.50000000 </v>
   <v>       0.75000000       0.56750000       0.00000000 </v>
   <v>       0.75000000       0.43250000       0.50000000 </v>
  </varray>
 </structure>
 <calculation>
  <scstep>
   <time name="dav">   12.76   12.76</time>
   <time name="total">   14.22   14.24</time>
   <energy>
    <i name="alphaZ">    892.99476195 </i>
    <i name="ewald"> -18433.13816175 </i>
    <i name="hartreedc">  -7316.06079470 </i>
    <i name="XCdc">    923.76572053 </i>
    <i name="pawpsdc">  21633.96174531 </i>
    <i name="pawaedc"> -22707.92185401 </i>
    <i name="eentropy">     -0.00000014 </i>
    <i name="bandstr">   -229.95016326 </i>
    <i name="atom">  26580.56019858 </i>
    <i name="e_fr_energy">   1344.21145252 </i>
    <i name="e_wo_entrp">   1344.21145265 </i>
    <i name="e_0_energy">   1344.21145258 </i>
   </energy>
  </scstep>
  <scstep>
   <time name="dav">   14.23   14.26</time>
   <time name="total">   14.23   14.26</time>
   <energy>
    <i name="e_fr_energy">  -1133.33549507 </i>
    <i name="e_wo_entrp">  -1133.33549507 </i>
    <i name="e_0_energy">  -1133.33549507 </i>
   </energy>
  </scstep>
  <scstep>
   <time name="dav">   15.10   15.14</time>
   <time name="total">   15.10   15.14</time>
   <energy>
    <i name="e_fr_energy">  -1497.07174101 </i>
    <i name="e_wo_entrp">  -1497.07174101 </i>
    <i name="e_0_energy">  -1497.07174101 </i>
   </energy>
  </scstep>
  <scstep>
   <time name="dav">   13.88   13.88</time>
   <time name="total">   13.88   13.88</time>
   <energy>
    <i name="e_fr_energy">  -1508.64263470 </i>
    <i name="e_wo_entrp">  -1508.64263470 </i>
    <i name="e_0_energy">  -1508.64263470 </i>
   </energy>
  </scstep>
  <scstep>
   <time name="dav">   14.83   14.88</time>
   <time name="total">   17.89   17.94</time>
   <energy>
    <i name="e_fr_energy">  -1509.18479661 </i>
    <i name="e_wo_entrp">  -1509.18479661 </i>
    <i name="e_0_energy">  -1509.18479661 </i>
   </energy>
  </scstep>
  <scstep>
   <time name="dav">   14.78   14.78</time>
   <time name="total">   19.33   19.35</time>
   <energy>
    <i name="e_fr_energy">  -1429.51939426 </i>
    <i name="e_wo_entrp">  -1429.51939426 </i>
    <i name="e_0_energy">  -1429.51939426 </i>
   </energy>
  </scstep>
  <scstep>
   <time name="dav">   14.08   14.08</time>
   <time name="total">   18.68   18.68</time>
   <energy>
    <i name="e_fr_energy">  -1429.01474815 </i>
    <i name="e_wo_entrp">  -1429.01474815 </i>
    <i name="e_0_energy">  -1429.01474815 </i>
   </energy>
  </scstep>
  <scstep>
   <time name="dav">   14.00   14.00</time>
   <time name="total">   18.55   18.60</time>
   <energy>
    <i name="e_fr_energy">  -1429.21399315 </i>
    <i name="e_wo_entrp">  -1429.21399315 </i>
    <i name="e_0_energy">  -1429.21399315 </i>
   </energy>
  </scstep>
  <scstep>
   <time name="dav">   13.39   13.39</time>
   <time name="total">   17.95   18.00</time>
   <energy>
    <i name="e_fr_energy">  -1429.29743610 </i>
    <i name="e_wo_entrp">  -1429.29743610 </i>
    <i name="e_0_energy">  -1429.29743610 </i>
   </energy>
  </scstep>
  <scstep>
   <time name="dav">   15.49   15.49</time>
   <time name="total">   20.04   20.09</time>
   <energy>
    <i name="e_fr_energy">  -1429.29919278 </i>
    <i name="e_wo_entrp">  -1429.29919278 </i>
    <i name="e_0_energy">  -1429.29919278 </i>
   </energy>
  </scstep>
  <scstep>
   <time name="dav">   13.28   13.28</time>
   <time name="total">   17.89   17.90</time>
   <energy>
    <i name="e_fr_energy">  -1429.30218588 </i>
    <i name="e_wo_entrp">  -1429.30218588 </i>
    <i name="e_0_energy">  -1429.30218588 </i>
   </energy>
  </scstep>
  <scstep>
   <time name="dav">   13.26   13.26</time>
   <time name="total">   17.84   17.86</time>
   <energy>
    <i name="e_fr_energy">  -1429.30286611 </i>
    <i name="e_wo_entrp">  -1429.30286611 </i>
    <i name="e_0_energy">  -1429.30286611 </i>
   </energy>
  </scstep>
  <scstep>
   <time name="dav">   14.65   14.65</time>
   <time name="total">   19.23   19.27</time>
   <energy>
    <i name="e_fr_energy">  -1429.30286599 </i>
    <i name="e_wo_entrp">  -1429.30286599 </i>
    <i name="e_0_energy">  -1429.30286599 </i>
   </energy>
  </scstep>
  <scstep>
   <time name="dav">   12.82   12.82</time>
   <time name="total">   14.30   14.32</time>
   <energy>
    <i name="alphaZ">    892.99476195 </i>
    <i name="ewald"> -18433.13816175 </i>
    <i name="hartreedc">  -7346.63383963 </i>
    <i name="XCdc">    962.90970912 </i>
    <i name="pawpsdc">  23086.06870779 </i>
    <i name="pawaedc"> -24158.00827678 </i>
    <i name="eentropy">     -0.00000000 </i>
    <i name="bandstr">  -3014.05596603 </i>
    <i name="atom">  26580.56019858 </i>
    <i name="e_fr_energy">  -1429.30286676 </i>
    <i name="e_wo_entrp">  -1429.30286676 </i>
    <i name="e_0_energy">  -1429.30286676 </i>
   </energy>
  </scstep>
  <structure>
   <crystal>
    <varray name="basis" >
     <v>      11.73535200       0.00000000       0.00000000 </v>
     <v>       0.00000000      11.73535200       0.00000000 </v>
     <v>       0.00000000       0.00000000      11.73535200 </v>
    </varray>
    <i name="volume">   1616.17491673 </i>
    <varray name="rec_basis" >
     <v>       0.08521261       0.00000000       0.00000000 </v>
     <v>       0.00000000       0.08521261       0.00000000 </v>
     <v>       0.00000000       0.00000000       0.08521261 </v>
    </varray>
   </crystal>
   <varray name="positions" >
    <v>       0.25000000       0.25000000       0.25000000 </v>
    <v>       0.25000000       0.25000000       0.75000000 </v>
    <v>       0.25000000       0.75000000       0.25000000 </v>
    <v>       0.25000000       0.75000000       0.75000000 </v>
    <v>       0.75000000       0.25000000       0.25000000 </v>
    <v>       0.75000000       0.25000000       0.75000000 </v>
    <v>       0.75000000       0.75000000       0.25000000 </v>
    <v>       0.75000000       0.75000000       0.75000000 </v>
    <v>       0.00000000       0.00000000       0.00000000 </v>
    <v>       0.00000000       0.00000000       0.50000000 </v>
    <v>       0.00000000       0.50000000       0.00000000 </v>
    <v>       0.00000000       0.50000000       0.50000000 </v>
    <v>       0.50000000       0.00000000       0.00000000 </v>
    <v>       0.50000000       0.00000000       0.50000000 </v>
    <v>       0.50000000       0.50000000       0.00000000 </v>
    <v>       0.50000000       0.50000000       0.50000000 </v>
    <v>       0.93250000       0.25000000       0.00000000 </v>
    <v>       0.06750000       0.25000000       0.50000000 </v>
    <v>       0.06750000       0.75000000       0.00000000 </v>
    <v>       0.93250000       0.75000000       0.50000000 </v>
    <v>       0.56750000       0.25000000       0.00000000 </v>
    <v>       0.43250000       0.25000000       0.50000000 </v>
    <v>       0.43250000       0.75000000       0.00000000 </v>
    <v>       0.56750000       0.75000000       0.50000000 </v>
    <v>       0.00000000       0.00000000       0.25000000 </v>
    <v>       0.00000000       0.00000000       0.75000000 </v>
    <v>       0.00000000       0.50000000       0.25000000 </v>
    <v>       0.00000000       0.50000000       0.75000000 </v>
    <v>       0.50000000       0.00000000       0.25000000 </v>
    <v>       0.50000000       0.00000000       0.75000000 </v>
    <v>       0.50000000       0.50000000       0.25000000 </v>
    <v>       0.50000000       0.50000000       0.75000000 </v>
    <v>       0.25000000       0.06750000       0.00000000 </v>
    <v>       0.25000000       0.93250000       0.50000000 </v>
    <v>       0.25000000       0.43250000       0.00000000 </v>
    <v>       0.25000000       0.56750000       0.50000000 </v>
    <v>       0.75000000       0.93250000       0.00000000 </v>
    <v>       0.75000000       0.06750000       0.50000000 </v>
    <v>       0.75000000       0.56750000       0.00000000 </v>
    <v>       0.75000000       0.43250000       0.50000000 </v>
   </varray>
  </structure>
  <varray name="forces" >
   <v>      -0.00000000      -0.00000000       0.00000000 </v>
   <v>       0.00000000      -0.00000000       0.00000000 </v>
   <v>       0.00000000      -0.00000000       0.00000000 </v>
   <v>       0.00000000      -0.00000000       0.00000000 </v>
   <v>      -0.00000000      -0.00000000       0.00000000 </v>
   <v>       0.00000000      -0.00000000       0.00000000 </v>
   <v>      -0.00000000      -0.00000000       0.00000000 </v>
   <v>       0.00000000      -0.00000000       0.00000000 </v>
   <v>       0.00000000      -0.00000000       0.00000000 </v>
   <v>       0.00000000      -0.00000000       0.00000000 </v>
   <v>      -0.00000000      -0.00000000       0.00000000 </v>
   <v>       0.00000000      -0.00000000       0.00000000 </v>
   <v>      -0.00000000      -0.00000000       0.00000000 </v>
   <v>       0.00000000      -0.00000000       0.00000000 </v>
   <v>      -0.00000000      -0.00000000       0.00000000 </v>
   <v>      -0.00000000      -0.00000000       0.00000000 </v>
   <v>       0.12529752      -0.00000000      -0.00000000 </v>
   <v>      -0.12529752      -0.00000000       0.00000000 </v>
   <v>      -0.12529752      -0.00000000       0.00000000 </v>
   <v>       0.12529752      -0.00000000      -0.00000000 </v>
   <v>      -0.12529752      -0.00000000       0.00000000 </v>
   <v>       0.12529752      -0.00000000      -0.00000000 </v>
   <v>       0.12529752      -0.00000000      -0.00000000 </v>
   <v>      -0.12529752      -0.00000000       0.00000000 </v>
   <v>       0.00000000      -0.00000000       0.00000000 </v>
   <v>      -0.00000000      -0.00000000       0.00000000 </v>
   <v>      -0.00000000      -0.00000000       0.00000000 </v>
   <v>       0.00000000      -0.00000000       0.00000000 </v>
   <v>      -0.00000000      -0.00000000       0.00000000 </v>
   <v>       0.00000000      -0.00000000       0.00000000 </v>
   <v>       0.00000000      -0.00000000       0.00000000 </v>
   <v>      -0.00000000      -0.00000000       0.00000000 </v>
   <v>      -0.00000000      -0.12529752       0.00000000 </v>
   <v>      -0.00000000       0.12529752      -0.00000000 </v>
   <v>       0.00000000       0.12529752      -0.00000000 </v>
   <v>      -0.00000000      -0.12529752       0.00000000 </v>
   <v>       0.00000000       0.12529752      -0.00000000 </v>
   <v>      -0.00000000      -0.12529752       0.00000000 </v>
   <v>      -0.00000000      -0.12529752       0.00000000 </v>
   <v>       0.00000000       0.12529752      -0.00000000 </v>
  </varray>
  <varray name="stress" >
   <v>      -7.98488076       0.00000000       0.00000000 </v>
   <v>       0.00000000      -7.98488076       0.00000000 </v>
   <v>       0.00000000       0.00000000      11.85538896 </v>
  </varray>
  <energy>
   <i name="e_fr_energy">  -1429.30286676 </i>
   <i name="e_wo_entrp">  -1429.30286676 </i>
   <i name="e_0_energy">     -0.00000000 </i>
  </energy>
  <time name="totalsc">  288.68  289.39</time>
  <eigenvalues>
   <array>
    <dimension dim="1">band</dimension>
    <dimension dim="2">kpoint</dimension>
    <dimension dim="3">spin</dimension>
    <field>eigene</field>
    <field>occ</field>
    <set>
     <set comment="spin 1">
      <set comment="kpoint 1">
       <r>  -20.8320    1.0000 </r>
       <r>  -20.8309    1.0000 </r>
       <r>  -20.8309    1.0000 </r>
       <r>  -20.8300    1.0000 </r>
       <r>  -20.8293    1.0000 </r>
       <r>  -20.8284    1.0000 </r>
       <r>  -20.8284    1.0000 </r>
       <r>  -20.8271    1.0000 </r>
       <r>  -16.5100    1.0000 </r>
       <r>  -16.5041    1.0000 </r>
       <r>  -16.5041    1.0000 </r>
       <r>  -16.4912    1.0000 </r>
       <r>  -16.4554    1.0000 </r>
       <r>  -16.4551    1.0000 </r>
       <r>  -16.4395    1.0000 </r>
       <r>  -16.4395    1.0000 </r>
       <r>  -16.4297    1.0000 </r>
       <r>  -16.4166    1.0000 </r>
       <r>  -16.4166    1.0000 </r>
       <r>  -16.4039    1.0000 </r>
       <r>  -16.3970    1.0000 </r>
       <r>  -16.3970    1.0000 </r>
       <r>  -16.3828    1.0000 </r>
       <r>  -16.3825    1.0000 </r>
       <r>  -16.3255    1.0000 </r>
       <r>  -16.3253    1.0000 </r>
       <r>  -16.3249    1.0000 </r>
       <r>  -16.3249    1.0000 </r>
       <r>  -16.3247    1.0000 </r>
       <r>  -16.3247    1.0000 </r>
       <r>  -16.3239    1.0000 </r>
       <r>  -16.3237    1.0000 </r>
       <r>  -16.3196    1.0000 </r>
       <r>  -16.3196    1.0000 </r>
       <r>  -16.3193    1.0000 </r>
       <r>  -16.3193    1.0000 </r>
       <r>  -16.3191    1.0000 </r>
       <r>  -16.3191    1.0000 </r>
       <r>  -16.3189    1.0000 </r>
       <r>  -16.3189    1.0000 </r>
       <r>  -16.3186    1.0000 </r>
       <r>  -16.3186    1.0000 </r>
       <r>  -16.3185    1.0000 </r>
       <r>  -16.3185    1.0000 </r>
       <r>  -16.3178    1.0000 </r>
       <r>  -16.3178    1.0000 </r>
       <r>  -16.3177    1.0000 </r>
       <r>  -16.3177    1.0000 </r>
       <r>  -14.3404    1.0000 </r>
       <r>  -14.1867    1.0000 </r>
       <r>  -14.1867    1.0000 </r>
       <r>  -14.1250    1.0000 </r>
       <r>  -14.1250    1.0000 </r>
       <r>  -14.1237    1.0000 </r>
       <r>  -14.1208    1.0000 </r>
       <r>  -14.1028    1.0000 </r>
       <r>  -14.0333    1.0000 </r>
       <r>  -13.9710    1.0000 </r>
       <r>  -13.9710    1.0000 </r>
       <r>  -13.9506    1.0000 </r>
       <r>  -13.9506    1.0000 </r>
       <r>  -13.9310    1.0000 </r>
       <r>  -13.9310    1.0000 </r>
       <r>  -13.9278    1.0000 </r>
       <r>  -13.9278    1.0000 </r>
       <r>  -13.8846    1.0000 </r>
       <r>  -13.8846    1.0000 </r>
       <r>  -13.7438    1.0000 </r>
       <r>  -13.7368    1.0000 </r>
       <r>  -13.7178    1.0000 </r>
       <r>  -13.7178    1.0000 </r>
       <r>  -13.7171    1.0000 </r>
       <r>   -8.1762    1.0000 </r>
       <r>   -7.7705    1.0000 </r>
       <r>   -7.7705    1.0000 </r>
       <r>   -7.5071    1.0000 </r>
       <r>   -7.3582    1.0000 </r>
       <r>   -7.2845    1.0000 </r>
       <r>   -7.2845    1.0000 </r>
       <r>   -7.2569    1.0000 </r>
       <r>   -7.2569    1.0000 </r>
       <r>   -7.2384    1.0000 </r>
       <r>   -7.2384    1.0000 </r>
       <r>   -7.2362    1.0000 </r>
       <r>   -7.2362    1.0000 </r>
       <r>   -7.2290    1.0000 </r>
       <r>   -7.2252    1.0000 </r>
       <r>   -7.2252    1.0000 </r>
       <r>   -7.2230    1.0000 </r>
       <r>   -7.2230    1.0000 </r>
       <r>   -7.2145    1.0000 </r>
       <r>   -7.2145    1.0000 </r>
       <r>   -7.2139    1.0000 </r>
       <r>   -7.2139    1.0000 </r>
       <r>   -7.2046    1.0000 </r>
       <r>   -7.1944    1.0000 </r>
       <r>   -7.1944    1.0000 </r>
       <r>   -7.1923    1.0000 </r>
       <r>   -7.1737    1.0000 </r>
       <r>   -7.1737    1.0000 </r>
       <r>   -7.1123    1.0000 </r>
       <r>   -7.0525    1.0000 </r>
       <r>   -7.0525    1.0000 </r>
       <r>   -6.5371    1.0000 </r>
       <r>   -3.4794    1.0000 </r>
       <r>   -3.4290    1.0000 </r>
       <r>   -3.4290    1.0000 </r>
       <r>   -3.3222    1.0000 </r>
       <r>   -3.1506    1.0000 </r>
       <r>   -3.1506    1.0000 </r>
       <r>   -3.0814    1.0000 </r>
       <r>   -3.0814    1.0000 </r>
       <r>   -3.0691    1.0000 </r>
       <r>   -3.0691    1.0000 </r>
       <r>   -2.8763    1.0000 </r>
       <r>   -2.8763    1.0000 </r>
       <r>   -2.1438    1.0000 </r>
       <r>   -2.1438    1.0000 </r>
       <r>   -2.1081    1.0000 </r>
       <r>   -1.9979    1.0000 </r>
       <r>   -1.9979    1.0000 </r>
       <r>   -1.9073    1.0000 </r>
       <r>   -1.9073    1.0000 </r>
       <r>   -1.8638    1.0000 </r>
       <r>   -1.8638    1.0000 </r>
       <r>   -1.8455    1.0000 </r>
       <r>   -1.8420    1.0000 </r>
       <r>   -1.6733    1.0000 </r>
       <r>   -1.6733    1.0000 </r>
       <r>   -1.5640    1.0000 </r>
       <r>   -1.5640    1.0000 </r>
       <r>   -1.5605    1.0000 </r>
       <r>   -1.5605    1.0000 </r>
       <r>   -1.4818    1.0000 </r>
       <r>   -1.4818    1.0000 </r>
       <r>   -1.4805    1.0000 </r>
       <r>   -1.4805    1.0000 </r>
       <r>   -1.4310    1.0000 </r>
       <r>   -1.4267    1.0000 </r>
       <r>   -1.4140    1.0000 </r>
       <r>   -1.3929    1.0000 </r>
       <r>   -1.3929    1.0000 </r>
       <r>   -1.3752    1.0000 </r>
       <r>   -1.3752    1.0000 </r>
       <r>   -1.3734    1.0000 </r>
       <r>   -1.3673    1.0000 </r>
       <r>   -1.3673    1.0000 </r>
       <r>   -1.3483    1.0000 </r>
       <r>   -1.3483    1.0000 </r>
       <r>   -1.3070    1.0000 </r>
       <r>   -1.3070    1.0000 </r>
       <r>   -1.2859    1.0000 </r>
       <r>   -1.2859    1.0000 </r>
       <r>   -1.2839    1.0000 </r>
       <r>   -1.1745    1.0000 </r>
       <r>   -1.1745    1.0000 </r>
       <r>   -1.1354    1.0000 </r>
       <r>   -1.1068    1.0000 </r>
       <r>   -1.1068    1.0000 </r>
       <r>   -1.0877    1.0000 </r>
       <r>   -1.0877    1.0000 </r>
       <r>   -1.0719    1.0000 </r>
       <r>   -1.0719    1.0000 </r>
       <r>   -1.0577    1.0000 </r>
       <r>   -1.0404    1.0000 </r>
       <r>   -0.9322    1.0000 </r>
       <r>   -0.9322    1.0000 </r>
       <r>   -0.9067    1.0000 </r>
       <r>   -0.9067    1.0000 </r>
       <r>   -0.8628    1.0000 </r>
       <r>   -0.8628    1.0000 </r>
       <r>   -0.4523    1.0000 </r>
       <r>   -0.2405    1.0000 </r>
       <r>   -0.0795    1.0000 </r>
       <r>   -0.0795    1.0000 </r>
       <r>    0.4734    1.0000 </r>
       <r>    2.7716    0.0000 </r>
       <r>    2.8475    0.0000 </r>
       <r>    2.8475    0.0000 </r>
       <r>    3.0470    0.0000 </r>
       <r>    3.0470    0.0000 </r>
       <r>    3.1340    0.0000 </r>
       <r>    3.1340    0.0000 </r>
       <r>    3.1981    0.0000 </r>
       <r>    3.1981    0.0000 </r>
       <r>    3.5004    0.0000 </r>
       <r>    3.5621    0.0000 </r>
       <r>    3.5621    0.0000 </r>
       <r>    4.7111    0.0000 </r>
       <r>    5.3536    0.0000 </r>
       <r>    5.3536    0.0000 </r>
       <r>    5.6044    0.0000 </r>
       <r>    5.8030    0.0000 </r>
       <r>    5.8145    0.0000 </r>
       <r>    5.8145    0.0000 </r>
       <r>    5.8158    0.0000 </r>
       <r>    5.8158    0.0000 </r>
       <r>    6.0819    0.0000 </r>
       <r>    6.0819    0.0000 </r>
       <r>    6.1414    0.0000 </r>
       <r>    6.2128    0.0000 </r>
       <r>    6.2691    0.0000 </r>
       <r>    6.2691    0.0000 </r>
       <r>    6.4703    0.0000 </r>
       <r>    6.4709    0.0000 </r>
       <r>    6.5305    0.0000 </r>
       <r>    6.5305    0.0000 </r>
       <r>    6.5498    0.0000 </r>
       <r>    6.5826    0.0000 </r>
       <r>    6.5827    0.0000 </r>
       <r>    6.6711    0.0000 </r>
       <r>    6.7181    0.0000 </r>
       <r>    6.7327    0.0000 </r>
       <r>    6.7403    0.0000 </r>
       <r>    6.7808    0.0000 </r>
       <r>    6.8079    0.0000 </r>
      </set>
      <set comment="kpoint 2">
       <r>  -20.8316    1.0000 </r>
       <r>  -20.8316    1.0000 </r>
       <r>  -20.8303    1.0000 </r>
       <r>  -20.8303    1.0000 </r>
       <r>  -20.8287    1.0000 </r>
       <r>  -20.8287    1.0000 </r>
       <r>  -20.8279    1.0000 </r>
       <r>  -20.8279    1.0000 </r>
       <r>  -16.5064    1.0000 </r>
       <r>  -16.5064    1.0000 </r>
       <r>  -16.4964    1.0000 </r>
       <r>  -16.4964    1.0000 </r>
       <r>  -16.4432    1.0000 </r>
       <r>  -16.4432    1.0000 </r>
       <r>  -16.4370    1.0000 </r>
       <r>  -16.4370    1.0000 </r>
       <r>  -16.4176    1.0000 </r>
       <r>  -16.4176    1.0000 </r>
       <r>  -16.4176    1.0000 </r>
       <r>  -16.4176    1.0000 </r>
       <r>  -16.4008    1.0000 </r>
       <r>  -16.4008    1.0000 </r>
       <r>  -16.3945    1.0000 </r>
       <r>  -16.3945    1.0000 </r>
       <r>  -16.3251    1.0000 </r>
       <r>  -16.3251    1.0000 </r>
       <r>  -16.3250    1.0000 </r>
       <r>  -16.3250    1.0000 </r>
       <r>  -16.3244    1.0000 </r>
       <r>  -16.3244    1.0000 </r>
       <r>  -16.3241    1.0000 </r>
       <r>  -16.3241    1.0000 </r>
       <r>  -16.3197    1.0000 </r>
       <r>  -16.3197    1.0000 </r>
       <r>  -16.3193    1.0000 </r>
       <r>  -16.3193    1.0000 </r>
       <r>  -16.3192    1.0000 </r>
       <r>  -16.3192    1.0000 </r>
       <r>  -16.3188    1.0000 </r>
       <r>  -16.3188    1.0000 </r>
       <r>  -16.3184    1.0000 </r>
       <r>  -16.3184    1.0000 </r>
       <r>  -16.3182    1.0000 </r>
       <r>  -16.3182    1.0000 </r>
       <r>  -16.3180    1.0000 </r>
       <r>  -16.3180    1.0000 </r>
       <r>  -16.3179    1.0000 </r>
       <r>  -16.3179    1.0000 </r>
       <r>  -14.2839    1.0000 </r>
       <r>  -14.2839    1.0000 </r>
       <r>  -14.1369    1.0000 </r>
       <r>  -14.1369    1.0000 </r>
       <r>  -14.1243    1.0000 </r>
       <r>  -14.1243    1.0000 </r>
       <r>  -14.1229    1.0000 </r>
       <r>  -14.1229    1.0000 </r>
       <r>  -14.0571    1.0000 </r>
       <r>  -14.0571    1.0000 </r>
       <r>  -13.9465    1.0000 </r>
       <r>  -13.9465    1.0000 </r>
       <r>  -13.9437    1.0000 </r>
       <r>  -13.9437    1.0000 </r>
       <r>  -13.9059    1.0000 </r>
       <r>  -13.9059    1.0000 </r>
       <r>  -13.8283    1.0000 </r>
       <r>  -13.8283    1.0000 </r>
       <r>  -13.7970    1.0000 </r>
       <r>  -13.7970    1.0000 </r>
       <r>  -13.7772    1.0000 </r>
       <r>  -13.7772    1.0000 </r>
       <r>  -13.7285    1.0000 </r>
       <r>  -13.7285    1.0000 </r>
       <r>   -7.9861    1.0000 </r>
       <r>   -7.9861    1.0000 </r>
       <r>   -7.5787    1.0000 </r>
       <r>   -7.5787    1.0000 </r>
       <r>   -7.3022    1.0000 </r>
       <r>   -7.3022    1.0000 </r>
       <r>   -7.2708    1.0000 </r>
       <r>   -7.2708    1.0000 </r>
       <r>   -7.2553    1.0000 </r>
       <r>   -7.2553    1.0000 </r>
       <r>   -7.2466    1.0000 </r>
       <r>   -7.2466    1.0000 </r>
       <r>   -7.2306    1.0000 </r>
       <r>   -7.2306    1.0000 </r>
       <r>   -7.2252    1.0000 </r>
       <r>   -7.2252    1.0000 </r>
       <r>   -7.2218    1.0000 </r>
       <r>   -7.2218    1.0000 </r>
       <r>   -7.2189    1.0000 </r>
       <r>   -7.2189    1.0000 </r>
       <r>   -7.2127    1.0000 </r>
       <r>   -7.2127    1.0000 </r>
       <r>   -7.2111    1.0000 </r>
       <r>   -7.2111    1.0000 </r>
       <r>   -7.2094    1.0000 </r>
       <r>   -7.2094    1.0000 </r>
       <r>   -7.1826    1.0000 </r>
       <r>   -7.1826    1.0000 </r>
       <r>   -7.1517    1.0000 </r>
       <r>   -7.1517    1.0000 </r>
       <r>   -6.8261    1.0000 </r>
       <r>   -6.8261    1.0000 </r>
       <r>   -3.4546    1.0000 </r>
       <r>   -3.4546    1.0000 </r>
       <r>   -3.3776    1.0000 </r>
       <r>   -3.3776    1.0000 </r>
       <r>   -3.1007    1.0000 </r>
       <r>   -3.1007    1.0000 </r>
       <r>   -3.0076    1.0000 </r>
       <r>   -3.0076    1.0000 </r>
       <r>   -2.4844    1.0000 </r>
       <r>   -2.4844    1.0000 </r>
       <r>   -2.4817    1.0000 </r>
       <r>   -2.4817    1.0000 </r>
       <r>   -2.3686    1.0000 </r>
       <r>   -2.3686    1.0000 </r>
       <r>   -2.2548    1.0000 </r>
       <r>   -2.2548    1.0000 </r>
       <r>   -2.0307    1.0000 </r>
       <r>   -2.0307    1.0000 </r>
       <r>   -2.0167    1.0000 </r>
       <r>   -2.0167    1.0000 </r>
       <r>   -1.9607    1.0000 </r>
       <r>   -1.9607    1.0000 </r>
       <r>   -1.8110    1.0000 </r>
       <r>   -1.8110    1.0000 </r>
       <r>   -1.7244    1.0000 </r>
       <r>   -1.7244    1.0000 </r>
       <r>   -1.6426    1.0000 </r>
       <r>   -1.6426    1.0000 </r>
       <r>   -1.5608    1.0000 </r>
       <r>   -1.5608    1.0000 </r>
       <r>   -1.5476    1.0000 </r>
       <r>   -1.5476    1.0000 </r>
       <r>   -1.5198    1.0000 </r>
       <r>   -1.5198    1.0000 </r>
       <r>   -1.4481    1.0000 </r>
       <r>   -1.4481    1.0000 </r>
       <r>   -1.3774    1.0000 </r>
       <r>   -1.3774    1.0000 </r>
       <r>   -1.3685    1.0000 </r>
       <r>   -1.3685    1.0000 </r>
       <r>   -1.3446    1.0000 </r>
       <r>   -1.3446    1.0000 </r>
       <r>   -1.3436    1.0000 </r>
       <r>   -1.3436    1.0000 </r>
       <r>   -1.2956    1.0000 </r>
       <r>   -1.2956    1.0000 </r>
       <r>   -1.2821    1.0000 </r>
       <r>   -1.2821    1.0000 </r>
       <r>   -1.2578    1.0000 </r>
       <r>   -1.2578    1.0000 </r>
       <r>   -1.1994    1.0000 </r>
       <r>   -1.1994    1.0000 </r>
       <r>   -1.1348    1.0000 </r>
       <r>   -1.1348    1.0000 </r>
       <r>   -1.0928    1.0000 </r>
       <r>   -1.0928    1.0000 </r>
       <r>   -1.0782    1.0000 </r>
       <r>   -1.0782    1.0000 </r>
       <r>   -1.0685    1.0000 </r>
       <r>   -1.0685    1.0000 </r>
       <r>   -1.0590    1.0000 </r>
       <r>   -1.0590    1.0000 </r>
       <r>   -0.9180    1.0000 </r>
       <r>   -0.9180    1.0000 </r>
       <r>   -0.9126    1.0000 </r>
       <r>   -0.9126    1.0000 </r>
       <r>   -0.6639    1.0000 </r>
       <r>   -0.6639    1.0000 </r>
       <r>   -0.3299    1.0000 </r>
       <r>   -0.3299    1.0000 </r>
       <r>    0.0846    1.0000 </r>
       <r>    0.0846    1.0000 </r>
       <r>    2.9547    0.0000 </r>
       <r>    2.9547    0.0000 </r>
       <r>    2.9653    0.0000 </r>
       <r>    2.9653    0.0000 </r>
       <r>    3.2945    0.0000 </r>
       <r>    3.2945    0.0000 </r>
       <r>    3.3142    0.0000 </r>
       <r>    3.3142    0.0000 </r>
       <r>    4.1406    0.0000 </r>
       <r>    4.1406    0.0000 </r>
       <r>    4.4502    0.0000 </r>
       <r>    4.4502    0.0000 </r>
       <r>    4.4939    0.0000 </r>
       <r>    4.4939    0.0000 </r>
       <r>    4.7013    0.0000 </r>
       <r>    4.7013    0.0000 </r>
       <r>    5.4082    0.0000 </r>
       <r>    5.4082    0.0000 </r>
       <r>    5.6132    0.0000 </r>
       <r>    5.6132    0.0000 </r>
       <r>    5.8838    0.0000 </r>
       <r>    5.8838    0.0000 </r>
       <r>    5.9923    0.0000 </r>
       <r>    5.9923    0.0000 </r>
       <r>    6.2529    0.0000 </r>
       <r>    6.2529    0.0000 </r>
       <r>    6.3327    0.0000 </r>
       <r>    6.3329    0.0000 </r>
       <r>    6.4410    0.0000 </r>
       <r>    6.4410    0.0000 </r>
       <r>    6.4983    0.0000 </r>
       <r>    6.4986    0.0000 </r>
       <r>    6.6297    0.0000 </r>
       <r>    6.6310    0.0000 </r>
       <r>    6.6494    0.0000 </r>
       <r>    6.6507    0.0000 </r>
       <r>    6.7943    0.0000 </r>
       <r>    6.8068    0.0000 </r>
       <r>    6.8184    0.0000 </r>
       <r>    6.8310    0.0000 </r>
      </set>
      <set comment="kpoint 3">
       <r>  -20.8309    1.0000 </r>
       <r>  -20.8309    1.0000 </r>
       <r>  -20.8309    1.0000 </r>
       <r>  -20.8309    1.0000 </r>
       <r>  -20.8284    1.0000 </r>
       <r>  -20.8284    1.0000 </r>
       <r>  -20.8284    1.0000 </r>
       <r>  -20.8284    1.0000 </r>
       <r>  -16.5005    1.0000 </r>
       <r>  -16.5005    1.0000 </r>
       <r>  -16.5005    1.0000 </r>
       <r>  -16.5005    1.0000 </r>
       <r>  -16.4201    1.0000 </r>
       <r>  -16.4201    1.0000 </r>
       <r>  -16.4201    1.0000 </r>
       <r>  -16.4201    1.0000 </r>
       <r>  -16.4200    1.0000 </r>
       <r>  -16.4200    1.0000 </r>
       <r>  -16.4200    1.0000 </r>
       <r>  -16.4200    1.0000 </r>
       <r>  -16.4167    1.0000 </r>
       <r>  -16.4167    1.0000 </r>
       <r>  -16.4167    1.0000 </r>
       <r>  -16.4167    1.0000 </r>
       <r>  -16.3247    1.0000 </r>
       <r>  -16.3247    1.0000 </r>
       <r>  -16.3247    1.0000 </r>
       <r>  -16.3247    1.0000 </r>
       <r>  -16.3247    1.0000 </r>
       <r>  -16.3247    1.0000 </r>
       <r>  -16.3247    1.0000 </r>
       <r>  -16.3247    1.0000 </r>
       <r>  -16.3193    1.0000 </r>
       <r>  -16.3193    1.0000 </r>
       <r>  -16.3193    1.0000 </r>
       <r>  -16.3193    1.0000 </r>
       <r>  -16.3192    1.0000 </r>
       <r>  -16.3192    1.0000 </r>
       <r>  -16.3192    1.0000 </r>
       <r>  -16.3192    1.0000 </r>
       <r>  -16.3181    1.0000 </r>
       <r>  -16.3181    1.0000 </r>
       <r>  -16.3181    1.0000 </r>
       <r>  -16.3181    1.0000 </r>
       <r>  -16.3180    1.0000 </r>
       <r>  -16.3180    1.0000 </r>
       <r>  -16.3180    1.0000 </r>
       <r>  -16.3180    1.0000 </r>
       <r>  -14.2308    1.0000 </r>
       <r>  -14.2308    1.0000 </r>
       <r>  -14.2308    1.0000 </r>
       <r>  -14.2308    1.0000 </r>
       <r>  -14.1236    1.0000 </r>
       <r>  -14.1236    1.0000 </r>
       <r>  -14.1236    1.0000 </r>
       <r>  -14.1236    1.0000 </r>
       <r>  -14.0209    1.0000 </r>
       <r>  -14.0209    1.0000 </r>
       <r>  -14.0209    1.0000 </r>
       <r>  -14.0209    1.0000 </r>
       <r>  -13.8314    1.0000 </r>
       <r>  -13.8314    1.0000 </r>
       <r>  -13.8314    1.0000 </r>
       <r>  -13.8314    1.0000 </r>
       <r>  -13.8253    1.0000 </r>
       <r>  -13.8253    1.0000 </r>
       <r>  -13.8253    1.0000 </r>
       <r>  -13.8253    1.0000 </r>
       <r>  -13.7931    1.0000 </r>
       <r>  -13.7931    1.0000 </r>
       <r>  -13.7931    1.0000 </r>
       <r>  -13.7931    1.0000 </r>
       <r>   -7.7960    1.0000 </r>
       <r>   -7.7960    1.0000 </r>
       <r>   -7.7960    1.0000 </r>
       <r>   -7.7960    1.0000 </r>
       <r>   -7.2605    1.0000 </r>
       <r>   -7.2605    1.0000 </r>
       <r>   -7.2605    1.0000 </r>
       <r>   -7.2605    1.0000 </r>
       <r>   -7.2413    1.0000 </r>
       <r>   -7.2413    1.0000 </r>
       <r>   -7.2413    1.0000 </r>
       <r>   -7.2413    1.0000 </r>
       <r>   -7.2226    1.0000 </r>
       <r>   -7.2226    1.0000 </r>
       <r>   -7.2226    1.0000 </r>
       <r>   -7.2226    1.0000 </r>
       <r>   -7.2156    1.0000 </r>
       <r>   -7.2156    1.0000 </r>
       <r>   -7.2156    1.0000 </r>
       <r>   -7.2156    1.0000 </r>
       <r>   -7.2122    1.0000 </r>
       <r>   -7.2122    1.0000 </r>
       <r>   -7.2122    1.0000 </r>
       <r>   -7.2122    1.0000 </r>
       <r>   -7.1695    1.0000 </r>
       <r>   -7.1695    1.0000 </r>
       <r>   -7.1695    1.0000 </r>
       <r>   -7.1695    1.0000 </r>
       <r>   -7.0888    1.0000 </r>
       <r>   -7.0888    1.0000 </r>
       <r>   -7.0888    1.0000 </r>
       <r>   -7.0888    1.0000 </r>
       <r>   -3.4172    1.0000 </r>
       <r>   -3.4172    1.0000 </r>
       <r>   -3.4172    1.0000 </r>
       <r>   -3.4172    1.0000 </r>
       <r>   -2.6137    1.0000 </r>
       <r>   -2.6137    1.0000 </r>
       <r>   -2.6137    1.0000 </r>
       <r>   -2.6137    1.0000 </r>
       <r>   -2.5010    1.0000 </r>
       <r>   -2.5010    1.0000 </r>
       <r>   -2.5010    1.0000 </r>
       <r>   -2.5010    1.0000 </r>
       <r>   -2.2772    1.0000 </r>
       <r>   -2.2772    1.0000 </r>
       <r>   -2.2772    1.0000 </r>
       <r>   -2.2772    1.0000 </r>
       <r>   -2.1725    1.0000 </r>
       <r>   -2.1725    1.0000 </r>
       <r>   -2.1725    1.0000 </r>
       <r>   -2.1725    1.0000 </r>
       <r>   -2.0043    1.0000 </r>
       <r>   -2.0043    1.0000 </r>
       <r>   -2.0043    1.0000 </r>
       <r>   -2.0043    1.0000 </r>
       <r>   -1.7786    1.0000 </r>
       <r>   -1.7786    1.0000 </r>
       <r>   -1.7786    1.0000 </r>
       <r>   -1.7786    1.0000 </r>
       <r>   -1.5847    1.0000 </r>
       <r>   -1.5847    1.0000 </r>
       <r>   -1.5847    1.0000 </r>
       <r>   -1.5847    1.0000 </r>
       <r>   -1.4488    1.0000 </r>
       <r>   -1.4488    1.0000 </r>
       <r>   -1.4488    1.0000 </r>
       <r>   -1.4488    1.0000 </r>
       <r>   -1.3996    1.0000 </r>
       <r>   -1.3996    1.0000 </r>
       <r>   -1.3996    1.0000 </r>
       <r>   -1.3996    1.0000 </r>
       <r>   -1.3341    1.0000 </r>
       <r>   -1.3341    1.0000 </r>
       <r>   -1.3341    1.0000 </r>
       <r>   -1.3341    1.0000 </r>
       <r>   -1.2664    1.0000 </r>
       <r>   -1.2664    1.0000 </r>
       <r>   -1.2664    1.0000 </r>
       <r>   -1.2664    1.0000 </r>
       <r>   -1.2212    1.0000 </r>
       <r>   -1.2212    1.0000 </r>
       <r>   -1.2212    1.0000 </r>
       <r>   -1.2212    1.0000 </r>
       <r>   -1.1843    1.0000 </r>
       <r>   -1.1843    1.0000 </r>
       <r>   -1.1843    1.0000 </r>
       <r>   -1.1843    1.0000 </r>
       <r>   -1.0795    1.0000 </r>
       <r>   -1.0795    1.0000 </r>
       <r>   -1.0795    1.0000 </r>
       <r>   -1.0795    1.0000 </r>
       <r>   -1.0314    1.0000 </r>
       <r>   -1.0314    1.0000 </r>
       <r>   -1.0314    1.0000 </r>
       <r>   -1.0314    1.0000 </r>
       <r>   -0.8712    1.0000 </r>
       <r>   -0.8712    1.0000 </r>
       <r>   -0.8712    1.0000 </r>
       <r>   -0.8712    1.0000 </r>
       <r>   -0.2086    1.0000 </r>
       <r>   -0.2086    1.0000 </r>
       <r>   -0.2086    1.0000 </r>
       <r>   -0.2086    1.0000 </r>
       <r>    3.1336    0.0000 </r>
       <r>    3.1336    0.0000 </r>
       <r>    3.1336    0.0000 </r>
       <r>    3.1336    0.0000 </r>
       <r>    4.1585    0.0000 </r>
       <r>    4.1585    0.0000 </r>
       <r>    4.1585    0.0000 </r>
       <r>    4.1585    0.0000 </r>
       <r>    4.2592    0.0000 </r>
       <r>    4.2592    0.0000 </r>
       <r>    4.2592    0.0000 </r>
       <r>    4.2592    0.0000 </r>
       <r>    4.6167    0.0000 </r>
       <r>    4.6167    0.0000 </r>
       <r>    4.6167    0.0000 </r>
       <r>    4.6167    0.0000 </r>
       <r>    4.6625    0.0000 </r>
       <r>    4.6625    0.0000 </r>
       <r>    4.6625    0.0000 </r>
       <r>    4.6625    0.0000 </r>
       <r>    5.8592    0.0000 </r>
       <r>    5.8592    0.0000 </r>
       <r>    5.8592    0.0000 </r>
       <r>    5.8592    0.0000 </r>
       <r>    6.3744    0.0000 </r>
       <r>    6.3744    0.0000 </r>
       <r>    6.3744    0.0000 </r>
       <r>    6.3744    0.0000 </r>
       <r>    6.3940    0.0000 </r>
       <r>    6.3940    0.0000 </r>
       <r>    6.3940    0.0000 </r>
       <r>    6.3941    0.0000 </r>
       <r>    6.4162    0.0000 </r>
       <r>    6.4168    0.0000 </r>
       <r>    6.4178    0.0000 </r>
       <r>    6.4189    0.0000 </r>
       <r>    6.7137    0.0000 </r>
       <r>    6.7174    0.0000 </r>
       <r>    6.7431    0.0000 </r>
       <r>    6.7627    0.0000 </r>
      </set>
      <set comment="kpoint 4">
       <r>  -20.8308    1.0000 </r>
       <r>  -20.8308    1.0000 </r>
       <r>  -20.8295    1.0000 </r>
       <r>  -20.8295    1.0000 </r>
       <r>  -20.8295    1.0000 </r>
       <r>  -20.8295    1.0000 </r>
       <r>  -20.8287    1.0000 </r>
       <r>  -20.8287    1.0000 </r>
       <r>  -16.4705    1.0000 </r>
       <r>  -16.4705    1.0000 </r>
       <r>  -16.4671    1.0000 </r>
       <r>  -16.4671    1.0000 </r>
       <r>  -16.4671    1.0000 </r>
       <r>  -16.4671    1.0000 </r>
       <r>  -16.4554    1.0000 </r>
       <r>  -16.4554    1.0000 </r>
       <r>  -16.4488    1.0000 </r>
       <r>  -16.4488    1.0000 </r>
       <r>  -16.4121    1.0000 </r>
       <r>  -16.4121    1.0000 </r>
       <r>  -16.4121    1.0000 </r>
       <r>  -16.4121    1.0000 </r>
       <r>  -16.3828    1.0000 </r>
       <r>  -16.3828    1.0000 </r>
       <r>  -16.3256    1.0000 </r>
       <r>  -16.3256    1.0000 </r>
       <r>  -16.3246    1.0000 </r>
       <r>  -16.3246    1.0000 </r>
       <r>  -16.3246    1.0000 </r>
       <r>  -16.3246    1.0000 </r>
       <r>  -16.3240    1.0000 </r>
       <r>  -16.3240    1.0000 </r>
       <r>  -16.3191    1.0000 </r>
       <r>  -16.3191    1.0000 </r>
       <r>  -16.3191    1.0000 </r>
       <r>  -16.3191    1.0000 </r>
       <r>  -16.3190    1.0000 </r>
       <r>  -16.3190    1.0000 </r>
       <r>  -16.3190    1.0000 </r>
       <r>  -16.3190    1.0000 </r>
       <r>  -16.3184    1.0000 </r>
       <r>  -16.3184    1.0000 </r>
       <r>  -16.3184    1.0000 </r>
       <r>  -16.3184    1.0000 </r>
       <r>  -16.3181    1.0000 </r>
       <r>  -16.3181    1.0000 </r>
       <r>  -16.3181    1.0000 </r>
       <r>  -16.3181    1.0000 </r>
       <r>  -14.2884    1.0000 </r>
       <r>  -14.2884    1.0000 </r>
       <r>  -14.1634    1.0000 </r>
       <r>  -14.1634    1.0000 </r>
       <r>  -14.1634    1.0000 </r>
       <r>  -14.1634    1.0000 </r>
       <r>  -14.0758    1.0000 </r>
       <r>  -14.0758    1.0000 </r>
       <r>  -13.9608    1.0000 </r>
       <r>  -13.9608    1.0000 </r>
       <r>  -13.9608    1.0000 </r>
       <r>  -13.9608    1.0000 </r>
       <r>  -13.9295    1.0000 </r>
       <r>  -13.9295    1.0000 </r>
       <r>  -13.9295    1.0000 </r>
       <r>  -13.9295    1.0000 </r>
       <r>  -13.8661    1.0000 </r>
       <r>  -13.8661    1.0000 </r>
       <r>  -13.7922    1.0000 </r>
       <r>  -13.7922    1.0000 </r>
       <r>  -13.7922    1.0000 </r>
       <r>  -13.7922    1.0000 </r>
       <r>  -13.7270    1.0000 </r>
       <r>  -13.7270    1.0000 </r>
       <r>   -7.8814    1.0000 </r>
       <r>   -7.8814    1.0000 </r>
       <r>   -7.4693    1.0000 </r>
       <r>   -7.4693    1.0000 </r>
       <r>   -7.4693    1.0000 </r>
       <r>   -7.4693    1.0000 </r>
       <r>   -7.2706    1.0000 </r>
       <r>   -7.2706    1.0000 </r>
       <r>   -7.2706    1.0000 </r>
       <r>   -7.2706    1.0000 </r>
       <r>   -7.2444    1.0000 </r>
       <r>   -7.2444    1.0000 </r>
       <r>   -7.2444    1.0000 </r>
       <r>   -7.2444    1.0000 </r>
       <r>   -7.2205    1.0000 </r>
       <r>   -7.2205    1.0000 </r>
       <r>   -7.2205    1.0000 </r>
       <r>   -7.2205    1.0000 </r>
       <r>   -7.2029    1.0000 </r>
       <r>   -7.2029    1.0000 </r>
       <r>   -7.1984    1.0000 </r>
       <r>   -7.1984    1.0000 </r>
       <r>   -7.1940    1.0000 </r>
       <r>   -7.1940    1.0000 </r>
       <r>   -7.1940    1.0000 </r>
       <r>   -7.1940    1.0000 </r>
       <r>   -7.1931    1.0000 </r>
       <r>   -7.1931    1.0000 </r>
       <r>   -7.1931    1.0000 </r>
       <r>   -7.1931    1.0000 </r>
       <r>   -6.9839    1.0000 </r>
       <r>   -6.9839    1.0000 </r>
       <r>   -3.1154    1.0000 </r>
       <r>   -3.1154    1.0000 </r>
       <r>   -3.1154    1.0000 </r>
       <r>   -3.1154    1.0000 </r>
       <r>   -2.9804    1.0000 </r>
       <r>   -2.9804    1.0000 </r>
       <r>   -2.9804    1.0000 </r>
       <r>   -2.9804    1.0000 </r>
       <r>   -2.4555    1.0000 </r>
       <r>   -2.4555    1.0000 </r>
       <r>   -2.4555    1.0000 </r>
       <r>   -2.4555    1.0000 </r>
       <r>   -2.4531    1.0000 </r>
       <r>   -2.4531    1.0000 </r>
       <r>   -2.3693    1.0000 </r>
       <r>   -2.3693    1.0000 </r>
       <r>   -2.0975    1.0000 </r>
       <r>   -2.0975    1.0000 </r>
       <r>   -2.0975    1.0000 </r>
       <r>   -2.0975    1.0000 </r>
       <r>   -1.9993    1.0000 </r>
       <r>   -1.9993    1.0000 </r>
       <r>   -1.8346    1.0000 </r>
       <r>   -1.8346    1.0000 </r>
       <r>   -1.8346    1.0000 </r>
       <r>   -1.8346    1.0000 </r>
       <r>   -1.6597    1.0000 </r>
       <r>   -1.6597    1.0000 </r>
       <r>   -1.6597    1.0000 </r>
       <r>   -1.6597    1.0000 </r>
       <r>   -1.4823    1.0000 </r>
       <r>   -1.4823    1.0000 </r>
       <r>   -1.4823    1.0000 </r>
       <r>   -1.4823    1.0000 </r>
       <r>   -1.4289    1.0000 </r>
       <r>   -1.4289    1.0000 </r>
       <r>   -1.4278    1.0000 </r>
       <r>   -1.4278    1.0000 </r>
       <r>   -1.4278    1.0000 </r>
       <r>   -1.4278    1.0000 </r>
       <r>   -1.3369    1.0000 </r>
       <r>   -1.3369    1.0000 </r>
       <r>   -1.3369    1.0000 </r>
       <r>   -1.3369    1.0000 </r>
       <r>   -1.3042    1.0000 </r>
       <r>   -1.3042    1.0000 </r>
       <r>   -1.2930    1.0000 </r>
       <r>   -1.2930    1.0000 </r>
       <r>   -1.1625    1.0000 </r>
       <r>   -1.1625    1.0000 </r>
       <r>   -1.1625    1.0000 </r>
       <r>   -1.1625    1.0000 </r>
       <r>   -1.1324    1.0000 </r>
       <r>   -1.1324    1.0000 </r>
       <r>   -1.1324    1.0000 </r>
       <r>   -1.1324    1.0000 </r>
       <r>   -1.0619    1.0000 </r>
       <r>   -1.0619    1.0000 </r>
       <r>   -1.0619    1.0000 </r>
       <r>   -1.0619    1.0000 </r>
       <r>   -1.0228    1.0000 </r>
       <r>   -1.0228    1.0000 </r>
       <r>   -1.0228    1.0000 </r>
       <r>   -1.0228    1.0000 </r>
       <r>   -0.8741    1.0000 </r>
       <r>   -0.8741    1.0000 </r>
       <r>   -0.6840    1.0000 </r>
       <r>   -0.6840    1.0000 </r>
       <r>   -0.6840    1.0000 </r>
       <r>   -0.6840    1.0000 </r>
       <r>   -0.0983    1.0000 </r>
       <r>   -0.0983    1.0000 </r>
       <r>    3.0237    0.0000 </r>
       <r>    3.0237    0.0000 </r>
       <r>    3.0237    0.0000 </r>
       <r>    3.0237    0.0000 </r>
       <r>    3.3015    0.0000 </r>
       <r>    3.3015    0.0000 </r>
       <r>    3.3015    0.0000 </r>
       <r>    3.3015    0.0000 </r>
       <r>    4.5816    0.0000 </r>
       <r>    4.5816    0.0000 </r>
       <r>    4.8994    0.0000 </r>
       <r>    4.8994    0.0000 </r>
       <r>    4.8994    0.0000 </r>
       <r>    4.8994    0.0000 </r>
       <r>    5.0289    0.0000 </r>
       <r>    5.0289    0.0000 </r>
       <r>    5.4812    0.0000 </r>
       <r>    5.4812    0.0000 </r>
       <r>    5.5434    0.0000 </r>
       <r>    5.5434    0.0000 </r>
       <r>    5.5434    0.0000 </r>
       <r>    5.5434    0.0000 </r>
       <r>    5.7457    0.0000 </r>
       <r>    5.7457    0.0000 </r>
       <r>    5.9028    0.0000 </r>
       <r>    5.9028    0.0000 </r>
       <r>    5.9028    0.0000 </r>
       <r>    5.9028    0.0000 </r>
       <r>    6.5650    0.0000 </r>
       <r>    6.5650    0.0000 </r>
       <r>    6.5650    0.0000 </r>
       <r>    6.5650    0.0000 </r>
       <r>    6.6275    0.0000 </r>
       <r>    6.6275    0.0000 </r>
       <r>    6.6278    0.0000 </r>
       <r>    6.6285    0.0000 </r>
       <r>    6.6570    0.0000 </r>
       <r>    6.6578    0.0000 </r>
       <r>    6.8606    0.0000 </r>
       <r>    6.8717    0.0000 </r>
      </set>
      <set comment="kpoint 5">
       <r>  -20.8301    1.0000 </r>
       <r>  -20.8301    1.0000 </r>
       <r>  -20.8301    1.0000 </r>
       <r>  -20.8301    1.0000 </r>
       <r>  -20.8292    1.0000 </r>
       <r>  -20.8292    1.0000 </r>
       <r>  -20.8292    1.0000 </r>
       <r>  -20.8292    1.0000 </r>
       <r>  -16.4680    1.0000 </r>
       <r>  -16.4680    1.0000 </r>
       <r>  -16.4680    1.0000 </r>
       <r>  -16.4680    1.0000 </r>
       <r>  -16.4557    1.0000 </r>
       <r>  -16.4557    1.0000 </r>
       <r>  -16.4557    1.0000 </r>
       <r>  -16.4557    1.0000 </r>
       <r>  -16.4348    1.0000 </r>
       <r>  -16.4348    1.0000 </r>
       <r>  -16.4348    1.0000 </r>
       <r>  -16.4348    1.0000 </r>
       <r>  -16.3999    1.0000 </r>
       <r>  -16.3999    1.0000 </r>
       <r>  -16.3999    1.0000 </r>
       <r>  -16.3999    1.0000 </r>
       <r>  -16.3251    1.0000 </r>
       <r>  -16.3251    1.0000 </r>
       <r>  -16.3251    1.0000 </r>
       <r>  -16.3251    1.0000 </r>
       <r>  -16.3242    1.0000 </r>
       <r>  -16.3242    1.0000 </r>
       <r>  -16.3242    1.0000 </r>
       <r>  -16.3242    1.0000 </r>
       <r>  -16.3191    1.0000 </r>
       <r>  -16.3191    1.0000 </r>
       <r>  -16.3191    1.0000 </r>
       <r>  -16.3191    1.0000 </r>
       <r>  -16.3187    1.0000 </r>
       <r>  -16.3187    1.0000 </r>
       <r>  -16.3187    1.0000 </r>
       <r>  -16.3187    1.0000 </r>
       <r>  -16.3187    1.0000 </r>
       <r>  -16.3187    1.0000 </r>
       <r>  -16.3187    1.0000 </r>
       <r>  -16.3187    1.0000 </r>
       <r>  -16.3183    1.0000 </r>
       <r>  -16.3183    1.0000 </r>
       <r>  -16.3183    1.0000 </r>
       <r>  -16.3183    1.0000 </r>
       <r>  -14.2411    1.0000 </r>
       <r>  -14.2411    1.0000 </r>
       <r>  -14.2411    1.0000 </r>
       <r>  -14.2411    1.0000 </r>
       <r>  -14.1312    1.0000 </r>
       <r>  -14.1312    1.0000 </r>
       <r>  -14.1312    1.0000 </r>
       <r>  -14.1312    1.0000 </r>
       <r>  -13.9464    1.0000 </r>
       <r>  -13.9464    1.0000 </r>
       <r>  -13.9464    1.0000 </r>
       <r>  -13.9464    1.0000 </r>
       <r>  -13.8857    1.0000 </r>
       <r>  -13.8857    1.0000 </r>
       <r>  -13.8857    1.0000 </r>
       <r>  -13.8857    1.0000 </r>
       <r>  -13.8488    1.0000 </r>
       <r>  -13.8488    1.0000 </r>
       <r>  -13.8488    1.0000 </r>
       <r>  -13.8488    1.0000 </r>
       <r>  -13.7705    1.0000 </r>
       <r>  -13.7705    1.0000 </r>
       <r>  -13.7705    1.0000 </r>
       <r>  -13.7705    1.0000 </r>
       <r>   -7.6889    1.0000 </r>
       <r>   -7.6889    1.0000 </r>
       <r>   -7.6889    1.0000 </r>
       <r>   -7.6889    1.0000 </r>
       <r>   -7.2982    1.0000 </r>
       <r>   -7.2982    1.0000 </r>
       <r>   -7.2982    1.0000 </r>
       <r>   -7.2982    1.0000 </r>
       <r>   -7.2580    1.0000 </r>
       <r>   -7.2580    1.0000 </r>
       <r>   -7.2580    1.0000 </r>
       <r>   -7.2580    1.0000 </r>
       <r>   -7.2377    1.0000 </r>
       <r>   -7.2377    1.0000 </r>
       <r>   -7.2377    1.0000 </r>
       <r>   -7.2377    1.0000 </r>
       <r>   -7.2120    1.0000 </r>
       <r>   -7.2120    1.0000 </r>
       <r>   -7.2120    1.0000 </r>
       <r>   -7.2120    1.0000 </r>
       <r>   -7.2099    1.0000 </r>
       <r>   -7.2099    1.0000 </r>
       <r>   -7.2099    1.0000 </r>
       <r>   -7.2099    1.0000 </r>
       <r>   -7.1946    1.0000 </r>
       <r>   -7.1946    1.0000 </r>
       <r>   -7.1946    1.0000 </r>
       <r>   -7.1946    1.0000 </r>
       <r>   -7.1658    1.0000 </r>
       <r>   -7.1658    1.0000 </r>
       <r>   -7.1658    1.0000 </r>
       <r>   -7.1658    1.0000 </r>
       <r>   -3.0511    1.0000 </r>
       <r>   -3.0511    1.0000 </r>
       <r>   -3.0511    1.0000 </r>
       <r>   -3.0511    1.0000 </r>
       <r>   -2.6271    1.0000 </r>
       <r>   -2.6271    1.0000 </r>
       <r>   -2.6271    1.0000 </r>
       <r>   -2.6271    1.0000 </r>
       <r>   -2.4995    1.0000 </r>
       <r>   -2.4995    1.0000 </r>
       <r>   -2.4995    1.0000 </r>
       <r>   -2.4995    1.0000 </r>
       <r>   -2.3233    1.0000 </r>
       <r>   -2.3233    1.0000 </r>
       <r>   -2.3233    1.0000 </r>
       <r>   -2.3233    1.0000 </r>
       <r>   -2.2557    1.0000 </r>
       <r>   -2.2557    1.0000 </r>
       <r>   -2.2557    1.0000 </r>
       <r>   -2.2557    1.0000 </r>
       <r>   -2.0110    1.0000 </r>
       <r>   -2.0110    1.0000 </r>
       <r>   -2.0110    1.0000 </r>
       <r>   -2.0110    1.0000 </r>
       <r>   -1.6931    1.0000 </r>
       <r>   -1.6931    1.0000 </r>
       <r>   -1.6931    1.0000 </r>
       <r>   -1.6931    1.0000 </r>
       <r>   -1.6441    1.0000 </r>
       <r>   -1.6441    1.0000 </r>
       <r>   -1.6441    1.0000 </r>
       <r>   -1.6441    1.0000 </r>
       <r>   -1.6164    1.0000 </r>
       <r>   -1.6164    1.0000 </r>
       <r>   -1.6164    1.0000 </r>
       <r>   -1.6164    1.0000 </r>
       <r>   -1.4636    1.0000 </r>
       <r>   -1.4636    1.0000 </r>
       <r>   -1.4636    1.0000 </r>
       <r>   -1.4636    1.0000 </r>
       <r>   -1.4014    1.0000 </r>
       <r>   -1.4014    1.0000 </r>
       <r>   -1.4014    1.0000 </r>
       <r>   -1.4014    1.0000 </r>
       <r>   -1.2521    1.0000 </r>
       <r>   -1.2521    1.0000 </r>
       <r>   -1.2521    1.0000 </r>
       <r>   -1.2521    1.0000 </r>
       <r>   -1.1360    1.0000 </r>
       <r>   -1.1360    1.0000 </r>
       <r>   -1.1360    1.0000 </r>
       <r>   -1.1360    1.0000 </r>
       <r>   -1.0794    1.0000 </r>
       <r>   -1.0794    1.0000 </r>
       <r>   -1.0794    1.0000 </r>
       <r>   -1.0794    1.0000 </r>
       <r>   -1.0750    1.0000 </r>
       <r>   -1.0750    1.0000 </r>
       <r>   -1.0750    1.0000 </r>
       <r>   -1.0750    1.0000 </r>
       <r>   -1.0624    1.0000 </r>
       <r>   -1.0624    1.0000 </r>
       <r>   -1.0624    1.0000 </r>
       <r>   -1.0624    1.0000 </r>
       <r>   -0.8163    1.0000 </r>
       <r>   -0.8163    1.0000 </r>
       <r>   -0.8163    1.0000 </r>
       <r>   -0.8163    1.0000 </r>
       <r>   -0.5315    1.0000 </r>
       <r>   -0.5315    1.0000 </r>
       <r>   -0.5315    1.0000 </r>
       <r>   -0.5315    1.0000 </r>
       <r>    3.1469    0.0000 </r>
       <r>    3.1469    0.0000 </r>
       <r>    3.1469    0.0000 </r>
       <r>    3.1469    0.0000 </r>
       <r>    4.2877    0.0000 </r>
       <r>    4.2877    0.0000 </r>
       <r>    4.2877    0.0000 </r>
       <r>    4.2877    0.0000 </r>
       <r>    4.5634    0.0000 </r>
       <r>    4.5634    0.0000 </r>
       <r>    4.5634    0.0000 </r>
       <r>    4.5634    0.0000 </r>
       <r>    4.7332    0.0000 </r>
       <r>    4.7332    0.0000 </r>
       <r>    4.7332    0.0000 </r>
       <r>    4.7332    0.0000 </r>
       <r>    5.0100    0.0000 </r>
       <r>    5.0100    0.0000 </r>
       <r>    5.0100    0.0000 </r>
       <r>    5.0100    0.0000 </r>
       <r>    5.6974    0.0000 </r>
       <r>    5.6974    0.0000 </r>
       <r>    5.6974    0.0000 </r>
       <r>    5.6974    0.0000 </r>
       <r>    5.8764    0.0000 </r>
       <r>    5.8764    0.0000 </r>
       <r>    5.8764    0.0000 </r>
       <r>    5.8764    0.0000 </r>
       <r>    6.0742    0.0000 </r>
       <r>    6.0742    0.0000 </r>
       <r>    6.0742    0.0000 </r>
       <r>    6.0742    0.0000 </r>
       <r>    6.7949    0.0000 </r>
       <r>    6.7983    0.0000 </r>
       <r>    6.8045    0.0000 </r>
       <r>    6.8158    0.0000 </r>
       <r>    6.8259    0.0000 </r>
       <r>    6.8301    0.0000 </r>
       <r>    6.8530    0.0000 </r>
       <r>    6.9056    0.0000 </r>
      </set>
      <set comment="kpoint 6">
       <r>  -20.8296    1.0000 </r>
       <r>  -20.8296    1.0000 </r>
       <r>  -20.8296    1.0000 </r>
       <r>  -20.8296    1.0000 </r>
       <r>  -20.8296    1.0000 </r>
       <r>  -20.8296    1.0000 </r>
       <r>  -20.8296    1.0000 </r>
       <r>  -20.8296    1.0000 </r>
       <r>  -16.4594    1.0000 </r>
       <r>  -16.4594    1.0000 </r>
       <r>  -16.4594    1.0000 </r>
       <r>  -16.4594    1.0000 </r>
       <r>  -16.4594    1.0000 </r>
       <r>  -16.4594    1.0000 </r>
       <r>  -16.4594    1.0000 </r>
       <r>  -16.4594    1.0000 </r>
       <r>  -16.4201    1.0000 </r>
       <r>  -16.4201    1.0000 </r>
       <r>  -16.4201    1.0000 </r>
       <r>  -16.4201    1.0000 </r>
       <r>  -16.4201    1.0000 </r>
       <r>  -16.4201    1.0000 </r>
       <r>  -16.4201    1.0000 </r>
       <r>  -16.4201    1.0000 </r>
       <r>  -16.3247    1.0000 </r>
       <r>  -16.3247    1.0000 </r>
       <r>  -16.3247    1.0000 </r>
       <r>  -16.3247    1.0000 </r>
       <r>  -16.3247    1.0000 </r>
       <r>  -16.3247    1.0000 </r>
       <r>  -16.3247    1.0000 </r>
       <r>  -16.3247    1.0000 </r>
       <r>  -16.3187    1.0000 </r>
       <r>  -16.3187    1.0000 </r>
       <r>  -16.3187    1.0000 </r>
       <r>  -16.3187    1.0000 </r>
       <r>  -16.3187    1.0000 </r>
       <r>  -16.3187    1.0000 </r>
       <r>  -16.3187    1.0000 </r>
       <r>  -16.3187    1.0000 </r>
       <r>  -16.3187    1.0000 </r>
       <r>  -16.3187    1.0000 </r>
       <r>  -16.3187    1.0000 </r>
       <r>  -16.3187    1.0000 </r>
       <r>  -16.3187    1.0000 </r>
       <r>  -16.3187    1.0000 </r>
       <r>  -16.3187    1.0000 </r>
       <r>  -16.3187    1.0000 </r>
       <r>  -14.1996    1.0000 </r>
       <r>  -14.1996    1.0000 </r>
       <r>  -14.1996    1.0000 </r>
       <r>  -14.1996    1.0000 </r>
       <r>  -14.1996    1.0000 </r>
       <r>  -14.1996    1.0000 </r>
       <r>  -14.1996    1.0000 </r>
       <r>  -14.1996    1.0000 </r>
       <r>  -13.8869    1.0000 </r>
       <r>  -13.8869    1.0000 </r>
       <r>  -13.8869    1.0000 </r>
       <r>  -13.8869    1.0000 </r>
       <r>  -13.8869    1.0000 </r>
       <r>  -13.8869    1.0000 </r>
       <r>  -13.8869    1.0000 </r>
       <r>  -13.8869    1.0000 </r>
       <r>  -13.8250    1.0000 </r>
       <r>  -13.8250    1.0000 </r>
       <r>  -13.8250    1.0000 </r>
       <r>  -13.8250    1.0000 </r>
       <r>  -13.8250    1.0000 </r>
       <r>  -13.8250    1.0000 </r>
       <r>  -13.8250    1.0000 </r>
       <r>  -13.8250    1.0000 </r>
       <r>   -7.4952    1.0000 </r>
       <r>   -7.4952    1.0000 </r>
       <r>   -7.4952    1.0000 </r>
       <r>   -7.4952    1.0000 </r>
       <r>   -7.4952    1.0000 </r>
       <r>   -7.4952    1.0000 </r>
       <r>   -7.4952    1.0000 </r>
       <r>   -7.4952    1.0000 </r>
       <r>   -7.2524    1.0000 </r>
       <r>   -7.2524    1.0000 </r>
       <r>   -7.2524    1.0000 </r>
       <r>   -7.2524    1.0000 </r>
       <r>   -7.2524    1.0000 </r>
       <r>   -7.2524    1.0000 </r>
       <r>   -7.2524    1.0000 </r>
       <r>   -7.2524    1.0000 </r>
       <r>   -7.2165    1.0000 </r>
       <r>   -7.2165    1.0000 </r>
       <r>   -7.2165    1.0000 </r>
       <r>   -7.2165    1.0000 </r>
       <r>   -7.2165    1.0000 </r>
       <r>   -7.2165    1.0000 </r>
       <r>   -7.2165    1.0000 </r>
       <r>   -7.2165    1.0000 </r>
       <r>   -7.1875    1.0000 </r>
       <r>   -7.1875    1.0000 </r>
       <r>   -7.1875    1.0000 </r>
       <r>   -7.1875    1.0000 </r>
       <r>   -7.1875    1.0000 </r>
       <r>   -7.1875    1.0000 </r>
       <r>   -7.1875    1.0000 </r>
       <r>   -7.1875    1.0000 </r>
       <r>   -2.5876    1.0000 </r>
       <r>   -2.5876    1.0000 </r>
       <r>   -2.5876    1.0000 </r>
       <r>   -2.5876    1.0000 </r>
       <r>   -2.5876    1.0000 </r>
       <r>   -2.5876    1.0000 </r>
       <r>   -2.5876    1.0000 </r>
       <r>   -2.5876    1.0000 </r>
       <r>   -2.5276    1.0000 </r>
       <r>   -2.5276    1.0000 </r>
       <r>   -2.5276    1.0000 </r>
       <r>   -2.5276    1.0000 </r>
       <r>   -2.5276    1.0000 </r>
       <r>   -2.5276    1.0000 </r>
       <r>   -2.5276    1.0000 </r>
       <r>   -2.5276    1.0000 </r>
       <r>   -2.1753    1.0000 </r>
       <r>   -2.1753    1.0000 </r>
       <r>   -2.1753    1.0000 </r>
       <r>   -2.1753    1.0000 </r>
       <r>   -2.1753    1.0000 </r>
       <r>   -2.1753    1.0000 </r>
       <r>   -2.1753    1.0000 </r>
       <r>   -2.1753    1.0000 </r>
       <r>   -1.6335    1.0000 </r>
       <r>   -1.6335    1.0000 </r>
       <r>   -1.6335    1.0000 </r>
       <r>   -1.6335    1.0000 </r>
       <r>   -1.6335    1.0000 </r>
       <r>   -1.6335    1.0000 </r>
       <r>   -1.6335    1.0000 </r>
       <r>   -1.6335    1.0000 </r>
       <r>   -1.5288    1.0000 </r>
       <r>   -1.5288    1.0000 </r>
       <r>   -1.5288    1.0000 </r>
       <r>   -1.5288    1.0000 </r>
       <r>   -1.5288    1.0000 </r>
       <r>   -1.5288    1.0000 </r>
       <r>   -1.5288    1.0000 </r>
       <r>   -1.5288    1.0000 </r>
       <r>   -1.4277    1.0000 </r>
       <r>   -1.4277    1.0000 </r>
       <r>   -1.4277    1.0000 </r>
       <r>   -1.4277    1.0000 </r>
       <r>   -1.4277    1.0000 </r>
       <r>   -1.4277    1.0000 </r>
       <r>   -1.4277    1.0000 </r>
       <r>   -1.4277    1.0000 </r>
       <r>   -1.1250    1.0000 </r>
       <r>   -1.1250    1.0000 </r>
       <r>   -1.1250    1.0000 </r>
       <r>   -1.1250    1.0000 </r>
       <r>   -1.1250    1.0000 </r>
       <r>   -1.1250    1.0000 </r>
       <r>   -1.1250    1.0000 </r>
       <r>   -1.1250    1.0000 </r>
       <r>   -1.0807    1.0000 </r>
       <r>   -1.0807    1.0000 </r>
       <r>   -1.0807    1.0000 </r>
       <r>   -1.0807    1.0000 </r>
       <r>   -1.0807    1.0000 </r>
       <r>   -1.0807    1.0000 </r>
       <r>   -1.0807    1.0000 </r>
       <r>   -1.0807    1.0000 </r>
       <r>   -0.7679    1.0000 </r>
       <r>   -0.7679    1.0000 </r>
       <r>   -0.7679    1.0000 </r>
       <r>   -0.7679    1.0000 </r>
       <r>   -0.7679    1.0000 </r>
       <r>   -0.7679    1.0000 </r>
       <r>   -0.7679    1.0000 </r>
       <r>   -0.7679    1.0000 </r>
       <r>    4.3506    0.0000 </r>
       <r>    4.3506    0.0000 </r>
       <r>    4.3506    0.0000 </r>
       <r>    4.3506    0.0000 </r>
       <r>    4.3506    0.0000 </r>
       <r>    4.3506    0.0000 </r>
       <r>    4.3506    0.0000 </r>
[...]
        <r>  0.0002  0.0003  0.0089 </r>
        <r>  0.0094  0.0006  0.0044 </r>
        <r>  0.0041  0.0004  0.0046 </r>
        <r>  0.0020  0.0007  0.0072 </r>
        <r>  0.0012  0.0006  0.0044 </r>
        <r>  0.0018  0.0009  0.0053 </r>
        <r>  0.0001  0.0023  0.0001 </r>
        <r>  0.0000  0.0116  0.0000 </r>
        <r>  0.0000  0.0071  0.0000 </r>
        <r>  0.0000  0.0023  0.0001 </r>
        <r>  0.0000  0.0133  0.0000 </r>
        <r>  0.0001  0.0018  0.0001 </r>
        <r>  0.0000  0.0025  0.0001 </r>
        <r>  0.0000  0.0074  0.0000 </r>
        <r>  0.0001  0.0018  0.0007 </r>
        <r>  0.0003  0.0016  0.0004 </r>
        <r>  0.0006  0.0011  0.0007 </r>
        <r>  0.0003  0.0008  0.0003 </r>
        <r>  0.0001  0.0015  0.0001 </r>
        <r>  0.0010  0.0005  0.0011 </r>
        <r>  0.0003  0.0007  0.0006 </r>
        <r>  0.0000  0.0032  0.0004 </r>
        <r>  0.0003  0.0061  0.0008 </r>
        <r>  0.0015  0.0028  0.0027 </r>
        <r>  0.0001  0.0030  0.0009 </r>
        <r>  0.0009  0.0032  0.0023 </r>
        <r>  0.0007  0.0062  0.0014 </r>
        <r>  0.0015  0.0033  0.0028 </r>
        <r>  0.0004  0.0026  0.0012 </r>
        <r>  0.0006  0.0041  0.0016 </r>
        <r>  0.0007  0.0017  0.0008 </r>
        <r>  0.0011  0.0014  0.0013 </r>
        <r>  0.0005  0.0005  0.0012 </r>
        <r>  0.0004  0.0021  0.0009 </r>
        <r>  0.0003  0.0020  0.0008 </r>
        <r>  0.0006  0.0033  0.0008 </r>
        <r>  0.0003  0.0015  0.0005 </r>
        <r>  0.0008  0.0005  0.0010 </r>
       </set>
       <set comment="band 208">
        <r>  0.0125  0.0002  0.0074 </r>
        <r>  0.0016  0.0007  0.0085 </r>
        <r>  0.0006  0.0006  0.0010 </r>
        <r>  0.0004  0.0001  0.0066 </r>
        <r>  0.0010  0.0011  0.0077 </r>
        <r>  0.0106  0.0006  0.0072 </r>
        <r>  0.0007  0.0003  0.0074 </r>
        <r>  0.0006  0.0007  0.0016 </r>
        <r>  0.0000  0.0079  0.0001 </r>
        <r>  0.0001  0.0065  0.0001 </r>
        <r>  0.0000  0.0121  0.0000 </r>
        <r>  0.0001  0.0024  0.0001 </r>
        <r>  0.0000  0.0034  0.0001 </r>
        <r>  0.0000  0.0064  0.0000 </r>
        <r>  0.0000  0.0018  0.0001 </r>
        <r>  0.0000  0.0078  0.0000 </r>
        <r>  0.0004  0.0023  0.0007 </r>
        <r>  0.0019  0.0002  0.0024 </r>
        <r>  0.0002  0.0005  0.0003 </r>
        <r>  0.0000  0.0053  0.0001 </r>
        <r>  0.0010  0.0002  0.0020 </r>
        <r>  0.0008  0.0010  0.0010 </r>
        <r>  0.0001  0.0027  0.0002 </r>
        <r>  0.0000  0.0007  0.0002 </r>
        <r>  0.0011  0.0033  0.0020 </r>
        <r>  0.0008  0.0059  0.0017 </r>
        <r>  0.0011  0.0038  0.0021 </r>
        <r>  0.0009  0.0054  0.0018 </r>
        <r>  0.0006  0.0036  0.0017 </r>
        <r>  0.0004  0.0029  0.0014 </r>
        <r>  0.0004  0.0048  0.0013 </r>
        <r>  0.0006  0.0016  0.0016 </r>
        <r>  0.0004  0.0019  0.0006 </r>
        <r>  0.0002  0.0011  0.0004 </r>
        <r>  0.0004  0.0009  0.0007 </r>
        <r>  0.0001  0.0020  0.0003 </r>
        <r>  0.0003  0.0009  0.0007 </r>
        <r>  0.0006  0.0018  0.0007 </r>
        <r>  0.0000  0.0014  0.0003 </r>
        <r>  0.0008  0.0013  0.0011 </r>
       </set>
       <set comment="band 209">
        <r>  0.0001  0.0009  0.0124 </r>
        <r>  0.0001  0.0016  0.0108 </r>
        <r>  0.0005  0.0014  0.0108 </r>
        <r>  0.0001  0.0012  0.0240 </r>
        <r>  0.0001  0.0009  0.0124 </r>
        <r>  0.0001  0.0005  0.0117 </r>
        <r>  0.0002  0.0003  0.0236 </r>
        <r>  0.0004  0.0009  0.0141 </r>
        <r>  0.0000  0.0005  0.0011 </r>
        <r>  0.0000  0.0005  0.0001 </r>
        <r>  0.0000  0.0015  0.0005 </r>
        <r>  0.0000  0.0002  0.0003 </r>
        <r>  0.0000  0.0009  0.0001 </r>
        <r>  0.0000  0.0007  0.0007 </r>
        <r>  0.0000  0.0004  0.0003 </r>
        <r>  0.0000  0.0019  0.0002 </r>
        <r>  0.0002  0.0009  0.0014 </r>
        <r>  0.0002  0.0004  0.0007 </r>
        <r>  0.0020  0.0024  0.0021 </r>
        <r>  0.0001  0.0010  0.0009 </r>
        <r>  0.0004  0.0007  0.0008 </r>
        <r>  0.0006  0.0010  0.0009 </r>
        <r>  0.0001  0.0002  0.0007 </r>
        <r>  0.0003  0.0013  0.0008 </r>
        <r>  0.0001  0.0005  0.0025 </r>
        <r>  0.0002  0.0016  0.0019 </r>
        <r>  0.0005  0.0015  0.0011 </r>
        <r>  0.0002  0.0011  0.0017 </r>
        <r>  0.0005  0.0015  0.0013 </r>
        <r>  0.0001  0.0011  0.0016 </r>
        <r>  0.0005  0.0008  0.0012 </r>
        <r>  0.0008  0.0017  0.0011 </r>
        <r>  0.0013  0.0017  0.0014 </r>
        <r>  0.0003  0.0013  0.0007 </r>
        <r>  0.0003  0.0004  0.0006 </r>
        <r>  0.0002  0.0011  0.0003 </r>
        <r>  0.0002  0.0008  0.0013 </r>
        <r>  0.0003  0.0006  0.0010 </r>
        <r>  0.0005  0.0010  0.0010 </r>
        <r>  0.0000  0.0002  0.0006 </r>
       </set>
       <set comment="band 210">
        <r>  0.0005  0.0010  0.0169 </r>
        <r>  0.0003  0.0006  0.0263 </r>
        <r>  0.0000  0.0011  0.0060 </r>
        <r>  0.0000  0.0013  0.0088 </r>
        <r>  0.0001  0.0013  0.0213 </r>
        <r>  0.0004  0.0013  0.0102 </r>
        <r>  0.0001  0.0008  0.0164 </r>
        <r>  0.0002  0.0002  0.0139 </r>
        <r>  0.0000  0.0018  0.0002 </r>
        <r>  0.0000  0.0008  0.0002 </r>
        <r>  0.0000  0.0008  0.0003 </r>
        <r>  0.0000  0.0011  0.0003 </r>
        <r>  0.0000  0.0005  0.0005 </r>
        <r>  0.0000  0.0008  0.0005 </r>
        <r>  0.0000  0.0003  0.0003 </r>
        <r>  0.0000  0.0005  0.0011 </r>
        <r>  0.0001  0.0006  0.0004 </r>
        <r>  0.0001  0.0007  0.0003 </r>
        <r>  0.0000  0.0001  0.0004 </r>
        <r>  0.0001  0.0005  0.0003 </r>
        <r>  0.0006  0.0013  0.0012 </r>
        <r>  0.0014  0.0023  0.0017 </r>
        <r>  0.0001  0.0002  0.0010 </r>
        <r>  0.0004  0.0012  0.0014 </r>
        <r>  0.0003  0.0011  0.0006 </r>
        <r>  0.0012  0.0015  0.0014 </r>
        <r>  0.0007  0.0019  0.0013 </r>
        <r>  0.0002  0.0009  0.0009 </r>
        <r>  0.0002  0.0019  0.0011 </r>
        <r>  0.0002  0.0006  0.0022 </r>
        <r>  0.0001  0.0006  0.0034 </r>
        <r>  0.0000  0.0013  0.0015 </r>
        <r>  0.0003  0.0014  0.0005 </r>
        <r>  0.0007  0.0005  0.0012 </r>
        <r>  0.0000  0.0012  0.0006 </r>
        <r>  0.0009  0.0010  0.0018 </r>
        <r>  0.0002  0.0009  0.0006 </r>
        <r>  0.0003  0.0006  0.0010 </r>
        <r>  0.0003  0.0010  0.0008 </r>
        <r>  0.0011  0.0017  0.0019 </r>
       </set>
       <set comment="band 211">
        <r>  0.0002  0.0008  0.0110 </r>
        <r>  0.0001  0.0010  0.0150 </r>
        <r>  0.0002  0.0004  0.0110 </r>
        <r>  0.0001  0.0006  0.0134 </r>
        <r>  0.0005  0.0007  0.0276 </r>
        <r>  0.0005  0.0008  0.0251 </r>
        <r>  0.0000  0.0017  0.0098 </r>
        <r>  0.0001  0.0018  0.0068 </r>
        <r>  0.0000  0.0008  0.0005 </r>
        <r>  0.0000  0.0014  0.0002 </r>
        <r>  0.0000  0.0009  0.0003 </r>
        <r>  0.0000  0.0009  0.0003 </r>
        <r>  0.0000  0.0009  0.0005 </r>
        <r>  0.0000  0.0005  0.0003 </r>
        <r>  0.0000  0.0005  0.0010 </r>
        <r>  0.0000  0.0006  0.0003 </r>
        <r>  0.0004  0.0011  0.0008 </r>
        <r>  0.0001  0.0005  0.0006 </r>
        <r>  0.0002  0.0006  0.0005 </r>
        <r>  0.0001  0.0003  0.0003 </r>
        <r>  0.0013  0.0022  0.0016 </r>
        <r>  0.0002  0.0006  0.0010 </r>
        <r>  0.0004  0.0011  0.0011 </r>
        <r>  0.0002  0.0004  0.0007 </r>
        <r>  0.0010  0.0009  0.0020 </r>
        <r>  0.0004  0.0010  0.0012 </r>
        <r>  0.0003  0.0013  0.0010 </r>
        <r>  0.0003  0.0019  0.0008 </r>
        <r>  0.0001  0.0013  0.0012 </r>
        <r>  0.0002  0.0018  0.0012 </r>
        <r>  0.0002  0.0009  0.0019 </r>
        <r>  0.0004  0.0006  0.0031 </r>
        <r>  0.0003  0.0006  0.0014 </r>
        <r>  0.0000  0.0004  0.0005 </r>
        <r>  0.0005  0.0009  0.0017 </r>
        <r>  0.0002  0.0006  0.0007 </r>
        <r>  0.0013  0.0011  0.0016 </r>
        <r>  0.0000  0.0017  0.0003 </r>
        <r>  0.0015  0.0013  0.0018 </r>
        <r>  0.0001  0.0018  0.0005 </r>
       </set>
       <set comment="band 212">
        <r>  0.0006  0.0008  0.0130 </r>
        <r>  0.0001  0.0007  0.0258 </r>
        <r>  0.0000  0.0004  0.0235 </r>
        <r>  0.0004  0.0017  0.0063 </r>
        <r>  0.0001  0.0007  0.0082 </r>
        <r>  0.0000  0.0022  0.0086 </r>
        <r>  0.0004  0.0007  0.0129 </r>
        <r>  0.0001  0.0005  0.0213 </r>
        <r>  0.0000  0.0006  0.0001 </r>
        <r>  0.0000  0.0007  0.0011 </r>
        <r>  0.0000  0.0004  0.0007 </r>
        <r>  0.0000  0.0010  0.0001 </r>
        <r>  0.0000  0.0004  0.0004 </r>
        <r>  0.0000  0.0014  0.0001 </r>
        <r>  0.0000  0.0019  0.0005 </r>
        <r>  0.0000  0.0002  0.0003 </r>
        <r>  0.0010  0.0010  0.0013 </r>
        <r>  0.0005  0.0016  0.0010 </r>
        <r>  0.0001  0.0006  0.0012 </r>
        <r>  0.0007  0.0014  0.0012 </r>
        <r>  0.0004  0.0005  0.0009 </r>
        <r>  0.0000  0.0009  0.0003 </r>
        <r>  0.0007  0.0011  0.0012 </r>
        <r>  0.0001  0.0005  0.0005 </r>
        <r>  0.0005  0.0007  0.0017 </r>
        <r>  0.0001  0.0010  0.0029 </r>
        <r>  0.0002  0.0005  0.0016 </r>
        <r>  0.0001  0.0024  0.0010 </r>
        <r>  0.0003  0.0008  0.0007 </r>
        <r>  0.0004  0.0023  0.0011 </r>
        <r>  0.0010  0.0008  0.0017 </r>
        <r>  0.0002  0.0012  0.0016 </r>
        <r>  0.0001  0.0007  0.0007 </r>
        <r>  0.0007  0.0013  0.0013 </r>
        <r>  0.0011  0.0018  0.0012 </r>
        <r>  0.0001  0.0005  0.0008 </r>
        <r>  0.0003  0.0010  0.0007 </r>
        <r>  0.0008  0.0009  0.0013 </r>
        <r>  0.0001  0.0011  0.0008 </r>
        <r>  0.0003  0.0002  0.0007 </r>
       </set>
       <set comment="band 213">
        <r>  0.0000  0.0014  0.0112 </r>
        <r>  0.0001  0.0017  0.0066 </r>
        <r>  0.0003  0.0004  0.0167 </r>
        <r>  0.0002  0.0005  0.0167 </r>
        <r>  0.0004  0.0007  0.0198 </r>
        <r>  0.0003  0.0009  0.0232 </r>
        <r>  0.0002  0.0009  0.0114 </r>
        <r>  0.0001  0.0013  0.0142 </r>
        <r>  0.0000  0.0005  0.0003 </r>
        <r>  0.0000  0.0007  0.0007 </r>
        <r>  0.0000  0.0007  0.0007 </r>
        <r>  0.0000  0.0005  0.0006 </r>
        <r>  0.0000  0.0009  0.0002 </r>
        <r>  0.0000  0.0013  0.0004 </r>
        <r>  0.0000  0.0013  0.0002 </r>
        <r>  0.0000  0.0008  0.0002 </r>
        <r>  0.0005  0.0018  0.0010 </r>
        <r>  0.0011  0.0013  0.0017 </r>
        <r>  0.0004  0.0011  0.0011 </r>
        <r>  0.0006  0.0009  0.0017 </r>
        <r>  0.0000  0.0011  0.0002 </r>
        <r>  0.0005  0.0005  0.0008 </r>
        <r>  0.0001  0.0006  0.0004 </r>
        <r>  0.0002  0.0004  0.0009 </r>
        <r>  0.0000  0.0013  0.0013 </r>
        <r>  0.0001  0.0015  0.0018 </r>
        <r>  0.0002  0.0007  0.0021 </r>
        <r>  0.0003  0.0009  0.0027 </r>
        <r>  0.0008  0.0008  0.0017 </r>
        <r>  0.0006  0.0013  0.0013 </r>
        <r>  0.0005  0.0013  0.0009 </r>
        <r>  0.0003  0.0019  0.0005 </r>
        <r>  0.0002  0.0002  0.0008 </r>
        <r>  0.0001  0.0010  0.0008 </r>
        <r>  0.0008  0.0009  0.0012 </r>
        <r>  0.0002  0.0010  0.0007 </r>
        <r>  0.0003  0.0007  0.0010 </r>
        <r>  0.0010  0.0018  0.0011 </r>
        <r>  0.0003  0.0008  0.0011 </r>
        <r>  0.0004  0.0010  0.0008 </r>
       </set>
       <set comment="band 214">
        <r>  0.0001  0.0008  0.0168 </r>
        <r>  0.0003  0.0017  0.0109 </r>
        <r>  0.0004  0.0015  0.0083 </r>
        <r>  0.0000  0.0010  0.0201 </r>
        <r>  0.0003  0.0011  0.0120 </r>
        <r>  0.0001  0.0004  0.0178 </r>
        <r>  0.0001  0.0002  0.0222 </r>
        <r>  0.0004  0.0010  0.0116 </r>
        <r>  0.0000  0.0004  0.0002 </r>
        <r>  0.0000  0.0013  0.0006 </r>
        <r>  0.0000  0.0004  0.0001 </r>
        <r>  0.0000  0.0009  0.0009 </r>
        <r>  0.0000  0.0016  0.0005 </r>
        <r>  0.0000  0.0004  0.0002 </r>
        <r>  0.0000  0.0010  0.0006 </r>
        <r>  0.0000  0.0006  0.0002 </r>
        <r>  0.0001  0.0007  0.0007 </r>
        <r>  0.0013  0.0017  0.0016 </r>
        <r>  0.0001  0.0002  0.0006 </r>
        <r>  0.0005  0.0014  0.0013 </r>
        <r>  0.0001  0.0009  0.0008 </r>
        <r>  0.0001  0.0002  0.0006 </r>
        <r>  0.0011  0.0015  0.0012 </r>
        <r>  0.0001  0.0007  0.0007 </r>
        <r>  0.0003  0.0011  0.0014 </r>
        <r>  0.0004  0.0015  0.0014 </r>
        <r>  0.0004  0.0012  0.0018 </r>
        <r>  0.0001  0.0010  0.0020 </r>
        <r>  0.0006  0.0012  0.0013 </r>
        <r>  0.0005  0.0012  0.0016 </r>
        <r>  0.0003  0.0010  0.0016 </r>
        <r>  0.0003  0.0016  0.0013 </r>
        <r>  0.0003  0.0009  0.0006 </r>
        <r>  0.0008  0.0013  0.0009 </r>
        <r>  0.0006  0.0012  0.0008 </r>
        <r>  0.0004  0.0011  0.0011 </r>
        <r>  0.0003  0.0009  0.0009 </r>
        <r>  0.0001  0.0004  0.0010 </r>
        <r>  0.0001  0.0008  0.0010 </r>
        <r>  0.0009  0.0013  0.0015 </r>
       </set>
       <set comment="band 215">
        <r>  0.0000  0.0010  0.0297 </r>
        <r>  0.0007  0.0003  0.0137 </r>
        <r>  0.0000  0.0020  0.0105 </r>
        <r>  0.0002  0.0005  0.0115 </r>
        <r>  0.0001  0.0019  0.0099 </r>
        <r>  0.0002  0.0005  0.0155 </r>
        <r>  0.0001  0.0010  0.0132 </r>
        <r>  0.0003  0.0005  0.0157 </r>
        <r>  0.0000  0.0009  0.0005 </r>
        <r>  0.0000  0.0005  0.0002 </r>
        <r>  0.0000  0.0009  0.0004 </r>
        <r>  0.0000  0.0013  0.0004 </r>
        <r>  0.0000  0.0006  0.0009 </r>
        <r>  0.0000  0.0006  0.0005 </r>
        <r>  0.0000  0.0008  0.0002 </r>
        <r>  0.0000  0.0010  0.0003 </r>
        <r>  0.0011  0.0012  0.0014 </r>
        <r>  0.0001  0.0011  0.0006 </r>
        <r>  0.0002  0.0004  0.0010 </r>
        <r>  0.0002  0.0008  0.0005 </r>
        <r>  0.0006  0.0007  0.0014 </r>
        <r>  0.0004  0.0014  0.0008 </r>
        <r>  0.0009  0.0012  0.0014 </r>
        <r>  0.0002  0.0009  0.0007 </r>
        <r>  0.0001  0.0030  0.0010 </r>
        <r>  0.0000  0.0005  0.0009 </r>
        <r>  0.0001  0.0011  0.0019 </r>
        <r>  0.0014  0.0005  0.0020 </r>
        <r>  0.0001  0.0008  0.0037 </r>
        <r>  0.0006  0.0004  0.0018 </r>
        <r>  0.0002  0.0032  0.0003 </r>
        <r>  0.0002  0.0004  0.0008 </r>
        <r>  0.0008  0.0018  0.0014 </r>
        <r>  0.0005  0.0007  0.0011 </r>
        <r>  0.0001  0.0009  0.0005 </r>
        <r>  0.0005  0.0006  0.0008 </r>
        <r>  0.0007  0.0013  0.0013 </r>
        <r>  0.0002  0.0008  0.0010 </r>
        <r>  0.0004  0.0007  0.0006 </r>
        <r>  0.0001  0.0006  0.0006 </r>
       </set>
       <set comment="band 216">
        <r>  0.0001  0.0009  0.0086 </r>
        <r>  0.0000  0.0002  0.0106 </r>
        <r>  0.0003  0.0006  0.0328 </r>
        <r>  0.0007  0.0010  0.0190 </r>
        <r>  0.0000  0.0005  0.0085 </r>
        <r>  0.0001  0.0011  0.0077 </r>
        <r>  0.0004  0.0020  0.0102 </r>
        <r>  0.0001  0.0014  0.0222 </r>
        <r>  0.0000  0.0012  0.0004 </r>
        <r>  0.0000  0.0007  0.0003 </r>
        <r>  0.0000  0.0010  0.0003 </r>
        <r>  0.0000  0.0007  0.0005 </r>
        <r>  0.0000  0.0007  0.0002 </r>
        <r>  0.0000  0.0009  0.0006 </r>
        <r>  0.0000  0.0005  0.0002 </r>
        <r>  0.0000  0.0009  0.0008 </r>
        <r>  0.0001  0.0002  0.0006 </r>
        <r>  0.0000  0.0002  0.0011 </r>
        <r>  0.0004  0.0020  0.0006 </r>
        <r>  0.0012  0.0013  0.0014 </r>
        <r>  0.0000  0.0001  0.0006 </r>
        <r>  0.0002  0.0006  0.0015 </r>
        <r>  0.0001  0.0017  0.0006 </r>
        <r>  0.0019  0.0021  0.0019 </r>
        <r>  0.0006  0.0011  0.0020 </r>
        <r>  0.0004  0.0013  0.0009 </r>
        <r>  0.0004  0.0015  0.0014 </r>
        <r>  0.0003  0.0011  0.0014 </r>
        <r>  0.0003  0.0014  0.0014 </r>
        <r>  0.0003  0.0012  0.0015 </r>
        <r>  0.0000  0.0011  0.0014 </r>
        <r>  0.0005  0.0011  0.0023 </r>
        <r>  0.0001  0.0003  0.0007 </r>
        <r>  0.0003  0.0011  0.0010 </r>
        <r>  0.0000  0.0002  0.0008 </r>
        <r>  0.0009  0.0018  0.0014 </r>
        <r>  0.0001  0.0010  0.0004 </r>
        <r>  0.0006  0.0008  0.0009 </r>
        <r>  0.0002  0.0010  0.0004 </r>
        <r>  0.0005  0.0008  0.0010 </r>
       </set>
      </set>
     </set>
    </set>
   </array>
  </projected>
 </calculation>
 <structure name="finalpos" >
  <crystal>
   <varray name="basis" >
    <v>      11.73535200       0.00000000       0.00000000 </v>
    <v>       0.00000000      11.73535200       0.00000000 </v>
    <v>       0.00000000       0.00000000      11.73535200 </v>
   </varray>
   <i name="volume">   1616.17491673 </i>
   <varray name="rec_basis" >
    <v>       0.08521261       0.00000000       0.00000000 </v>
    <v>       0.00000000       0.08521261       0.00000000 </v>
    <v>       0.00000000       0.00000000       0.08521261 </v>
   </varray>
  </crystal>
  <varray name="positions" >
   <v>       0.25000000       0.25000000       0.25000000 </v>
   <v>       0.25000000       0.25000000       0.75000000 </v>
   <v>       0.25000000       0.75000000       0.25000000 </v>
   <v>       0.25000000       0.75000000       0.75000000 </v>
   <v>       0.75000000       0.25000000       0.25000000 </v>
   <v>       0.75000000       0.25000000       0.75000000 </v>
   <v>       0.75000000       0.75000000       0.25000000 </v>
   <v>       0.75000000       0.75000000       0.75000000 </v>
   <v>       0.00000000       0.00000000       0.00000000 </v>
   <v>       0.00000000       0.00000000       0.50000000 </v>
   <v>       0.00000000       0.50000000       0.00000000 </v>
   <v>       0.00000000       0.50000000       0.50000000 </v>
   <v>       0.50000000       0.00000000       0.00000000 </v>
   <v>       0.50000000       0.00000000       0.50000000 </v>
   <v>       0.50000000       0.50000000       0.00000000 </v>
   <v>       0.50000000       0.50000000       0.50000000 </v>
   <v>       0.93250000       0.25000000       0.00000000 </v>
   <v>       0.06750000       0.25000000       0.50000000 </v>
   <v>       0.06750000       0.75000000       0.00000000 </v>
   <v>       0.93250000       0.75000000       0.50000000 </v>
   <v>       0.56750000       0.25000000       0.00000000 </v>
   <v>       0.43250000       0.25000000       0.50000000 </v>
   <v>       0.43250000       0.75000000       0.00000000 </v>
   <v>       0.56750000       0.75000000       0.50000000 </v>
   <v>       0.00000000       0.00000000       0.25000000 </v>
   <v>       0.00000000       0.00000000       0.75000000 </v>
   <v>       0.00000000       0.50000000       0.25000000 </v>
   <v>       0.00000000       0.50000000       0.75000000 </v>
   <v>       0.50000000       0.00000000       0.25000000 </v>
   <v>       0.50000000       0.00000000       0.75000000 </v>
   <v>       0.50000000       0.50000000       0.25000000 </v>
   <v>       0.50000000       0.50000000       0.75000000 </v>
   <v>       0.25000000       0.06750000       0.00000000 </v>
   <v>       0.25000000       0.93250000       0.50000000 </v>
   <v>       0.25000000       0.43250000       0.00000000 </v>
   <v>       0.25000000       0.56750000       0.50000000 </v>
   <v>       0.75000000       0.93250000       0.00000000 </v>
   <v>       0.75000000       0.06750000       0.50000000 </v>
   <v>       0.75000000       0.56750000       0.00000000 </v>
   <v>       0.75000000       0.43250000       0.50000000 </v>
  </varray>
 </structure>
</modeling>
