       N       E                     dE             d eps       ncg     rms          rms(c)
DAV:   1     0.137480300321E+04    0.13748E+04   -0.11255E+05  3560   0.970E+02
DAV:   2    -0.111826797482E+04   -0.24931E+04   -0.23779E+04  4200   0.297E+02
DAV:   3    -0.149381262402E+04   -0.37554E+03   -0.37300E+03  4624   0.137E+02
DAV:   4    -0.150660774997E+04   -0.12795E+02   -0.12751E+02  4048   0.331E+01
DAV:   5    -0.150723799277E+04   -0.63024E+00   -0.62992E+00  4512   0.574E+00    0.110E+01
DAV:   6    -0.142655456227E+04    0.80683E+02   -0.23482E+01  4488   0.338E+01    0.767E+00
DAV:   7    -0.142601166885E+04    0.54289E+00   -0.11154E+01  4192   0.660E+00    0.401E+00
DAV:   8    -0.142618672021E+04   -0.17505E+00   -0.71306E-01  4096   0.253E+00    0.246E+00
DAV:   9    -0.142624337800E+04   -0.56658E-01   -0.21862E-01  3928   0.142E+00    0.464E-01
DAV:  10    -0.142624795205E+04   -0.45740E-02   -0.34155E-02  4872   0.509E-01    0.367E-01
DAV:  11    -0.142624926696E+04   -0.13149E-02   -0.26042E-03  4112   0.143E-01    0.202E-01
DAV:  12    -0.142625163116E+04   -0.23642E-02   -0.58714E-03  3888   0.207E-01    0.106E-01
DAV:  13    -0.142625134110E+04    0.29007E-03   -0.13773E-03  4704   0.923E-02    0.756E-02
DAV:  14    -0.142625118835E+04    0.15275E-03   -0.29271E-04  4224   0.355E-02    0.360E-02
DAV:  15    -0.142625111940E+04    0.68943E-04   -0.52072E-05  4912   0.203E-02    0.186E-02
DAV:  16    -0.142625111395E+04    0.54570E-05   -0.29486E-05  4248   0.130E-02    0.540E-03
DAV:  17    -0.142625110619E+04    0.77578E-05   -0.80649E-06  4104   0.704E-03    0.407E-03
DAV:  18    -0.142625110195E+04    0.42426E-05   -0.11388E-06  2448   0.268E-03    0.313E-03
DAV:  19    -0.142625110402E+04   -0.20697E-05   -0.87797E-07  2336   0.229E-03    0.181E-03
DAV:  20    -0.142625110656E+04   -0.25391E-05   -0.27766E-07  2096   0.145E-03    0.110E-03
DAV:  21    -0.142625110756E+04   -0.10025E-05   -0.21494E-07  2048   0.120E-03    0.940E-04
DAV:  22    -0.142625110763E+04   -0.70022E-07   -0.40069E-07  2064   0.908E-04
   1 F= -.14262511E+04 E0= -.14262511E+04  d E =-.213774E-30
