<?xml version="1.0" encoding="ISO-8859-1"?>
<modeling>
 <generator>
  <i name="program" type="string">vasp </i>
  <i name="version" type="string">5.4.4.18Apr17-6-g9f103f2a35  </i>
  <i name="subversion" type="string">(build Jun 22 2020 09:27:21) complex            parallel </i>
  <i name="platform" type="string">tx2_gcc-7.3_libsci-18.07_cray-fftw-3.3.8 </i>
  <i name="date" type="string">2021 09 22 </i>
  <i name="time" type="string">10:31:58 </i>
 </generator>
 <incar>
  <i type="string" name="SYSTEM"> CsPbBr3 cubic bulk</i>
  <i type="string" name="PREC">accurate</i>
  <i type="string" name="ALGO"> Normal   ! Electronic minimisation algo</i>
  <i type="logical" name="ADDGRID"> T  </i>
  <i type="int" name="NELM">   200</i>
  <i type="int" name="IBRION">     2</i>
  <i name="EDIFF">      0.00000100</i>
  <i name="EDIFFG">     -0.01000000</i>
  <i type="int" name="NSW">     0</i>
  <i type="int" name="ISIF">     3</i>
  <i type="int" name="ISYM">     2</i>
  <i name="ENCUT">    300.00000000</i>
  <i name="POTIM">      0.50000000</i>
  <i type="string" name="LREAL"> AUTO</i>
  <i type="int" name="ISMEAR">     0</i>
  <i name="SIGMA">      0.01000000</i>
  <i name="PSTRESS">      0.00000000</i>
  <i type="logical" name="LWAVE"> F  </i>
  <i type="logical" name="LCHARG"> F  </i>
  <i type="logical" name="LVHAR"> T  </i>
  <i type="int" name="LORBIT">    10</i>
  <i type="logical" name="LASPH"> T  </i>
  <v type="int" name="KPOINT_BSE">    -1     0     0     0</v>
  <i type="int" name="NELM">   200</i>
  <i type="string" name="METAGGA"> SCAN       ! PBE exchange-correlation</i>
  <i type="logical" name="LASPH"> T  </i>
 </incar>
 <structure name="primitive_cell" >
  <crystal>
   <varray name="basis" >
    <v>       8.42001800       0.00000000       8.07798100 </v>
    <v>       0.00000000      11.76380800       0.00000000 </v>
    <v>      -8.42001800       0.00000000       8.07798100 </v>
   </varray>
   <i name="volume">   1600.27186790 </i>
   <varray name="rec_basis" >
    <v>       0.05938230      -0.00000000       0.06189665 </v>
    <v>       0.00000000       0.08500649      -0.00000000 </v>
    <v>      -0.05938230       0.00000000       0.06189665 </v>
   </varray>
  </crystal>
  <varray name="positions" >
   <v>       0.27212500       0.25000000       0.20823600 </v>
   <v>       0.22665978       0.04777691       0.42739300 </v>
   <v>      -0.00496717       0.18321277       0.05959349 </v>
   <v>       0.23450811      -0.48742526       0.03287934 </v>
   <v>      -0.45747271       0.41198652       0.28147355 </v>
   <v>       0.22390370       0.38726215       0.49666438 </v>
   <v>       0.47733907       0.20528941      -0.03949950 </v>
   <v>      -0.00049840       0.43158048       0.26517381 </v>
   <v>       0.48448764      -0.00891628       0.26004595 </v>
   <v>       0.25386421      -0.05002062       0.04010607 </v>
   <v>      -0.49253840       0.45843229       0.05507973 </v>
   <v>       0.00137736       0.44552611      -0.01073880 </v>
   <v>       0.46816715       0.47522464      -0.47890576 </v>
   <v>       0.49162414      -0.06731978       0.01889601 </v>
   <v>      -0.46663398       0.23175273      -0.42148334 </v>
   <v>       0.47638341      -0.02822921       0.49980321 </v>
   <v>       0.00818914      -0.06327546      -0.01759570 </v>
   <v>       0.27363494       0.13538824      -0.24851106 </v>
   <v>      -0.26318474       0.17564882       0.19579682 </v>
   <v>      -0.04003521      -0.10237571       0.23059323 </v>
   <v>       0.06488266       0.35247737      -0.22727228 </v>
   <v>      -0.04978843       0.44298916      -0.49547510 </v>
   <v>      -0.03923288      -0.01199796       0.46534290 </v>
   <v>       0.22086803      -0.26399423       0.24526926 </v>
   <v>      -0.14996079       0.21422216       0.46868054 </v>
   <v>       0.48361017      -0.30464249       0.04876865 </v>
   <v>       0.04087277      -0.32611337       0.45356452 </v>
   <v>      -0.26636010       0.46645942       0.00264244 </v>
   <v>       0.41878925      -0.27086453       0.46389445 </v>
   <v>       0.47156279      -0.47752024      -0.23791958 </v>
   <v>      -0.27203773      -0.01459710      -0.03126114 </v>
   <v>      -0.03481485      -0.31236909      -0.04642687 </v>
   <v>      -0.27688236      -0.46033713      -0.48634048 </v>
   <v>      -0.29479952      -0.11029419       0.46880311 </v>
   <v>      -0.26244785      -0.32695239       0.23178238 </v>
   <v>       0.48245615      -0.10484162      -0.26574199 </v>
   <v>      -0.25202075       0.23956406      -0.21199132 </v>
   <v>       0.00456063      -0.06743046      -0.30259930 </v>
   <v>       0.23553425      -0.32188848      -0.28643587 </v>
   <v>      -0.23879299      -0.29746290      -0.25386411 </v>
  </varray>
 </structure>
 <varray name="primitive_index" >
  <v type="int" >        1 </v>
  <v type="int" >       32 </v>
  <v type="int" >       19 </v>
  <v type="int" >       25 </v>
  <v type="int" >       27 </v>
  <v type="int" >       38 </v>
  <v type="int" >       23 </v>
  <v type="int" >       40 </v>
  <v type="int" >       35 </v>
  <v type="int" >       33 </v>
  <v type="int" >       13 </v>
  <v type="int" >       15 </v>
  <v type="int" >       16 </v>
  <v type="int" >       11 </v>
  <v type="int" >       20 </v>
  <v type="int" >       10 </v>
  <v type="int" >        9 </v>
  <v type="int" >        5 </v>
  <v type="int" >        6 </v>
  <v type="int" >       30 </v>
  <v type="int" >       28 </v>
  <v type="int" >       14 </v>
  <v type="int" >       12 </v>
  <v type="int" >        8 </v>
  <v type="int" >       24 </v>
  <v type="int" >       17 </v>
  <v type="int" >       18 </v>
  <v type="int" >       37 </v>
  <v type="int" >       22 </v>
  <v type="int" >       39 </v>
  <v type="int" >       31 </v>
  <v type="int" >       21 </v>
  <v type="int" >       26 </v>
  <v type="int" >       34 </v>
  <v type="int" >        3 </v>
  <v type="int" >       29 </v>
  <v type="int" >        2 </v>
  <v type="int" >       36 </v>
  <v type="int" >        4 </v>
  <v type="int" >        7 </v>
 </varray>
 <kpoints>
  <generation param="Gamma">
   <v type="int" name="divisions">       2        2        2 </v>
   <v name="usershift">      0.00000000       0.00000000       0.00000000 </v>
   <v name="genvec1">      0.50000000       0.00000000       0.00000000 </v>
   <v name="genvec2">      0.00000000       0.50000000       0.00000000 </v>
   <v name="genvec3">      0.00000000       0.00000000       0.50000000 </v>
   <v name="shift">      0.00000000       0.00000000       0.00000000 </v>
  </generation>
  <varray name="kpointlist" >
   <v>       0.00000000       0.00000000       0.00000000 </v>
   <v>       0.50000000       0.00000000       0.00000000 </v>
   <v>       0.00000000       0.50000000       0.00000000 </v>
   <v>       0.50000000       0.50000000       0.00000000 </v>
   <v>       0.00000000       0.00000000       0.50000000 </v>
   <v>       0.50000000       0.00000000       0.50000000 </v>
   <v>       0.00000000       0.50000000       0.50000000 </v>
   <v>       0.50000000       0.50000000       0.50000000 </v>
  </varray>
  <varray name="weights" >
   <v>       0.12500000 </v>
   <v>       0.12500000 </v>
   <v>       0.12500000 </v>
   <v>       0.12500000 </v>
   <v>       0.12500000 </v>
   <v>       0.12500000 </v>
   <v>       0.12500000 </v>
   <v>       0.12500000 </v>
  </varray>
 </kpoints>
 <parameters>
  <separator name="general" >
   <i type="string" name="SYSTEM">CsPbBr3 cubic bulk</i>
   <i type="logical" name="LCOMPAT"> F  </i>
  </separator>
  <separator name="electronic" >
   <i type="string" name="PREC">accura</i>
   <i name="ENMAX">    300.00000000</i>
   <i name="ENAUG">    503.85200000</i>
   <i name="EDIFF">      0.00000100</i>
   <i type="int" name="IALGO">    38</i>
   <i type="int" name="IWAVPR">    10</i>
   <i type="int" name="NBANDS">   216</i>
   <i name="NELECT">    352.00000000</i>
   <i type="int" name="TURBO">     0</i>
   <i type="int" name="IRESTART">     0</i>
   <i type="int" name="NREBOOT">     0</i>
   <i type="int" name="NMIN">     0</i>
   <i name="EREF">      0.00000000</i>
   <separator name="electronic smearing" >
    <i type="int" name="ISMEAR">     0</i>
    <i name="SIGMA">      0.01000000</i>
    <i name="KSPACING">      0.50000000</i>
    <i type="logical" name="KGAMMA"> T  </i>
   </separator>
   <separator name="electronic projectors" >
    <i type="logical" name="LREAL"> T  </i>
    <v name="ROPT">     -0.00025000     -0.00025000     -0.00025000</v>
    <i type="int" name="LMAXPAW">  -100</i>
    <i type="int" name="LMAXMIX">     2</i>
    <i type="logical" name="NLSPLINE"> F  </i>
   </separator>
   <separator name="electronic startup" >
    <i type="int" name="ISTART">     0</i>
    <i type="int" name="ICHARG">     2</i>
    <i type="int" name="INIWAV">     1</i>
   </separator>
   <separator name="electronic spin" >
    <i type="int" name="ISPIN">     1</i>
    <i type="logical" name="LNONCOLLINEAR"> F  </i>
    <v name="MAGMOM">      1.00000000      1.00000000      1.00000000      1.00000000      1.00000000      1.00000000      1.00000000      1.00000000      1.00000000      1.00000000      1.00000000      1.00000000      1.00000000      1.00000000      1.00000000      1.00000000      1.00000000      1.00000000      1.00000000      1.00000000
      1.00000000      1.00000000      1.00000000      1.00000000      1.00000000      1.00000000      1.00000000      1.00000000      1.00000000      1.00000000      1.00000000      1.00000000      1.00000000      1.00000000      1.00000000      1.00000000      1.00000000      1.00000000      1.00000000      1.00000000
</v>
    <i name="NUPDOWN">     -1.00000000</i>
    <i type="logical" name="LSORBIT"> F  </i>
    <v name="SAXIS">      0.00000000      0.00000000      1.00000000</v>
    <i type="logical" name="LSPIRAL"> F  </i>
    <v name="QSPIRAL">      0.00000000      0.00000000      0.00000000</v>
    <i type="logical" name="LZEROZ"> F  </i>
   </separator>
   <separator name="electronic exchange-correlation" >
    <i type="logical" name="LASPH"> T  </i>
    <i type="logical" name="LMETAGGA"> F  </i>
   </separator>
   <separator name="electronic convergence" >
    <i type="int" name="NELM">   200</i>
    <i type="int" name="NELMDL">    -5</i>
    <i type="int" name="NELMIN">     2</i>
    <i name="ENINI">    300.00000000</i>
    <separator name="electronic convergence detail" >
     <i type="logical" name="LDIAG"> T  </i>
     <i type="logical" name="LSUBROT"> F  </i>
     <i name="WEIMIN">      0.00000000</i>
     <i name="EBREAK">      0.00000000</i>
     <i name="DEPER">      0.30000000</i>
     <i type="int" name="NRMM">     4</i>
     <i name="TIME">      0.40000000</i>
    </separator>
   </separator>
   <separator name="electronic mixer" >
    <i name="AMIX">      0.40000000</i>
    <i name="BMIX">      1.00000000</i>
    <i name="AMIN">      0.10000000</i>
    <i name="AMIX_MAG">      1.60000000</i>
    <i name="BMIX_MAG">      1.00000000</i>
    <separator name="electronic mixer details" >
     <i type="int" name="IMIX">     4</i>
     <i type="logical" name="MIXFIRST"> F  </i>
     <i type="int" name="MAXMIX">   -45</i>
     <i name="WC">    100.00000000</i>
     <i type="int" name="INIMIX">     1</i>
     <i type="int" name="MIXPRE">     1</i>
     <i type="int" name="MREMOVE">     5</i>
    </separator>
   </separator>
   <separator name="electronic dipolcorrection" >
    <i type="logical" name="LDIPOL"> F  </i>
    <i type="logical" name="LMONO"> F  </i>
    <i type="int" name="IDIPOL">     0</i>
    <i name="EPSILON">      1.00000000</i>
    <v name="DIPOL">   -100.00000000   -100.00000000   -100.00000000</v>
    <i name="EFIELD">      0.00000000</i>
   </separator>
  </separator>
  <separator name="grids" >
   <i type="int" name="NGX">    70</i>
   <i type="int" name="NGY">    70</i>
   <i type="int" name="NGZ">    70</i>
   <i type="int" name="NGXF">   140</i>
   <i type="int" name="NGYF">   140</i>
   <i type="int" name="NGZF">   140</i>
   <i type="logical" name="ADDGRID"> T  </i>
  </separator>
  <separator name="ionic" >
   <i type="int" name="NSW">     0</i>
   <i type="int" name="IBRION">    -1</i>
   <i type="int" name="MDALGO">     0</i>
   <i type="int" name="ISIF">     3</i>
   <i name="PSTRESS">      0.00000000</i>
   <i name="EDIFFG">     -0.01000000</i>
   <i type="int" name="NFREE">     1</i>
   <i name="POTIM">      0.50000000</i>
   <i name="SMASS">     -3.00000000</i>
   <i name="SCALEE">      1.00000000</i>
  </separator>
  <separator name="ionic md" >
   <i name="TEBEG">      0.00010000</i>
   <i name="TEEND">      0.00010000</i>
   <i type="int" name="NBLOCK">     1</i>
   <i type="int" name="KBLOCK">     1</i>
   <i type="int" name="NPACO">   256</i>
   <i name="APACO">     16.00000000</i>
  </separator>
  <separator name="symmetry" >
   <i type="int" name="ISYM">     2</i>
   <i name="SYMPREC">      0.00001000</i>
  </separator>
  <separator name="dos" >
   <i type="int" name="LORBIT">    10</i>
   <v name="RWIGS">     -1.00000000     -1.00000000     -1.00000000</v>
   <i type="int" name="NEDOS">   301</i>
   <i name="EMIN">     10.00000000</i>
   <i name="EMAX">    -10.00000000</i>
   <i name="EFERMI">      0.00000000</i>
  </separator>
  <separator name="writing" >
   <i type="int" name="NWRITE">     2</i>
   <i type="logical" name="LWAVE"> F  </i>
   <i type="logical" name="LDOWNSAMPLE"> F  </i>
   <i type="logical" name="LCHARG"> F  </i>
   <i type="logical" name="LPARD"> F  </i>
   <i type="logical" name="LVTOT"> F  </i>
   <i type="logical" name="LVHAR"> T  </i>
   <i type="logical" name="LELF"> F  </i>
   <i type="logical" name="LOPTICS"> F  </i>
   <v name="STM">      0.00000000      0.00000000      0.00000000      0.00000000      0.00000000      0.00000000      0.00000000</v>
  </separator>
  <separator name="performance" >
   <i type="int" name="NPAR">     8</i>
   <i type="int" name="NSIM">     4</i>
   <i type="int" name="NBLK">    -1</i>
   <i type="logical" name="LPLANE"> T  </i>
   <i type="logical" name="LSCALAPACK"> T  </i>
   <i type="logical" name="LSCAAWARE"> F  </i>
   <i type="logical" name="LSCALU"> F  </i>
   <i type="logical" name="LASYNC"> F  </i>
   <i type="logical" name="LORBITALREAL"> F  </i>
  </separator>
  <separator name="miscellaneous" >
   <i type="int" name="IDIOT">     3</i>
   <i type="int" name="ISPECIAL">     0</i>
   <i type="logical" name="LMUSIC"> F  </i>
   <v name="POMASS">    132.90000000    207.20000000     79.90400000</v>
   <v name="DARWINR">      0.00000000      0.00000000      0.00000000</v>
   <v name="DARWINV">      1.00000000      1.00000000      1.00000000</v>
   <i type="logical" name="LCORR"> T  </i>
  </separator>
  <i type="logical" name="GGA_COMPAT"> T  </i>
  <i type="logical" name="LBERRY"> F  </i>
  <i type="int" name="ICORELEVEL">     0</i>
  <i type="logical" name="LDAU"> F  </i>
  <i type="int" name="I_CONSTRAINED_M">     0</i>
  <separator name="electronic exchange-correlation" >
   <i type="string" name="GGA">--</i>
   <i type="int" name="VOSKOWN">     0</i>
   <i type="logical" name="LHFCALC"> F  </i>
   <i type="string" name="PRECFOCK"></i>
   <i type="logical" name="LSYMGRAD"> F  </i>
   <i type="logical" name="LHFONE"> F  </i>
   <i type="logical" name="LRHFCALC"> F  </i>
   <i type="logical" name="LTHOMAS"> F  </i>
   <i type="logical" name="LMODELHF"> F  </i>
   <i name="ENCUT4O">     -1.00000000</i>
   <i type="int" name="EXXOEP">     0</i>
   <i type="int" name="FOURORBIT">     0</i>
   <i name="AEXX">      0.00000000</i>
   <i name="HFALPHA">      0.00000000</i>
   <i name="MCALPHA">      0.00000000</i>
   <i name="ALDAX">      1.00000000</i>
   <i name="AGGAX">      1.00000000</i>
   <i name="ALDAC">      1.00000000</i>
   <i name="AGGAC">      1.00000000</i>
   <i type="int" name="NKREDX">     1</i>
   <i type="int" name="NKREDY">     1</i>
   <i type="int" name="NKREDZ">     1</i>
   <i type="logical" name="SHIFTRED"> F  </i>
   <i type="logical" name="ODDONLY"> F  </i>
   <i type="logical" name="EVENONLY"> F  </i>
   <i type="int" name="LMAXFOCK">     0</i>
   <i type="int" name="NMAXFOCKAE">     0</i>
   <i type="logical" name="LFOCKAEDFT"> F  </i>
   <i name="HFSCREEN">      0.00000000</i>
   <i name="HFSCREENC">      0.00000000</i>
   <i type="int" name="NBANDSGWLOW">     0</i>
  </separator>
  <separator name="vdW DFT" >
   <i type="logical" name="LUSE_VDW"> F  </i>
   <i name="Zab_VDW">     -0.84910000</i>
   <i name="PARAM1">      0.12340000</i>
   <i name="PARAM2">      1.00000000</i>
   <i name="PARAM3">      0.00000000</i>
  </separator>
  <separator name="model GW" >
   <i type="int" name="MODEL_GW">     0</i>
   <i name="MODEL_EPS0">     24.00407802</i>
   <i name="MODEL_ALPHA">      1.00000000</i>
  </separator>
  <separator name="linear response parameters" >
   <i type="logical" name="LEPSILON"> F  </i>
   <i type="logical" name="LRPA"> F  </i>
   <i type="logical" name="LNABLA"> F  </i>
   <i type="logical" name="LVEL"> F  </i>
   <i type="int" name="KINTER">     0</i>
   <i name="CSHIFT">      0.10000000</i>
   <i name="OMEGAMAX">     -1.00000000</i>
   <i name="DEG_THRESHOLD">      0.00200000</i>
   <i name="RTIME">     -0.10000000</i>
   <i name="WPLASMAI">      0.00000000</i>
   <v name="DFIELD">      0.00000000      0.00000000      0.00000000</v>
   <v name="WPLASMA">      0.00000000      0.00000000      0.00000000      0.00000000      0.00000000      0.00000000      0.00000000      0.00000000      0.00000000</v>
  </separator>
  <separator name="orbital magnetization" >
   <i type="logical" name="NUCIND"> F  </i>
   <v name="MAGPOS">      0.00000000      0.00000000      0.00000000</v>
   <i type="logical" name="LNICSALL"> T  </i>
   <i type="logical" name="ORBITALMAG"> F  </i>
   <i type="logical" name="LMAGBLOCH"> F  </i>
   <i type="logical" name="LCHIMAG"> F  </i>
   <i type="logical" name="LGAUGE"> T  </i>
   <i type="int" name="MAGATOM">     0</i>
   <v name="MAGDIPOL">      0.00000000      0.00000000      0.00000000</v>
   <v name="AVECCONST">      0.00000000      0.00000000      0.00000000</v>
  </separator>
  <separator name="response functions" >
   <i type="logical" name="LADDER"> F  </i>
   <i type="logical" name="LRPAFORCE"> F  </i>
   <i type="logical" name="LFXC"> F  </i>
   <i type="logical" name="LHARTREE"> T  </i>
   <i type="int" name="IBSE">     0</i>
   <v type="int" name="KPOINT">    -1     0     0     0</v>
   <i type="logical" name="LTCTE"> F  </i>
   <i type="logical" name="LTETE"> F  </i>
   <i type="logical" name="LTRIPLET"> F  </i>
   <i type="logical" name="LFXCEPS"> F  </i>
   <i type="logical" name="LFXHEG"> F  </i>
   <i type="int" name="NATURALO">     2</i>
   <i type="logical" name="L2ORDER"> F  </i>
   <i type="logical" name="LMP2LT"> F  </i>
   <i type="logical" name="LUSEW"> F  </i>
   <i name="ENCUTGW">     -2.00000000</i>
   <i name="ENCUTGWSOFT">     -2.00000000</i>
   <i name="ENCUTLF">     -1.00000000</i>
   <i type="int" name="LMAXMP2">    -1</i>
   <i name="SCISSOR">      0.00000000</i>
   <i type="int" name="NOMEGA">     0</i>
   <i type="int" name="NOMEGAR">     0</i>
   <i type="int" name="NBANDSGW">    -1</i>
   <i type="int" name="NBANDSO">    -1</i>
   <i type="int" name="NBANDSV">    -1</i>
   <i type="int" name="NELM">   200</i>
   <i type="int" name="NELMHF">     1</i>
   <i type="int" name="DIM">     3</i>
   <i type="int" name="ANTIRES">     0</i>
   <i name="OMEGAMAX">    -30.00000000</i>
   <i name="OMEGAMIN">    -30.00000000</i>
   <i name="OMEGATL">   -200.00000000</i>
   <i type="int" name="OMEGAGRID">   140</i>
   <i name="CSHIFT">     -0.10000000</i>
   <i type="logical" name="SELFENERGY"> F  </i>
   <i type="logical" name="LSPECTRAL"> F  </i>
   <i type="logical" name="LSPECTRALGW"> F  </i>
   <i type="logical" name="LSINGLES"> F  </i>
   <i type="logical" name="LFERMIGW"> F  </i>
   <i type="logical" name="ODDONLYGW"> F  </i>
   <i type="logical" name="EVENONLYGW"> F  </i>
   <i type="int" name="NKREDLFX">     1</i>
   <i type="int" name="NKREDLFY">     1</i>
   <i type="int" name="NKREDLFZ">     1</i>
   <i type="int" name="MAXMEM">  2800</i>
   <i type="int" name="TELESCOPE">     0</i>
   <i type="int" name="TAUPAR">     1</i>
   <i type="int" name="OMEGAPAR">    -1</i>
   <i name="LAMBDA">      1.00000000</i>
  </separator>
  <separator name="External order field" >
   <i name="OFIELD_KAPPA">      0.00000000</i>
   <v name="OFIELD_K">      0.00000000      0.00000000      0.00000000</v>
   <i name="OFIELD_Q6_NEAR">      0.00000000</i>
   <i name="OFIELD_Q6_FAR">      0.00000000</i>
   <i name="OFIELD_A">      0.00000000</i>
  </separator>
 </parameters>
 <atominfo>
  <atoms>      40 </atoms>
  <types>       3 </types>
  <array name="atoms" >
   <dimension dim="1">ion</dimension>
   <field type="string">element</field>
   <field type="int">atomtype</field>
   <set>
    <rc><c>Cs</c><c>   1</c></rc>
    <rc><c>Cs</c><c>   1</c></rc>
    <rc><c>Cs</c><c>   1</c></rc>
    <rc><c>Cs</c><c>   1</c></rc>
    <rc><c>Cs</c><c>   1</c></rc>
    <rc><c>Cs</c><c>   1</c></rc>
    <rc><c>Cs</c><c>   1</c></rc>
    <rc><c>Cs</c><c>   1</c></rc>
    <rc><c>Pb</c><c>   2</c></rc>
    <rc><c>Pb</c><c>   2</c></rc>
    <rc><c>Pb</c><c>   2</c></rc>
    <rc><c>Pb</c><c>   2</c></rc>
    <rc><c>Pb</c><c>   2</c></rc>
    <rc><c>Pb</c><c>   2</c></rc>
    <rc><c>Pb</c><c>   2</c></rc>
    <rc><c>Pb</c><c>   2</c></rc>
    <rc><c>Br</c><c>   3</c></rc>
    <rc><c>Br</c><c>   3</c></rc>
    <rc><c>Br</c><c>   3</c></rc>
    <rc><c>Br</c><c>   3</c></rc>
    <rc><c>Br</c><c>   3</c></rc>
    <rc><c>Br</c><c>   3</c></rc>
    <rc><c>Br</c><c>   3</c></rc>
    <rc><c>Br</c><c>   3</c></rc>
    <rc><c>Br</c><c>   3</c></rc>
    <rc><c>Br</c><c>   3</c></rc>
    <rc><c>Br</c><c>   3</c></rc>
    <rc><c>Br</c><c>   3</c></rc>
    <rc><c>Br</c><c>   3</c></rc>
    <rc><c>Br</c><c>   3</c></rc>
    <rc><c>Br</c><c>   3</c></rc>
    <rc><c>Br</c><c>   3</c></rc>
    <rc><c>Br</c><c>   3</c></rc>
    <rc><c>Br</c><c>   3</c></rc>
    <rc><c>Br</c><c>   3</c></rc>
    <rc><c>Br</c><c>   3</c></rc>
    <rc><c>Br</c><c>   3</c></rc>
    <rc><c>Br</c><c>   3</c></rc>
    <rc><c>Br</c><c>   3</c></rc>
    <rc><c>Br</c><c>   3</c></rc>
   </set>
  </array>
  <array name="atomtypes" >
   <dimension dim="1">type</dimension>
   <field type="int">atomspertype</field>
   <field type="string">element</field>
   <field>mass</field>
   <field>valence</field>
   <field type="string">pseudopotential</field>
   <set>
    <rc><c>   8</c><c>Cs</c><c>    132.90000000</c><c>      9.00000000</c><c>  PAW_PBE Cs_sv 08Apr2002               </c></rc>
    <rc><c>   8</c><c>Pb</c><c>    207.20000000</c><c>     14.00000000</c><c>  PAW_PBE Pb_d 06Sep2000                </c></rc>
    <rc><c>  24</c><c>Br</c><c>     79.90400000</c><c>      7.00000000</c><c>  PAW_PBE Br 06Sep2000                  </c></rc>
   </set>
  </array>
 </atominfo>
 <structure name="initialpos" >
  <crystal>
   <varray name="basis" >
    <v>       8.42001800       0.00000000       8.07798100 </v>
    <v>       0.00000000      11.76380800       0.00000000 </v>
    <v>      -8.42001800       0.00000000       8.07798100 </v>
   </varray>
   <i name="volume">   1600.27186790 </i>
   <varray name="rec_basis" >
    <v>       0.05938230      -0.00000000       0.06189665 </v>
    <v>       0.00000000       0.08500649      -0.00000000 </v>
    <v>      -0.05938230       0.00000000       0.06189665 </v>
   </varray>
  </crystal>
  <varray name="positions" >
   <v>       0.27212500       0.25000000       0.20823600 </v>
   <v>       0.74797925       0.23956406       0.78800868 </v>
   <v>       0.73755215       0.67304761       0.23178238 </v>
   <v>       0.23553425       0.67811152       0.71356413 </v>
   <v>       0.27363494       0.13538824       0.75148894 </v>
   <v>       0.73681526       0.17564882       0.19579682 </v>
   <v>       0.76120701       0.70253710       0.74613589 </v>
   <v>       0.22086803       0.73600577       0.24526926 </v>
   <v>       0.00818914       0.93672454       0.98240430 </v>
   <v>       0.47638341       0.97177079       0.49980321 </v>
   <v>       0.49162414       0.93268022       0.01889601 </v>
   <v>       0.96076712       0.98800204       0.46534290 </v>
   <v>       0.50746160       0.45843229       0.05507973 </v>
   <v>       0.95021157       0.44298916       0.50452490 </v>
   <v>       0.00137736       0.44552611       0.98926120 </v>
   <v>       0.46816715       0.47522464       0.52109424 </v>
   <v>       0.48361017       0.69535751       0.04876865 </v>
   <v>       0.04087277       0.67388663       0.45356452 </v>
   <v>       0.99503283       0.18321277       0.05959349 </v>
   <v>       0.53336602       0.23175273       0.57851666 </v>
   <v>       0.96518515       0.68763091       0.95357313 </v>
   <v>       0.41878925       0.72913547       0.46389445 </v>
   <v>       0.47733907       0.20528941       0.96050050 </v>
   <v>       0.85003921       0.21422216       0.46868054 </v>
   <v>       0.23450811       0.51257474       0.03287934 </v>
   <v>       0.72311764       0.53966287       0.51365952 </v>
   <v>       0.54252729       0.41198652       0.28147355 </v>
   <v>       0.06488266       0.35247737       0.77272772 </v>
   <v>       0.48245615       0.89515838       0.73425801 </v>
   <v>       0.95996479       0.89762429       0.23059323 </v>
   <v>       0.72796227       0.98540290       0.96873886 </v>
   <v>       0.22665978       0.04777691       0.42739300 </v>
   <v>       0.25386421       0.94997938       0.04010607 </v>
   <v>       0.70520048       0.88970581       0.46880311 </v>
   <v>       0.48448764       0.99108372       0.26004595 </v>
   <v>       0.00456063       0.93256954       0.69740070 </v>
   <v>       0.73363990       0.46645942       0.00264244 </v>
   <v>       0.22390370       0.38726215       0.49666438 </v>
   <v>       0.47156279       0.52247976       0.76208042 </v>
   <v>       0.99950160       0.43158048       0.26517381 </v>
  </varray>
  <varray name="selective"  type="logical" >
   <v type="logical" >  F  F  F </v>
   <v type="logical" >  T  T  T </v>
   <v type="logical" >  T  T  T </v>
   <v type="logical" >  T  T  T </v>
   <v type="logical" >  T  T  T </v>
   <v type="logical" >  T  T  T </v>
   <v type="logical" >  T  T  T </v>
   <v type="logical" >  T  T  T </v>
   <v type="logical" >  T  T  T </v>
   <v type="logical" >  T  T  T </v>
   <v type="logical" >  T  T  T </v>
   <v type="logical" >  T  T  T </v>
   <v type="logical" >  T  T  T </v>
   <v type="logical" >  T  T  T </v>
   <v type="logical" >  T  T  T </v>
   <v type="logical" >  T  T  T </v>
   <v type="logical" >  T  T  T </v>
   <v type="logical" >  T  T  T </v>
   <v type="logical" >  T  T  T </v>
   <v type="logical" >  T  T  T </v>
   <v type="logical" >  T  T  T </v>
   <v type="logical" >  T  T  T </v>
   <v type="logical" >  T  T  T </v>
   <v type="logical" >  T  T  T </v>
   <v type="logical" >  T  T  T </v>
   <v type="logical" >  T  T  T </v>
   <v type="logical" >  T  T  T </v>
   <v type="logical" >  T  T  T </v>
   <v type="logical" >  T  T  T </v>
   <v type="logical" >  T  T  T </v>
   <v type="logical" >  T  T  T </v>
   <v type="logical" >  T  T  T </v>
   <v type="logical" >  T  T  T </v>
   <v type="logical" >  T  T  T </v>
   <v type="logical" >  T  T  T </v>
   <v type="logical" >  T  T  T </v>
   <v type="logical" >  T  T  T </v>
   <v type="logical" >  T  T  T </v>
   <v type="logical" >  T  T  T </v>
   <v type="logical" >  T  T  T </v>
  </varray>
  <nose>
   <v>      -3.00000000       0.00000000       0.00010000       0.00010000 </v>
  </nose>
 </structure>
 <calculation>
  <scstep>
   <time name="dav">   16.93   16.94</time>
   <time name="total">   18.39   18.40</time>
   <energy>
    <i name="alphaZ">    901.86909112 </i>
    <i name="ewald"> -18424.41730351 </i>
    <i name="hartreedc">  -7344.15993519 </i>
    <i name="XCdc">    924.63215714 </i>
    <i name="pawpsdc">  21633.96174531 </i>
    <i name="pawaedc"> -22707.92185401 </i>
    <i name="eentropy">     -0.00109186 </i>
    <i name="bandstr">   -189.72000437 </i>
    <i name="atom">  26580.56019858 </i>
    <i name="e_fr_energy">   1374.80300321 </i>
    <i name="e_wo_entrp">   1374.80409507 </i>
    <i name="e_0_energy">   1374.80354914 </i>
   </energy>
  </scstep>
  <scstep>
   <time name="dav">   18.80   18.81</time>
   <time name="total">   18.80   18.81</time>
   <energy>
    <i name="e_fr_energy">  -1118.26797482 </i>
    <i name="e_wo_entrp">  -1118.26797482 </i>
    <i name="e_0_energy">  -1118.26797482 </i>
   </energy>
  </scstep>
  <scstep>
   <time name="dav">   20.00   20.03</time>
   <time name="total">   20.00   20.03</time>
   <energy>
    <i name="e_fr_energy">  -1493.81262402 </i>
    <i name="e_wo_entrp">  -1493.81262402 </i>
    <i name="e_0_energy">  -1493.81262402 </i>
   </energy>
  </scstep>
  <scstep>
   <time name="dav">   18.36   18.37</time>
   <time name="total">   18.36   18.37</time>
   <energy>
    <i name="e_fr_energy">  -1506.60774997 </i>
    <i name="e_wo_entrp">  -1506.60774997 </i>
    <i name="e_0_energy">  -1506.60774997 </i>
   </energy>
  </scstep>
  <scstep>
   <time name="dav">   19.66   19.68</time>
   <time name="total">   22.45   22.47</time>
   <energy>
    <i name="e_fr_energy">  -1507.23799277 </i>
    <i name="e_wo_entrp">  -1507.23799277 </i>
    <i name="e_0_energy">  -1507.23799277 </i>
   </energy>
  </scstep>
  <scstep>
   <time name="dav">   19.64   19.64</time>
   <time name="total">   23.84   23.88</time>
   <energy>
    <i name="e_fr_energy">  -1426.55456227 </i>
    <i name="e_wo_entrp">  -1426.55456227 </i>
    <i name="e_0_energy">  -1426.55456227 </i>
   </energy>
  </scstep>
  <scstep>
   <time name="dav">   18.77   18.77</time>
   <time name="total">   23.00   23.02</time>
   <energy>
    <i name="e_fr_energy">  -1426.01166885 </i>
    <i name="e_wo_entrp">  -1426.01166885 </i>
    <i name="e_0_energy">  -1426.01166885 </i>
   </energy>
  </scstep>
  <scstep>
   <time name="dav">   18.49   18.49</time>
   <time name="total">   22.71   22.74</time>
   <energy>
    <i name="e_fr_energy">  -1426.18672021 </i>
    <i name="e_wo_entrp">  -1426.18672021 </i>
    <i name="e_0_energy">  -1426.18672021 </i>
   </energy>
  </scstep>
  <scstep>
   <time name="dav">   18.02   18.02</time>
   <time name="total">   22.25   22.27</time>
   <energy>
    <i name="e_fr_energy">  -1426.24337800 </i>
    <i name="e_wo_entrp">  -1426.24337800 </i>
    <i name="e_0_energy">  -1426.24337800 </i>
   </energy>
  </scstep>
  <scstep>
   <time name="dav">   20.72   20.72</time>
   <time name="total">   24.93   24.95</time>
   <energy>
    <i name="e_fr_energy">  -1426.24795205 </i>
    <i name="e_wo_entrp">  -1426.24795205 </i>
    <i name="e_0_energy">  -1426.24795205 </i>
   </energy>
  </scstep>
  <scstep>
   <time name="dav">   18.56   18.56</time>
   <time name="total">   22.79   22.82</time>
   <energy>
    <i name="e_fr_energy">  -1426.24926696 </i>
    <i name="e_wo_entrp">  -1426.24926696 </i>
    <i name="e_0_energy">  -1426.24926696 </i>
   </energy>
  </scstep>
  <scstep>
   <time name="dav">   17.90   17.90</time>
   <time name="total">   22.12   22.15</time>
   <energy>
    <i name="e_fr_energy">  -1426.25163116 </i>
    <i name="e_wo_entrp">  -1426.25163116 </i>
    <i name="e_0_energy">  -1426.25163116 </i>
   </energy>
  </scstep>
  <scstep>
   <time name="dav">   20.25   20.25</time>
   <time name="total">   24.48   24.50</time>
   <energy>
    <i name="e_fr_energy">  -1426.25134110 </i>
    <i name="e_wo_entrp">  -1426.25134110 </i>
    <i name="e_0_energy">  -1426.25134110 </i>
   </energy>
  </scstep>
  <scstep>
   <time name="dav">   18.86   18.86</time>
   <time name="total">   23.09   23.15</time>
   <energy>
    <i name="e_fr_energy">  -1426.25118835 </i>
    <i name="e_wo_entrp">  -1426.25118835 </i>
    <i name="e_0_energy">  -1426.25118835 </i>
   </energy>
  </scstep>
  <scstep>
   <time name="dav">   20.85   20.85</time>
   <time name="total">   25.09   25.09</time>
   <energy>
    <i name="e_fr_energy">  -1426.25111940 </i>
    <i name="e_wo_entrp">  -1426.25111940 </i>
    <i name="e_0_energy">  -1426.25111940 </i>
   </energy>
  </scstep>
  <scstep>
   <time name="dav">   18.95   18.95</time>
   <time name="total">   23.18   23.19</time>
   <energy>
    <i name="e_fr_energy">  -1426.25111395 </i>
    <i name="e_wo_entrp">  -1426.25111395 </i>
    <i name="e_0_energy">  -1426.25111395 </i>
   </energy>
  </scstep>
  <scstep>
   <time name="dav">   18.56   18.56</time>
   <time name="total">   22.79   22.81</time>
   <energy>
    <i name="e_fr_energy">  -1426.25110619 </i>
    <i name="e_wo_entrp">  -1426.25110619 </i>
    <i name="e_0_energy">  -1426.25110619 </i>
   </energy>
  </scstep>
  <scstep>
   <time name="dav">   13.87   13.87</time>
   <time name="total">   18.11   18.12</time>
   <energy>
    <i name="e_fr_energy">  -1426.25110195 </i>
    <i name="e_wo_entrp">  -1426.25110195 </i>
    <i name="e_0_energy">  -1426.25110195 </i>
   </energy>
  </scstep>
  <scstep>
   <time name="dav">   13.57   13.57</time>
   <time name="total">   17.80   17.81</time>
   <energy>
    <i name="e_fr_energy">  -1426.25110402 </i>
    <i name="e_wo_entrp">  -1426.25110402 </i>
    <i name="e_0_energy">  -1426.25110402 </i>
   </energy>
  </scstep>
  <scstep>
   <time name="dav">   12.89   12.89</time>
   <time name="total">   17.13   17.15</time>
   <energy>
    <i name="e_fr_energy">  -1426.25110656 </i>
    <i name="e_wo_entrp">  -1426.25110656 </i>
    <i name="e_0_energy">  -1426.25110656 </i>
   </energy>
  </scstep>
  <scstep>
   <time name="dav">   12.74   12.75</time>
   <time name="total">   16.98   17.00</time>
   <energy>
    <i name="e_fr_energy">  -1426.25110756 </i>
    <i name="e_wo_entrp">  -1426.25110756 </i>
    <i name="e_0_energy">  -1426.25110756 </i>
   </energy>
  </scstep>
  <scstep>
   <time name="dav">   12.78   12.78</time>
   <time name="total">   14.25   14.25</time>
   <energy>
    <i name="alphaZ">    901.86909112 </i>
    <i name="ewald"> -18424.41730351 </i>
    <i name="hartreedc">  -7378.14403846 </i>
    <i name="XCdc">    963.42983211 </i>
    <i name="pawpsdc">  23275.61232158 </i>
    <i name="pawaedc"> -24349.02961498 </i>
    <i name="eentropy">     -0.00000000 </i>
    <i name="bandstr">  -2996.13159407 </i>
    <i name="atom">  26580.56019858 </i>
    <i name="e_fr_energy">  -1426.25110763 </i>
    <i name="e_wo_entrp">  -1426.25110763 </i>
    <i name="e_0_energy">  -1426.25110763 </i>
   </energy>
  </scstep>
  <structure>
   <crystal>
    <varray name="basis" >
     <v>       8.42001800       0.00000000       8.07798100 </v>
     <v>       0.00000000      11.76380800       0.00000000 </v>
     <v>      -8.42001800       0.00000000       8.07798100 </v>
    </varray>
    <i name="volume">   1600.27186790 </i>
    <varray name="rec_basis" >
     <v>       0.05938230      -0.00000000       0.06189665 </v>
     <v>       0.00000000       0.08500649      -0.00000000 </v>
     <v>      -0.05938230       0.00000000       0.06189665 </v>
    </varray>
   </crystal>
   <varray name="positions" >
    <v>       0.27212500       0.25000000       0.20823600 </v>
    <v>       0.74797925       0.23956406       0.78800868 </v>
    <v>       0.73755215       0.67304761       0.23178238 </v>
    <v>       0.23553425       0.67811152       0.71356413 </v>
    <v>       0.27363494       0.13538824       0.75148894 </v>
    <v>       0.73681526       0.17564882       0.19579682 </v>
    <v>       0.76120701       0.70253710       0.74613589 </v>
    <v>       0.22086803       0.73600577       0.24526926 </v>
    <v>       0.00818914       0.93672454       0.98240430 </v>
    <v>       0.47638341       0.97177079       0.49980321 </v>
    <v>       0.49162414       0.93268022       0.01889601 </v>
    <v>       0.96076712       0.98800204       0.46534290 </v>
    <v>       0.50746160       0.45843229       0.05507973 </v>
    <v>       0.95021157       0.44298916       0.50452490 </v>
    <v>       0.00137736       0.44552611       0.98926120 </v>
    <v>       0.46816715       0.47522464       0.52109424 </v>
    <v>       0.48361017       0.69535751       0.04876865 </v>
    <v>       0.04087277       0.67388663       0.45356452 </v>
    <v>       0.99503283       0.18321277       0.05959349 </v>
    <v>       0.53336602       0.23175273       0.57851666 </v>
    <v>       0.96518515       0.68763091       0.95357313 </v>
    <v>       0.41878925       0.72913547       0.46389445 </v>
    <v>       0.47733907       0.20528941       0.96050050 </v>
    <v>       0.85003921       0.21422216       0.46868054 </v>
    <v>       0.23450811       0.51257474       0.03287934 </v>
    <v>       0.72311764       0.53966287       0.51365952 </v>
    <v>       0.54252729       0.41198652       0.28147355 </v>
    <v>       0.06488266       0.35247737       0.77272772 </v>
    <v>       0.48245615       0.89515838       0.73425801 </v>
    <v>       0.95996479       0.89762429       0.23059323 </v>
    <v>       0.72796227       0.98540290       0.96873886 </v>
    <v>       0.22665978       0.04777691       0.42739300 </v>
    <v>       0.25386421       0.94997938       0.04010607 </v>
    <v>       0.70520048       0.88970581       0.46880311 </v>
    <v>       0.48448764       0.99108372       0.26004595 </v>
    <v>       0.00456063       0.93256954       0.69740070 </v>
    <v>       0.73363990       0.46645942       0.00264244 </v>
    <v>       0.22390370       0.38726215       0.49666438 </v>
    <v>       0.47156279       0.52247976       0.76208042 </v>
    <v>       0.99950160       0.43158048       0.26517381 </v>
   </varray>
  </structure>
  <varray name="forces" >
   <v>      -0.21173616      -0.12092682       0.02352756 </v>
   <v>       0.06573401      -0.13336986      -0.01438759 </v>
   <v>      -0.02759103       0.16891217       0.43342571 </v>
   <v>      -0.19583975       0.14098967      -0.22878728 </v>
   <v>       0.20048088       0.10555294      -0.30287777 </v>
   <v>      -0.17637626       0.10921582      -0.05477860 </v>
   <v>      -0.30323419       0.45518227      -0.44442680 </v>
   <v>       0.10108138      -0.10621715      -0.08192742 </v>
   <v>      -0.56674312       0.46616840      -0.14429993 </v>
   <v>      -0.31591552       0.12462227       0.19360992 </v>
   <v>       0.72110417       0.64867329      -0.03290242 </v>
   <v>       0.15782099       0.01634193      -0.00973656 </v>
   <v>       0.15026373      -0.62779669      -1.57241668 </v>
   <v>       0.87934231       0.18643489       0.48982088 </v>
   <v>       0.02142582      -0.47324276       0.57243365 </v>
   <v>      -0.51690126      -0.37160251       0.04038388 </v>
   <v>      -0.06746452       0.27196274       0.17332530 </v>
   <v>      -0.71961631       0.21421018       0.13585817 </v>
   <v>       0.36601586      -0.10724120      -0.12332507 </v>
   <v>      -0.06145000      -0.00507969      -0.27462636 </v>
   <v>       0.06998088       0.22746404       0.32708026 </v>
   <v>      -0.00608856      -0.16610299       0.11133402 </v>
   <v>      -0.12983146       0.02692295       0.38642518 </v>
   <v>      -0.13455484      -0.37041581       0.26540869 </v>
   <v>      -0.03303299      -0.18462394      -0.07650089 </v>
   <v>       0.09154978      -0.15074816      -0.08416132 </v>
   <v>      -0.04214334      -0.19437988       0.29566133 </v>
   <v>      -0.23884564       0.30129304      -0.32304438 </v>
   <v>      -0.62644063      -0.06540051       0.43998983 </v>
   <v>       0.47189060      -0.00358796      -0.57979573 </v>
   <v>       0.59682926      -0.31788426       0.36050779 </v>
   <v>      -0.60926662      -0.25743813      -0.16972312 </v>
   <v>      -0.48986401       0.16663088      -0.87239681 </v>
   <v>       0.45685977       0.02613349       0.60177379 </v>
   <v>       0.81389442       0.16958356      -0.52711522 </v>
   <v>      -0.43706821      -0.03590350       0.60199146 </v>
   <v>       0.49912479      -0.07755388       0.24808628 </v>
   <v>       0.13463247       0.16923321       0.29389718 </v>
   <v>       0.19451328      -0.21734473       0.35291325 </v>
   <v>      -0.08253998      -0.00866729      -0.43022417 </v>
  </varray>
  <varray name="stress" >
   <v>       2.67332623      -1.30548880      -1.73120501 </v>
   <v>      -1.30593691       0.62816011       0.09095220 </v>
   <v>      -1.73130575       0.09096084      10.17953780 </v>
  </varray>
  <energy>
   <i name="e_fr_energy">  -1426.25110763 </i>
   <i name="e_wo_entrp">  -1426.25110763 </i>
   <i name="e_0_energy">     -0.00000000 </i>
  </energy>
  <time name="totalsc">  519.26  519.70</time>
  <eigenvalues>
   <array>
    <dimension dim="1">band</dimension>
    <dimension dim="2">kpoint</dimension>
    <dimension dim="3">spin</dimension>
    <field>eigene</field>
    <field>occ</field>
    <set>
     <set comment="spin 1">
      <set comment="kpoint 1">
       <r>  -20.9699    1.0000 </r>
       <r>  -20.9498    1.0000 </r>
       <r>  -20.8761    1.0000 </r>
       <r>  -20.7480    1.0000 </r>
       <r>  -20.7475    1.0000 </r>
       <r>  -20.7342    1.0000 </r>
       <r>  -20.6347    1.0000 </r>
       <r>  -20.4258    1.0000 </r>
       <r>  -16.8767    1.0000 </r>
       <r>  -16.8489    1.0000 </r>
       <r>  -16.7969    1.0000 </r>
       <r>  -16.7745    1.0000 </r>
       <r>  -16.7676    1.0000 </r>
       <r>  -16.6519    1.0000 </r>
       <r>  -16.6271    1.0000 </r>
       <r>  -16.5842    1.0000 </r>
       <r>  -16.5705    1.0000 </r>
       <r>  -16.5377    1.0000 </r>
       <r>  -16.5314    1.0000 </r>
       <r>  -16.5173    1.0000 </r>
       <r>  -16.5114    1.0000 </r>
       <r>  -16.4918    1.0000 </r>
       <r>  -16.4817    1.0000 </r>
       <r>  -16.4575    1.0000 </r>
       <r>  -16.4451    1.0000 </r>
       <r>  -16.4345    1.0000 </r>
       <r>  -16.4291    1.0000 </r>
       <r>  -16.4231    1.0000 </r>
       <r>  -16.4173    1.0000 </r>
       <r>  -16.4050    1.0000 </r>
       <r>  -16.4042    1.0000 </r>
       <r>  -16.3937    1.0000 </r>
       <r>  -16.3925    1.0000 </r>
       <r>  -16.2837    1.0000 </r>
       <r>  -16.2655    1.0000 </r>
       <r>  -16.2039    1.0000 </r>
       <r>  -16.1758    1.0000 </r>
       <r>  -16.1697    1.0000 </r>
       <r>  -16.1539    1.0000 </r>
       <r>  -16.1480    1.0000 </r>
       <r>  -16.1289    1.0000 </r>
       <r>  -16.0676    1.0000 </r>
       <r>  -16.0607    1.0000 </r>
       <r>  -16.0470    1.0000 </r>
       <r>  -16.0425    1.0000 </r>
       <r>  -15.9742    1.0000 </r>
       <r>  -15.9647    1.0000 </r>
       <r>  -15.9515    1.0000 </r>
       <r>  -14.8416    1.0000 </r>
       <r>  -14.6392    1.0000 </r>
       <r>  -14.5172    1.0000 </r>
       <r>  -14.4207    1.0000 </r>
       <r>  -14.3943    1.0000 </r>
       <r>  -14.2159    1.0000 </r>
       <r>  -14.1603    1.0000 </r>
       <r>  -14.1497    1.0000 </r>
       <r>  -14.1060    1.0000 </r>
       <r>  -13.9981    1.0000 </r>
       <r>  -13.9963    1.0000 </r>
       <r>  -13.9402    1.0000 </r>
       <r>  -13.8238    1.0000 </r>
       <r>  -13.8118    1.0000 </r>
       <r>  -13.7561    1.0000 </r>
       <r>  -13.6407    1.0000 </r>
       <r>  -13.6003    1.0000 </r>
       <r>  -13.5809    1.0000 </r>
       <r>  -13.5476    1.0000 </r>
       <r>  -13.5184    1.0000 </r>
       <r>  -13.3507    1.0000 </r>
       <r>  -13.3024    1.0000 </r>
       <r>  -13.1774    1.0000 </r>
       <r>  -13.0605    1.0000 </r>
       <r>   -8.3189    1.0000 </r>
       <r>   -7.8682    1.0000 </r>
       <r>   -7.6946    1.0000 </r>
       <r>   -7.5600    1.0000 </r>
       <r>   -7.4174    1.0000 </r>
       <r>   -7.3940    1.0000 </r>
       <r>   -7.3710    1.0000 </r>
       <r>   -7.3593    1.0000 </r>
       <r>   -7.3431    1.0000 </r>
       <r>   -7.3287    1.0000 </r>
       <r>   -7.3244    1.0000 </r>
       <r>   -7.3115    1.0000 </r>
       <r>   -7.2679    1.0000 </r>
       <r>   -7.2412    1.0000 </r>
       <r>   -7.2141    1.0000 </r>
       <r>   -7.2026    1.0000 </r>
       <r>   -7.1808    1.0000 </r>
       <r>   -7.1690    1.0000 </r>
       <r>   -7.1661    1.0000 </r>
       <r>   -7.1451    1.0000 </r>
       <r>   -7.1392    1.0000 </r>
       <r>   -7.1169    1.0000 </r>
       <r>   -7.1082    1.0000 </r>
       <r>   -7.0844    1.0000 </r>
       <r>   -7.0596    1.0000 </r>
       <r>   -7.0573    1.0000 </r>
       <r>   -7.0140    1.0000 </r>
       <r>   -6.9913    1.0000 </r>
       <r>   -6.9121    1.0000 </r>
       <r>   -6.8541    1.0000 </r>
       <r>   -6.8431    1.0000 </r>
       <r>   -6.5975    1.0000 </r>
       <r>   -3.6179    1.0000 </r>
       <r>   -3.5292    1.0000 </r>
       <r>   -3.4245    1.0000 </r>
       <r>   -3.3330    1.0000 </r>
       <r>   -3.1922    1.0000 </r>
       <r>   -3.1775    1.0000 </r>
       <r>   -3.0330    1.0000 </r>
       <r>   -2.8254    1.0000 </r>
       <r>   -2.7866    1.0000 </r>
       <r>   -2.6234    1.0000 </r>
       <r>   -2.6060    1.0000 </r>
       <r>   -2.5399    1.0000 </r>
       <r>   -2.4442    1.0000 </r>
       <r>   -2.3394    1.0000 </r>
       <r>   -2.2731    1.0000 </r>
       <r>   -2.1713    1.0000 </r>
       <r>   -2.1451    1.0000 </r>
       <r>   -2.0529    1.0000 </r>
       <r>   -2.0198    1.0000 </r>
       <r>   -2.0006    1.0000 </r>
       <r>   -1.9115    1.0000 </r>
       <r>   -1.9071    1.0000 </r>
       <r>   -1.8271    1.0000 </r>
       <r>   -1.8114    1.0000 </r>
       <r>   -1.7860    1.0000 </r>
       <r>   -1.7630    1.0000 </r>
       <r>   -1.7192    1.0000 </r>
       <r>   -1.6909    1.0000 </r>
       <r>   -1.6279    1.0000 </r>
       <r>   -1.6140    1.0000 </r>
       <r>   -1.5857    1.0000 </r>
       <r>   -1.5617    1.0000 </r>
       <r>   -1.5249    1.0000 </r>
       <r>   -1.4806    1.0000 </r>
       <r>   -1.4523    1.0000 </r>
       <r>   -1.4208    1.0000 </r>
       <r>   -1.4146    1.0000 </r>
       <r>   -1.3879    1.0000 </r>
       <r>   -1.3568    1.0000 </r>
       <r>   -1.3411    1.0000 </r>
       <r>   -1.2984    1.0000 </r>
       <r>   -1.2645    1.0000 </r>
       <r>   -1.2445    1.0000 </r>
       <r>   -1.1976    1.0000 </r>
       <r>   -1.1855    1.0000 </r>
       <r>   -1.1441    1.0000 </r>
       <r>   -1.1243    1.0000 </r>
       <r>   -1.0839    1.0000 </r>
       <r>   -1.0428    1.0000 </r>
       <r>   -1.0244    1.0000 </r>
       <r>   -1.0104    1.0000 </r>
       <r>   -0.9825    1.0000 </r>
       <r>   -0.9338    1.0000 </r>
       <r>   -0.9246    1.0000 </r>
       <r>   -0.8819    1.0000 </r>
       <r>   -0.8572    1.0000 </r>
       <r>   -0.7876    1.0000 </r>
       <r>   -0.7702    1.0000 </r>
       <r>   -0.7076    1.0000 </r>
       <r>   -0.6693    1.0000 </r>
       <r>   -0.6570    1.0000 </r>
       <r>   -0.6080    1.0000 </r>
       <r>   -0.5736    1.0000 </r>
       <r>   -0.5402    1.0000 </r>
       <r>   -0.4762    1.0000 </r>
       <r>   -0.3831    1.0000 </r>
       <r>   -0.3131    1.0000 </r>
       <r>   -0.2207    1.0000 </r>
       <r>   -0.1920    1.0000 </r>
       <r>   -0.1581    1.0000 </r>
       <r>   -0.1037    1.0000 </r>
       <r>    0.3395    1.0000 </r>
       <r>    2.6557    0.0000 </r>
       <r>    2.8304    0.0000 </r>
       <r>    2.9178    0.0000 </r>
       <r>    3.0094    0.0000 </r>
       <r>    3.1883    0.0000 </r>
       <r>    3.2319    0.0000 </r>
       <r>    3.3533    0.0000 </r>
       <r>    3.4057    0.0000 </r>
       <r>    3.4568    0.0000 </r>
       <r>    3.5670    0.0000 </r>
       <r>    3.6264    0.0000 </r>
       <r>    3.7846    0.0000 </r>
       <r>    4.7002    0.0000 </r>
       <r>    4.8108    0.0000 </r>
       <r>    4.9565    0.0000 </r>
       <r>    5.0780    0.0000 </r>
       <r>    5.1263    0.0000 </r>
       <r>    5.2982    0.0000 </r>
       <r>    5.3590    0.0000 </r>
       <r>    5.4337    0.0000 </r>
       <r>    5.6578    0.0000 </r>
       <r>    5.6800    0.0000 </r>
       <r>    5.8082    0.0000 </r>
       <r>    5.9101    0.0000 </r>
       <r>    5.9962    0.0000 </r>
       <r>    6.0873    0.0000 </r>
       <r>    6.1173    0.0000 </r>
       <r>    6.1689    0.0000 </r>
       <r>    6.2829    0.0000 </r>
       <r>    6.3768    0.0000 </r>
       <r>    6.4011    0.0000 </r>
       <r>    6.4334    0.0000 </r>
       <r>    6.5014    0.0000 </r>
       <r>    6.5510    0.0000 </r>
       <r>    6.6627    0.0000 </r>
       <r>    6.7865    0.0000 </r>
       <r>    6.8017    0.0000 </r>
       <r>    6.8402    0.0000 </r>
       <r>    6.8986    0.0000 </r>
       <r>    6.9926    0.0000 </r>
      </set>
      <set comment="kpoint 2">
       <r>  -20.9699    1.0000 </r>
       <r>  -20.9498    1.0000 </r>
       <r>  -20.8760    1.0000 </r>
       <r>  -20.7480    1.0000 </r>
       <r>  -20.7475    1.0000 </r>
       <r>  -20.7342    1.0000 </r>
       <r>  -20.6347    1.0000 </r>
       <r>  -20.4258    1.0000 </r>
       <r>  -16.8743    1.0000 </r>
       <r>  -16.8489    1.0000 </r>
       <r>  -16.7969    1.0000 </r>
       <r>  -16.7746    1.0000 </r>
       <r>  -16.7677    1.0000 </r>
       <r>  -16.6500    1.0000 </r>
       <r>  -16.6247    1.0000 </r>
       <r>  -16.5839    1.0000 </r>
       <r>  -16.5721    1.0000 </r>
       <r>  -16.5417    1.0000 </r>
       <r>  -16.5311    1.0000 </r>
       <r>  -16.5175    1.0000 </r>
       <r>  -16.5115    1.0000 </r>
       <r>  -16.4943    1.0000 </r>
       <r>  -16.4817    1.0000 </r>
       <r>  -16.4575    1.0000 </r>
       <r>  -16.4451    1.0000 </r>
       <r>  -16.4346    1.0000 </r>
       <r>  -16.4294    1.0000 </r>
       <r>  -16.4227    1.0000 </r>
       <r>  -16.4171    1.0000 </r>
       <r>  -16.4050    1.0000 </r>
       <r>  -16.4042    1.0000 </r>
       <r>  -16.3937    1.0000 </r>
       <r>  -16.3925    1.0000 </r>
       <r>  -16.2814    1.0000 </r>
       <r>  -16.2654    1.0000 </r>
       <r>  -16.2040    1.0000 </r>
       <r>  -16.1754    1.0000 </r>
       <r>  -16.1702    1.0000 </r>
       <r>  -16.1539    1.0000 </r>
       <r>  -16.1485    1.0000 </r>
       <r>  -16.1307    1.0000 </r>
       <r>  -16.0676    1.0000 </r>
       <r>  -16.0610    1.0000 </r>
       <r>  -16.0471    1.0000 </r>
       <r>  -16.0425    1.0000 </r>
       <r>  -15.9742    1.0000 </r>
       <r>  -15.9647    1.0000 </r>
       <r>  -15.9515    1.0000 </r>
       <r>  -14.8340    1.0000 </r>
       <r>  -14.6684    1.0000 </r>
       <r>  -14.4977    1.0000 </r>
       <r>  -14.4302    1.0000 </r>
       <r>  -14.3826    1.0000 </r>
       <r>  -14.2220    1.0000 </r>
       <r>  -14.1643    1.0000 </r>
       <r>  -14.1353    1.0000 </r>
       <r>  -14.1043    1.0000 </r>
       <r>  -13.9991    1.0000 </r>
       <r>  -13.9937    1.0000 </r>
       <r>  -13.9385    1.0000 </r>
       <r>  -13.8306    1.0000 </r>
       <r>  -13.8099    1.0000 </r>
       <r>  -13.7573    1.0000 </r>
       <r>  -13.6449    1.0000 </r>
       <r>  -13.6029    1.0000 </r>
       <r>  -13.5796    1.0000 </r>
       <r>  -13.5404    1.0000 </r>
       <r>  -13.5148    1.0000 </r>
       <r>  -13.3525    1.0000 </r>
       <r>  -13.3047    1.0000 </r>
       <r>  -13.1763    1.0000 </r>
       <r>  -13.0635    1.0000 </r>
       <r>   -8.1426    1.0000 </r>
       <r>   -8.0406    1.0000 </r>
       <r>   -7.5803    1.0000 </r>
       <r>   -7.5268    1.0000 </r>
       <r>   -7.4546    1.0000 </r>
       <r>   -7.4047    1.0000 </r>
       <r>   -7.3806    1.0000 </r>
       <r>   -7.3697    1.0000 </r>
       <r>   -7.3528    1.0000 </r>
       <r>   -7.3405    1.0000 </r>
       <r>   -7.3223    1.0000 </r>
       <r>   -7.3200    1.0000 </r>
       <r>   -7.2799    1.0000 </r>
       <r>   -7.2589    1.0000 </r>
       <r>   -7.2541    1.0000 </r>
       <r>   -7.1998    1.0000 </r>
       <r>   -7.1782    1.0000 </r>
       <r>   -7.1694    1.0000 </r>
       <r>   -7.1579    1.0000 </r>
       <r>   -7.1489    1.0000 </r>
       <r>   -7.1428    1.0000 </r>
       <r>   -7.1194    1.0000 </r>
       <r>   -7.1078    1.0000 </r>
       <r>   -7.0956    1.0000 </r>
       <r>   -7.0690    1.0000 </r>
       <r>   -7.0400    1.0000 </r>
       <r>   -7.0135    1.0000 </r>
       <r>   -6.9877    1.0000 </r>
       <r>   -6.9122    1.0000 </r>
       <r>   -6.8650    1.0000 </r>
       <r>   -6.8429    1.0000 </r>
       <r>   -6.7424    1.0000 </r>
       <r>   -3.5615    1.0000 </r>
       <r>   -3.4106    1.0000 </r>
       <r>   -3.2928    1.0000 </r>
       <r>   -3.2096    1.0000 </r>
       <r>   -3.1554    1.0000 </r>
       <r>   -2.9396    1.0000 </r>
       <r>   -2.8644    1.0000 </r>
       <r>   -2.7500    1.0000 </r>
       <r>   -2.6464    1.0000 </r>
       <r>   -2.6101    1.0000 </r>
       <r>   -2.5118    1.0000 </r>
       <r>   -2.4270    1.0000 </r>
       <r>   -2.4049    1.0000 </r>
       <r>   -2.3335    1.0000 </r>
       <r>   -2.3022    1.0000 </r>
       <r>   -2.2501    1.0000 </r>
       <r>   -2.1905    1.0000 </r>
       <r>   -2.1543    1.0000 </r>
       <r>   -2.0966    1.0000 </r>
       <r>   -2.0053    1.0000 </r>
       <r>   -1.9960    1.0000 </r>
       <r>   -1.9362    1.0000 </r>
       <r>   -1.9095    1.0000 </r>
       <r>   -1.8551    1.0000 </r>
       <r>   -1.8132    1.0000 </r>
       <r>   -1.7931    1.0000 </r>
       <r>   -1.7779    1.0000 </r>
       <r>   -1.7157    1.0000 </r>
       <r>   -1.7078    1.0000 </r>
       <r>   -1.6490    1.0000 </r>
       <r>   -1.6231    1.0000 </r>
       <r>   -1.6144    1.0000 </r>
       <r>   -1.5617    1.0000 </r>
       <r>   -1.5572    1.0000 </r>
       <r>   -1.4892    1.0000 </r>
       <r>   -1.4521    1.0000 </r>
       <r>   -1.4456    1.0000 </r>
       <r>   -1.4074    1.0000 </r>
       <r>   -1.3730    1.0000 </r>
       <r>   -1.3433    1.0000 </r>
       <r>   -1.3277    1.0000 </r>
       <r>   -1.2578    1.0000 </r>
       <r>   -1.2411    1.0000 </r>
       <r>   -1.2183    1.0000 </r>
       <r>   -1.1919    1.0000 </r>
       <r>   -1.1644    1.0000 </r>
       <r>   -1.1226    1.0000 </r>
       <r>   -1.0929    1.0000 </r>
       <r>   -1.0754    1.0000 </r>
       <r>   -1.0526    1.0000 </r>
       <r>   -1.0123    1.0000 </r>
       <r>   -0.9766    1.0000 </r>
       <r>   -0.9424    1.0000 </r>
       <r>   -0.9236    1.0000 </r>
       <r>   -0.8817    1.0000 </r>
       <r>   -0.8694    1.0000 </r>
       <r>   -0.8370    1.0000 </r>
       <r>   -0.8164    1.0000 </r>
       <r>   -0.7161    1.0000 </r>
       <r>   -0.7117    1.0000 </r>
       <r>   -0.6460    1.0000 </r>
       <r>   -0.6301    1.0000 </r>
       <r>   -0.6020    1.0000 </r>
       <r>   -0.5058    1.0000 </r>
       <r>   -0.4198    1.0000 </r>
       <r>   -0.4116    1.0000 </r>
       <r>   -0.3411    1.0000 </r>
       <r>   -0.3338    1.0000 </r>
       <r>   -0.2616    1.0000 </r>
       <r>   -0.2073    1.0000 </r>
       <r>   -0.1781    1.0000 </r>
       <r>    0.1882    1.0000 </r>
       <r>    2.7983    0.0000 </r>
       <r>    2.9164    0.0000 </r>
       <r>    2.9434    0.0000 </r>
       <r>    3.1372    0.0000 </r>
       <r>    3.3656    0.0000 </r>
       <r>    3.3800    0.0000 </r>
       <r>    3.5059    0.0000 </r>
       <r>    3.6422    0.0000 </r>
       <r>    3.8167    0.0000 </r>
       <r>    4.0038    0.0000 </r>
       <r>    4.1204    0.0000 </r>
       <r>    4.3413    0.0000 </r>
       <r>    4.6000    0.0000 </r>
       <r>    4.6274    0.0000 </r>
       <r>    4.6996    0.0000 </r>
       <r>    4.8139    0.0000 </r>
       <r>    4.8530    0.0000 </r>
       <r>    5.1145    0.0000 </r>
       <r>    5.1934    0.0000 </r>
       <r>    5.4009    0.0000 </r>
       <r>    5.4623    0.0000 </r>
       <r>    5.5027    0.0000 </r>
       <r>    5.6705    0.0000 </r>
       <r>    5.7812    0.0000 </r>
       <r>    5.8205    0.0000 </r>
       <r>    5.8949    0.0000 </r>
       <r>    6.1660    0.0000 </r>
       <r>    6.1891    0.0000 </r>
       <r>    6.2395    0.0000 </r>
       <r>    6.3587    0.0000 </r>
       <r>    6.4065    0.0000 </r>
       <r>    6.4505    0.0000 </r>
       <r>    6.4926    0.0000 </r>
       <r>    6.5973    0.0000 </r>
       <r>    6.6509    0.0000 </r>
       <r>    6.7100    0.0000 </r>
       <r>    6.7782    0.0000 </r>
       <r>    6.7932    0.0000 </r>
       <r>    6.8663    0.0000 </r>
       <r>    6.9788    0.0000 </r>
      </set>
      <set comment="kpoint 3">
       <r>  -20.9699    1.0000 </r>
       <r>  -20.9497    1.0000 </r>
       <r>  -20.8760    1.0000 </r>
       <r>  -20.7480    1.0000 </r>
       <r>  -20.7475    1.0000 </r>
       <r>  -20.7342    1.0000 </r>
       <r>  -20.6347    1.0000 </r>
       <r>  -20.4257    1.0000 </r>
       <r>  -16.8764    1.0000 </r>
       <r>  -16.8479    1.0000 </r>
       <r>  -16.7969    1.0000 </r>
       <r>  -16.7746    1.0000 </r>
       <r>  -16.7676    1.0000 </r>
       <r>  -16.6489    1.0000 </r>
       <r>  -16.6253    1.0000 </r>
       <r>  -16.5841    1.0000 </r>
       <r>  -16.5722    1.0000 </r>
       <r>  -16.5394    1.0000 </r>
       <r>  -16.5311    1.0000 </r>
       <r>  -16.5208    1.0000 </r>
       <r>  -16.5114    1.0000 </r>
       <r>  -16.4921    1.0000 </r>
       <r>  -16.4817    1.0000 </r>
       <r>  -16.4575    1.0000 </r>
       <r>  -16.4451    1.0000 </r>
       <r>  -16.4342    1.0000 </r>
       <r>  -16.4289    1.0000 </r>
       <r>  -16.4229    1.0000 </r>
       <r>  -16.4172    1.0000 </r>
       <r>  -16.4050    1.0000 </r>
       <r>  -16.4042    1.0000 </r>
       <r>  -16.3937    1.0000 </r>
       <r>  -16.3926    1.0000 </r>
       <r>  -16.2838    1.0000 </r>
       <r>  -16.2657    1.0000 </r>
       <r>  -16.2039    1.0000 </r>
       <r>  -16.1757    1.0000 </r>
       <r>  -16.1679    1.0000 </r>
       <r>  -16.1538    1.0000 </r>
       <r>  -16.1471    1.0000 </r>
       <r>  -16.1286    1.0000 </r>
       <r>  -16.0676    1.0000 </r>
       <r>  -16.0634    1.0000 </r>
       <r>  -16.0473    1.0000 </r>
       <r>  -16.0425    1.0000 </r>
       <r>  -15.9742    1.0000 </r>
       <r>  -15.9648    1.0000 </r>
       <r>  -15.9515    1.0000 </r>
       <r>  -14.8397    1.0000 </r>
       <r>  -14.6486    1.0000 </r>
       <r>  -14.5165    1.0000 </r>
       <r>  -14.4159    1.0000 </r>
       <r>  -14.3922    1.0000 </r>
       <r>  -14.2107    1.0000 </r>
       <r>  -14.1707    1.0000 </r>
       <r>  -14.1519    1.0000 </r>
       <r>  -14.1037    1.0000 </r>
       <r>  -14.0106    1.0000 </r>
       <r>  -13.9801    1.0000 </r>
       <r>  -13.9248    1.0000 </r>
       <r>  -13.8355    1.0000 </r>
       <r>  -13.8109    1.0000 </r>
       <r>  -13.7558    1.0000 </r>
       <r>  -13.6457    1.0000 </r>
       <r>  -13.6102    1.0000 </r>
       <r>  -13.5780    1.0000 </r>
       <r>  -13.5451    1.0000 </r>
       <r>  -13.5013    1.0000 </r>
       <r>  -13.3519    1.0000 </r>
       <r>  -13.3082    1.0000 </r>
       <r>  -13.1797    1.0000 </r>
       <r>  -13.0603    1.0000 </r>
       <r>   -8.2221    1.0000 </r>
       <r>   -7.9602    1.0000 </r>
       <r>   -7.6335    1.0000 </r>
       <r>   -7.4892    1.0000 </r>
       <r>   -7.4289    1.0000 </r>
       <r>   -7.4197    1.0000 </r>
       <r>   -7.3767    1.0000 </r>
       <r>   -7.3686    1.0000 </r>
       <r>   -7.3639    1.0000 </r>
       <r>   -7.3384    1.0000 </r>
       <r>   -7.3292    1.0000 </r>
       <r>   -7.3260    1.0000 </r>
       <r>   -7.2918    1.0000 </r>
       <r>   -7.2686    1.0000 </r>
       <r>   -7.2495    1.0000 </r>
       <r>   -7.2096    1.0000 </r>
       <r>   -7.1900    1.0000 </r>
       <r>   -7.1679    1.0000 </r>
       <r>   -7.1559    1.0000 </r>
       <r>   -7.1465    1.0000 </r>
       <r>   -7.1339    1.0000 </r>
       <r>   -7.1236    1.0000 </r>
       <r>   -7.1050    1.0000 </r>
       <r>   -7.0944    1.0000 </r>
       <r>   -7.0710    1.0000 </r>
       <r>   -7.0301    1.0000 </r>
       <r>   -7.0118    1.0000 </r>
       <r>   -6.9144    1.0000 </r>
       <r>   -6.8929    1.0000 </r>
       <r>   -6.8602    1.0000 </r>
       <r>   -6.8308    1.0000 </r>
       <r>   -6.7758    1.0000 </r>
       <r>   -3.5894    1.0000 </r>
       <r>   -3.5094    1.0000 </r>
       <r>   -3.4101    1.0000 </r>
       <r>   -3.2405    1.0000 </r>
       <r>   -3.1672    1.0000 </r>
       <r>   -2.8607    1.0000 </r>
       <r>   -2.8032    1.0000 </r>
       <r>   -2.7793    1.0000 </r>
       <r>   -2.6393    1.0000 </r>
       <r>   -2.6047    1.0000 </r>
       <r>   -2.5249    1.0000 </r>
       <r>   -2.4690    1.0000 </r>
       <r>   -2.4358    1.0000 </r>
       <r>   -2.3064    1.0000 </r>
       <r>   -2.2580    1.0000 </r>
       <r>   -2.2200    1.0000 </r>
       <r>   -2.1827    1.0000 </r>
       <r>   -2.1691    1.0000 </r>
       <r>   -2.0783    1.0000 </r>
       <r>   -2.0143    1.0000 </r>
       <r>   -1.9891    1.0000 </r>
       <r>   -1.9232    1.0000 </r>
       <r>   -1.8757    1.0000 </r>
       <r>   -1.8678    1.0000 </r>
       <r>   -1.8153    1.0000 </r>
       <r>   -1.8050    1.0000 </r>
       <r>   -1.7666    1.0000 </r>
       <r>   -1.7288    1.0000 </r>
       <r>   -1.6662    1.0000 </r>
       <r>   -1.6421    1.0000 </r>
       <r>   -1.6083    1.0000 </r>
       <r>   -1.5585    1.0000 </r>
       <r>   -1.5286    1.0000 </r>
       <r>   -1.5159    1.0000 </r>
       <r>   -1.4767    1.0000 </r>
       <r>   -1.4651    1.0000 </r>
       <r>   -1.4352    1.0000 </r>
       <r>   -1.3877    1.0000 </r>
       <r>   -1.3749    1.0000 </r>
       <r>   -1.3491    1.0000 </r>
       <r>   -1.2948    1.0000 </r>
       <r>   -1.2934    1.0000 </r>
       <r>   -1.2645    1.0000 </r>
       <r>   -1.2116    1.0000 </r>
       <r>   -1.1938    1.0000 </r>
       <r>   -1.1607    1.0000 </r>
       <r>   -1.1359    1.0000 </r>
       <r>   -1.0840    1.0000 </r>
       <r>   -1.0719    1.0000 </r>
       <r>   -1.0636    1.0000 </r>
       <r>   -1.0356    1.0000 </r>
       <r>   -1.0211    1.0000 </r>
       <r>   -0.9942    1.0000 </r>
       <r>   -0.9514    1.0000 </r>
       <r>   -0.9105    1.0000 </r>
       <r>   -0.8727    1.0000 </r>
       <r>   -0.8361    1.0000 </r>
       <r>   -0.8139    1.0000 </r>
       <r>   -0.7416    1.0000 </r>
       <r>   -0.7048    1.0000 </r>
       <r>   -0.6473    1.0000 </r>
       <r>   -0.6341    1.0000 </r>
       <r>   -0.5712    1.0000 </r>
       <r>   -0.4908    1.0000 </r>
       <r>   -0.4177    1.0000 </r>
       <r>   -0.4061    1.0000 </r>
       <r>   -0.3616    1.0000 </r>
       <r>   -0.3388    1.0000 </r>
       <r>   -0.1857    1.0000 </r>
       <r>   -0.1797    1.0000 </r>
       <r>   -0.0237    1.0000 </r>
       <r>    0.0887    1.0000 </r>
       <r>    2.7107    0.0000 </r>
       <r>    2.9111    0.0000 </r>
       <r>    3.0146    0.0000 </r>
       <r>    3.1955    0.0000 </r>
       <r>    3.3304    0.0000 </r>
       <r>    3.3864    0.0000 </r>
       <r>    3.4848    0.0000 </r>
       <r>    3.5870    0.0000 </r>
       <r>    3.8462    0.0000 </r>
       <r>    3.9767    0.0000 </r>
       <r>    4.0773    0.0000 </r>
       <r>    4.3861    0.0000 </r>
       <r>    4.4842    0.0000 </r>
       <r>    4.5642    0.0000 </r>
       <r>    4.6927    0.0000 </r>
       <r>    4.7331    0.0000 </r>
       <r>    4.8451    0.0000 </r>
       <r>    5.1511    0.0000 </r>
       <r>    5.2689    0.0000 </r>
       <r>    5.3625    0.0000 </r>
       <r>    5.4275    0.0000 </r>
       <r>    5.5474    0.0000 </r>
       <r>    5.7647    0.0000 </r>
       <r>    5.8390    0.0000 </r>
       <r>    5.9173    0.0000 </r>
       <r>    5.9763    0.0000 </r>
       <r>    6.1149    0.0000 </r>
       <r>    6.2158    0.0000 </r>
       <r>    6.2574    0.0000 </r>
       <r>    6.2737    0.0000 </r>
       <r>    6.3577    0.0000 </r>
       <r>    6.3859    0.0000 </r>
       <r>    6.4879    0.0000 </r>
       <r>    6.5212    0.0000 </r>
       <r>    6.5881    0.0000 </r>
       <r>    6.6971    0.0000 </r>
       <r>    6.7463    0.0000 </r>
       <r>    6.7837    0.0000 </r>
       <r>    6.8066    0.0000 </r>
       <r>    6.9103    0.0000 </r>
      </set>
      <set comment="kpoint 4">
       <r>  -20.9699    1.0000 </r>
       <r>  -20.9498    1.0000 </r>
       <r>  -20.8760    1.0000 </r>
       <r>  -20.7480    1.0000 </r>
       <r>  -20.7475    1.0000 </r>
       <r>  -20.7343    1.0000 </r>
       <r>  -20.6347    1.0000 </r>
       <r>  -20.4258    1.0000 </r>
       <r>  -16.8740    1.0000 </r>
       <r>  -16.8479    1.0000 </r>
       <r>  -16.7969    1.0000 </r>
       <r>  -16.7748    1.0000 </r>
       <r>  -16.7677    1.0000 </r>
       <r>  -16.6463    1.0000 </r>
       <r>  -16.6236    1.0000 </r>
       <r>  -16.5839    1.0000 </r>
       <r>  -16.5740    1.0000 </r>
       <r>  -16.5430    1.0000 </r>
       <r>  -16.5309    1.0000 </r>
       <r>  -16.5213    1.0000 </r>
       <r>  -16.5114    1.0000 </r>
       <r>  -16.4946    1.0000 </r>
       <r>  -16.4817    1.0000 </r>
       <r>  -16.4575    1.0000 </r>
       <r>  -16.4452    1.0000 </r>
       <r>  -16.4344    1.0000 </r>
       <r>  -16.4292    1.0000 </r>
       <r>  -16.4225    1.0000 </r>
       <r>  -16.4171    1.0000 </r>
       <r>  -16.4050    1.0000 </r>
       <r>  -16.4042    1.0000 </r>
       <r>  -16.3937    1.0000 </r>
       <r>  -16.3925    1.0000 </r>
       <r>  -16.2816    1.0000 </r>
       <r>  -16.2657    1.0000 </r>
       <r>  -16.2039    1.0000 </r>
       <r>  -16.1753    1.0000 </r>
       <r>  -16.1687    1.0000 </r>
       <r>  -16.1539    1.0000 </r>
       <r>  -16.1473    1.0000 </r>
       <r>  -16.1308    1.0000 </r>
       <r>  -16.0676    1.0000 </r>
       <r>  -16.0637    1.0000 </r>
       <r>  -16.0474    1.0000 </r>
       <r>  -16.0425    1.0000 </r>
       <r>  -15.9742    1.0000 </r>
       <r>  -15.9648    1.0000 </r>
       <r>  -15.9515    1.0000 </r>
       <r>  -14.8337    1.0000 </r>
       <r>  -14.6717    1.0000 </r>
       <r>  -14.5007    1.0000 </r>
       <r>  -14.4302    1.0000 </r>
       <r>  -14.3798    1.0000 </r>
       <r>  -14.2118    1.0000 </r>
       <r>  -14.1756    1.0000 </r>
       <r>  -14.1385    1.0000 </r>
       <r>  -14.1003    1.0000 </r>
       <r>  -14.0017    1.0000 </r>
       <r>  -13.9782    1.0000 </r>
       <r>  -13.9407    1.0000 </r>
       <r>  -13.8322    1.0000 </r>
       <r>  -13.8116    1.0000 </r>
       <r>  -13.7583    1.0000 </r>
       <r>  -13.6477    1.0000 </r>
       <r>  -13.6211    1.0000 </r>
       <r>  -13.5683    1.0000 </r>
       <r>  -13.5359    1.0000 </r>
       <r>  -13.5010    1.0000 </r>
       <r>  -13.3539    1.0000 </r>
       <r>  -13.3107    1.0000 </r>
       <r>  -13.1785    1.0000 </r>
       <r>  -13.0633    1.0000 </r>
       <r>   -8.0799    1.0000 </r>
       <r>   -7.9456    1.0000 </r>
       <r>   -7.6954    1.0000 </r>
       <r>   -7.6138    1.0000 </r>
       <r>   -7.4273    1.0000 </r>
       <r>   -7.3882    1.0000 </r>
       <r>   -7.3799    1.0000 </r>
       <r>   -7.3709    1.0000 </r>
       <r>   -7.3420    1.0000 </r>
       <r>   -7.3322    1.0000 </r>
       <r>   -7.3218    1.0000 </r>
       <r>   -7.3120    1.0000 </r>
       <r>   -7.2798    1.0000 </r>
       <r>   -7.2685    1.0000 </r>
       <r>   -7.2216    1.0000 </r>
       <r>   -7.2071    1.0000 </r>
       <r>   -7.1869    1.0000 </r>
       <r>   -7.1751    1.0000 </r>
       <r>   -7.1651    1.0000 </r>
       <r>   -7.1533    1.0000 </r>
       <r>   -7.1348    1.0000 </r>
       <r>   -7.1276    1.0000 </r>
       <r>   -7.1063    1.0000 </r>
       <r>   -7.0918    1.0000 </r>
       <r>   -7.0690    1.0000 </r>
       <r>   -7.0399    1.0000 </r>
       <r>   -7.0115    1.0000 </r>
       <r>   -6.9905    1.0000 </r>
       <r>   -6.9264    1.0000 </r>
       <r>   -6.8942    1.0000 </r>
       <r>   -6.8507    1.0000 </r>
       <r>   -6.8320    1.0000 </r>
       <r>   -3.4819    1.0000 </r>
       <r>   -3.3039    1.0000 </r>
       <r>   -3.2167    1.0000 </r>
       <r>   -3.1528    1.0000 </r>
       <r>   -3.0639    1.0000 </r>
       <r>   -2.7817    1.0000 </r>
       <r>   -2.7586    1.0000 </r>
       <r>   -2.6564    1.0000 </r>
       <r>   -2.6203    1.0000 </r>
       <r>   -2.5648    1.0000 </r>
       <r>   -2.4778    1.0000 </r>
       <r>   -2.3747    1.0000 </r>
       <r>   -2.3332    1.0000 </r>
       <r>   -2.2904    1.0000 </r>
       <r>   -2.2624    1.0000 </r>
       <r>   -2.2590    1.0000 </r>
       <r>   -2.2183    1.0000 </r>
       <r>   -2.1764    1.0000 </r>
       <r>   -2.1561    1.0000 </r>
       <r>   -2.0417    1.0000 </r>
       <r>   -2.0120    1.0000 </r>
       <r>   -1.9556    1.0000 </r>
       <r>   -1.9350    1.0000 </r>
       <r>   -1.9007    1.0000 </r>
       <r>   -1.8834    1.0000 </r>
       <r>   -1.8213    1.0000 </r>
       <r>   -1.8011    1.0000 </r>
       <r>   -1.7930    1.0000 </r>
       <r>   -1.7782    1.0000 </r>
       <r>   -1.7293    1.0000 </r>
       <r>   -1.6520    1.0000 </r>
       <r>   -1.5991    1.0000 </r>
       <r>   -1.5770    1.0000 </r>
       <r>   -1.5575    1.0000 </r>
       <r>   -1.5011    1.0000 </r>
       <r>   -1.4786    1.0000 </r>
       <r>   -1.4502    1.0000 </r>
       <r>   -1.4043    1.0000 </r>
       <r>   -1.3912    1.0000 </r>
       <r>   -1.3660    1.0000 </r>
       <r>   -1.3260    1.0000 </r>
       <r>   -1.3034    1.0000 </r>
       <r>   -1.2841    1.0000 </r>
       <r>   -1.2470    1.0000 </r>
       <r>   -1.1838    1.0000 </r>
       <r>   -1.1656    1.0000 </r>
       <r>   -1.1430    1.0000 </r>
       <r>   -1.1100    1.0000 </r>
       <r>   -1.0971    1.0000 </r>
       <r>   -1.0359    1.0000 </r>
       <r>   -1.0228    1.0000 </r>
       <r>   -0.9776    1.0000 </r>
       <r>   -0.9596    1.0000 </r>
       <r>   -0.9299    1.0000 </r>
       <r>   -0.9095    1.0000 </r>
       <r>   -0.8902    1.0000 </r>
       <r>   -0.8820    1.0000 </r>
       <r>   -0.8515    1.0000 </r>
       <r>   -0.8034    1.0000 </r>
       <r>   -0.7455    1.0000 </r>
       <r>   -0.7233    1.0000 </r>
       <r>   -0.6630    1.0000 </r>
       <r>   -0.6031    1.0000 </r>
       <r>   -0.5650    1.0000 </r>
       <r>   -0.5104    1.0000 </r>
       <r>   -0.4319    1.0000 </r>
       <r>   -0.3560    1.0000 </r>
       <r>   -0.3174    1.0000 </r>
       <r>   -0.2451    1.0000 </r>
       <r>   -0.2089    1.0000 </r>
       <r>   -0.1385    1.0000 </r>
       <r>   -0.0392    1.0000 </r>
       <r>    2.8443    0.0000 </r>
       <r>    3.1410    0.0000 </r>
       <r>    3.2712    0.0000 </r>
       <r>    3.4105    0.0000 </r>
       <r>    3.6239    0.0000 </r>
       <r>    3.7311    0.0000 </r>
       <r>    3.7816    0.0000 </r>
       <r>    3.9642    0.0000 </r>
       <r>    4.0626    0.0000 </r>
       <r>    4.2193    0.0000 </r>
       <r>    4.3342    0.0000 </r>
       <r>    4.3649    0.0000 </r>
       <r>    4.4199    0.0000 </r>
       <r>    4.4897    0.0000 </r>
       <r>    4.6074    0.0000 </r>
       <r>    4.6623    0.0000 </r>
       <r>    4.7374    0.0000 </r>
       <r>    4.8396    0.0000 </r>
       <r>    4.9258    0.0000 </r>
       <r>    5.0485    0.0000 </r>
       <r>    5.1915    0.0000 </r>
       <r>    5.2292    0.0000 </r>
       <r>    5.6763    0.0000 </r>
       <r>    5.8498    0.0000 </r>
       <r>    5.8998    0.0000 </r>
       <r>    6.0074    0.0000 </r>
       <r>    6.0755    0.0000 </r>
       <r>    6.0895    0.0000 </r>
       <r>    6.1881    0.0000 </r>
       <r>    6.2274    0.0000 </r>
       <r>    6.3213    0.0000 </r>
       <r>    6.3975    0.0000 </r>
       <r>    6.4192    0.0000 </r>
       <r>    6.5091    0.0000 </r>
       <r>    6.5703    0.0000 </r>
       <r>    6.6557    0.0000 </r>
       <r>    6.6959    0.0000 </r>
       <r>    6.7507    0.0000 </r>
       <r>    6.7977    0.0000 </r>
       <r>    6.8772    0.0000 </r>
      </set>
      <set comment="kpoint 5">
       <r>  -20.9699    1.0000 </r>
       <r>  -20.9498    1.0000 </r>
       <r>  -20.8761    1.0000 </r>
       <r>  -20.7480    1.0000 </r>
       <r>  -20.7475    1.0000 </r>
       <r>  -20.7342    1.0000 </r>
       <r>  -20.6347    1.0000 </r>
       <r>  -20.4258    1.0000 </r>
       <r>  -16.8766    1.0000 </r>
       <r>  -16.8480    1.0000 </r>
       <r>  -16.7969    1.0000 </r>
       <r>  -16.7745    1.0000 </r>
       <r>  -16.7676    1.0000 </r>
       <r>  -16.6519    1.0000 </r>
       <r>  -16.6264    1.0000 </r>
       <r>  -16.5855    1.0000 </r>
       <r>  -16.5705    1.0000 </r>
       <r>  -16.5376    1.0000 </r>
       <r>  -16.5314    1.0000 </r>
       <r>  -16.5159    1.0000 </r>
       <r>  -16.5110    1.0000 </r>
       <r>  -16.4913    1.0000 </r>
       <r>  -16.4817    1.0000 </r>
       <r>  -16.4575    1.0000 </r>
       <r>  -16.4452    1.0000 </r>
       <r>  -16.4345    1.0000 </r>
       <r>  -16.4291    1.0000 </r>
       <r>  -16.4231    1.0000 </r>
       <r>  -16.4173    1.0000 </r>
       <r>  -16.4051    1.0000 </r>
       <r>  -16.4042    1.0000 </r>
       <r>  -16.3936    1.0000 </r>
       <r>  -16.3925    1.0000 </r>
       <r>  -16.2838    1.0000 </r>
       <r>  -16.2657    1.0000 </r>
       <r>  -16.2039    1.0000 </r>
       <r>  -16.1758    1.0000 </r>
       <r>  -16.1710    1.0000 </r>
       <r>  -16.1539    1.0000 </r>
       <r>  -16.1503    1.0000 </r>
       <r>  -16.1291    1.0000 </r>
       <r>  -16.0675    1.0000 </r>
       <r>  -16.0607    1.0000 </r>
       <r>  -16.0471    1.0000 </r>
       <r>  -16.0425    1.0000 </r>
       <r>  -15.9742    1.0000 </r>
       <r>  -15.9648    1.0000 </r>
       <r>  -15.9515    1.0000 </r>
       <r>  -14.8435    1.0000 </r>
       <r>  -14.6400    1.0000 </r>
       <r>  -14.5164    1.0000 </r>
       <r>  -14.4199    1.0000 </r>
       <r>  -14.3952    1.0000 </r>
       <r>  -14.2253    1.0000 </r>
       <r>  -14.1605    1.0000 </r>
       <r>  -14.1414    1.0000 </r>
       <r>  -14.1048    1.0000 </r>
       <r>  -13.9986    1.0000 </r>
       <r>  -13.9909    1.0000 </r>
       <r>  -13.9539    1.0000 </r>
       <r>  -13.8285    1.0000 </r>
       <r>  -13.7829    1.0000 </r>
       <r>  -13.7586    1.0000 </r>
       <r>  -13.6392    1.0000 </r>
       <r>  -13.6009    1.0000 </r>
       <r>  -13.5730    1.0000 </r>
       <r>  -13.5482    1.0000 </r>
       <r>  -13.5283    1.0000 </r>
       <r>  -13.3556    1.0000 </r>
       <r>  -13.3028    1.0000 </r>
       <r>  -13.1784    1.0000 </r>
       <r>  -13.0611    1.0000 </r>
       <r>   -8.2677    1.0000 </r>
       <r>   -7.7787    1.0000 </r>
       <r>   -7.6550    1.0000 </r>
       <r>   -7.6141    1.0000 </r>
       <r>   -7.4257    1.0000 </r>
       <r>   -7.4029    1.0000 </r>
       <r>   -7.3820    1.0000 </r>
       <r>   -7.3701    1.0000 </r>
       <r>   -7.3625    1.0000 </r>
       <r>   -7.3342    1.0000 </r>
       <r>   -7.3186    1.0000 </r>
       <r>   -7.3047    1.0000 </r>
       <r>   -7.2767    1.0000 </r>
       <r>   -7.2698    1.0000 </r>
       <r>   -7.2335    1.0000 </r>
       <r>   -7.2050    1.0000 </r>
       <r>   -7.1848    1.0000 </r>
       <r>   -7.1804    1.0000 </r>
       <r>   -7.1575    1.0000 </r>
       <r>   -7.1521    1.0000 </r>
       <r>   -7.1456    1.0000 </r>
       <r>   -7.1145    1.0000 </r>
       <r>   -7.1022    1.0000 </r>
       <r>   -7.0963    1.0000 </r>
       <r>   -7.0781    1.0000 </r>
       <r>   -7.0486    1.0000 </r>
       <r>   -7.0002    1.0000 </r>
       <r>   -6.9965    1.0000 </r>
       <r>   -6.9135    1.0000 </r>
       <r>   -6.8569    1.0000 </r>
       <r>   -6.8458    1.0000 </r>
       <r>   -6.7377    1.0000 </r>
       <r>   -3.6048    1.0000 </r>
       <r>   -3.5268    1.0000 </r>
       <r>   -3.3605    1.0000 </r>
       <r>   -3.2940    1.0000 </r>
       <r>   -2.9226    1.0000 </r>
       <r>   -2.9050    1.0000 </r>
       <r>   -2.7554    1.0000 </r>
       <r>   -2.7276    1.0000 </r>
       <r>   -2.6391    1.0000 </r>
       <r>   -2.6283    1.0000 </r>
       <r>   -2.5500    1.0000 </r>
       <r>   -2.5119    1.0000 </r>
       <r>   -2.4301    1.0000 </r>
       <r>   -2.3872    1.0000 </r>
       <r>   -2.3036    1.0000 </r>
       <r>   -2.2435    1.0000 </r>
       <r>   -2.2000    1.0000 </r>
       <r>   -2.0954    1.0000 </r>
       <r>   -2.0891    1.0000 </r>
       <r>   -2.0342    1.0000 </r>
       <r>   -1.9770    1.0000 </r>
       <r>   -1.9644    1.0000 </r>
       <r>   -1.8968    1.0000 </r>
       <r>   -1.8702    1.0000 </r>
       <r>   -1.7986    1.0000 </r>
       <r>   -1.7773    1.0000 </r>
       <r>   -1.7583    1.0000 </r>
       <r>   -1.7308    1.0000 </r>
       <r>   -1.6773    1.0000 </r>
       <r>   -1.6453    1.0000 </r>
       <r>   -1.6187    1.0000 </r>
       <r>   -1.5760    1.0000 </r>
       <r>   -1.5519    1.0000 </r>
       <r>   -1.5115    1.0000 </r>
       <r>   -1.4783    1.0000 </r>
       <r>   -1.4485    1.0000 </r>
       <r>   -1.4150    1.0000 </r>
       <r>   -1.3761    1.0000 </r>
       <r>   -1.3748    1.0000 </r>
       <r>   -1.3432    1.0000 </r>
       <r>   -1.3116    1.0000 </r>
       <r>   -1.2832    1.0000 </r>
       <r>   -1.2470    1.0000 </r>
       <r>   -1.2232    1.0000 </r>
       <r>   -1.1948    1.0000 </r>
       <r>   -1.1488    1.0000 </r>
       <r>   -1.1178    1.0000 </r>
       <r>   -1.1037    1.0000 </r>
       <r>   -1.0757    1.0000 </r>
       <r>   -1.0446    1.0000 </r>
       <r>   -1.0236    1.0000 </r>
       <r>   -1.0001    1.0000 </r>
       <r>   -0.9335    1.0000 </r>
       <r>   -0.9167    1.0000 </r>
       <r>   -0.9002    1.0000 </r>
       <r>   -0.8661    1.0000 </r>
       <r>   -0.8169    1.0000 </r>
       <r>   -0.7697    1.0000 </r>
       <r>   -0.7239    1.0000 </r>
       <r>   -0.7014    1.0000 </r>
       <r>   -0.6728    1.0000 </r>
       <r>   -0.6394    1.0000 </r>
       <r>   -0.6180    1.0000 </r>
       <r>   -0.5973    1.0000 </r>
       <r>   -0.5235    1.0000 </r>
       <r>   -0.4445    1.0000 </r>
       <r>   -0.3087    1.0000 </r>
       <r>   -0.2917    1.0000 </r>
       <r>   -0.2288    1.0000 </r>
       <r>   -0.1658    1.0000 </r>
       <r>   -0.0783    1.0000 </r>
       <r>    0.1201    1.0000 </r>
       <r>    2.7539    0.0000 </r>
       <r>    2.8513    0.0000 </r>
       <r>    2.9887    0.0000 </r>
       <r>    3.1087    0.0000 </r>
       <r>    3.2622    0.0000 </r>
       <r>    3.2831    0.0000 </r>
       <r>    3.4189    0.0000 </r>
       <r>    3.4670    0.0000 </r>
       <r>    3.8528    0.0000 </r>
       <r>    3.9278    0.0000 </r>
       <r>    4.2351    0.0000 </r>
       <r>    4.3162    0.0000 </r>
       <r>    4.4783    0.0000 </r>
       <r>    4.5598    0.0000 </r>
       <r>    4.8075    0.0000 </r>
       <r>    5.0160    0.0000 </r>
       <r>    5.0888    0.0000 </r>
       <r>    5.1989    0.0000 </r>
       <r>    5.3093    0.0000 </r>
       <r>    5.3972    0.0000 </r>
       <r>    5.5106    0.0000 </r>
       <r>    5.5583    0.0000 </r>
       <r>    5.6678    0.0000 </r>
       <r>    5.7780    0.0000 </r>
       <r>    5.8449    0.0000 </r>
       <r>    5.9843    0.0000 </r>
       <r>    6.1042    0.0000 </r>
       <r>    6.1240    0.0000 </r>
       <r>    6.2500    0.0000 </r>
       <r>    6.2771    0.0000 </r>
       <r>    6.4496    0.0000 </r>
       <r>    6.4896    0.0000 </r>
[...]
        <r>  0.0012  0.0008  0.0135 </r>
        <r>  0.0013  0.0012  0.0113 </r>
        <r>  0.0000  0.0011  0.0101 </r>
        <r>  0.0006  0.0001  0.0024 </r>
        <r>  0.0041  0.0005  0.0117 </r>
        <r>  0.0019  0.0004  0.0181 </r>
        <r>  0.0002  0.0013  0.0104 </r>
        <r>  0.0001  0.0020  0.0004 </r>
        <r>  0.0000  0.0049  0.0002 </r>
        <r>  0.0001  0.0019  0.0002 </r>
        <r>  0.0001  0.0018  0.0005 </r>
        <r>  0.0000  0.0032  0.0010 </r>
        <r>  0.0009  0.0063  0.0011 </r>
        <r>  0.0000  0.0079  0.0005 </r>
        <r>  0.0000  0.0029  0.0004 </r>
        <r>  0.0001  0.0021  0.0010 </r>
        <r>  0.0003  0.0008  0.0012 </r>
        <r>  0.0001  0.0006  0.0004 </r>
        <r>  0.0001  0.0021  0.0003 </r>
        <r>  0.0004  0.0029  0.0013 </r>
        <r>  0.0000  0.0028  0.0004 </r>
        <r>  0.0002  0.0016  0.0009 </r>
        <r>  0.0014  0.0012  0.0012 </r>
        <r>  0.0012  0.0021  0.0014 </r>
        <r>  0.0009  0.0002  0.0020 </r>
        <r>  0.0011  0.0019  0.0037 </r>
        <r>  0.0000  0.0018  0.0009 </r>
        <r>  0.0003  0.0009  0.0004 </r>
        <r>  0.0001  0.0012  0.0007 </r>
        <r>  0.0002  0.0027  0.0011 </r>
        <r>  0.0000  0.0005  0.0006 </r>
        <r>  0.0002  0.0005  0.0013 </r>
        <r>  0.0003  0.0006  0.0011 </r>
        <r>  0.0000  0.0004  0.0012 </r>
        <r>  0.0001  0.0025  0.0013 </r>
        <r>  0.0004  0.0032  0.0016 </r>
        <r>  0.0000  0.0008  0.0007 </r>
        <r>  0.0014  0.0015  0.0005 </r>
        <r>  0.0021  0.0035  0.0012 </r>
       </set>
       <set comment="band 209">
        <r>  0.0008  0.0004  0.0069 </r>
        <r>  0.0001  0.0012  0.0052 </r>
        <r>  0.0031  0.0007  0.0299 </r>
        <r>  0.0011  0.0010  0.0093 </r>
        <r>  0.0007  0.0003  0.0084 </r>
        <r>  0.0007  0.0004  0.0155 </r>
        <r>  0.0008  0.0012  0.0239 </r>
        <r>  0.0003  0.0010  0.0016 </r>
        <r>  0.0001  0.0008  0.0004 </r>
        <r>  0.0000  0.0104  0.0002 </r>
        <r>  0.0001  0.0002  0.0008 </r>
        <r>  0.0001  0.0092  0.0001 </r>
        <r>  0.0000  0.0006  0.0002 </r>
        <r>  0.0000  0.0060  0.0000 </r>
        <r>  0.0003  0.0089  0.0001 </r>
        <r>  0.0000  0.0007  0.0004 </r>
        <r>  0.0001  0.0036  0.0028 </r>
        <r>  0.0003  0.0017  0.0002 </r>
        <r>  0.0002  0.0007  0.0004 </r>
        <r>  0.0000  0.0002  0.0001 </r>
        <r>  0.0011  0.0016  0.0046 </r>
        <r>  0.0005  0.0006  0.0015 </r>
        <r>  0.0007  0.0005  0.0010 </r>
        <r>  0.0000  0.0014  0.0006 </r>
        <r>  0.0000  0.0011  0.0003 </r>
        <r>  0.0000  0.0012  0.0010 </r>
        <r>  0.0001  0.0010  0.0015 </r>
        <r>  0.0000  0.0007  0.0001 </r>
        <r>  0.0002  0.0023  0.0007 </r>
        <r>  0.0003  0.0069  0.0005 </r>
        <r>  0.0000  0.0005  0.0031 </r>
        <r>  0.0001  0.0006  0.0015 </r>
        <r>  0.0002  0.0003  0.0012 </r>
        <r>  0.0011  0.0051  0.0004 </r>
        <r>  0.0016  0.0027  0.0016 </r>
        <r>  0.0010  0.0017  0.0020 </r>
        <r>  0.0005  0.0007  0.0008 </r>
        <r>  0.0000  0.0004  0.0001 </r>
        <r>  0.0000  0.0003  0.0008 </r>
        <r>  0.0002  0.0047  0.0010 </r>
       </set>
       <set comment="band 210">
        <r>  0.0000  0.0016  0.0063 </r>
        <r>  0.0000  0.0001  0.0077 </r>
        <r>  0.0001  0.0005  0.0076 </r>
        <r>  0.0007  0.0025  0.0140 </r>
        <r>  0.0000  0.0003  0.0098 </r>
        <r>  0.0001  0.0003  0.0124 </r>
        <r>  0.0001  0.0008  0.0112 </r>
        <r>  0.0107  0.0008  0.0081 </r>
        <r>  0.0001  0.0045  0.0009 </r>
        <r>  0.0002  0.0076  0.0005 </r>
        <r>  0.0000  0.0054  0.0004 </r>
        <r>  0.0001  0.0053  0.0003 </r>
        <r>  0.0001  0.0045  0.0005 </r>
        <r>  0.0000  0.0008  0.0001 </r>
        <r>  0.0000  0.0006  0.0001 </r>
        <r>  0.0000  0.0185  0.0004 </r>
        <r>  0.0024  0.0017  0.0026 </r>
        <r>  0.0000  0.0028  0.0004 </r>
        <r>  0.0001  0.0009  0.0011 </r>
        <r>  0.0000  0.0012  0.0006 </r>
        <r>  0.0011  0.0024  0.0011 </r>
        <r>  0.0012  0.0017  0.0015 </r>
        <r>  0.0000  0.0034  0.0001 </r>
        <r>  0.0000  0.0004  0.0004 </r>
        <r>  0.0020  0.0055  0.0011 </r>
        <r>  0.0000  0.0006  0.0010 </r>
        <r>  0.0000  0.0023  0.0023 </r>
        <r>  0.0001  0.0017  0.0003 </r>
        <r>  0.0002  0.0026  0.0005 </r>
        <r>  0.0014  0.0022  0.0020 </r>
        <r>  0.0002  0.0020  0.0014 </r>
        <r>  0.0008  0.0016  0.0015 </r>
        <r>  0.0009  0.0020  0.0021 </r>
        <r>  0.0001  0.0018  0.0009 </r>
        <r>  0.0005  0.0009  0.0005 </r>
        <r>  0.0005  0.0023  0.0015 </r>
        <r>  0.0001  0.0050  0.0003 </r>
        <r>  0.0003  0.0004  0.0010 </r>
        <r>  0.0000  0.0066  0.0008 </r>
        <r>  0.0005  0.0015  0.0009 </r>
       </set>
       <set comment="band 211">
        <r>  0.0039  0.0015  0.0173 </r>
        <r>  0.0004  0.0003  0.0109 </r>
        <r>  0.0007  0.0011  0.0236 </r>
        <r>  0.0007  0.0004  0.0033 </r>
        <r>  0.0003  0.0009  0.0081 </r>
        <r>  0.0011  0.0027  0.0168 </r>
        <r>  0.0004  0.0006  0.0035 </r>
        <r>  0.0029  0.0002  0.0151 </r>
        <r>  0.0000  0.0016  0.0003 </r>
        <r>  0.0001  0.0027  0.0004 </r>
        <r>  0.0000  0.0110  0.0007 </r>
        <r>  0.0001  0.0012  0.0002 </r>
        <r>  0.0000  0.0066  0.0005 </r>
        <r>  0.0000  0.0011  0.0003 </r>
        <r>  0.0000  0.0084  0.0005 </r>
        <r>  0.0001  0.0036  0.0003 </r>
        <r>  0.0003  0.0047  0.0005 </r>
        <r>  0.0013  0.0008  0.0011 </r>
        <r>  0.0004  0.0027  0.0026 </r>
        <r>  0.0001  0.0013  0.0008 </r>
        <r>  0.0006  0.0042  0.0013 </r>
        <r>  0.0002  0.0026  0.0005 </r>
        <r>  0.0006  0.0021  0.0006 </r>
        <r>  0.0000  0.0001  0.0009 </r>
        <r>  0.0000  0.0019  0.0009 </r>
        <r>  0.0000  0.0007  0.0004 </r>
        <r>  0.0008  0.0006  0.0053 </r>
        <r>  0.0001  0.0005  0.0005 </r>
        <r>  0.0001  0.0033  0.0005 </r>
        <r>  0.0001  0.0056  0.0015 </r>
        <r>  0.0002  0.0014  0.0016 </r>
        <r>  0.0001  0.0014  0.0002 </r>
        <r>  0.0007  0.0006  0.0013 </r>
        <r>  0.0007  0.0009  0.0011 </r>
        <r>  0.0029  0.0008  0.0052 </r>
        <r>  0.0003  0.0009  0.0002 </r>
        <r>  0.0002  0.0013  0.0004 </r>
        <r>  0.0000  0.0022  0.0002 </r>
        <r>  0.0000  0.0013  0.0001 </r>
        <r>  0.0013  0.0007  0.0013 </r>
       </set>
       <set comment="band 212">
        <r>  0.0012  0.0001  0.0030 </r>
        <r>  0.0000  0.0014  0.0402 </r>
        <r>  0.0002  0.0017  0.0058 </r>
        <r>  0.0015  0.0009  0.0175 </r>
        <r>  0.0006  0.0010  0.0033 </r>
        <r>  0.0006  0.0007  0.0142 </r>
        <r>  0.0014  0.0010  0.0056 </r>
        <r>  0.0005  0.0008  0.0037 </r>
        <r>  0.0000  0.0076  0.0008 </r>
        <r>  0.0000  0.0085  0.0006 </r>
        <r>  0.0002  0.0171  0.0009 </r>
        <r>  0.0001  0.0043  0.0003 </r>
        <r>  0.0000  0.0019  0.0005 </r>
        <r>  0.0001  0.0025  0.0003 </r>
        <r>  0.0001  0.0026  0.0002 </r>
        <r>  0.0000  0.0084  0.0000 </r>
        <r>  0.0001  0.0003  0.0003 </r>
        <r>  0.0000  0.0031  0.0005 </r>
        <r>  0.0000  0.0020  0.0011 </r>
        <r>  0.0000  0.0053  0.0006 </r>
        <r>  0.0000  0.0014  0.0011 </r>
        <r>  0.0003  0.0036  0.0008 </r>
        <r>  0.0001  0.0028  0.0012 </r>
        <r>  0.0000  0.0001  0.0007 </r>
        <r>  0.0002  0.0012  0.0008 </r>
        <r>  0.0000  0.0015  0.0002 </r>
        <r>  0.0000  0.0014  0.0004 </r>
        <r>  0.0002  0.0034  0.0004 </r>
        <r>  0.0015  0.0006  0.0039 </r>
        <r>  0.0010  0.0030  0.0009 </r>
        <r>  0.0020  0.0011  0.0055 </r>
        <r>  0.0007  0.0018  0.0004 </r>
        <r>  0.0000  0.0026  0.0025 </r>
        <r>  0.0002  0.0026  0.0010 </r>
        <r>  0.0008  0.0053  0.0010 </r>
        <r>  0.0006  0.0019  0.0014 </r>
        <r>  0.0000  0.0011  0.0006 </r>
        <r>  0.0002  0.0010  0.0009 </r>
        <r>  0.0007  0.0004  0.0012 </r>
        <r>  0.0000  0.0003  0.0006 </r>
       </set>
       <set comment="band 213">
        <r>  0.0062  0.0020  0.0113 </r>
        <r>  0.0000  0.0007  0.0064 </r>
        <r>  0.0041  0.0018  0.0222 </r>
        <r>  0.0003  0.0007  0.0025 </r>
        <r>  0.0006  0.0000  0.0110 </r>
        <r>  0.0029  0.0021  0.0185 </r>
        <r>  0.0006  0.0004  0.0054 </r>
        <r>  0.0007  0.0014  0.0009 </r>
        <r>  0.0000  0.0016  0.0001 </r>
        <r>  0.0002  0.0146  0.0003 </r>
        <r>  0.0001  0.0026  0.0003 </r>
        <r>  0.0001  0.0024  0.0003 </r>
        <r>  0.0009  0.0148  0.0009 </r>
        <r>  0.0000  0.0017  0.0002 </r>
        <r>  0.0000  0.0019  0.0004 </r>
        <r>  0.0002  0.0134  0.0002 </r>
        <r>  0.0000  0.0020  0.0012 </r>
        <r>  0.0000  0.0001  0.0003 </r>
        <r>  0.0000  0.0025  0.0023 </r>
        <r>  0.0003  0.0010  0.0001 </r>
        <r>  0.0004  0.0004  0.0009 </r>
        <r>  0.0000  0.0021  0.0004 </r>
        <r>  0.0024  0.0023  0.0010 </r>
        <r>  0.0000  0.0009  0.0009 </r>
        <r>  0.0012  0.0003  0.0013 </r>
        <r>  0.0005  0.0004  0.0007 </r>
        <r>  0.0047  0.0024  0.0113 </r>
        <r>  0.0004  0.0005  0.0007 </r>
        <r>  0.0000  0.0012  0.0010 </r>
        <r>  0.0004  0.0011  0.0022 </r>
        <r>  0.0002  0.0006  0.0013 </r>
        <r>  0.0000  0.0016  0.0007 </r>
        <r>  0.0000  0.0004  0.0006 </r>
        <r>  0.0001  0.0008  0.0008 </r>
        <r>  0.0003  0.0074  0.0033 </r>
        <r>  0.0002  0.0013  0.0006 </r>
        <r>  0.0007  0.0025  0.0007 </r>
        <r>  0.0000  0.0011  0.0001 </r>
        <r>  0.0002  0.0093  0.0009 </r>
        <r>  0.0006  0.0042  0.0003 </r>
       </set>
       <set comment="band 214">
        <r>  0.0006  0.0002  0.0184 </r>
        <r>  0.0006  0.0015  0.0106 </r>
        <r>  0.0006  0.0021  0.0130 </r>
        <r>  0.0015  0.0001  0.0236 </r>
        <r>  0.0004  0.0002  0.0056 </r>
        <r>  0.0029  0.0005  0.0083 </r>
        <r>  0.0000  0.0014  0.0165 </r>
        <r>  0.0000  0.0002  0.0073 </r>
        <r>  0.0000  0.0019  0.0005 </r>
        <r>  0.0000  0.0007  0.0001 </r>
        <r>  0.0004  0.0095  0.0005 </r>
        <r>  0.0003  0.0061  0.0005 </r>
        <r>  0.0006  0.0041  0.0003 </r>
        <r>  0.0000  0.0027  0.0005 </r>
        <r>  0.0000  0.0113  0.0003 </r>
        <r>  0.0001  0.0046  0.0004 </r>
        <r>  0.0000  0.0001  0.0005 </r>
        <r>  0.0006  0.0021  0.0014 </r>
        <r>  0.0019  0.0008  0.0015 </r>
        <r>  0.0000  0.0005  0.0001 </r>
        <r>  0.0001  0.0015  0.0023 </r>
        <r>  0.0007  0.0012  0.0009 </r>
        <r>  0.0001  0.0001  0.0013 </r>
        <r>  0.0006  0.0006  0.0024 </r>
        <r>  0.0014  0.0009  0.0019 </r>
        <r>  0.0000  0.0019  0.0005 </r>
        <r>  0.0002  0.0011  0.0011 </r>
        <r>  0.0000  0.0032  0.0025 </r>
        <r>  0.0001  0.0005  0.0006 </r>
        <r>  0.0010  0.0007  0.0012 </r>
        <r>  0.0007  0.0020  0.0022 </r>
        <r>  0.0000  0.0036  0.0006 </r>
        <r>  0.0001  0.0056  0.0007 </r>
        <r>  0.0003  0.0020  0.0001 </r>
        <r>  0.0009  0.0003  0.0006 </r>
        <r>  0.0001  0.0007  0.0015 </r>
        <r>  0.0005  0.0042  0.0004 </r>
        <r>  0.0004  0.0009  0.0003 </r>
        <r>  0.0002  0.0025  0.0016 </r>
        <r>  0.0017  0.0031  0.0020 </r>
       </set>
       <set comment="band 215">
        <r>  0.0000  0.0006  0.0243 </r>
        <r>  0.0000  0.0007  0.0145 </r>
        <r>  0.0016  0.0013  0.0211 </r>
        <r>  0.0034  0.0011  0.0077 </r>
        <r>  0.0008  0.0001  0.0123 </r>
        <r>  0.0037  0.0003  0.0019 </r>
        <r>  0.0005  0.0003  0.0078 </r>
        <r>  0.0018  0.0010  0.0088 </r>
        <r>  0.0008  0.0018  0.0004 </r>
        <r>  0.0002  0.0072  0.0001 </r>
        <r>  0.0000  0.0019  0.0003 </r>
        <r>  0.0002  0.0048  0.0005 </r>
        <r>  0.0001  0.0025  0.0005 </r>
        <r>  0.0000  0.0083  0.0001 </r>
        <r>  0.0002  0.0004  0.0007 </r>
        <r>  0.0001  0.0001  0.0006 </r>
        <r>  0.0003  0.0008  0.0021 </r>
        <r>  0.0025  0.0018  0.0021 </r>
        <r>  0.0011  0.0018  0.0015 </r>
        <r>  0.0009  0.0011  0.0011 </r>
        <r>  0.0011  0.0033  0.0018 </r>
        <r>  0.0017  0.0007  0.0014 </r>
        <r>  0.0001  0.0010  0.0007 </r>
        <r>  0.0001  0.0011  0.0016 </r>
        <r>  0.0003  0.0009  0.0020 </r>
        <r>  0.0000  0.0023  0.0014 </r>
        <r>  0.0013  0.0025  0.0005 </r>
        <r>  0.0004  0.0005  0.0013 </r>
        <r>  0.0000  0.0024  0.0006 </r>
        <r>  0.0022  0.0012  0.0015 </r>
        <r>  0.0006  0.0014  0.0004 </r>
        <r>  0.0000  0.0026  0.0011 </r>
        <r>  0.0004  0.0015  0.0015 </r>
        <r>  0.0001  0.0052  0.0005 </r>
        <r>  0.0000  0.0021  0.0004 </r>
        <r>  0.0000  0.0045  0.0005 </r>
        <r>  0.0000  0.0023  0.0022 </r>
        <r>  0.0001  0.0018  0.0005 </r>
        <r>  0.0008  0.0008  0.0007 </r>
        <r>  0.0001  0.0037  0.0009 </r>
       </set>
       <set comment="band 216">
        <r>  0.0001  0.0012  0.0080 </r>
        <r>  0.0030  0.0008  0.0145 </r>
        <r>  0.0000  0.0016  0.0251 </r>
        <r>  0.0001  0.0001  0.0075 </r>
        <r>  0.0000  0.0006  0.0225 </r>
        <r>  0.0012  0.0003  0.0070 </r>
        <r>  0.0007  0.0001  0.0062 </r>
        <r>  0.0008  0.0005  0.0229 </r>
        <r>  0.0000  0.0018  0.0001 </r>
        <r>  0.0000  0.0113  0.0004 </r>
        <r>  0.0006  0.0012  0.0010 </r>
        <r>  0.0005  0.0037  0.0004 </r>
        <r>  0.0004  0.0075  0.0001 </r>
        <r>  0.0000  0.0010  0.0002 </r>
        <r>  0.0001  0.0076  0.0016 </r>
        <r>  0.0000  0.0011  0.0006 </r>
        <r>  0.0011  0.0047  0.0031 </r>
        <r>  0.0001  0.0008  0.0006 </r>
        <r>  0.0006  0.0011  0.0013 </r>
        <r>  0.0003  0.0016  0.0016 </r>
        <r>  0.0009  0.0006  0.0023 </r>
        <r>  0.0020  0.0034  0.0024 </r>
        <r>  0.0016  0.0004  0.0020 </r>
        <r>  0.0003  0.0011  0.0005 </r>
        <r>  0.0006  0.0045  0.0004 </r>
        <r>  0.0000  0.0023  0.0005 </r>
        <r>  0.0001  0.0009  0.0003 </r>
        <r>  0.0003  0.0001  0.0010 </r>
        <r>  0.0002  0.0040  0.0012 </r>
        <r>  0.0001  0.0006  0.0009 </r>
        <r>  0.0001  0.0029  0.0004 </r>
        <r>  0.0011  0.0009  0.0013 </r>
        <r>  0.0009  0.0005  0.0028 </r>
        <r>  0.0000  0.0014  0.0005 </r>
        <r>  0.0000  0.0018  0.0029 </r>
        <r>  0.0007  0.0014  0.0009 </r>
        <r>  0.0003  0.0004  0.0027 </r>
        <r>  0.0009  0.0005  0.0004 </r>
        <r>  0.0000  0.0012  0.0008 </r>
        <r>  0.0002  0.0008  0.0007 </r>
       </set>
      </set>
     </set>
    </set>
   </array>
  </projected>
 </calculation>
 <structure name="finalpos" >
  <crystal>
   <varray name="basis" >
    <v>       8.42001800       0.00000000       8.07798100 </v>
    <v>       0.00000000      11.76380800       0.00000000 </v>
    <v>      -8.42001800       0.00000000       8.07798100 </v>
   </varray>
   <i name="volume">   1600.27186790 </i>
   <varray name="rec_basis" >
    <v>       0.05938230      -0.00000000       0.06189665 </v>
    <v>       0.00000000       0.08500649      -0.00000000 </v>
    <v>      -0.05938230       0.00000000       0.06189665 </v>
   </varray>
  </crystal>
  <varray name="positions" >
   <v>       0.27212500       0.25000000       0.20823600 </v>
   <v>       0.74797925       0.23956406       0.78800868 </v>
   <v>       0.73755215       0.67304761       0.23178238 </v>
   <v>       0.23553425       0.67811152       0.71356413 </v>
   <v>       0.27363494       0.13538824       0.75148894 </v>
   <v>       0.73681526       0.17564882       0.19579682 </v>
   <v>       0.76120701       0.70253710       0.74613589 </v>
   <v>       0.22086803       0.73600577       0.24526926 </v>
   <v>       0.00818914       0.93672454       0.98240430 </v>
   <v>       0.47638341       0.97177079       0.49980321 </v>
   <v>       0.49162414       0.93268022       0.01889601 </v>
   <v>       0.96076712       0.98800204       0.46534290 </v>
   <v>       0.50746160       0.45843229       0.05507973 </v>
   <v>       0.95021157       0.44298916       0.50452490 </v>
   <v>       0.00137736       0.44552611       0.98926120 </v>
   <v>       0.46816715       0.47522464       0.52109424 </v>
   <v>       0.48361017       0.69535751       0.04876865 </v>
   <v>       0.04087277       0.67388663       0.45356452 </v>
   <v>       0.99503283       0.18321277       0.05959349 </v>
   <v>       0.53336602       0.23175273       0.57851666 </v>
   <v>       0.96518515       0.68763091       0.95357313 </v>
   <v>       0.41878925       0.72913547       0.46389445 </v>
   <v>       0.47733907       0.20528941       0.96050050 </v>
   <v>       0.85003921       0.21422216       0.46868054 </v>
   <v>       0.23450811       0.51257474       0.03287934 </v>
   <v>       0.72311764       0.53966287       0.51365952 </v>
   <v>       0.54252729       0.41198652       0.28147355 </v>
   <v>       0.06488266       0.35247737       0.77272772 </v>
   <v>       0.48245615       0.89515838       0.73425801 </v>
   <v>       0.95996479       0.89762429       0.23059323 </v>
   <v>       0.72796227       0.98540290       0.96873886 </v>
   <v>       0.22665978       0.04777691       0.42739300 </v>
   <v>       0.25386421       0.94997938       0.04010607 </v>
   <v>       0.70520048       0.88970581       0.46880311 </v>
   <v>       0.48448764       0.99108372       0.26004595 </v>
   <v>       0.00456063       0.93256954       0.69740070 </v>
   <v>       0.73363990       0.46645942       0.00264244 </v>
   <v>       0.22390370       0.38726215       0.49666438 </v>
   <v>       0.47156279       0.52247976       0.76208042 </v>
   <v>       0.99950160       0.43158048       0.26517381 </v>
  </varray>
  <varray name="selective"  type="logical" >
   <v type="logical" >  F  F  F </v>
   <v type="logical" >  T  T  T </v>
   <v type="logical" >  T  T  T </v>
   <v type="logical" >  T  T  T </v>
   <v type="logical" >  T  T  T </v>
   <v type="logical" >  T  T  T </v>
   <v type="logical" >  T  T  T </v>
   <v type="logical" >  T  T  T </v>
   <v type="logical" >  T  T  T </v>
   <v type="logical" >  T  T  T </v>
   <v type="logical" >  T  T  T </v>
   <v type="logical" >  T  T  T </v>
   <v type="logical" >  T  T  T </v>
   <v type="logical" >  T  T  T </v>
   <v type="logical" >  T  T  T </v>
   <v type="logical" >  T  T  T </v>
   <v type="logical" >  T  T  T </v>
   <v type="logical" >  T  T  T </v>
   <v type="logical" >  T  T  T </v>
   <v type="logical" >  T  T  T </v>
   <v type="logical" >  T  T  T </v>
   <v type="logical" >  T  T  T </v>
   <v type="logical" >  T  T  T </v>
   <v type="logical" >  T  T  T </v>
   <v type="logical" >  T  T  T </v>
   <v type="logical" >  T  T  T </v>
   <v type="logical" >  T  T  T </v>
   <v type="logical" >  T  T  T </v>
   <v type="logical" >  T  T  T </v>
   <v type="logical" >  T  T  T </v>
   <v type="logical" >  T  T  T </v>
   <v type="logical" >  T  T  T </v>
   <v type="logical" >  T  T  T </v>
   <v type="logical" >  T  T  T </v>
   <v type="logical" >  T  T  T </v>
   <v type="logical" >  T  T  T </v>
   <v type="logical" >  T  T  T </v>
   <v type="logical" >  T  T  T </v>
   <v type="logical" >  T  T  T </v>
   <v type="logical" >  T  T  T </v>
  </varray>
  <nose>
   <v>      -3.00000000       0.00000000       0.00010000       0.00010000 </v>
  </nose>
 </structure>
</modeling>
