CsPbBr3 cubic bulk                      
           1
     8.420018    0.000000    8.077981
     0.000000   11.763808    0.000000
    -8.420018    0.000000    8.077981
   Cs   Pb   Br
   8   8  24
Direct configuration=     1
   0.27212500  0.25000000  0.20823600
   0.74797925  0.23956406  0.78800868
   0.73755215  0.67304761  0.23178238
   0.23553425  0.67811152  0.71356413
   0.27363494  0.13538824  0.75148894
   0.73681526  0.17564882  0.19579682
   0.76120701  0.70253710  0.74613589
   0.22086803  0.73600577  0.24526926
   0.00818914  0.93672454  0.98240430
   0.47638341  0.97177079  0.49980321
   0.49162414  0.93268022  0.01889601
   0.96076712  0.98800204  0.46534290
   0.50746160  0.45843229  0.05507973
   0.95021157  0.44298916  0.50452490
   0.00137736  0.44552611  0.98926120
   0.46816715  0.47522464  0.52109424
   0.48361017  0.69535751  0.04876865
   0.04087277  0.67388663  0.45356452
   0.99503283  0.18321277  0.05959349
   0.53336602  0.23175273  0.57851666
   0.96518515  0.68763091  0.95357313
   0.41878925  0.72913547  0.46389445
   0.47733907  0.20528941  0.96050050
   0.85003921  0.21422216  0.46868054
   0.23450811  0.51257474  0.03287934
   0.72311764  0.53966287  0.51365952
   0.54252729  0.41198652  0.28147355
   0.06488266  0.35247737  0.77272772
   0.48245615  0.89515838  0.73425801
   0.95996479  0.89762429  0.23059323
   0.72796227  0.98540290  0.96873886
   0.22665978  0.04777691  0.42739300
   0.25386421  0.94997938  0.04010607
   0.70520048  0.88970581  0.46880311
   0.48448764  0.99108372  0.26004595
   0.00456063  0.93256954  0.69740070
   0.73363990  0.46645942  0.00264244
   0.22390370  0.38726215  0.49666438
   0.47156279  0.52247976  0.76208042
   0.99950160  0.43158048  0.26517381
