 vasp.5.4.4.18Apr17-6-g9f103f2a35 (build Jun 22 2020 09:27:21) complex           
 executed on tx2_gcc-7.3_libsci-1 date 2021.10.12  05:43:27
 running on   64 total cores
 distrk:  each k-point on   64 cores,    1 groups
 distr:  one band on NCORES_PER_BAND=   8 cores,    8 groups


--------------------------------------------------------------------------------------------------------


 INCAR:
 POTCAR:    PAW_PBE Cs_sv 08Apr2002               
 POTCAR:    PAW_PBE Pb_d 06Sep2000                
 POTCAR:    PAW_PBE Br 06Sep2000                  
 POTCAR:    PAW_PBE Cs_sv 08Apr2002               
   SHA256 =  c1463496f0f6037ed62c6012a8013a89ee9ad6ffb38599dcd6c079e7ed31779b Cs
   COPYR  = (c) Copyright 08Apr2002 Georg Kresse                                
   COPYR  = This file is part of the software VASP. Any use, copying, and all ot
   COPYR  = If you do not have a valid VASP license, you may not use, copy or di
   VRHFIN =Cs: 5s5p6s                                                           
   LEXCH  = PE                                                                  
   EATOM  =   555.6835 eV,   40.8416 Ry                                         
                                                                                
   TITEL  = PAW_PBE Cs_sv 08Apr2002                                             
   LULTRA =        F    use ultrasoft PP ?                                      
   IUNSCR =        1    unscreen: 0-lin 1-nonlin 2-no                           
   RPACOR =    2.200    partial core radius                                     
   POMASS =  132.900; ZVAL   =    9.000    mass and valenz                      
   RCORE  =    2.500    outmost cutoff radius                                   
   RWIGS  =    2.500; RWIGS  =    1.323    wigner-seitz radius (au A)           
   ENMAX  =  220.318; ENMIN  =  165.238 eV                                      
   RCLOC  =    2.207    cutoff for local pot                                    
   LCOR   =        T    correct aug charges                                     
   LPAW   =        T    paw PP                                                  
   EAUG   =  407.933                                                            
   DEXC   =    0.000                                                            
   RMAX   =    2.554    core radius for proj-oper                               
   RAUG   =    1.300    factor for augmentation sphere                          
   RDEP   =    2.590    radius for radial grids                                 
   RDEPT  =    2.117    core radius for aug-charge                              
                                                                                
   Atomic configuration                                                         
   13 entries                                                                   
     n  l   j            E        occ.                                          
     1  0  0.50    -35790.1377   2.0000                                         
     2  0  0.50     -5613.6201   2.0000                                         
     2  1  1.50     -5035.0101   6.0000                                         
     3  0  0.50     -1167.0767   2.0000                                         
     3  1  1.50      -980.9754   6.0000                                         
     3  2  2.50      -708.0703  10.0000                                         
     4  0  0.50      -220.2386   2.0000                                         
     4  1  1.50      -160.7596   6.0000                                         
     4  2  2.50       -74.2354  10.0000                                         
     5  0  0.50       -26.7287   2.0000                                         
     6  0  0.50        -2.0862   1.0000                                         
     5  1  1.50       -13.5159   6.0000                                         
     5  2  2.50        -0.4136   0.0000                                         
   Description                                                                  
     l       E           TYP  RCUT    TYP  RCUT                                 
     0    -26.7287425     23  1.900                                             
     0     -2.0862306     23  1.900                                             
     1    -13.5158719     23  2.500                                             
     1     -2.7211652     23  2.500                                             
     2     -0.4136171     23  2.500                                             
  local pseudopotential read in
  partial core-charges read in
  partial kinetic energy density read in
  atomic valenz-charges read in
  non local Contribution for L=           0  read in
    real space projection operators read in
  non local Contribution for L=           0  read in
    real space projection operators read in
  non local Contribution for L=           1  read in
    real space projection operators read in
  non local Contribution for L=           1  read in
    real space projection operators read in
  non local Contribution for L=           2  read in
    real space projection operators read in
    PAW grid and wavefunctions read in

   number of l-projection  operators is LMAX  =           5
   number of lm-projection operators is LMMAX =          13

 POTCAR:    PAW_PBE Pb_d 06Sep2000                
   SHA256 =  fb885b08f0fba73a15f6a6b0e39bd200c13ec96ef97cf3ecd8e63bade5137abd Pb
   COPYR  = (c) Copyright 06Sep2000 Georg Kresse                                
   COPYR  = This file is part of the software VASP. Any use, copying, and all ot
   COPYR  = If you do not have a valid VASP license, you may not use, copy or di
   VRHFIN =Pb:                                                                  
   LEXCH  = PE                                                                  
   EATOM  =  1661.6185 eV,  122.1255 Ry                                         
                                                                                
   TITEL  = PAW_PBE Pb_d 06Sep2000                                              
   LULTRA =        F    use ultrasoft PP ?                                      
   IUNSCR =        1    unscreen: 0-lin 1-nonlin 2-no                           
   RPACOR =    2.200    partial core radius                                     
   POMASS =  207.200; ZVAL   =   14.000    mass and valenz                      
   RCORE  =    2.500    outmost cutoff radius                                   
   RWIGS  =    3.260; RWIGS  =    1.725    wigner-seitz radius (au A)           
   ENMAX  =  237.835; ENMIN  =  178.376 eV                                      
   ICORE  =        3    local potential                                         
   LCOR   =        T    correct aug charges                                     
   LPAW   =        T    paw PP                                                  
   EAUG   =  391.914                                                            
   DEXC   =    0.000                                                            
   RMAX   =    2.565    core radius for proj-oper                               
   RAUG   =    1.300    factor for augmentation sphere                          
   RDEP   =    2.643    radius for radial grids                                 
   RDEPT  =    2.092    core radius for aug-charge                              
                                                                                
   Atomic configuration                                                         
   16 entries                                                                   
     n  l   j            E        occ.                                          
     1  0  0.50    -88091.8466   2.0000                                         
     2  0  0.50    -15753.4197   2.0000                                         
     2  1  1.50    -13508.1797   6.0000                                         
     3  0  0.50     -3781.7194   2.0000                                         
     3  1  1.50     -3138.2529   6.0000                                         
     3  2  2.50     -2483.2977  10.0000                                         
     4  0  0.50      -856.2895   2.0000                                         
     4  1  1.50      -645.4942   6.0000                                         
     4  2  2.50      -401.8768  10.0000                                         
     4  3  3.50      -132.9059  14.0000                                         
     5  0  0.50      -144.0950   2.0000                                         
     5  1  1.50       -85.7879   6.0000                                         
     5  2  2.50       -21.1769  10.0000                                         
     6  0  0.50       -12.0372   2.0000                                         
     6  1  1.50        -3.4971   2.0000                                         
     5  3  2.50        -2.7212   0.0000                                         
   Description                                                                  
     l       E           TYP  RCUT    TYP  RCUT                                 
     2    -21.1768523     23  2.500                                             
     2      1.3605826     23  2.500                                             
     0    -12.0371562     23  2.500                                             
     0     13.6058260     23  2.500                                             
     1     -3.4971339     23  2.500                                             
     1     13.6058260     23  2.500                                             
     3     -1.3605826      7  2.500                                             
  local pseudopotential read in
  partial core-charges read in
  partial kinetic energy density read in
  atomic valenz-charges read in
  non local Contribution for L=           2  read in
    real space projection operators read in
  non local Contribution for L=           2  read in
    real space projection operators read in
  non local Contribution for L=           0  read in
    real space projection operators read in
  non local Contribution for L=           0  read in
    real space projection operators read in
  non local Contribution for L=           1  read in
    real space projection operators read in
  non local Contribution for L=           1  read in
    real space projection operators read in
    PAW grid and wavefunctions read in

   number of l-projection  operators is LMAX  =           6
   number of lm-projection operators is LMMAX =          18

 POTCAR:    PAW_PBE Br 06Sep2000                  
   SHA256 =  96a73d2954943bbee26f4990d676cc6c3bf44b8dd2c75cd4b3b825d8403f0103 Br
   COPYR  = (c) Copyright 06Sep2000 Georg Kresse                                
   COPYR  = This file is part of the software VASP. Any use, copying, and all ot
   COPYR  = If you do not have a valid VASP license, you may not use, copy or di
   VRHFIN =Br: s2p5                                                             
   LEXCH  = PE                                                                  
   EATOM  =   368.4488 eV,   27.0802 Ry                                         
                                                                                
   TITEL  = PAW_PBE Br 06Sep2000                                                
   LULTRA =        F    use ultrasoft PP ?                                      
   IUNSCR =        1    unscreen: 0-lin 1-nonlin 2-no                           
   RPACOR =    1.900    partial core radius                                     
   POMASS =   79.904; ZVAL   =    7.000    mass and valenz                      
   RCORE  =    2.100    outmost cutoff radius                                   
   RWIGS  =    2.200; RWIGS  =    1.164    wigner-seitz radius (au A)           
   ENMAX  =  216.285; ENMIN  =  162.214 eV                                      
   ICORE  =        3    local potential                                         
   LCOR   =        T    correct aug charges                                     
   LPAW   =        T    paw PP                                                  
   EAUG   =  503.852                                                            
   DEXC   =    0.000                                                            
   RMAX   =    2.139    core radius for proj-oper                               
   RAUG   =    1.300    factor for augmentation sphere                          
   RDEP   =    2.186    radius for radial grids                                 
   RDEPT  =    1.890    core radius for aug-charge                              
                                                                                
   Atomic configuration                                                         
   10 entries                                                                   
     n  l   j            E        occ.                                          
     1  0  0.50    -13316.2796   2.0000                                         
     2  0  0.50     -1732.8239   2.0000                                         
     2  1  1.50     -1528.2193   6.0000                                         
     3  0  0.50      -238.0460   2.0000                                         
     3  1  1.50      -173.4609   6.0000                                         
     3  2  2.50       -66.7132  10.0000                                         
     4  0  0.50       -20.1334   2.0000                                         
     4  1  0.50        -7.8591   5.0000                                         
     4  2  2.50        -8.1635   0.0000                                         
     4  3  2.50        -8.1635   0.0000                                         
   Description                                                                  
     l       E           TYP  RCUT    TYP  RCUT                                 
     0    -20.1333652     23  2.100                                             
     0    -21.4939478     23  2.100                                             
     1     -7.8591052     23  2.100                                             
     1     -3.1608434     23  2.100                                             
     2     -8.1634956     23  2.100                                             
     3     -1.3605826      7  2.100                                             
  local pseudopotential read in
  partial core-charges read in
  partial kinetic energy density read in
  atomic valenz-charges read in
  non local Contribution for L=           0  read in
    real space projection operators read in
  non local Contribution for L=           0  read in
    real space projection operators read in
  non local Contribution for L=           1  read in
    real space projection operators read in
  non local Contribution for L=           1  read in
    real space projection operators read in
  non local Contribution for L=           2  read in
    real space projection operators read in
    PAW grid and wavefunctions read in

   number of l-projection  operators is LMAX  =           5
   number of lm-projection operators is LMMAX =          13

 Optimization of the real space projectors (new method)

 maximal supplied QI-value         = 15.12
 optimisation between [QCUT,QGAM] = [  8.77, 17.69] = [ 21.53, 87.61] Ry 
 Optimized for a Real-space Cutoff    1.85 Angstroem

   l    n(q)    QCUT    max X(q) W(low)/X(q) W(high)/X(q)  e(spline) 
   0     10     8.768    25.322    0.81E-04    0.51E-04    0.48E-06
   0     10     8.768    99.187    0.78E-04    0.50E-04    0.47E-06
   1      9     8.768    11.761    0.21E-03    0.20E-03    0.37E-06
   1      9     8.768     8.275    0.24E-03    0.22E-03    0.41E-06
   2      9     8.768     3.829    0.23E-04    0.15E-03    0.18E-06
 Optimization of the real space projectors (new method)

 maximal supplied QI-value         = 15.12
 optimisation between [QCUT,QGAM] = [  8.77, 17.69] = [ 21.53, 87.61] Ry 
 Optimized for a Real-space Cutoff    1.59 Angstroem

   l    n(q)    QCUT    max X(q) W(low)/X(q) W(high)/X(q)  e(spline) 
   2      7     8.768     3.846    0.48E-04    0.11E-03    0.11E-06
   2      7     8.768     8.593    0.20E-03    0.22E-04    0.24E-06
   0      8     8.768    20.082    0.68E-04    0.88E-04    0.41E-07
   0      8     8.768     8.597    0.89E-04    0.13E-03    0.59E-07
   1      8     8.768    33.223    0.15E-03    0.53E-04    0.87E-07
   1      8     8.768    15.899    0.14E-03    0.44E-04    0.78E-07
 Optimization of the real space projectors (new method)

 maximal supplied QI-value         = 17.95
 optimisation between [QCUT,QGAM] = [  8.80, 17.59] = [ 21.67, 86.68] Ry 
 Optimized for a Real-space Cutoff    1.59 Angstroem

   l    n(q)    QCUT    max X(q) W(low)/X(q) W(high)/X(q)  e(spline) 
   0      8     8.797   175.082    0.82E-04    0.14E-03    0.89E-07
   0      8     8.797   174.004    0.79E-04    0.14E-03    0.86E-07
   1      8     8.797    54.315    0.16E-03    0.14E-04    0.30E-06
   1      8     8.797    42.441    0.16E-03    0.14E-04    0.30E-06
   2      7     8.797     3.596    0.92E-04    0.15E-03    0.85E-07
  PAW_PBE Cs_sv 08Apr2002               :
 energy of atom  1       EATOM= -555.6835
 kinetic energy error for atom=    0.0069 (will be added to EATOM!!)
  PAW_PBE Pb_d 06Sep2000                :
 energy of atom  2       EATOM=-1661.6185
 kinetic energy error for atom=    0.0498 (will be added to EATOM!!)
  PAW_PBE Br 06Sep2000                  :
 energy of atom  3       EATOM= -368.4488
 kinetic energy error for atom=    0.0072 (will be added to EATOM!!)


 POSCAR: Cs8 Pb8 Br23                            
  positions in direct lattice
  No initial velocities read in

 METAGGA = SCAN     LMAXTAU =  6    LMIXTAU =  F

 exchange correlation table for  LEXCH =        8
   RHO(1)=    0.500       N(1)  =     2000
   RHO(2)=  100.500       N(2)  =     4000

 VTST: version 3.2, (02/03/18)

 CHAIN: initializing optimizer
 
 OPT: Using VASP Conjugate-Gradient optimizer
 CHAIN: Read ICHAIN            0

 POSCAR: Cs8 Pb8 Br23                            
  positions in direct lattice
  No initial velocities read in



--------------------------------------------------------------------------------------------------------


 ion  position               nearest neighbor table
   1  0.272  0.250  0.187-
   2  0.771  0.254  0.753-
   3  0.706  0.749  0.251-
   4  0.212  0.747  0.784-
   5  0.274  0.256  0.746-
   6  0.803  0.250  0.217-
   7  0.724  0.750  0.782-
   8  0.241  0.743  0.287-
   9  0.005  0.996  1.000-  21 2.95  30 2.98  34 2.99  19 2.99  32 3.00  29 3.08
  10  0.491  0.030  0.495-  20 2.77  31 2.91  28 2.96  33 2.97
  11  0.504  0.002  0.996-  23 2.96  17 2.97  32 2.97  30 3.00  28 3.02  33 3.03
  12  0.025  0.995  0.503-  31 2.90  29 2.94  18 2.97  24 3.02  34 3.05
  13  0.504  0.500  0.996-  23 2.97  25 2.97  17 2.97  37 2.98  26 2.99  35 2.99
  14  0.002  0.497  0.501-  36 2.85  24 2.97  38 2.99  27 3.01  18 3.08
  15  0.004  0.503  0.001-  21 2.95  35 2.97  25 2.98  19 2.99  27 3.02  38 3.02
  16  0.492  0.488  0.497-  37 2.97  26 2.97  22 2.98  20 3.05  36 3.10
  17  0.481  0.751  0.972-  11 2.97  13 2.97
  18  0.966  0.753  0.455-  12 2.97  14 3.08
  19  0.995  0.250  0.974-  15 2.99   9 2.99
  20  0.397  0.246  0.472-  10 2.77  16 3.05
  21  0.034  0.750  0.042-   9 2.95  15 2.95
  22  0.550  0.735  0.512-  16 2.98
  23  0.538  0.250  0.026-  11 2.96  13 2.97
  24  0.013  0.248  0.549-  14 2.97  12 3.02
  25  0.252  0.479  0.953-  13 2.97  15 2.98
  26  0.459  0.522  0.245-  16 2.97  13 2.99
  27  0.949  0.536  0.747-  14 3.01  15 3.02
  28  0.549  0.034  0.746-  10 2.96  11 3.02
  29  0.055  0.036  0.258-  12 2.94   9 3.08
  30  0.757  0.977  0.046-   9 2.98  11 3.00
  31  0.266  0.944  0.549-  12 2.90  10 2.91
  32  0.252  0.024  0.947-  11 2.97   9 3.00
  33  0.459  0.975  0.248-  10 2.97  11 3.03
  34  0.954  0.960  0.749-   9 2.99  12 3.05
  35  0.757  0.523  0.047-  15 2.97  13 2.99
  36  0.240  0.539  0.553-  14 2.85  16 3.10
  37  0.544  0.467  0.748-  16 2.97  13 2.98
  38  0.053  0.462  0.254-  14 2.99  15 3.02
  39  0.704  0.285  0.464-


IMPORTANT INFORMATION: All symmetrisations will be switched off!
NOSYMM: (Re-)initialisation of all symmetry stuff for point group C_1.



 KPOINTS: 1x1x1                                   

Automatic generation of k-mesh.
Space group operators:
 irot       det(A)        alpha          n_x          n_y          n_z        tau_x        tau_y        tau_z
    1     1.000000     0.000001     1.000000     0.000000     0.000000     0.000000     0.000000     0.000000
 
 Subroutine IBZKPT returns following result:
 ===========================================
 
 Found      8 irreducible k-points:
 
 Following reciprocal coordinates:
            Coordinates               Weight
  0.000000  0.000000  0.000000      1.000000
  0.500000  0.000000  0.000000      1.000000
  0.000000  0.500000  0.000000      1.000000
  0.500000  0.500000  0.000000      1.000000
  0.000000  0.000000  0.500000      1.000000
  0.500000  0.000000  0.500000      1.000000
  0.000000  0.500000  0.500000      1.000000
  0.500000  0.500000  0.500000      1.000000
 
 Following cartesian coordinates:
            Coordinates               Weight
 -0.000000  0.000000  0.000000      1.000000
  0.029563  0.000000  0.031093      1.000000
 -0.000000  0.042626  0.000000      1.000000
  0.029563  0.042626  0.031093      1.000000
 -0.029563  0.000000  0.031093      1.000000
  0.000000  0.000000  0.062187      1.000000
 -0.029563  0.042626  0.031093      1.000000
  0.000000  0.042626  0.062187      1.000000
 


--------------------------------------------------------------------------------------------------------




 Dimension of arrays:
   k-points           NKPTS =      8   k-points in BZ     NKDIM =      8   number of bands    NBANDS=    208
   number of dos      NEDOS =    301   number of ions     NIONS =     39
   non local maximal  LDIM  =      6   non local SUM 2l+1 LMDIM =     18
   total plane-waves  NPLWV = 343000
   max r-space proj   IRMAX =   5734   max aug-charges    IRDMAX=  91523
   dimension x,y,z NGX =    70 NGY =   70 NGZ =   70
   dimension x,y,z NGXF=   140 NGYF=  140 NGZF=  140
   support grid    NGXF=   280 NGYF=  280 NGZF=  280
   ions per type =               8   8  23
   NGX,Y,Z   is equivalent  to a cutoff of   9.97,  9.92,  9.97 a.u.
   NGXF,Y,Z  is equivalent  to a cutoff of  19.95, 19.84, 19.95 a.u.

 SYSTEM =  CsPbBr3 cubic bulk                      
 POSCAR =  Cs8 Pb8 Br23                            

 Startparameter for this run:
   NWRITE =      2    write-flag & timer
   PREC   = accura    normal or accurate (medium, high low for compatibility)
   ISTART =      0    job   : 0-new  1-cont  2-samecut
   ICHARG =      2    charge: 1-file 2-atom 10-const
   ISPIN  =      1    spin polarized calculation?
   LNONCOLLINEAR =      F non collinear calculations
   LSORBIT =      F    spin-orbit coupling
   INIWAV =      1    electr: 0-lowe 1-rand  2-diag
   LASPH  =      T    aspherical Exc in radial PAW
   METAGGA=      F    non-selfconsistent MetaGGA calc.

 Electronic Relaxation 1
   ENCUT  =  300.0 eV  22.05 Ry    4.70 a.u.  16.48 16.57 16.48*2*pi/ulx,y,z
   ENINI  =  300.0     initial cutoff
   ENAUG  =  503.9 eV  augmentation charge cutoff
   NELM   =    200;   NELMIN=  2; NELMDL= -5     # of ELM steps 
   EDIFF  = 0.1E-05   stopping-criterion for ELM
   LREAL  =      T    real-space projection
   NLSPLINE    = F    spline interpolate recip. space projectors
   LCOMPAT=      F    compatible to vasp.4.4
   GGA_COMPAT  = T    GGA compatible to vasp.4.4-vasp.4.6
   LMAXPAW     = -100 max onsite density
   LMAXMIX     =    2 max onsite mixed and CHGCAR
   VOSKOWN=      0    Vosko Wilk Nusair interpolation
   ROPT   =   -0.00025  -0.00025  -0.00025
 Ionic relaxation
   EDIFFG = -.1E-01   stopping-criterion for IOM
   NSW    =      0    number of steps for IOM
   NBLOCK =      1;   KBLOCK =      1    inner block; outer block 
   IBRION =     -1    ionic relax: 0-MD 1-quasi-New 2-CG
   NFREE  =      1    steps in history (QN), initial steepest desc. (CG)
   ISIF   =      2    stress and relaxation
   IWAVPR =     10    prediction:  0-non 1-charg 2-wave 3-comb
   ISYM   =      0    0-nonsym 1-usesym 2-fastsym
   LCORR  =      T    Harris-Foulkes like correction to forces

   POTIM  = 0.5000    time-step for ionic-motion
   TEIN   =    0.0    initial temperature
   TEBEG  =    0.0;   TEEND  =   0.0 temperature during run
   SMASS  =  -3.00    Nose mass-parameter (am)
   estimated Nose-frequenzy (Omega)   =  0.10E-29 period in steps =****** mass=  -0.311E-26a.u.
   SCALEE = 1.0000    scale energy and forces
   NPACO  =    256;   APACO  = 16.0  distance and # of slots for P.C.
   PSTRESS=    0.0 pullay stress

  Mass of Ions in am
   POMASS = 132.90207.20 79.90
  Ionic Valenz
   ZVAL   =   9.00 14.00  7.00
  Atomic Wigner-Seitz radii
   RWIGS  =  -1.00 -1.00 -1.00
  virtual crystal weights 
   VCA    =   1.00  1.00  1.00
   NELECT =     344.0000    total number of electrons
   NUPDOWN=       0.0000    fix difference up-down

 DOS related values:
   EMIN   =  10.00;   EMAX   =-10.00  energy-range for DOS
   EFERMI =   0.00
   ISMEAR =     0;   SIGMA  =   0.01  broadening in eV -4-tet -1-fermi 0-gaus

 Electronic relaxation 2 (details)
   IALGO  =     38    algorithm
   LDIAG  =      T    sub-space diagonalisation (order eigenvalues)
   LSUBROT=      F    optimize rotation matrix (better conditioning)
   TURBO    =      0    0=normal 1=particle mesh
   IRESTART =      0    0=no restart 2=restart with 2 vectors
   NREBOOT  =      0    no. of reboots
   NMIN     =      0    reboot dimension
   EREF     =   0.00    reference energy to select bands
   IMIX   =      4    mixing-type and parameters
     AMIX     =   0.40;   BMIX     =  1.00
     AMIX_MAG =   1.60;   BMIX_MAG =  1.00
     AMIN     =   0.10
     WC   =   100.;   INIMIX=   1;  MIXPRE=   1;  MAXMIX= -45

 Intra band minimization:
   WEIMIN = 0.0000     energy-eigenvalue tresh-hold
   EBREAK =  0.12E-08  absolut break condition
   DEPER  =   0.30     relativ break condition  

   TIME   =   0.40     timestep for ELM

  volume/ion in A,a.u.               =      40.90       276.00
  Fermi-wavevector in a.u.,A,eV,Ry     =   0.981747  1.855232 13.113654  0.963826
  Thomas-Fermi vector in A             =   2.112777

 Write flags
   LWAVE        =      F    write WAVECAR
   LDOWNSAMPLE  =      F    k-point downsampling of WAVECAR
   LCHARG       =      F    write CHGCAR
   LVTOT        =      F    write LOCPOT, total local potential
   LVHAR        =      T    write LOCPOT, Hartree potential only
   LELF         =      F    write electronic localiz. function (ELF)
   LORBIT       =     10    0 simple, 1 ext, 2 COOP (PROOUT), +10 PAW based schemes


 Dipole corrections
   LMONO  =      F    monopole corrections only (constant potential shift)
   LDIPOL =      F    correct potential (dipole corrections)
   IDIPOL =      0    1-x, 2-y, 3-z, 4-all directions 
   EPSILON=  1.0000000 bulk dielectric constant

 Exchange correlation treatment:
   GGA     =    --    GGA type
   LEXCH   =     8    internal setting for exchange type
   VOSKOWN=      0    Vosko Wilk Nusair interpolation
   LHFCALC =     F    Hartree Fock is set to
   LHFONE  =     F    Hartree Fock one center treatment
   AEXX    =    0.0000 exact exchange contribution

 Linear response parameters
   LEPSILON=     F    determine dielectric tensor
   LRPA    =     F    only Hartree local field effects (RPA)
   LNABLA  =     F    use nabla operator in PAW spheres
   LVEL    =     F    velocity operator in full k-point grid
   LINTERFAST=   F  fast interpolation
   KINTER  =     0    interpolate to denser k-point grid
   CSHIFT  =0.1000    complex shift for real part using Kramers Kronig
   OMEGAMAX=  -1.0    maximum frequency
   DEG_THRESHOLD= 0.2000000E-02 threshold for treating states as degnerate
   RTIME   =   -0.100 relaxation time in fs
  (WPLASMAI=    0.000 imaginary part of plasma frequency in eV, 0.658/RTIME)
   DFIELD  = 0.0000000 0.0000000 0.0000000 field for delta impulse in time

 Orbital magnetization related:
   ORBITALMAG=     F  switch on orbital magnetization
   LCHIMAG   =     F  perturbation theory with respect to B field
   DQ        =  0.001000  dq finite difference perturbation B field
   LLRAUG    =     F  two centre corrections for induced B field



--------------------------------------------------------------------------------------------------------


 Static calculation
 charge density and potential will be updated during run
 non-spin polarized calculation
 Variant of blocked Davidson
 Davidson routine will perform the subspace rotation
 perform sub-space diagonalisation
    after iterative eigenvector-optimisation
 modified Broyden-mixing scheme, WC =      100.0
 initial mixing is a Kerker type mixing with AMIX =  0.4000 and BMIX =      1.0000
 Hartree-type preconditioning will be used
 using additional bands           36
 real space projection scheme for non local part
 use partial core corrections
 calculate Harris-corrections to forces   (improved forces if not selfconsistent)
 use gradient corrections 
 use of overlap-Matrix (Vanderbilt PP)
 Gauss-broadening in eV      SIGMA  =   0.01


--------------------------------------------------------------------------------------------------------


  energy-cutoff  :      300.00
  volume of cell :     1595.09
      direct lattice vectors                 reciprocal lattice vectors
     8.456489000  0.000000000  8.040301000     0.059126193 -0.000000000  0.062186727
     0.000000000 11.729847000  0.000000000     0.000000000  0.085252604 -0.000000000
    -8.456489000  0.000000000  8.040301000    -0.059126193  0.000000000  0.062186727

  length of vectors
    11.668703715 11.729847000 11.668703715     0.085808482  0.085252604  0.085808482



 k-points in units of 2pi/SCALE and weight: 1x1x1                                   
  -0.00000000  0.00000000  0.00000000       0.125
   0.02956310  0.00000000  0.03109336       0.125
  -0.00000000  0.04262630  0.00000000       0.125
   0.02956310  0.04262630  0.03109336       0.125
  -0.02956310  0.00000000  0.03109336       0.125
   0.00000000  0.00000000  0.06218673       0.125
  -0.02956310  0.04262630  0.03109336       0.125
   0.00000000  0.04262630  0.06218673       0.125

 k-points in reciprocal lattice and weights: 1x1x1                                   
   0.00000000  0.00000000  0.00000000       0.125
   0.50000000  0.00000000  0.00000000       0.125
   0.00000000  0.50000000  0.00000000       0.125
   0.50000000  0.50000000  0.00000000       0.125
   0.00000000  0.00000000  0.50000000       0.125
   0.50000000  0.00000000  0.50000000       0.125
   0.00000000  0.50000000  0.50000000       0.125
   0.50000000  0.50000000  0.50000000       0.125

 position of ions in fractional coordinates (direct lattice) 
   0.27202900  0.24970000  0.18668300
   0.77119400  0.25393400  0.75347800
   0.70638000  0.74922100  0.25054700
   0.21164300  0.74672000  0.78445600
   0.27358000  0.25556300  0.74562200
   0.80258100  0.24984800  0.21705900
   0.72397300  0.74965000  0.78241900
   0.24129900  0.74323100  0.28739100
   0.00484700  0.99594800  0.99956000
   0.49140800  0.02972900  0.49548700
   0.50362000  0.00170900  0.99559000
   0.02480600  0.99519500  0.50279900
   0.50399100  0.49955400  0.99622600
   0.00229600  0.49699600  0.50061700
   0.00409900  0.50296500  0.00071300
   0.49168600  0.48768500  0.49696100
   0.48109200  0.75087800  0.97237100
   0.96580400  0.75304700  0.45488400
   0.99470000  0.24959300  0.97405800
   0.39725800  0.24586100  0.47188600
   0.03389600  0.74970300  0.04168100
   0.55026300  0.73484200  0.51163900
   0.53755800  0.25022200  0.02554300
   0.01306900  0.24815700  0.54865100
   0.25176400  0.47851200  0.95327400
   0.45902600  0.52173200  0.24501500
   0.94886400  0.53580800  0.74713300
   0.54933200  0.03384800  0.74561500
   0.05455700  0.03639000  0.25768000
   0.75711200  0.97712300  0.04646400
   0.26602900  0.94447400  0.54882100
   0.25221000  0.02375900  0.94680800
   0.45934500  0.97469500  0.24778300
   0.95391800  0.96046200  0.74874600
   0.75683500  0.52272300  0.04679900
   0.23968700  0.53862800  0.55329900
   0.54368200  0.46747200  0.74768600
   0.05319000  0.46155600  0.25429800
   0.70360600  0.28475000  0.46396800

 position of ions in cartesian coordinates  (Angst):
   0.72172751  2.92894280  3.68818255
   0.14981516  2.97860697 12.25882181
   3.85474675  8.78824770  7.69398112
  -4.84398683  8.75891135  8.00893579
  -3.99181798  2.99771489  8.19469086
   4.95146035  2.93067881  8.19821251
  -0.49424796  8.79327980 12.11184510
  -0.38977649  8.71798592  4.25082674
  -8.41177954 11.68231766  8.07573461
  -0.03449402  0.34871662  7.93493286
  -4.16033889  0.02004631 12.05409966
  -4.04214255 11.67348509  4.24210301
  -4.16257986  5.85969199 12.06219625
  -4.21404605  5.82968704  4.04357190
   0.02863367  5.89970250  0.03868993
  -0.04460798  5.72047043  7.94901946
  -4.15449546  8.80768406 11.68628001
   4.32058936  8.83312609 11.42275915
   0.17455885  2.92768770 15.82940692
  -0.63109086  2.88391191  6.98817937
  -0.06583377  8.79390149  0.60766183
   0.32662343  8.61958423  8.53801171
   4.32984922  2.93506578  4.52750153
  -4.52914329  2.91084364  4.51639788
  -5.93231160  5.61287255  9.68886824
   1.80978167  6.11983654  5.66070156
   1.70593598  6.28494586 13.63632638
  -1.65986503  0.39703186 10.41176366
  -1.71770742  0.42684913  2.51047946
   6.00958699 11.46150329  6.46099292
  -2.39142744 11.07853552  6.55163927
  -5.87386035  0.27868943  9.64046562
   1.78907173 11.43302322  5.68552197
   1.73503476 11.26607231 13.68993106
   6.00441162  6.13146081  6.46145925
  -2.65205643  6.31802403  6.37584613
  -1.72515758  5.48337504 10.38298742
  -1.70066759  5.41398126  2.47229607
   2.02649611  3.34007393  9.38764640



--------------------------------------------------------------------------------------------------------


 k-point  1 :   0.0000 0.0000 0.0000  plane waves:   18809
 k-point  2 :   0.5000 0.0000 0.0000  plane waves:   18808
 k-point  3 :   0.0000 0.5000 0.0000  plane waves:   18794
 k-point  4 :   0.5000 0.5000 0.0000  plane waves:   18804
 k-point  5 :   0.0000 0.0000 0.5000  plane waves:   18808
 k-point  6 :   0.5000 0.0000 0.5000  plane waves:   18790
 k-point  7 :   0.0000 0.5000 0.5000  plane waves:   18804
 k-point  8 :   0.5000 0.5000 0.5000  plane waves:   18800

 maximum and minimum number of plane-waves per node :      2389     2304

 maximum number of plane-waves:     18809
 maximum index in each direction: 
   IXMAX=   16   IYMAX=   16   IZMAX=   16
   IXMIN=  -16   IYMIN=  -17   IZMIN=  -16


 real space projection operators:
  total allocation   :      16733.29 KBytes
  max/ min on nodes  :       2189.71       1811.85


 parallel 3D FFT for wavefunctions:
    minimum data exchange during FFTs selected (reduces bandwidth)
 parallel 3D FFT for charge:
    minimum data exchange during FFTs selected (reduces bandwidth)


 total amount of memory used by VASP MPI-rank0    60655. kBytes
=======================================================================

   base      :      30000. kBytes
   nonlr-proj:       6490. kBytes
   fftplans  :       8423. kBytes
   grid      :       7465. kBytes
   one-center:         77. kBytes
   wavefun   :       8200. kBytes

     INWAV:  cpu time    0.0002: real time    0.0006
 Broyden mixing: mesh for mixing (old mesh)
   NGX = 33   NGY = 33   NGZ = 33
  (NGX  =140   NGY  =140   NGZ  =140)
  gives a total of  35937 points

 initial charge density was supplied:
 charge density of overlapping atoms calculated
 number of electron     345.0000000 magnetization 
 keeping initial charge density in first step


--------------------------------------------------------------------------------------------------------


 Maximum index for non-local projection operator          732
 Maximum index for augmentation-charges         2900 (set IRDMAX)


--------------------------------------------------------------------------------------------------------


 First call to EWALD:  gamma=   0.152
 Maximum number of real-space cells 3x 3x 3
 Maximum number of reciprocal cells 3x 3x 3

    FEWALD:  cpu time    0.0042: real time    0.0042


--------------------------------------- Iteration      1(   1)  ---------------------------------------


    POTLOK:  cpu time    0.2619: real time    0.2623
    SETDIJ:  cpu time    1.1995: real time    1.1995
     EDDAV:  cpu time   16.5702: real time   16.5767
       DOS:  cpu time    0.0007: real time    0.0007
    --------------------------------------------
      LOOP:  cpu time   18.0324: real time   18.0392

 eigenvalue-minimisations  :  3496
 total energy-change (2. order) : 0.1333951E+04  (-0.1105228E+05)
 number of electron     345.0000000 magnetization 
 augmentation part      345.0000000 magnetization 

 Free energy of the ion-electron system (eV)
  ---------------------------------------------------
  alpha Z        PSCENC =       872.70583573
  Ewald energy   TEWEN  =    -17917.38678445
  -Hartree energ DENC   =     -7439.31301991
  -exchange      EXHF   =         0.00000000
  -V(xc)+E(xc)   XCENC  =       907.90856825
  PAW double counting   =     21345.28103884   -22405.85761495
  entropy T*S    EENTRO =        -0.00001067
  eigenvalues    EBANDS =      -241.50529946
  atomic energy  EATOM  =     26212.11861568
  Solvation  Ediel_sol  =         0.00000000
  ---------------------------------------------------
  free energy    TOTEN  =      1333.95132906 eV

  energy without entropy =     1333.95133973  energy(sigma->0) =     1333.95133440


--------------------------------------------------------------------------------------------------------




--------------------------------------- Iteration      1(   2)  ---------------------------------------


     EDDAV:  cpu time   18.4658: real time   18.5047
       DOS:  cpu time    0.0004: real time    0.0004
    --------------------------------------------
      LOOP:  cpu time   18.4662: real time   18.5051

 eigenvalue-minimisations  :  4144
 total energy-change (2. order) :-0.2450996E+04  (-0.2370738E+04)
 number of electron     345.0000000 magnetization 
 augmentation part      345.0000000 magnetization 

 Free energy of the ion-electron system (eV)
  ---------------------------------------------------
  alpha Z        PSCENC =       872.70583573
  Ewald energy   TEWEN  =    -17917.38678445
  -Hartree energ DENC   =     -7439.31301991
  -exchange      EXHF   =         0.00000000
  -V(xc)+E(xc)   XCENC  =       907.90856825
  PAW double counting   =     21345.28103884   -22405.85761495
  entropy T*S    EENTRO =        -0.00000000
  eigenvalues    EBANDS =     -2692.50122099
  atomic energy  EATOM  =     26212.11861568
  Solvation  Ediel_sol  =         0.00000000
  ---------------------------------------------------
  free energy    TOTEN  =     -1117.04458180 eV

  energy without entropy =    -1117.04458180  energy(sigma->0) =    -1117.04458180


--------------------------------------------------------------------------------------------------------




--------------------------------------- Iteration      1(   3)  ---------------------------------------


     EDDAV:  cpu time   19.2726: real time   19.2842
       DOS:  cpu time    0.0008: real time    0.0008
    --------------------------------------------
      LOOP:  cpu time   19.2734: real time   19.2850

 eigenvalue-minimisations  :  4424
 total energy-change (2. order) :-0.3578910E+03  (-0.3560392E+03)
 number of electron     345.0000000 magnetization 
 augmentation part      345.0000000 magnetization 

 Free energy of the ion-electron system (eV)
  ---------------------------------------------------
  alpha Z        PSCENC =       872.70583573
  Ewald energy   TEWEN  =    -17917.38678445
  -Hartree energ DENC   =     -7439.31301991
  -exchange      EXHF   =         0.00000000
  -V(xc)+E(xc)   XCENC  =       907.90856825
  PAW double counting   =     21345.28103884   -22405.85761495
  entropy T*S    EENTRO =        -0.00000000
  eigenvalues    EBANDS =     -3050.39219276
  atomic energy  EATOM  =     26212.11861568
  Solvation  Ediel_sol  =         0.00000000
  ---------------------------------------------------
  free energy    TOTEN  =     -1474.93555357 eV

  energy without entropy =    -1474.93555357  energy(sigma->0) =    -1474.93555357


--------------------------------------------------------------------------------------------------------




--------------------------------------- Iteration      1(   4)  ---------------------------------------


     EDDAV:  cpu time   17.7666: real time   17.8093
       DOS:  cpu time    0.0004: real time    0.0004
    --------------------------------------------
      LOOP:  cpu time   17.7670: real time   17.8097

 eigenvalue-minimisations  :  3912
 total energy-change (2. order) :-0.1191100E+02  (-0.1187838E+02)
 number of electron     345.0000000 magnetization 
 augmentation part      345.0000000 magnetization 

 Free energy of the ion-electron system (eV)
  ---------------------------------------------------
  alpha Z        PSCENC =       872.70583573
  Ewald energy   TEWEN  =    -17917.38678445
  -Hartree energ DENC   =     -7439.31301991
  -exchange      EXHF   =         0.00000000
  -V(xc)+E(xc)   XCENC  =       907.90856825
  PAW double counting   =     21345.28103884   -22405.85761495
  entropy T*S    EENTRO =        -0.00000000
  eigenvalues    EBANDS =     -3062.30319414
  atomic energy  EATOM  =     26212.11861568
  Solvation  Ediel_sol  =         0.00000000
  ---------------------------------------------------
  free energy    TOTEN  =     -1486.84655495 eV

  energy without entropy =    -1486.84655495  energy(sigma->0) =    -1486.84655495


--------------------------------------------------------------------------------------------------------




--------------------------------------- Iteration      1(   5)  ---------------------------------------


     EDDAV:  cpu time   19.1197: real time   19.1421
       DOS:  cpu time    0.0007: real time    0.0007
    CHARGE:  cpu time    2.6954: real time    2.6954
    MIXING:  cpu time    0.0014: real time    0.0014
    --------------------------------------------
      LOOP:  cpu time   21.8172: real time   21.8397

 eigenvalue-minimisations  :  4392
 total energy-change (2. order) :-0.5379626E+00  (-0.5377247E+00)
 number of electron     343.9999998 magnetization 
 augmentation part       -5.0375529 magnetization 

 Broyden mixing:
  rms(total) = 0.10126E+01    rms(broyden)= 0.10119E+01
  rms(prec ) = 0.14214E+01
  weight for this iteration     100.00

 Free energy of the ion-electron system (eV)
  ---------------------------------------------------
  alpha Z        PSCENC =       872.70583573
  Ewald energy   TEWEN  =    -17917.38678445
  -Hartree energ DENC   =     -7439.31301991
  -exchange      EXHF   =         0.00000000
  -V(xc)+E(xc)   XCENC  =       907.90856825
  PAW double counting   =     21345.28103884   -22405.85761495
  entropy T*S    EENTRO =        -0.00000000
  eigenvalues    EBANDS =     -3062.84115676
  atomic energy  EATOM  =     26212.11861568
  Solvation  Ediel_sol  =         0.00000000
  ---------------------------------------------------
  free energy    TOTEN  =     -1487.38451757 eV

  energy without entropy =    -1487.38451757  energy(sigma->0) =    -1487.38451757


--------------------------------------------------------------------------------------------------------




--------------------------------------- Iteration      1(   6)  ---------------------------------------


    POTLOK:  cpu time    0.2511: real time    0.3028
    SETDIJ:  cpu time    1.1995: real time    1.1995
     EDDAV:  cpu time   18.9885: real time   18.9893
       DOS:  cpu time    0.0004: real time    0.0004
    CHARGE:  cpu time    2.6795: real time    2.6796
    MIXING:  cpu time    0.0016: real time    0.0016
    --------------------------------------------
      LOOP:  cpu time   23.1206: real time   23.1732

 eigenvalue-minimisations  :  4320
 total energy-change (2. order) : 0.7814774E+02  (-0.2378955E+01)
 number of electron     343.9999998 magnetization 
 augmentation part       -3.6413496 magnetization 

 Broyden mixing:
  rms(total) = 0.72132E+00    rms(broyden)= 0.72123E+00
  rms(prec ) = 0.91423E+00
  weight for this iteration     100.00

 eigenvalues of (default mixing * dielectric matrix)
  average eigenvalue GAMMA=   1.1831
  1.1831

 Free energy of the ion-electron system (eV)
  ---------------------------------------------------
  alpha Z        PSCENC =       872.70583573
  Ewald energy   TEWEN  =    -17917.38678445
  -Hartree energ DENC   =     -7418.78635274
  -exchange      EXHF   =         0.00000000
  -V(xc)+E(xc)   XCENC  =       935.92586230
  PAW double counting   =     21613.04364786   -22671.46576247
  entropy T*S    EENTRO =        -0.00000000
  eigenvalues    EBANDS =     -3035.39183903
  atomic energy  EATOM  =     26212.11861568
  Solvation  Ediel_sol  =         0.00000000
  ---------------------------------------------------
  free energy    TOTEN  =     -1409.23677711 eV

  energy without entropy =    -1409.23677711  energy(sigma->0) =    -1409.23677711


--------------------------------------------------------------------------------------------------------




--------------------------------------- Iteration      1(   7)  ---------------------------------------


    POTLOK:  cpu time    0.2902: real time    0.3037
    SETDIJ:  cpu time    1.1993: real time    1.1993
     EDDAV:  cpu time   18.1169: real time   18.1175
       DOS:  cpu time    0.0004: real time    0.0004
    CHARGE:  cpu time    2.6705: real time    2.6706
    MIXING:  cpu time    0.0016: real time    0.0016
    --------------------------------------------
      LOOP:  cpu time   22.2788: real time   22.2932

 eigenvalue-minimisations  :  4016
 total energy-change (2. order) : 0.5742521E+00  (-0.9392422E+00)
 number of electron     343.9999998 magnetization 
 augmentation part       -3.0526092 magnetization 

 Broyden mixing:
  rms(total) = 0.37579E+00    rms(broyden)= 0.37577E+00
  rms(prec ) = 0.42064E+00
  weight for this iteration     100.00

 eigenvalues of (default mixing * dielectric matrix)
  average eigenvalue GAMMA=   1.2907
  1.2907  1.2907

 Free energy of the ion-electron system (eV)
  ---------------------------------------------------
  alpha Z        PSCENC =       872.70583573
  Ewald energy   TEWEN  =    -17917.38678445
  -Hartree energ DENC   =     -7459.65702865
  -exchange      EXHF   =         0.00000000
  -V(xc)+E(xc)   XCENC  =       940.97929016
  PAW double counting   =     22219.96071094   -23276.10515629
  entropy T*S    EENTRO =        -0.00000000
  eigenvalues    EBANDS =     -3001.27800814
  atomic energy  EATOM  =     26212.11861568
  Solvation  Ediel_sol  =         0.00000000
  ---------------------------------------------------
  free energy    TOTEN  =     -1408.66252502 eV

  energy without entropy =    -1408.66252502  energy(sigma->0) =    -1408.66252502


--------------------------------------------------------------------------------------------------------




--------------------------------------- Iteration      1(   8)  ---------------------------------------


    POTLOK:  cpu time    0.2526: real time    0.3019
    SETDIJ:  cpu time    1.1979: real time    1.1980
     EDDAV:  cpu time   17.8587: real time   17.8593
       DOS:  cpu time    0.0005: real time    0.0005
    CHARGE:  cpu time    2.6802: real time    2.6803
    MIXING:  cpu time    0.0015: real time    0.0015
    --------------------------------------------
      LOOP:  cpu time   21.9915: real time   22.0414

 eigenvalue-minimisations  :  3928
 total energy-change (2. order) :-0.1838997E+00  (-0.5328817E-01)
 number of electron     343.9999998 magnetization 
 augmentation part       -3.1573187 magnetization 

 Broyden mixing:
  rms(total) = 0.22364E+00    rms(broyden)= 0.22364E+00
  rms(prec ) = 0.25537E+00
  weight for this iteration     100.00

 eigenvalues of (default mixing * dielectric matrix)
  average eigenvalue GAMMA=   1.6797
  1.1771  1.2469  2.6153

 Free energy of the ion-electron system (eV)
  ---------------------------------------------------
  alpha Z        PSCENC =       872.70583573
  Ewald energy   TEWEN  =    -17917.38678445
  -Hartree energ DENC   =     -7464.22267435
  -exchange      EXHF   =         0.00000000
  -V(xc)+E(xc)   XCENC  =       941.53788872
  PAW double counting   =     22439.80697867   -23496.24137663
  entropy T*S    EENTRO =        -0.00000000
  eigenvalues    EBANDS =     -2997.16490814
  atomic energy  EATOM  =     26212.11861568
  Solvation  Ediel_sol  =         0.00000000
  ---------------------------------------------------
  free energy    TOTEN  =     -1408.84642477 eV

  energy without entropy =    -1408.84642477  energy(sigma->0) =    -1408.84642477


--------------------------------------------------------------------------------------------------------




--------------------------------------- Iteration      1(   9)  ---------------------------------------


    POTLOK:  cpu time    0.3050: real time    0.3137
    SETDIJ:  cpu time    1.1969: real time    1.1969
     EDDAV:  cpu time   17.1384: real time   17.1392
       DOS:  cpu time    0.0011: real time    0.0011
    CHARGE:  cpu time    2.6748: real time    2.6750
    MIXING:  cpu time    0.0016: real time    0.0016
    --------------------------------------------
      LOOP:  cpu time   21.3179: real time   21.3275

 eigenvalue-minimisations  :  3680
 total energy-change (2. order) :-0.6351388E-01  (-0.2038038E-01)
 number of electron     343.9999998 magnetization 
 augmentation part       -3.1933825 magnetization 

 Broyden mixing:
  rms(total) = 0.48039E-01    rms(broyden)= 0.48035E-01
  rms(prec ) = 0.57355E-01
  weight for this iteration     100.00

 eigenvalues of (default mixing * dielectric matrix)
  average eigenvalue GAMMA=   1.4596
  2.5247  1.2393  1.2393  0.8350

 Free energy of the ion-electron system (eV)
  ---------------------------------------------------
  alpha Z        PSCENC =       872.70583573
  Ewald energy   TEWEN  =    -17917.38678445
  -Hartree energ DENC   =     -7470.85314352
  -exchange      EXHF   =         0.00000000
  -V(xc)+E(xc)   XCENC  =       943.46497107
  PAW double counting   =     22771.08142950   -23828.31299579
  entropy T*S    EENTRO =        -0.00000000
  eigenvalues    EBANDS =     -2991.72786687
  atomic energy  EATOM  =     26212.11861568
  Solvation  Ediel_sol  =         0.00000000
  ---------------------------------------------------
  free energy    TOTEN  =     -1408.90993865 eV

  energy without entropy =    -1408.90993865  energy(sigma->0) =    -1408.90993865


--------------------------------------------------------------------------------------------------------




--------------------------------------- Iteration      1(  10)  ---------------------------------------


    POTLOK:  cpu time    0.3024: real time    0.3085
    SETDIJ:  cpu time    1.1980: real time    1.1981
     EDDAV:  cpu time   19.1270: real time   19.1277
       DOS:  cpu time    0.0010: real time    0.0010
    CHARGE:  cpu time    2.6775: real time    2.6776
    MIXING:  cpu time    0.0017: real time    0.0017
    --------------------------------------------
      LOOP:  cpu time   23.3077: real time   23.3146

 eigenvalue-minimisations  :  4368
 total energy-change (2. order) :-0.4402588E-02  (-0.2661333E-02)
 number of electron     343.9999998 magnetization 
 augmentation part       -3.1827860 magnetization 

 Broyden mixing:
  rms(total) = 0.33525E-01    rms(broyden)= 0.33523E-01
  rms(prec ) = 0.42164E-01
  weight for this iteration     100.00

 eigenvalues of (default mixing * dielectric matrix)
  average eigenvalue GAMMA=   1.3337
  2.3759  1.3372  1.3372  0.8090  0.8090

 Free energy of the ion-electron system (eV)
  ---------------------------------------------------
  alpha Z        PSCENC =       872.70583573
  Ewald energy   TEWEN  =    -17917.38678445
  -Hartree energ DENC   =     -7469.16279408
  -exchange      EXHF   =         0.00000000
  -V(xc)+E(xc)   XCENC  =       943.32090821
  PAW double counting   =     22743.87692854   -23801.19814311
  entropy T*S    EENTRO =        -0.00000000
  eigenvalues    EBANDS =     -2993.18890775
  atomic energy  EATOM  =     26212.11861568
  Solvation  Ediel_sol  =         0.00000000
  ---------------------------------------------------
  free energy    TOTEN  =     -1408.91434124 eV

  energy without entropy =    -1408.91434124  energy(sigma->0) =    -1408.91434124


--------------------------------------------------------------------------------------------------------




--------------------------------------- Iteration      1(  11)  ---------------------------------------


    POTLOK:  cpu time    0.2983: real time    0.3158
    SETDIJ:  cpu time    1.1995: real time    1.1995
     EDDAV:  cpu time   17.0247: real time   17.0254
       DOS:  cpu time    0.0004: real time    0.0004
    CHARGE:  cpu time    2.6809: real time    2.6810
    MIXING:  cpu time    0.0016: real time    0.0016
    --------------------------------------------
      LOOP:  cpu time   21.2053: real time   21.2236

 eigenvalue-minimisations  :  3632
 total energy-change (2. order) :-0.2160643E-02  (-0.3778141E-03)
 number of electron     343.9999998 magnetization 
 augmentation part       -3.1825827 magnetization 

 Broyden mixing:
  rms(total) = 0.14266E-01    rms(broyden)= 0.14266E-01
  rms(prec ) = 0.22256E-01
  weight for this iteration     100.00

 eigenvalues of (default mixing * dielectric matrix)
  average eigenvalue GAMMA=   1.5984
  2.7502  2.7502  1.1962  1.1962  0.8489  0.8489

 Free energy of the ion-electron system (eV)
  ---------------------------------------------------
  alpha Z        PSCENC =       872.70583573
  Ewald energy   TEWEN  =    -17917.38678445
  -Hartree energ DENC   =     -7467.54854235
  -exchange      EXHF   =         0.00000000
  -V(xc)+E(xc)   XCENC  =       943.23568818
  PAW double counting   =     22726.06731863   -23783.62839693
  entropy T*S    EENTRO =        -0.00000000
  eigenvalues    EBANDS =     -2994.48023638
  atomic energy  EATOM  =     26212.11861568
  Solvation  Ediel_sol  =         0.00000000
  ---------------------------------------------------
  free energy    TOTEN  =     -1408.91650188 eV

  energy without entropy =    -1408.91650188  energy(sigma->0) =    -1408.91650188


--------------------------------------------------------------------------------------------------------




--------------------------------------- Iteration      1(  12)  ---------------------------------------


    POTLOK:  cpu time    0.2801: real time    0.3101
    SETDIJ:  cpu time    1.1984: real time    1.1984
     EDDAV:  cpu time   16.8130: real time   16.8139
       DOS:  cpu time    0.0004: real time    0.0004
    CHARGE:  cpu time    2.6758: real time    2.6759
    MIXING:  cpu time    0.0017: real time    0.0017
    --------------------------------------------
      LOOP:  cpu time   20.9695: real time   21.0004

 eigenvalue-minimisations  :  3560
 total energy-change (2. order) :-0.2756962E-02  (-0.5329444E-03)
 number of electron     343.9999998 magnetization 
 augmentation part       -3.1861024 magnetization 

 Broyden mixing:
  rms(total) = 0.10215E-01    rms(broyden)= 0.10214E-01
  rms(prec ) = 0.13193E-01
  weight for this iteration     100.00

 eigenvalues of (default mixing * dielectric matrix)
  average eigenvalue GAMMA=   1.6103
  2.8340  2.8340  1.3506  1.3506  0.9100  0.9965  0.9965

 Free energy of the ion-electron system (eV)
  ---------------------------------------------------
  alpha Z        PSCENC =       872.70583573
  Ewald energy   TEWEN  =    -17917.38678445
  -Hartree energ DENC   =     -7466.68901987
  -exchange      EXHF   =         0.00000000
  -V(xc)+E(xc)   XCENC  =       943.25602999
  PAW double counting   =     22720.34071224   -23778.20069518
  entropy T*S    EENTRO =        -0.00000000
  eigenvalues    EBANDS =     -2995.06395298
  atomic energy  EATOM  =     26212.11861568
  Solvation  Ediel_sol  =         0.00000000
  ---------------------------------------------------
  free energy    TOTEN  =     -1408.91925885 eV

  energy without entropy =    -1408.91925885  energy(sigma->0) =    -1408.91925885


--------------------------------------------------------------------------------------------------------




--------------------------------------- Iteration      1(  13)  ---------------------------------------


    POTLOK:  cpu time    0.2973: real time    0.3136
    SETDIJ:  cpu time    1.1989: real time    1.1989
     EDDAV:  cpu time   19.1692: real time   19.1701
       DOS:  cpu time    0.0004: real time    0.0004
    CHARGE:  cpu time    2.6816: real time    2.6817
    MIXING:  cpu time    0.0019: real time    0.0019
    --------------------------------------------
      LOOP:  cpu time   23.3492: real time   23.3665

 eigenvalue-minimisations  :  4376
 total energy-change (2. order) : 0.3447372E-03  (-0.1463893E-03)
 number of electron     343.9999998 magnetization 
 augmentation part       -3.1863419 magnetization 

 Broyden mixing:
  rms(total) = 0.41867E-02    rms(broyden)= 0.41860E-02
  rms(prec ) = 0.51099E-02
  weight for this iteration     100.00

 eigenvalues of (default mixing * dielectric matrix)
  average eigenvalue GAMMA=   1.5630
  3.1868  2.4192  1.5375  1.1802  1.1802  1.1614  0.9872  0.8515

 Free energy of the ion-electron system (eV)
  ---------------------------------------------------
  alpha Z        PSCENC =       872.70583573
  Ewald energy   TEWEN  =    -17917.38678445
  -Hartree energ DENC   =     -7467.76084840
  -exchange      EXHF   =         0.00000000
  -V(xc)+E(xc)   XCENC  =       943.32757131
  PAW double counting   =     22720.43156384   -23778.23277659
  entropy T*S    EENTRO =        -0.00000000
  eigenvalues    EBANDS =     -2994.12209123
  atomic energy  EATOM  =     26212.11861568
  Solvation  Ediel_sol  =         0.00000000
  ---------------------------------------------------
  free energy    TOTEN  =     -1408.91891411 eV

  energy without entropy =    -1408.91891411  energy(sigma->0) =    -1408.91891411


--------------------------------------------------------------------------------------------------------




--------------------------------------- Iteration      1(  14)  ---------------------------------------


    POTLOK:  cpu time    0.2898: real time    0.3084
    SETDIJ:  cpu time    1.1982: real time    1.1983
     EDDAV:  cpu time   17.9078: real time   17.9085
       DOS:  cpu time    0.0004: real time    0.0004
    CHARGE:  cpu time    2.6804: real time    2.6805
    MIXING:  cpu time    0.0020: real time    0.0020
    --------------------------------------------
      LOOP:  cpu time   22.0787: real time   22.0982

 eigenvalue-minimisations  :  3936
 total energy-change (2. order) : 0.8315181E-05  (-0.3683442E-04)
 number of electron     343.9999998 magnetization 
 augmentation part       -3.1856327 magnetization 

 Broyden mixing:
  rms(total) = 0.22387E-02    rms(broyden)= 0.22374E-02
  rms(prec ) = 0.31222E-02
  weight for this iteration     100.00

 eigenvalues of (default mixing * dielectric matrix)
  average eigenvalue GAMMA=   1.5737
  3.1983  2.2830  2.2830  1.1628  1.1628  1.1466  1.1466  0.8903  0.8903

 Free energy of the ion-electron system (eV)
  ---------------------------------------------------
  alpha Z        PSCENC =       872.70583573
  Ewald energy   TEWEN  =    -17917.38678445
  -Hartree energ DENC   =     -7467.95744505
  -exchange      EXHF   =         0.00000000
  -V(xc)+E(xc)   XCENC  =       943.33981865
  PAW double counting   =     22722.14490403   -23779.92733229
  entropy T*S    EENTRO =        -0.00000000
  eigenvalues    EBANDS =     -2993.95651809
  atomic energy  EATOM  =     26212.11861568
  Solvation  Ediel_sol  =         0.00000000
  ---------------------------------------------------
  free energy    TOTEN  =     -1408.91890579 eV

  energy without entropy =    -1408.91890579  energy(sigma->0) =    -1408.91890579


--------------------------------------------------------------------------------------------------------




--------------------------------------- Iteration      1(  15)  ---------------------------------------


    POTLOK:  cpu time    0.2883: real time    0.3174
    SETDIJ:  cpu time    1.1998: real time    1.1999
     EDDAV:  cpu time   17.4792: real time   17.4801
       DOS:  cpu time    0.0005: real time    0.0004
    CHARGE:  cpu time    2.6829: real time    2.6830
    MIXING:  cpu time    0.0018: real time    0.0018
    --------------------------------------------
      LOOP:  cpu time   21.6524: real time   21.6825

 eigenvalue-minimisations  :  3792
 total energy-change (2. order) :-0.3878618E-05  (-0.4049686E-05)
 number of electron     343.9999998 magnetization 
 augmentation part       -3.1855870 magnetization 

 Broyden mixing:
  rms(total) = 0.13078E-02    rms(broyden)= 0.13063E-02
  rms(prec ) = 0.19125E-02
  weight for this iteration     100.00

 eigenvalues of (default mixing * dielectric matrix)
  average eigenvalue GAMMA=   1.6474
  3.7029  2.4936  2.4936  1.3647  1.3647  1.1848  1.1848  0.8430  0.9210  0.9210

 Free energy of the ion-electron system (eV)
  ---------------------------------------------------
  alpha Z        PSCENC =       872.70583573
  Ewald energy   TEWEN  =    -17917.38678445
  -Hartree energ DENC   =     -7468.13517236
  -exchange      EXHF   =         0.00000000
  -V(xc)+E(xc)   XCENC  =       943.34583136
  PAW double counting   =     22722.38911151   -23780.16416033
  entropy T*S    EENTRO =        -0.00000000
  eigenvalues    EBANDS =     -2993.79218680
  atomic energy  EATOM  =     26212.11861568
  Solvation  Ediel_sol  =         0.00000000
  ---------------------------------------------------
  free energy    TOTEN  =     -1408.91890967 eV

  energy without entropy =    -1408.91890967  energy(sigma->0) =    -1408.91890967


--------------------------------------------------------------------------------------------------------




--------------------------------------- Iteration      1(  16)  ---------------------------------------


    POTLOK:  cpu time    0.2591: real time    0.3106
    SETDIJ:  cpu time    1.2006: real time    1.2007
     EDDAV:  cpu time   16.9989: real time   16.9996
       DOS:  cpu time    0.0004: real time    0.0004
    CHARGE:  cpu time    2.6758: real time    2.6759
    MIXING:  cpu time    0.0019: real time    0.0019
    --------------------------------------------
      LOOP:  cpu time   21.1369: real time   21.1891

 eigenvalue-minimisations  :  3624
 total energy-change (2. order) :-0.7108067E-04  (-0.3948609E-05)
 number of electron     343.9999998 magnetization 
 augmentation part       -3.1852594 magnetization 

 Broyden mixing:
  rms(total) = 0.60810E-03    rms(broyden)= 0.60487E-03
  rms(prec ) = 0.73153E-03
  weight for this iteration     100.00

 eigenvalues of (default mixing * dielectric matrix)
  average eigenvalue GAMMA=   1.6982
  4.1124  2.8707  2.2830  2.0518  1.1621  1.1621  1.1342  1.1342  0.8355  0.9672
  0.9672

 Free energy of the ion-electron system (eV)
  ---------------------------------------------------
  alpha Z        PSCENC =       872.70583573
  Ewald energy   TEWEN  =    -17917.38678445
  -Hartree energ DENC   =     -7468.13804881
  -exchange      EXHF   =         0.00000000
  -V(xc)+E(xc)   XCENC  =       943.33622995
  PAW double counting   =     22721.44635986   -23779.22145961
  entropy T*S    EENTRO =        -0.00000000
  eigenvalues    EBANDS =     -2993.77972910
  atomic energy  EATOM  =     26212.11861568
  Solvation  Ediel_sol  =         0.00000000
  ---------------------------------------------------
  free energy    TOTEN  =     -1408.91898075 eV

  energy without entropy =    -1408.91898075  energy(sigma->0) =    -1408.91898075


--------------------------------------------------------------------------------------------------------




--------------------------------------- Iteration      1(  17)  ---------------------------------------


    POTLOK:  cpu time    0.3109: real time    0.3195
    SETDIJ:  cpu time    1.1998: real time    1.1998
     EDDAV:  cpu time   17.7984: real time   17.7992
       DOS:  cpu time    0.0005: real time    0.0005
    CHARGE:  cpu time    2.6791: real time    2.6792
    MIXING:  cpu time    0.0023: real time    0.0023
    --------------------------------------------
      LOOP:  cpu time   21.9910: real time   22.0005

 eigenvalue-minimisations  :  3888
 total energy-change (2. order) : 0.5137068E-05  (-0.8258985E-06)
 number of electron     343.9999998 magnetization 
 augmentation part       -3.1852513 magnetization 

 Broyden mixing:
  rms(total) = 0.31095E-03    rms(broyden)= 0.30464E-03
  rms(prec ) = 0.35212E-03
  weight for this iteration     100.00

 eigenvalues of (default mixing * dielectric matrix)
  average eigenvalue GAMMA=   1.6503
  4.2460  2.9309  2.1785  2.1785  1.2253  1.2253  1.1512  1.1512  0.9669  0.9669
  0.7912  0.7912

 Free energy of the ion-electron system (eV)
  ---------------------------------------------------
  alpha Z        PSCENC =       872.70583573
  Ewald energy   TEWEN  =    -17917.38678445
  -Hartree energ DENC   =     -7468.12960520
  -exchange      EXHF   =         0.00000000
  -V(xc)+E(xc)   XCENC  =       943.33397869
  PAW double counting   =     22721.71006208   -23779.48264983
  entropy T*S    EENTRO =        -0.00000000
  eigenvalues    EBANDS =     -2993.78842831
  atomic energy  EATOM  =     26212.11861568
  Solvation  Ediel_sol  =         0.00000000
  ---------------------------------------------------
  free energy    TOTEN  =     -1408.91897562 eV

  energy without entropy =    -1408.91897562  energy(sigma->0) =    -1408.91897562


--------------------------------------------------------------------------------------------------------




--------------------------------------- Iteration      1(  18)  ---------------------------------------


    POTLOK:  cpu time    0.3118: real time    0.3223
    SETDIJ:  cpu time    1.1989: real time    1.1990
     EDDAV:  cpu time   13.2217: real time   13.2222
       DOS:  cpu time    0.0009: real time    0.0009
    CHARGE:  cpu time    2.6831: real time    2.6832
    MIXING:  cpu time    0.0019: real time    0.0019
    --------------------------------------------
      LOOP:  cpu time   17.4185: real time   17.4295

 eigenvalue-minimisations  :  2280
 total energy-change (2. order) : 0.3250986E-05  (-0.8454038E-07)
 number of electron     343.9999998 magnetization 
 augmentation part       -3.1852920 magnetization 

 Broyden mixing:
  rms(total) = 0.18299E-03    rms(broyden)= 0.17210E-03
  rms(prec ) = 0.20550E-03
  weight for this iteration     100.00

 eigenvalues of (default mixing * dielectric matrix)
  average eigenvalue GAMMA=   1.6925
  4.5832  3.0060  2.2623  2.2623  1.3571  1.3571  1.1358  1.1358  1.0871  1.0871
  0.9517  0.9517  0.8245

 Free energy of the ion-electron system (eV)
  ---------------------------------------------------
  alpha Z        PSCENC =       872.70583573
  Ewald energy   TEWEN  =    -17917.38678445
  -Hartree energ DENC   =     -7468.13395394
  -exchange      EXHF   =         0.00000000
  -V(xc)+E(xc)   XCENC  =       943.33418625
  PAW double counting   =     22721.72913540   -23779.50107282
  entropy T*S    EENTRO =        -0.00000000
  eigenvalues    EBANDS =     -2993.78493422
  atomic energy  EATOM  =     26212.11861568
  Solvation  Ediel_sol  =         0.00000000
  ---------------------------------------------------
  free energy    TOTEN  =     -1408.91897236 eV

  energy without entropy =    -1408.91897236  energy(sigma->0) =    -1408.91897236


--------------------------------------------------------------------------------------------------------




--------------------------------------- Iteration      1(  19)  ---------------------------------------


    POTLOK:  cpu time    0.2704: real time    0.3150
    SETDIJ:  cpu time    1.1976: real time    1.1977
     EDDAV:  cpu time   13.1845: real time   13.1851
       DOS:  cpu time    0.0009: real time    0.0008
    CHARGE:  cpu time    2.6831: real time    2.6832
    MIXING:  cpu time    0.0020: real time    0.0020
    --------------------------------------------
      LOOP:  cpu time   17.3385: real time   17.3838

 eigenvalue-minimisations  :  2264
 total energy-change (2. order) : 0.4157163E-05  (-0.2592271E-07)
 number of electron     343.9999998 magnetization 
 augmentation part       -3.1852805 magnetization 

 Broyden mixing:
  rms(total) = 0.10435E-03    rms(broyden)= 0.83829E-04
  rms(prec ) = 0.99458E-04
  weight for this iteration     100.00
  WARNING: grid for Broyden might be to small

 eigenvalues of (default mixing * dielectric matrix)
  average eigenvalue GAMMA=   1.6958
  4.6936  3.0814  2.3859  2.0563  2.0563  1.2333  1.2333  1.1405  1.1405  0.9845
  0.9845  1.0398  0.8553  0.8553

 Free energy of the ion-electron system (eV)
  ---------------------------------------------------
  alpha Z        PSCENC =       872.70583573
  Ewald energy   TEWEN  =    -17917.38678445
  -Hartree energ DENC   =     -7468.14018185
  -exchange      EXHF   =         0.00000000
  -V(xc)+E(xc)   XCENC  =       943.33441657
  PAW double counting   =     22721.79765124   -23779.56893337
  entropy T*S    EENTRO =        -0.00000000
  eigenvalues    EBANDS =     -2993.77958775
  atomic energy  EATOM  =     26212.11861568
  Solvation  Ediel_sol  =         0.00000000
  ---------------------------------------------------
  free energy    TOTEN  =     -1408.91896821 eV

  energy without entropy =    -1408.91896821  energy(sigma->0) =    -1408.91896821


--------------------------------------------------------------------------------------------------------




--------------------------------------- Iteration      1(  20)  ---------------------------------------


    POTLOK:  cpu time    0.2494: real time    0.3087
    SETDIJ:  cpu time    1.1991: real time    1.1991
     EDDAV:  cpu time   12.4984: real time   12.4989
       DOS:  cpu time    0.0004: real time    0.0004
    CHARGE:  cpu time    2.6862: real time    2.6863
    MIXING:  cpu time    0.0021: real time    0.0022
    --------------------------------------------
      LOOP:  cpu time   16.6356: real time   16.6956

 eigenvalue-minimisations  :  2024
 total energy-change (2. order) : 0.1788203E-05  (-0.1277522E-07)
 number of electron     343.9999998 magnetization 
 augmentation part       -3.1852956 magnetization 

 Broyden mixing:
  rms(total) = 0.88253E-04    rms(broyden)= 0.62666E-04
  rms(prec ) = 0.71949E-04
  weight for this iteration     100.00
  WARNING: grid for Broyden might be to small

 eigenvalues of (default mixing * dielectric matrix)
  average eigenvalue GAMMA=   1.7048
  4.7914  3.1555  2.3952  2.3952  1.9254  1.3477  1.3477  1.2119  1.2119  1.0856
  1.0856  0.9466  0.9466  0.8939  0.8311

 Free energy of the ion-electron system (eV)
  ---------------------------------------------------
  alpha Z        PSCENC =       872.70583573
  Ewald energy   TEWEN  =    -17917.38678445
  -Hartree energ DENC   =     -7468.14498687
  -exchange      EXHF   =         0.00000000
  -V(xc)+E(xc)   XCENC  =       943.33463573
  PAW double counting   =     22721.79706600   -23779.56799113
  entropy T*S    EENTRO =        -0.00000000
  eigenvalues    EBANDS =     -2993.77535710
  atomic energy  EATOM  =     26212.11861568
  Solvation  Ediel_sol  =         0.00000000
  ---------------------------------------------------
  free energy    TOTEN  =     -1408.91896642 eV

  energy without entropy =    -1408.91896642  energy(sigma->0) =    -1408.91896642


--------------------------------------------------------------------------------------------------------




--------------------------------------- Iteration      1(  21)  ---------------------------------------


    POTLOK:  cpu time    0.2768: real time    0.3159
    SETDIJ:  cpu time    1.2015: real time    1.2015
     EDDAV:  cpu time   12.4247: real time   12.4251
       DOS:  cpu time    0.0004: real time    0.0004
    --------------------------------------------
      LOOP:  cpu time   13.9033: real time   13.9429

 eigenvalue-minimisations  :  2000
 total energy-change (2. order) :-0.6475552E-06  (-0.4636775E-08)
 number of electron     343.9999998 magnetization 
 augmentation part       -3.1852956 magnetization 

 Free energy of the ion-electron system (eV)
  ---------------------------------------------------
  alpha Z        PSCENC =       872.70583573
  Ewald energy   TEWEN  =    -17917.38678445
  -Hartree energ DENC   =     -7468.14473070
  -exchange      EXHF   =         0.00000000
  -V(xc)+E(xc)   XCENC  =       943.33465102
  PAW double counting   =     22721.79422720   -23779.56530542
  entropy T*S    EENTRO =        -0.00000000
  eigenvalues    EBANDS =     -2993.77547613
  atomic energy  EATOM  =     26212.11861568
  Solvation  Ediel_sol  =         0.00000000
  ---------------------------------------------------
  free energy    TOTEN  =     -1408.91896707 eV

  energy without entropy =    -1408.91896707  energy(sigma->0) =    -1408.91896707


--------------------------------------------------------------------------------------------------------




 average (electrostatic) potential at core
  the test charge radii are     1.1312  1.1541  1.0178
  (the norm of the test charge is              1.0000)
       1 -55.0952       2 -54.9270       3 -55.3849       4 -55.2685       5 -55.2429
       6 -54.9290       7 -55.2213       8 -55.2976       9-101.6810      10-102.0136
      11-101.6535      12-102.0530      13-101.6165      14-101.9606      15-101.6573
      16-101.8980      17 -69.0541      18 -69.1036      19 -69.0027      20 -69.2735
      21 -69.0830      22 -68.7269      23 -69.0119      24 -68.9364      25 -69.0703
      26 -69.0340      27 -69.0345      28 -69.0544      29 -69.0639      30 -69.0491
      31 -69.6913      32 -69.0555      33 -69.0650      34 -69.0539      35 -69.0533
      36 -69.4394      37 -69.0251      38 -69.0105      39 -68.0552



 E-fermi :   0.3962     XC(G=0):  -7.9591     alpha+bet : -6.9586


 k-point     1 :       0.0000    0.0000    0.0000
  band No.  band energies     occupation 
      1     -20.9155      2.00000
      2     -20.8212      2.00000
      3     -20.8032      2.00000
      4     -20.7770      2.00000
      5     -20.7501      2.00000
      6     -20.6374      2.00000
      7     -20.4985      2.00000
      8     -20.4751      2.00000
      9     -16.8465      2.00000
     10     -16.7852      2.00000
     11     -16.7733      2.00000
     12     -16.7592      2.00000
     13     -16.7306      2.00000
     14     -16.7281      2.00000
     15     -16.7221      2.00000
     16     -16.6817      2.00000
     17     -16.6812      2.00000
     18     -16.6754      2.00000
     19     -16.6596      2.00000
     20     -16.6403      2.00000
     21     -16.6286      2.00000
     22     -16.6190      2.00000
     23     -16.6132      2.00000
     24     -16.6086      2.00000
     25     -16.5834      2.00000
     26     -16.5641      2.00000
     27     -16.5527      2.00000
     28     -16.4981      2.00000
     29     -16.4944      2.00000
     30     -16.4722      2.00000
     31     -16.4616      2.00000
     32     -16.4476      2.00000
     33     -16.4198      2.00000
     34     -16.4081      2.00000
     35     -16.3894      2.00000
     36     -16.3776      2.00000
     37     -16.3492      2.00000
     38     -16.3428      2.00000
     39     -16.3353      2.00000
     40     -16.3270      2.00000
     41     -16.3246      2.00000
     42     -16.3207      2.00000
     43     -16.3162      2.00000
     44     -16.3143      2.00000
     45     -16.3074      2.00000
     46     -16.2886      2.00000
     47     -16.2838      2.00000
     48     -16.2742      2.00000
     49     -14.7115      2.00000
     50     -14.4672      2.00000
     51     -14.3407      2.00000
     52     -14.3202      2.00000
     53     -14.1791      2.00000
     54     -14.1500      2.00000
     55     -14.1202      2.00000
     56     -14.1036      2.00000
     57     -14.0924      2.00000
     58     -14.0884      2.00000
     59     -14.0742      2.00000
     60     -14.0682      2.00000
     61     -14.0625      2.00000
     62     -14.0574      2.00000
     63     -14.0372      2.00000
     64     -13.9995      2.00000
     65     -13.9546      2.00000
     66     -13.8687      2.00000
     67     -13.8572      2.00000
     68     -13.7860      2.00000
     69     -13.7769      2.00000
     70     -13.6455      2.00000
     71     -13.0566      2.00000
     72      -8.2544      2.00000
     73      -7.8712      2.00000
     74      -7.8066      2.00000
     75      -7.7175      2.00000
     76      -7.3708      2.00000
     77      -7.3368      2.00000
     78      -7.3175      2.00000
     79      -7.2913      2.00000
     80      -7.2855      2.00000
     81      -7.2452      2.00000
     82      -7.2408      2.00000
     83      -7.2295      2.00000
     84      -7.2176      2.00000
     85      -7.2058      2.00000
     86      -7.2017      2.00000
     87      -7.1952      2.00000
     88      -7.1874      2.00000
     89      -7.1770      2.00000
     90      -7.1622      2.00000
     91      -7.1510      2.00000
     92      -7.1435      2.00000
     93      -7.1257      2.00000
     94      -7.0697      2.00000
     95      -7.0504      2.00000
     96      -7.0491      2.00000
     97      -6.9689      2.00000
     98      -6.9610      2.00000
     99      -6.9243      2.00000
    100      -6.9180      2.00000
    101      -6.8847      2.00000
    102      -6.8233      2.00000
    103      -6.6371      2.00000
    104      -3.4071      2.00000
    105      -3.3419      2.00000
    106      -3.3347      2.00000
    107      -3.3100      2.00000
    108      -3.2407      2.00000
    109      -3.2305      2.00000
    110      -3.2061      2.00000
    111      -3.2019      2.00000
    112      -3.1013      2.00000
    113      -3.0933      2.00000
    114      -2.9042      2.00000
    115      -2.7526      2.00000
    116      -2.3580      2.00000
    117      -2.3291      2.00000
    118      -2.1606      2.00000
    119      -2.0705      2.00000
    120      -2.0501      2.00000
    121      -2.0187      2.00000
    122      -1.9954      2.00000
    123      -1.9269      2.00000
    124      -1.8693      2.00000
    125      -1.8576      2.00000
    126      -1.8096      2.00000
    127      -1.7844      2.00000
    128      -1.7252      2.00000
    129      -1.6837      2.00000
    130      -1.6487      2.00000
    131      -1.6312      2.00000
    132      -1.5998      2.00000
    133      -1.5841      2.00000
    134      -1.5457      2.00000
    135      -1.5428      2.00000
    136      -1.5212      2.00000
    137      -1.5196      2.00000
    138      -1.5046      2.00000
    139      -1.4964      2.00000
    140      -1.4626      2.00000
    141      -1.4511      2.00000
    142      -1.4384      2.00000
    143      -1.4132      2.00000
    144      -1.3986      2.00000
    145      -1.3900      2.00000
    146      -1.3823      2.00000
    147      -1.3775      2.00000
    148      -1.3628      2.00000
    149      -1.3532      2.00000
    150      -1.3449      2.00000
    151      -1.3352      2.00000
    152      -1.2774      2.00000
    153      -1.2668      2.00000
    154      -1.2395      2.00000
    155      -1.2318      2.00000
[...]


--------------------------------------------------------------------------------------------------------


 soft charge-density along one line, spin component           1
         0         1         2         3         4         5         6         7         8         9
 total charge-density along one line

 pseudopotential strength for first ion, spin component:           1
 17.891  -4.683  -0.000  -0.000   0.001   0.001   0.000  -0.001
 -4.683   1.235   0.000   0.000  -0.000  -0.000  -0.000   0.000
 -0.000   0.000   2.231   0.000  -0.000  -2.662  -0.000   0.000
 -0.000   0.000   0.000   2.232  -0.000  -0.000  -2.662   0.001
  0.001  -0.000  -0.000  -0.000   2.232   0.000   0.001  -2.662
  0.001  -0.000  -2.662  -0.000   0.000   3.141   0.000  -0.000
  0.000  -0.000  -0.000  -2.662   0.001   0.000   3.141  -0.001
 -0.001   0.000   0.000   0.001  -2.662  -0.000  -0.001   3.141
 -0.000   0.000   0.001  -0.000  -0.000  -0.001   0.000   0.000
  0.000  -0.000   0.000  -0.000  -0.000  -0.001   0.000   0.000
  0.000  -0.000   0.000  -0.001   0.000  -0.000   0.001  -0.000
 -0.000   0.000  -0.000   0.001   0.000   0.000  -0.001  -0.000
  0.000  -0.000   0.000  -0.000  -0.000  -0.000   0.000   0.000
 total augmentation occupancy for first ion, spin component:           1
  1.914  -0.134  -0.000   0.000   0.000  -0.000  -0.000   0.001  -0.000   0.000  -0.000  -0.001  -0.000
 -0.134   0.127  -0.001  -0.003   0.003   0.001   0.002  -0.001   0.000  -0.000   0.001   0.000   0.001
 -0.000  -0.001   2.019   0.000  -0.000   0.006   0.000  -0.000   0.002   0.001   0.000  -0.000   0.000
  0.000  -0.003   0.000   2.019  -0.001   0.000   0.005  -0.001  -0.000  -0.000  -0.003   0.002  -0.001
  0.000   0.003  -0.000  -0.001   2.019  -0.000  -0.001   0.006  -0.000  -0.000   0.000  -0.000  -0.000
 -0.000   0.001   0.006   0.000  -0.000   0.009  -0.000   0.000  -0.001  -0.002  -0.000   0.000  -0.000
 -0.000   0.002   0.000   0.005  -0.001  -0.000   0.009   0.000   0.000   0.000   0.002  -0.002   0.001
  0.001  -0.001  -0.000  -0.001   0.006   0.000   0.000   0.010   0.000   0.000  -0.001  -0.000   0.002
 -0.000   0.000   0.002  -0.000  -0.000  -0.001   0.000   0.000   0.007   0.001   0.000  -0.000  -0.000
  0.000  -0.000   0.001  -0.000  -0.000  -0.002   0.000   0.000   0.001   0.005  -0.000   0.000  -0.000
 -0.000   0.001   0.000  -0.003   0.000  -0.000   0.002  -0.001   0.000  -0.000   0.006  -0.003  -0.000
 -0.001   0.000  -0.000   0.002  -0.000   0.000  -0.002  -0.000  -0.000   0.000  -0.003   0.005   0.001
 -0.000   0.001   0.000  -0.001  -0.000  -0.000   0.001   0.002  -0.000  -0.000  -0.000   0.001   0.004


------------------------ aborting loop because EDIFF is reached ----------------------------------------





 total charge     

# of ion       s       p       d       tot
------------------------------------------
    1        1.787   4.717   0.021   6.525
    2        1.788   4.717   0.023   6.528
    3        1.786   4.717   0.018   6.521
    4        1.786   4.717   0.019   6.522
    5        1.786   4.716   0.019   6.522
    6        1.791   4.717   0.029   6.537
    7        1.785   4.717   0.018   6.520
    8        1.785   4.716   0.016   6.518
    9        1.553   0.418   9.834  11.805
   10        1.528   0.439   9.830  11.797
   11        1.554   0.420   9.834  11.808
   12        1.541   0.421   9.828  11.791
   13        1.554   0.425   9.836  11.814
   14        1.534   0.423   9.829  11.786
   15        1.554   0.420   9.834  11.808
   16        1.549   0.392   9.828  11.769
   17        1.615   3.285   0.007   4.907
   18        1.614   3.274   0.005   4.893
   19        1.614   3.288   0.007   4.909
   20        1.618   3.287   0.009   4.914
   21        1.615   3.284   0.007   4.906
   22        1.612   3.275   0.004   4.890
   23        1.615   3.284   0.007   4.905
   24        1.615   3.272   0.006   4.894
   25        1.614   3.289   0.007   4.910
   26        1.614   3.282   0.006   4.902
   27        1.614   3.278   0.006   4.898
   28        1.615   3.278   0.006   4.899
   29        1.614   3.277   0.006   4.897
   30        1.614   3.283   0.006   4.904
   31        1.616   3.268   0.007   4.892
   32        1.614   3.286   0.007   4.907
   33        1.614   3.278   0.006   4.898
   34        1.614   3.276   0.006   4.895
   35        1.614   3.284   0.006   4.905
   36        1.615   3.269   0.007   4.891
   37        1.615   3.280   0.006   4.901
   38        1.614   3.278   0.006   4.898
   39        1.611   3.290   0.003   4.905
--------------------------------------------------
tot         63.791 116.540  78.959 259.290

    CHARGE:  cpu time    0.3890: real time    0.3890
    FORLOC:  cpu time    0.0111: real time    0.0111
    FORNL :  cpu time    1.9019: real time    1.9020
    STRESS:  cpu time   49.4488: real time   49.4504
    FORCOR:  cpu time    0.2414: real time    0.2415
    FORHAR:  cpu time    0.0272: real time    0.0272
    MIXING:  cpu time    0.0021: real time    0.0021
    OFIELD:  cpu time    0.0000: real time    0.0000

  FORCE on cell =-STRESS in cart. coord.  units (eV):
  Direction    XX          YY          ZZ          XY          YZ          ZX
  --------------------------------------------------------------------------------------
  Alpha Z   872.70584   872.70584   872.70584
  Ewald   -6094.61851 -5520.88389 -6301.96314    29.71702    29.34053  -394.37733
  Hartree  2391.08333  2833.52992  2243.53200    22.83341    22.07694  -263.04729
  E(xc)   -1449.14691 -1449.13508 -1449.24013    -0.03620     0.00608    -0.37146
  Local   -2686.76345 -3701.26306 -2332.09911   -51.98464   -51.60727   658.70238
  n-local  1745.49630  1748.69396  1744.81449    -0.16815    -0.20484    -2.83275
  augment   817.93737   818.99717   817.09799    -0.01289    -0.00792    -1.02538
  Kinetic  4398.09671  4389.85203  4400.48486    -0.59929     0.48546     1.20932
  Fock        0.00000     0.00000     0.00000     0.00000     0.00000     0.00000
  -------------------------------------------------------------------------------------
  Total      -5.20932    -7.50311    -4.66720    -0.25076     0.08898    -1.74251
  in kB      -5.23247    -7.53646    -4.68794    -0.25187     0.08937    -1.75025
  external pressure =       -5.82 kB  Pullay stress =        0.00 kB


 VOLUME and BASIS-vectors are now :
 -----------------------------------------------------------------------------
  energy-cutoff  :      300.00
  volume of cell :     1595.09
      direct lattice vectors                 reciprocal lattice vectors
     8.456489000  0.000000000  8.040301000     0.059126193 -0.000000000  0.062186727
     0.000000000 11.729847000  0.000000000     0.000000000  0.085252604 -0.000000000
    -8.456489000  0.000000000  8.040301000    -0.059126193  0.000000000  0.062186727

  length of vectors
    11.668703715 11.729847000 11.668703715     0.085808482  0.085252604  0.085808482


 FORCES acting on ions
    electron-ion (+dipol)            ewald-force                    non-local-force                 convergence-correction
 -----------------------------------------------------------------------------------------------
   0.328E+02 0.481E+01 -.254E+02   -.329E+02 -.478E+01 0.254E+02   0.800E-01 -.345E-01 -.943E-01   -.929E-05 -.761E-05 0.672E-04
   -.126E+02 0.175E+02 0.188E+02   0.129E+02 -.174E+02 -.192E+02   -.385E+00 -.144E+00 0.479E+00   -.492E-04 -.318E-04 -.100E-04
   0.156E+02 -.135E+02 -.749E+02   -.156E+02 0.135E+02 0.746E+02   0.725E-01 0.418E-01 0.251E+00   -.234E-04 0.629E-04 -.712E-04
   -.431E+02 -.559E+01 0.699E+01   0.428E+02 0.552E+01 -.681E+01   0.192E+00 0.711E-01 -.168E+00   0.320E-04 -.123E-05 -.331E-04
   0.911E+01 0.871E+01 0.178E+02   -.915E+01 -.861E+01 -.179E+02   0.799E-02 -.101E+00 0.834E-01   0.546E-04 -.660E-05 -.458E-05
   0.561E+02 0.179E+02 -.159E+02   -.561E+02 -.178E+02 0.159E+02   0.623E+00 -.246E+00 -.163E+00   -.296E-04 -.451E-04 -.638E-04
   -.566E+02 -.113E+02 0.371E+02   0.566E+02 0.113E+02 -.372E+02   0.160E-01 0.419E-01 0.191E+00   -.150E-04 0.250E-04 -.208E-04
   -.156E+02 -.792E+01 -.822E+00   0.156E+02 0.787E+01 0.715E+00   0.348E-01 0.645E-01 0.966E-01   0.269E-05 0.775E-05 0.790E-04
   0.297E+02 0.198E+02 0.117E+02   -.301E+02 -.193E+02 -.109E+02   0.407E+00 -.497E+00 -.759E+00   -.103E-03 0.160E-03 -.113E-03
   -.136E+03 0.686E+02 -.104E+03   0.141E+03 -.719E+02 0.108E+03   -.493E+01 0.321E+01 -.419E+01   -.281E-03 0.211E-03 -.227E-03
   -.107E+02 0.196E+02 -.222E+02   0.107E+02 -.198E+02 0.224E+02   -.430E-01 0.215E+00 -.207E+00   0.948E-04 0.134E-03 0.131E-03
   0.873E+02 -.223E+01 0.105E+03   -.906E+02 0.339E+01 -.108E+03   0.330E+01 -.106E+01 0.241E+01   0.208E-03 0.943E-04 0.247E-03
   -.125E+02 -.205E+02 -.205E+02   0.126E+02 0.207E+02 0.206E+02   -.121E+00 -.215E+00 -.747E-01   0.727E-04 -.128E-03 0.100E-03
   0.748E+02 -.190E+02 0.119E+03   -.781E+02 0.193E+02 -.124E+03   0.324E+01 -.344E+00 0.494E+01   0.174E-03 -.162E-03 0.332E-03
   0.246E+02 -.229E+02 0.163E+02   -.245E+02 0.226E+02 -.164E+02   -.154E+00 0.249E+00 0.142E+00   -.621E-04 -.162E-03 -.101E-03
   -.809E+02 -.406E+02 -.568E+02   0.822E+02 0.391E+02 0.577E+02   -.119E+01 0.132E+01 -.603E+00   -.447E-05 -.124E-03 -.682E-05
   0.137E+01 -.397E+01 0.216E+02   -.150E+01 0.396E+01 -.218E+02   0.112E+00 0.560E-03 0.202E+00   0.695E-04 0.195E-05 0.758E-04
   0.445E+02 0.876E+00 0.773E+02   -.446E+02 -.102E+01 -.776E+02   0.408E-01 0.113E+00 0.303E+00   -.369E-04 0.611E-04 0.196E-05
   -.107E+02 0.520E+01 0.294E+02   0.109E+02 -.520E+01 -.295E+02   -.120E+00 0.337E-02 0.136E+00   -.569E-04 -.176E-04 -.680E-04
   0.178E+02 -.229E+02 0.563E+02   -.182E+02 0.235E+02 -.570E+02   0.258E-01 -.514E+00 0.377E+00   0.442E-04 -.821E-05 0.133E-04
   0.343E+02 -.423E+01 -.320E+02   -.346E+02 0.422E+01 0.323E+02   0.209E+00 0.406E-02 -.324E+00   -.660E-04 0.209E-04 -.357E-04
   -.359E+02 -.533E+02 -.518E+02   0.359E+02 0.538E+02 0.519E+02   0.585E-02 -.419E+00 -.163E+00   0.126E-04 0.359E-04 0.154E-04
   -.103E+02 0.445E+01 -.483E+02   0.104E+02 -.444E+01 0.487E+02   -.121E+00 -.881E-02 -.381E+00   0.342E-04 -.745E-05 0.728E-04
   0.209E+02 0.167E+02 0.566E+01   -.213E+02 -.169E+02 -.566E+01   0.500E+00 0.964E-01 0.207E+00   -.610E-05 -.208E-04 -.221E-04
   -.191E+02 -.959E+00 0.212E+02   0.192E+02 0.855E+00 -.214E+02   -.112E+00 0.112E+00 0.208E+00   0.424E-05 -.840E-04 0.241E-04
   0.136E+02 -.233E+02 -.153E+02   -.137E+02 0.235E+02 0.151E+02   0.772E-01 -.130E+00 0.211E+00   0.556E-06 -.667E-04 0.479E-04
   0.169E+02 -.307E+02 0.640E+02   -.171E+02 0.308E+02 -.643E+02   0.223E+00 -.135E+00 0.236E+00   -.485E-04 -.646E-04 -.381E-04
   -.574E+02 0.107E+02 -.208E+02   0.576E+02 -.106E+02 0.211E+02   -.247E+00 -.682E-01 -.230E+00   0.725E-04 0.663E-04 0.437E-04
   0.133E+02 -.105E+02 -.851E+01   -.129E+02 0.107E+02 0.852E+01   -.293E+00 -.271E+00 0.114E-01   -.356E-04 0.733E-04 -.383E-05
   0.344E+02 0.204E+02 -.356E+02   -.346E+02 -.205E+02 0.358E+02   0.212E+00 0.575E-01 -.177E+00   -.178E-04 0.862E-04 -.372E-05
   0.184E+02 0.571E+02 -.319E+02   -.187E+02 -.578E+02 0.324E+02   0.219E+00 0.733E+00 -.559E+00   0.665E-04 0.101E-03 -.403E-04
   -.216E+02 0.809E+00 0.244E+02   0.217E+02 -.687E+00 -.247E+02   -.140E+00 -.136E+00 0.277E+00   -.787E-05 0.833E-04 0.169E-04
   0.735E+01 0.308E+02 -.196E+02   -.748E+01 -.311E+02 0.194E+02   0.141E+00 0.247E+00 0.160E+00   0.513E-05 0.676E-04 0.637E-04
   0.123E+02 0.224E+02 0.814E+02   -.124E+02 -.226E+02 -.818E+02   0.147E+00 0.132E+00 0.338E+00   -.545E-04 0.720E-04 -.773E-04
   0.320E+02 -.228E+02 -.339E+02   -.323E+02 0.229E+02 0.341E+02   0.207E+00 -.586E-01 -.199E+00   -.738E-05 -.791E-04 -.406E-04
   -.618E+00 -.402E+02 -.415E+02   0.614E+00 0.406E+02 0.423E+02   0.121E+00 -.407E+00 -.663E+00   0.600E-04 -.736E-04 -.138E-04
   -.476E+02 -.292E+01 -.160E+02   0.479E+02 0.274E+01 0.163E+02   -.185E+00 0.175E+00 -.271E+00   0.529E-04 -.655E-04 0.250E-04
   0.129E+02 0.107E+02 -.234E+02   -.127E+02 -.109E+02 0.236E+02   -.234E+00 0.257E+00 -.173E+00   0.347E-05 -.979E-04 0.109E-04
   -.399E+02 0.193E+02 -.165E+02   0.400E+02 -.194E+02 0.167E+02   -.770E+00 0.487E+00 -.137E+00   -.243E-04 -.814E-04 -.253E-04
 -----------------------------------------------------------------------------------------------
   -.105E+01 -.285E+01 -.175E+01   0.284E-13 0.320E-13 0.284E-13   0.117E+01 0.284E+01 0.172E+01   0.126E-03 0.285E-04 0.349E-03


 POSITION                                       TOTAL-FORCE (eV/Angst)
 -----------------------------------------------------------------------------------
      0.72173      2.92894      3.68818         0.005625      0.000623     -0.064520
      0.14982      2.97861     12.25882        -0.060309     -0.013040      0.090816
      3.85475      8.78825      7.69398         0.021688     -0.002488     -0.047830
     -4.84399      8.75891      8.00894        -0.025780      0.001234      0.030392
     -3.99182      2.99771      8.19469        -0.035828      0.002631     -0.018494
      4.95146      2.93068      8.19821         0.519649     -0.070992     -0.219806
     -0.49425      8.79328     12.11185        -0.024733     -0.000076      0.007299
     -0.38978      8.71799      4.25083         0.018054      0.010181     -0.008585
     -8.41178     11.68232      8.07573         0.006844      0.044602      0.021305
     -0.03449      0.34872      7.93493         0.217074     -0.140240      0.165793
     -4.16034      0.02005     12.05410         0.014266      0.027764     -0.000089
     -4.04214     11.67349      4.24210         0.023502      0.110629      0.025173
     -4.16258      5.85969     12.06220         0.016596     -0.028650      0.021939
     -4.21405      5.82969      4.04357        -0.008394     -0.138831     -0.027645
      0.02863      5.89970      0.03869        -0.016758     -0.052038     -0.000349
     -0.04461      5.72047      7.94902         0.198649     -0.136080      0.227625
     -4.15450      8.80768     11.68628        -0.006352     -0.005034     -0.002131
      4.32059      8.83313     11.42276        -0.004839     -0.012548     -0.014283
      0.17456      2.92769     15.82941         0.058558     -0.005451      0.058280
     -0.63109      2.88391      6.98818        -0.362726      0.059509     -0.324916
     -0.06583      8.79390      0.60766         0.003312     -0.000839      0.009375
      0.32662      8.61958      8.53801        -0.030929     -0.011030     -0.061221
      4.32985      2.93507      4.52750        -0.004164      0.002932     -0.030403
     -4.52914      2.91084      4.51640         0.140597     -0.033775      0.208517
     -5.93231      5.61287      9.68887         0.020323      0.010858      0.005715
      1.80978      6.11984      5.66070        -0.064901      0.017223      0.043279
      1.70594      6.28495     13.63633         0.030842      0.017991     -0.008122
     -1.65987      0.39703     10.41176        -0.034821     -0.000410      0.009900
     -1.71771      0.42685      2.51048        -0.019149     -0.028159      0.029286
      6.00959     11.46150      6.46099         0.001173     -0.034239     -0.007047
     -2.39143     11.07854      6.55164        -0.072953      0.010515     -0.073316
     -5.87386      0.27869      9.64047         0.016659     -0.016538      0.009828
      1.78907     11.43302      5.68552         0.028084     -0.019447     -0.033401
      1.73503     11.26607     13.68993         0.037672     -0.009800     -0.028328
      6.00441      6.13146      6.46146        -0.008466      0.030703     -0.014403
     -2.65206      6.31802      6.37585         0.096300     -0.033528      0.029691
     -1.72516      5.48338     10.38299         0.025545      0.006474     -0.048893
     -1.70067      5.41398      2.47230        -0.017665      0.028843      0.031162
      2.02650      3.34007      9.38765        -0.702246      0.410521      0.008406
 -----------------------------------------------------------------------------------
    total drift:                                0.120648     -0.004888     -0.030048


--------------------------------------------------------------------------------------------------------



  FREE ENERGIE OF THE ION-ELECTRON SYSTEM (eV)
  ---------------------------------------------------
  free  energy   TOTEN  =     -1408.91896707 eV

  energy  without entropy=    -1408.91896707  energy(sigma->0) =    -1408.91896707



--------------------------------------------------------------------------------------------------------


    POTLOK:  cpu time    1.4357: real time    1.4357


--------------------------------------------------------------------------------------------------------


 stress matrix after NEB project (eV)
     -5.20932     -0.25073     -1.74251
     -0.25076     -7.50311      0.08891
     -1.74264      0.08898     -4.66720
  FORCES: max atom, RMS     0.813479    0.203749
  FORCE total and by dimension    1.272409    0.702246
  Stress total and by dimension   10.556100    7.503115
     LOOP+:  cpu time  479.8505: real time  480.4561
    4ORBIT:  cpu time    0.0000: real time    0.0000



 total charge     

# of ion       s       p       d       tot
------------------------------------------
    1        1.787   4.717   0.021   6.525
    2        1.788   4.717   0.023   6.528
    3        1.786   4.717   0.018   6.521
    4        1.786   4.717   0.019   6.522
    5        1.786   4.716   0.019   6.522
    6        1.791   4.717   0.029   6.537
    7        1.785   4.717   0.018   6.520
    8        1.785   4.716   0.016   6.518
    9        1.553   0.418   9.834  11.805
   10        1.528   0.439   9.830  11.797
   11        1.554   0.420   9.834  11.808
   12        1.541   0.421   9.828  11.791
   13        1.554   0.425   9.836  11.814
   14        1.534   0.423   9.829  11.786
   15        1.554   0.420   9.834  11.808
   16        1.549   0.392   9.828  11.769
   17        1.615   3.285   0.007   4.907
   18        1.614   3.274   0.005   4.893
   19        1.614   3.288   0.007   4.909
   20        1.618   3.287   0.009   4.914
   21        1.615   3.284   0.007   4.906
   22        1.612   3.275   0.004   4.890
   23        1.615   3.284   0.007   4.905
   24        1.615   3.272   0.006   4.894
   25        1.614   3.289   0.007   4.910
   26        1.614   3.282   0.006   4.902
   27        1.614   3.278   0.006   4.898
   28        1.615   3.278   0.006   4.899
   29        1.614   3.277   0.006   4.897
   30        1.614   3.283   0.006   4.904
   31        1.616   3.268   0.007   4.892
   32        1.614   3.286   0.007   4.907
   33        1.614   3.278   0.006   4.898
   34        1.614   3.276   0.006   4.895
   35        1.614   3.284   0.006   4.905
   36        1.615   3.269   0.007   4.891
   37        1.615   3.280   0.006   4.901
   38        1.614   3.278   0.006   4.898
   39        1.611   3.290   0.003   4.905
--------------------------------------------------
tot         63.791 116.540  78.959 259.290


 total amount of memory used by VASP MPI-rank0    60655. kBytes
=======================================================================

   base      :      30000. kBytes
   nonlr-proj:       6490. kBytes
   fftplans  :       8423. kBytes
   grid      :       7465. kBytes
   one-center:         77. kBytes
   wavefun   :       8200. kBytes

  
  
 General timing and accounting informations for this job:
 ========================================================
  
                  Total CPU time used (sec):      492.170
                            User time (sec):      490.722
                          System time (sec):        1.448
                         Elapsed time (sec):      493.130
  
                   Maximum memory used (kb):       78400.
                   Average memory used (kb):           0.
  
                          Minor page faults:        21105
                          Major page faults:            0
                 Voluntary context switches:         1777
