<?xml version="1.0" encoding="ISO-8859-1"?>
<modeling>
 <generator>
  <i name="program" type="string">vasp </i>
  <i name="version" type="string">5.4.4.18Apr17-6-g9f103f2a35  </i>
  <i name="subversion" type="string">(build Jun 22 2020 09:27:21) complex            parallel </i>
  <i name="platform" type="string">tx2_gcc-7.3_libsci-18.07_cray-fftw-3.3.8 </i>
  <i name="date" type="string">2021 10 12 </i>
  <i name="time" type="string">05:43:27 </i>
 </generator>
 <incar>
  <i type="string" name="SYSTEM"> CsPbBr3 cubic bulk</i>
  <i type="string" name="PREC">accurate</i>
  <i type="string" name="ALGO"> NORMAL   ! Electronic minimisation algo</i>
  <i type="logical" name="ADDGRID"> T  </i>
  <i type="int" name="ISPIN">     1</i>
  <i type="int" name="NELM">   200</i>
  <i type="int" name="IBRION">     2</i>
  <i name="EDIFF">      0.00000100</i>
  <i name="EDIFFG">     -0.01000000</i>
  <i type="int" name="NSW">     0</i>
  <i type="int" name="ISIF">     2</i>
  <i type="int" name="ISYM">     0</i>
  <i name="ENCUT">    300.00000000</i>
  <i name="POTIM">      0.50000000</i>
  <i name="NUPDOWN">      0.00000000</i>
  <i name="NELECT">    344.00000000</i>
  <i type="string" name="LREAL"> AUTO</i>
  <i type="int" name="ISMEAR">     0</i>
  <i name="SIGMA">      0.01000000</i>
  <i type="logical" name="LWAVE"> F  </i>
  <i type="logical" name="LCHARG"> F  </i>
  <i type="logical" name="LVHAR"> T  </i>
  <i type="int" name="LORBIT">    10</i>
  <i type="logical" name="LASPH"> T  </i>
  <v type="int" name="KPOINT_BSE">    -1     0     0     0</v>
  <i type="int" name="NELM">   200</i>
  <i type="string" name="METAGGA"> SCAN       ! PBE exchange-correlation</i>
  <i type="logical" name="LASPH"> T  </i>
 </incar>
 <structure name="primitive_cell" >
  <crystal>
   <varray name="basis" >
    <v>       8.45648900       0.00000000       8.04030100 </v>
    <v>       0.00000000      11.72984700       0.00000000 </v>
    <v>      -8.45648900       0.00000000       8.04030100 </v>
   </varray>
   <i name="volume">   1595.08833419 </i>
   <varray name="rec_basis" >
    <v>       0.05912619      -0.00000000       0.06218673 </v>
    <v>       0.00000000       0.08525260      -0.00000000 </v>
    <v>      -0.05912619       0.00000000       0.06218673 </v>
   </varray>
  </crystal>
  <varray name="positions" >
   <v>       0.27202900       0.24970000       0.18668300 </v>
   <v>       0.39725800       0.24586100       0.47188600 </v>
   <v>       0.05319000       0.46155600       0.25429800 </v>
   <v>       0.05455700       0.03639000       0.25768000 </v>
   <v>      -0.46244200       0.25022200       0.02554300 </v>
   <v>       0.25176400       0.47851200      -0.04672600 </v>
   <v>       0.25221000       0.02375900      -0.05319200 </v>
   <v>       0.45902600      -0.47826800       0.24501500 </v>
   <v>       0.45934500      -0.02530500       0.24778300 </v>
   <v>      -0.00530000       0.24959300      -0.02594200 </v>
   <v>      -0.49638000       0.00170900      -0.00441000 </v>
   <v>      -0.49600900       0.49955400      -0.00377400 </v>
   <v>       0.00409900      -0.49703500       0.00071300 </v>
   <v>       0.00484700      -0.00405200      -0.00044000 </v>
   <v>       0.49140800       0.02972900       0.49548700 </v>
   <v>       0.27358000       0.25556300      -0.25437800 </v>
   <v>       0.49168600       0.48768500       0.49696100 </v>
   <v>       0.01306900       0.24815700      -0.45134900 </v>
   <v>       0.23968700      -0.46137200      -0.44670100 </v>
   <v>      -0.19741900       0.24984800       0.21705900 </v>
   <v>       0.26602900      -0.05552600      -0.45117900 </v>
   <v>       0.02480600      -0.00480500      -0.49720100 </v>
   <v>       0.00229600       0.49699600      -0.49938300 </v>
   <v>      -0.29639400       0.28475000       0.46396800 </v>
   <v>       0.24129900      -0.25676900       0.28739100 </v>
   <v>      -0.45631800       0.46747200      -0.25231400 </v>
   <v>       0.03389600      -0.25029700       0.04168100 </v>
   <v>      -0.45066800       0.03384800      -0.25438500 </v>
   <v>      -0.24316500      -0.47727700       0.04679900 </v>
   <v>      -0.24288800      -0.02287700       0.04646400 </v>
   <v>       0.48109200      -0.24912200      -0.02762900 </v>
   <v>      -0.04608200      -0.03953800      -0.25125400 </v>
   <v>      -0.05113600      -0.46419200      -0.25286700 </v>
   <v>      -0.44973700      -0.26515800      -0.48836100 </v>
   <v>       0.21164300      -0.25328000      -0.21554400 </v>
   <v>      -0.22880600       0.25393400      -0.24652200 </v>
   <v>      -0.03419600      -0.24695300       0.45488400 </v>
   <v>      -0.29362000      -0.25077900       0.25054700 </v>
   <v>      -0.27602700      -0.25035000      -0.21758100 </v>
  </varray>
 </structure>
 <varray name="primitive_index" >
  <v type="int" >        1 </v>
  <v type="int" >       20 </v>
  <v type="int" >       38 </v>
  <v type="int" >       29 </v>
  <v type="int" >       23 </v>
  <v type="int" >       25 </v>
  <v type="int" >       32 </v>
  <v type="int" >       26 </v>
  <v type="int" >       33 </v>
  <v type="int" >       19 </v>
  <v type="int" >       11 </v>
  <v type="int" >       13 </v>
  <v type="int" >       15 </v>
  <v type="int" >        9 </v>
  <v type="int" >       10 </v>
  <v type="int" >        5 </v>
  <v type="int" >       16 </v>
  <v type="int" >       24 </v>
  <v type="int" >       36 </v>
  <v type="int" >        6 </v>
  <v type="int" >       31 </v>
  <v type="int" >       12 </v>
  <v type="int" >       14 </v>
  <v type="int" >       39 </v>
  <v type="int" >        8 </v>
  <v type="int" >       37 </v>
  <v type="int" >       21 </v>
  <v type="int" >       28 </v>
  <v type="int" >       35 </v>
  <v type="int" >       30 </v>
  <v type="int" >       17 </v>
  <v type="int" >       34 </v>
  <v type="int" >       27 </v>
  <v type="int" >       22 </v>
  <v type="int" >        4 </v>
  <v type="int" >        2 </v>
  <v type="int" >       18 </v>
  <v type="int" >        3 </v>
  <v type="int" >        7 </v>
 </varray>
 <kpoints>
  <generation param="Gamma">
   <v type="int" name="divisions">       2        2        2 </v>
   <v name="usershift">      0.00000000       0.00000000       0.00000000 </v>
   <v name="genvec1">      0.50000000       0.00000000       0.00000000 </v>
   <v name="genvec2">      0.00000000       0.50000000       0.00000000 </v>
   <v name="genvec3">      0.00000000       0.00000000       0.50000000 </v>
   <v name="shift">      0.00000000       0.00000000       0.00000000 </v>
  </generation>
  <varray name="kpointlist" >
   <v>       0.00000000       0.00000000       0.00000000 </v>
   <v>       0.50000000       0.00000000       0.00000000 </v>
   <v>       0.00000000       0.50000000       0.00000000 </v>
   <v>       0.50000000       0.50000000       0.00000000 </v>
   <v>       0.00000000       0.00000000       0.50000000 </v>
   <v>       0.50000000       0.00000000       0.50000000 </v>
   <v>       0.00000000       0.50000000       0.50000000 </v>
   <v>       0.50000000       0.50000000       0.50000000 </v>
  </varray>
  <varray name="weights" >
   <v>       0.12500000 </v>
   <v>       0.12500000 </v>
   <v>       0.12500000 </v>
   <v>       0.12500000 </v>
   <v>       0.12500000 </v>
   <v>       0.12500000 </v>
   <v>       0.12500000 </v>
   <v>       0.12500000 </v>
  </varray>
 </kpoints>
 <parameters>
  <separator name="general" >
   <i type="string" name="SYSTEM">CsPbBr3 cubic bulk</i>
   <i type="logical" name="LCOMPAT"> F  </i>
  </separator>
  <separator name="electronic" >
   <i type="string" name="PREC">accura</i>
   <i name="ENMAX">    300.00000000</i>
   <i name="ENAUG">    503.85200000</i>
   <i name="EDIFF">      0.00000100</i>
   <i type="int" name="IALGO">    38</i>
   <i type="int" name="IWAVPR">    10</i>
   <i type="int" name="NBANDS">   208</i>
   <i name="NELECT">    344.00000000</i>
   <i type="int" name="TURBO">     0</i>
   <i type="int" name="IRESTART">     0</i>
   <i type="int" name="NREBOOT">     0</i>
   <i type="int" name="NMIN">     0</i>
   <i name="EREF">      0.00000000</i>
   <separator name="electronic smearing" >
    <i type="int" name="ISMEAR">     0</i>
    <i name="SIGMA">      0.01000000</i>
    <i name="KSPACING">      0.50000000</i>
    <i type="logical" name="KGAMMA"> T  </i>
   </separator>
   <separator name="electronic projectors" >
    <i type="logical" name="LREAL"> T  </i>
    <v name="ROPT">     -0.00025000     -0.00025000     -0.00025000</v>
    <i type="int" name="LMAXPAW">  -100</i>
    <i type="int" name="LMAXMIX">     2</i>
    <i type="logical" name="NLSPLINE"> F  </i>
   </separator>
   <separator name="electronic startup" >
    <i type="int" name="ISTART">     0</i>
    <i type="int" name="ICHARG">     2</i>
    <i type="int" name="INIWAV">     1</i>
   </separator>
   <separator name="electronic spin" >
    <i type="int" name="ISPIN">     1</i>
    <i type="logical" name="LNONCOLLINEAR"> F  </i>
    <v name="MAGMOM">      0.00000000      0.00000000      0.00000000      0.00000000      0.00000000      0.00000000      0.00000000      0.00000000      0.00000000      0.00000000      0.00000000      0.00000000      0.00000000      0.00000000      0.00000000      0.00000000      0.00000000      0.00000000      0.00000000      0.00000000
      0.00000000      0.00000000      0.00000000      0.00000000      0.00000000      0.00000000      0.00000000      0.00000000      0.00000000      0.00000000      0.00000000      0.00000000      0.00000000      0.00000000      0.00000000      0.00000000      0.00000000      0.00000000      0.00000000</v>
    <i name="NUPDOWN">      0.00000000</i>
    <i type="logical" name="LSORBIT"> F  </i>
    <v name="SAXIS">      0.00000000      0.00000000      1.00000000</v>
    <i type="logical" name="LSPIRAL"> F  </i>
    <v name="QSPIRAL">      0.00000000      0.00000000      0.00000000</v>
    <i type="logical" name="LZEROZ"> F  </i>
   </separator>
   <separator name="electronic exchange-correlation" >
    <i type="logical" name="LASPH"> T  </i>
    <i type="logical" name="LMETAGGA"> F  </i>
   </separator>
   <separator name="electronic convergence" >
    <i type="int" name="NELM">   200</i>
    <i type="int" name="NELMDL">    -5</i>
    <i type="int" name="NELMIN">     2</i>
    <i name="ENINI">    300.00000000</i>
    <separator name="electronic convergence detail" >
     <i type="logical" name="LDIAG"> T  </i>
     <i type="logical" name="LSUBROT"> F  </i>
     <i name="WEIMIN">      0.00000000</i>
     <i name="EBREAK">      0.00000000</i>
     <i name="DEPER">      0.30000000</i>
     <i type="int" name="NRMM">     4</i>
     <i name="TIME">      0.40000000</i>
    </separator>
   </separator>
   <separator name="electronic mixer" >
    <i name="AMIX">      0.40000000</i>
    <i name="BMIX">      1.00000000</i>
    <i name="AMIN">      0.10000000</i>
    <i name="AMIX_MAG">      1.60000000</i>
    <i name="BMIX_MAG">      1.00000000</i>
    <separator name="electronic mixer details" >
     <i type="int" name="IMIX">     4</i>
     <i type="logical" name="MIXFIRST"> F  </i>
     <i type="int" name="MAXMIX">   -45</i>
     <i name="WC">    100.00000000</i>
     <i type="int" name="INIMIX">     1</i>
     <i type="int" name="MIXPRE">     1</i>
     <i type="int" name="MREMOVE">     5</i>
    </separator>
   </separator>
   <separator name="electronic dipolcorrection" >
    <i type="logical" name="LDIPOL"> F  </i>
    <i type="logical" name="LMONO"> F  </i>
    <i type="int" name="IDIPOL">     0</i>
    <i name="EPSILON">      1.00000000</i>
    <v name="DIPOL">   -100.00000000   -100.00000000   -100.00000000</v>
    <i name="EFIELD">      0.00000000</i>
   </separator>
  </separator>
  <separator name="grids" >
   <i type="int" name="NGX">    70</i>
   <i type="int" name="NGY">    70</i>
   <i type="int" name="NGZ">    70</i>
   <i type="int" name="NGXF">   140</i>
   <i type="int" name="NGYF">   140</i>
   <i type="int" name="NGZF">   140</i>
   <i type="logical" name="ADDGRID"> T  </i>
  </separator>
  <separator name="ionic" >
   <i type="int" name="NSW">     0</i>
   <i type="int" name="IBRION">    -1</i>
   <i type="int" name="MDALGO">     0</i>
   <i type="int" name="ISIF">     2</i>
   <i name="PSTRESS">      0.00000000</i>
   <i name="EDIFFG">     -0.01000000</i>
   <i type="int" name="NFREE">     1</i>
   <i name="POTIM">      0.50000000</i>
   <i name="SMASS">     -3.00000000</i>
   <i name="SCALEE">      1.00000000</i>
  </separator>
  <separator name="ionic md" >
   <i name="TEBEG">      0.00010000</i>
   <i name="TEEND">      0.00010000</i>
   <i type="int" name="NBLOCK">     1</i>
   <i type="int" name="KBLOCK">     1</i>
   <i type="int" name="NPACO">   256</i>
   <i name="APACO">     16.00000000</i>
  </separator>
  <separator name="symmetry" >
   <i type="int" name="ISYM">     0</i>
   <i name="SYMPREC">      0.00001000</i>
  </separator>
  <separator name="dos" >
   <i type="int" name="LORBIT">    10</i>
   <v name="RWIGS">     -1.00000000     -1.00000000     -1.00000000</v>
   <i type="int" name="NEDOS">   301</i>
   <i name="EMIN">     10.00000000</i>
   <i name="EMAX">    -10.00000000</i>
   <i name="EFERMI">      0.00000000</i>
  </separator>
  <separator name="writing" >
   <i type="int" name="NWRITE">     2</i>
   <i type="logical" name="LWAVE"> F  </i>
   <i type="logical" name="LDOWNSAMPLE"> F  </i>
   <i type="logical" name="LCHARG"> F  </i>
   <i type="logical" name="LPARD"> F  </i>
   <i type="logical" name="LVTOT"> F  </i>
   <i type="logical" name="LVHAR"> T  </i>
   <i type="logical" name="LELF"> F  </i>
   <i type="logical" name="LOPTICS"> F  </i>
   <v name="STM">      0.00000000      0.00000000      0.00000000      0.00000000      0.00000000      0.00000000      0.00000000</v>
  </separator>
  <separator name="performance" >
   <i type="int" name="NPAR">     8</i>
   <i type="int" name="NSIM">     4</i>
   <i type="int" name="NBLK">    -1</i>
   <i type="logical" name="LPLANE"> T  </i>
   <i type="logical" name="LSCALAPACK"> T  </i>
   <i type="logical" name="LSCAAWARE"> F  </i>
   <i type="logical" name="LSCALU"> F  </i>
   <i type="logical" name="LASYNC"> F  </i>
   <i type="logical" name="LORBITALREAL"> F  </i>
  </separator>
  <separator name="miscellaneous" >
   <i type="int" name="IDIOT">     3</i>
   <i type="int" name="ISPECIAL">     0</i>
   <i type="logical" name="LMUSIC"> F  </i>
   <v name="POMASS">    132.90000000    207.20000000     79.90400000</v>
   <v name="DARWINR">      0.00000000      0.00000000      0.00000000</v>
   <v name="DARWINV">      1.00000000      1.00000000      1.00000000</v>
   <i type="logical" name="LCORR"> T  </i>
  </separator>
  <i type="logical" name="GGA_COMPAT"> T  </i>
  <i type="logical" name="LBERRY"> F  </i>
  <i type="int" name="ICORELEVEL">     0</i>
  <i type="logical" name="LDAU"> F  </i>
  <i type="int" name="I_CONSTRAINED_M">     0</i>
  <separator name="electronic exchange-correlation" >
   <i type="string" name="GGA">--</i>
   <i type="int" name="VOSKOWN">     0</i>
   <i type="logical" name="LHFCALC"> F  </i>
   <i type="string" name="PRECFOCK"></i>
   <i type="logical" name="LSYMGRAD"> F  </i>
   <i type="logical" name="LHFONE"> F  </i>
   <i type="logical" name="LRHFCALC"> F  </i>
   <i type="logical" name="LTHOMAS"> F  </i>
   <i type="logical" name="LMODELHF"> F  </i>
   <i name="ENCUT4O">     -1.00000000</i>
   <i type="int" name="EXXOEP">     0</i>
   <i type="int" name="FOURORBIT">     0</i>
   <i name="AEXX">      0.00000000</i>
   <i name="HFALPHA">      0.00000000</i>
   <i name="MCALPHA">      0.00000000</i>
   <i name="ALDAX">      1.00000000</i>
   <i name="AGGAX">      1.00000000</i>
   <i name="ALDAC">      1.00000000</i>
   <i name="AGGAC">      1.00000000</i>
   <i type="int" name="NKREDX">     1</i>
   <i type="int" name="NKREDY">     1</i>
   <i type="int" name="NKREDZ">     1</i>
   <i type="logical" name="SHIFTRED"> F  </i>
   <i type="logical" name="ODDONLY"> F  </i>
   <i type="logical" name="EVENONLY"> F  </i>
   <i type="int" name="LMAXFOCK">     0</i>
   <i type="int" name="NMAXFOCKAE">     0</i>
   <i type="logical" name="LFOCKAEDFT"> F  </i>
   <i name="HFSCREEN">      0.00000000</i>
   <i name="HFSCREENC">      0.00000000</i>
   <i type="int" name="NBANDSGWLOW">     0</i>
  </separator>
  <separator name="vdW DFT" >
   <i type="logical" name="LUSE_VDW"> F  </i>
   <i name="Zab_VDW">     -0.84910000</i>
   <i name="PARAM1">      0.12340000</i>
   <i name="PARAM2">      1.00000000</i>
   <i name="PARAM3">      0.00000000</i>
  </separator>
  <separator name="model GW" >
   <i type="int" name="MODEL_GW">     0</i>
   <i name="MODEL_EPS0">     24.53982053</i>
   <i name="MODEL_ALPHA">      1.00000000</i>
  </separator>
  <separator name="linear response parameters" >
   <i type="logical" name="LEPSILON"> F  </i>
   <i type="logical" name="LRPA"> F  </i>
   <i type="logical" name="LNABLA"> F  </i>
   <i type="logical" name="LVEL"> F  </i>
   <i type="int" name="KINTER">     0</i>
   <i name="CSHIFT">      0.10000000</i>
   <i name="OMEGAMAX">     -1.00000000</i>
   <i name="DEG_THRESHOLD">      0.00200000</i>
   <i name="RTIME">     -0.10000000</i>
   <i name="WPLASMAI">      0.00000000</i>
   <v name="DFIELD">      0.00000000      0.00000000      0.00000000</v>
   <v name="WPLASMA">      0.00000000      0.00000000      0.00000000      0.00000000      0.00000000      0.00000000      0.00000000      0.00000000      0.00000000</v>
  </separator>
  <separator name="orbital magnetization" >
   <i type="logical" name="NUCIND"> F  </i>
   <v name="MAGPOS">      0.00000000      0.00000000      0.00000000</v>
   <i type="logical" name="LNICSALL"> T  </i>
   <i type="logical" name="ORBITALMAG"> F  </i>
   <i type="logical" name="LMAGBLOCH"> F  </i>
   <i type="logical" name="LCHIMAG"> F  </i>
   <i type="logical" name="LGAUGE"> T  </i>
   <i type="int" name="MAGATOM">     0</i>
   <v name="MAGDIPOL">      0.00000000      0.00000000      0.00000000</v>
   <v name="AVECCONST">      0.00000000      0.00000000      0.00000000</v>
  </separator>
  <separator name="response functions" >
   <i type="logical" name="LADDER"> F  </i>
   <i type="logical" name="LRPAFORCE"> F  </i>
   <i type="logical" name="LFXC"> F  </i>
   <i type="logical" name="LHARTREE"> T  </i>
   <i type="int" name="IBSE">     0</i>
   <v type="int" name="KPOINT">    -1     0     0     0</v>
   <i type="logical" name="LTCTE"> F  </i>
   <i type="logical" name="LTETE"> F  </i>
   <i type="logical" name="LTRIPLET"> F  </i>
   <i type="logical" name="LFXCEPS"> F  </i>
   <i type="logical" name="LFXHEG"> F  </i>
   <i type="int" name="NATURALO">     2</i>
   <i type="logical" name="L2ORDER"> F  </i>
   <i type="logical" name="LMP2LT"> F  </i>
   <i type="logical" name="LUSEW"> F  </i>
   <i name="ENCUTGW">     -2.00000000</i>
   <i name="ENCUTGWSOFT">     -2.00000000</i>
   <i name="ENCUTLF">     -1.00000000</i>
   <i type="int" name="LMAXMP2">    -1</i>
   <i name="SCISSOR">      0.00000000</i>
   <i type="int" name="NOMEGA">     0</i>
   <i type="int" name="NOMEGAR">     0</i>
   <i type="int" name="NBANDSGW">    -1</i>
   <i type="int" name="NBANDSO">    -1</i>
   <i type="int" name="NBANDSV">    -1</i>
   <i type="int" name="NELM">   200</i>
   <i type="int" name="NELMHF">     1</i>
   <i type="int" name="DIM">     3</i>
   <i type="int" name="ANTIRES">     0</i>
   <i name="OMEGAMAX">    -30.00000000</i>
   <i name="OMEGAMIN">    -30.00000000</i>
   <i name="OMEGATL">   -200.00000000</i>
   <i type="int" name="OMEGAGRID">   140</i>
   <i name="CSHIFT">     -0.10000000</i>
   <i type="logical" name="SELFENERGY"> F  </i>
   <i type="logical" name="LSPECTRAL"> F  </i>
   <i type="logical" name="LSPECTRALGW"> F  </i>
   <i type="logical" name="LSINGLES"> F  </i>
   <i type="logical" name="LFERMIGW"> F  </i>
   <i type="logical" name="ODDONLYGW"> F  </i>
   <i type="logical" name="EVENONLYGW"> F  </i>
   <i type="int" name="NKREDLFX">     1</i>
   <i type="int" name="NKREDLFY">     1</i>
   <i type="int" name="NKREDLFZ">     1</i>
   <i type="int" name="MAXMEM">  2800</i>
   <i type="int" name="TELESCOPE">     0</i>
   <i type="int" name="TAUPAR">     1</i>
   <i type="int" name="OMEGAPAR">    -1</i>
   <i name="LAMBDA">      1.00000000</i>
  </separator>
  <separator name="External order field" >
   <i name="OFIELD_KAPPA">      0.00000000</i>
   <v name="OFIELD_K">      0.00000000      0.00000000      0.00000000</v>
   <i name="OFIELD_Q6_NEAR">      0.00000000</i>
   <i name="OFIELD_Q6_FAR">      0.00000000</i>
   <i name="OFIELD_A">      0.00000000</i>
  </separator>
 </parameters>
 <atominfo>
  <atoms>      39 </atoms>
  <types>       3 </types>
  <array name="atoms" >
   <dimension dim="1">ion</dimension>
   <field type="string">element</field>
   <field type="int">atomtype</field>
   <set>
    <rc><c>Cs</c><c>   1</c></rc>
    <rc><c>Cs</c><c>   1</c></rc>
    <rc><c>Cs</c><c>   1</c></rc>
    <rc><c>Cs</c><c>   1</c></rc>
    <rc><c>Cs</c><c>   1</c></rc>
    <rc><c>Cs</c><c>   1</c></rc>
    <rc><c>Cs</c><c>   1</c></rc>
    <rc><c>Cs</c><c>   1</c></rc>
    <rc><c>Pb</c><c>   2</c></rc>
    <rc><c>Pb</c><c>   2</c></rc>
    <rc><c>Pb</c><c>   2</c></rc>
    <rc><c>Pb</c><c>   2</c></rc>
    <rc><c>Pb</c><c>   2</c></rc>
    <rc><c>Pb</c><c>   2</c></rc>
    <rc><c>Pb</c><c>   2</c></rc>
    <rc><c>Pb</c><c>   2</c></rc>
    <rc><c>Br</c><c>   3</c></rc>
    <rc><c>Br</c><c>   3</c></rc>
    <rc><c>Br</c><c>   3</c></rc>
    <rc><c>Br</c><c>   3</c></rc>
    <rc><c>Br</c><c>   3</c></rc>
    <rc><c>Br</c><c>   3</c></rc>
    <rc><c>Br</c><c>   3</c></rc>
    <rc><c>Br</c><c>   3</c></rc>
    <rc><c>Br</c><c>   3</c></rc>
    <rc><c>Br</c><c>   3</c></rc>
    <rc><c>Br</c><c>   3</c></rc>
    <rc><c>Br</c><c>   3</c></rc>
    <rc><c>Br</c><c>   3</c></rc>
    <rc><c>Br</c><c>   3</c></rc>
    <rc><c>Br</c><c>   3</c></rc>
    <rc><c>Br</c><c>   3</c></rc>
    <rc><c>Br</c><c>   3</c></rc>
    <rc><c>Br</c><c>   3</c></rc>
    <rc><c>Br</c><c>   3</c></rc>
    <rc><c>Br</c><c>   3</c></rc>
    <rc><c>Br</c><c>   3</c></rc>
    <rc><c>Br</c><c>   3</c></rc>
    <rc><c>Br</c><c>   3</c></rc>
   </set>
  </array>
  <array name="atomtypes" >
   <dimension dim="1">type</dimension>
   <field type="int">atomspertype</field>
   <field type="string">element</field>
   <field>mass</field>
   <field>valence</field>
   <field type="string">pseudopotential</field>
   <set>
    <rc><c>   8</c><c>Cs</c><c>    132.90000000</c><c>      9.00000000</c><c>  PAW_PBE Cs_sv 08Apr2002               </c></rc>
    <rc><c>   8</c><c>Pb</c><c>    207.20000000</c><c>     14.00000000</c><c>  PAW_PBE Pb_d 06Sep2000                </c></rc>
    <rc><c>  23</c><c>Br</c><c>     79.90400000</c><c>      7.00000000</c><c>  PAW_PBE Br 06Sep2000                  </c></rc>
   </set>
  </array>
 </atominfo>
 <structure name="initialpos" >
  <crystal>
   <varray name="basis" >
    <v>       8.45648900       0.00000000       8.04030100 </v>
    <v>       0.00000000      11.72984700       0.00000000 </v>
    <v>      -8.45648900       0.00000000       8.04030100 </v>
   </varray>
   <i name="volume">   1595.08833419 </i>
   <varray name="rec_basis" >
    <v>       0.05912619      -0.00000000       0.06218673 </v>
    <v>       0.00000000       0.08525260      -0.00000000 </v>
    <v>      -0.05912619       0.00000000       0.06218673 </v>
   </varray>
  </crystal>
  <varray name="positions" >
   <v>       0.27202900       0.24970000       0.18668300 </v>
   <v>       0.77119400       0.25393400       0.75347800 </v>
   <v>       0.70638000       0.74922100       0.25054700 </v>
   <v>       0.21164300       0.74672000       0.78445600 </v>
   <v>       0.27358000       0.25556300       0.74562200 </v>
   <v>       0.80258100       0.24984800       0.21705900 </v>
   <v>       0.72397300       0.74965000       0.78241900 </v>
   <v>       0.24129900       0.74323100       0.28739100 </v>
   <v>       0.00484700       0.99594800       0.99956000 </v>
   <v>       0.49140800       0.02972900       0.49548700 </v>
   <v>       0.50362000       0.00170900       0.99559000 </v>
   <v>       0.02480600       0.99519500       0.50279900 </v>
   <v>       0.50399100       0.49955400       0.99622600 </v>
   <v>       0.00229600       0.49699600       0.50061700 </v>
   <v>       0.00409900       0.50296500       0.00071300 </v>
   <v>       0.49168600       0.48768500       0.49696100 </v>
   <v>       0.48109200       0.75087800       0.97237100 </v>
   <v>       0.96580400       0.75304700       0.45488400 </v>
   <v>       0.99470000       0.24959300       0.97405800 </v>
   <v>       0.39725800       0.24586100       0.47188600 </v>
   <v>       0.03389600       0.74970300       0.04168100 </v>
   <v>       0.55026300       0.73484200       0.51163900 </v>
   <v>       0.53755800       0.25022200       0.02554300 </v>
   <v>       0.01306900       0.24815700       0.54865100 </v>
   <v>       0.25176400       0.47851200       0.95327400 </v>
   <v>       0.45902600       0.52173200       0.24501500 </v>
   <v>       0.94886400       0.53580800       0.74713300 </v>
   <v>       0.54933200       0.03384800       0.74561500 </v>
   <v>       0.05455700       0.03639000       0.25768000 </v>
   <v>       0.75711200       0.97712300       0.04646400 </v>
   <v>       0.26602900       0.94447400       0.54882100 </v>
   <v>       0.25221000       0.02375900       0.94680800 </v>
   <v>       0.45934500       0.97469500       0.24778300 </v>
   <v>       0.95391800       0.96046200       0.74874600 </v>
   <v>       0.75683500       0.52272300       0.04679900 </v>
   <v>       0.23968700       0.53862800       0.55329900 </v>
   <v>       0.54368200       0.46747200       0.74768600 </v>
   <v>       0.05319000       0.46155600       0.25429800 </v>
   <v>       0.70360600       0.28475000       0.46396800 </v>
  </varray>
 </structure>
 <calculation>
  <scstep>
   <time name="dav">   16.57   16.58</time>
   <time name="total">   18.03   18.04</time>
   <energy>
    <i name="alphaZ">    872.70583573 </i>
    <i name="ewald"> -17917.38678445 </i>
    <i name="hartreedc">  -7439.31301991 </i>
    <i name="XCdc">    907.90856825 </i>
    <i name="pawpsdc">  21345.28103884 </i>
    <i name="pawaedc"> -22405.85761495 </i>
    <i name="eentropy">     -0.00001067 </i>
    <i name="bandstr">   -241.50529946 </i>
    <i name="atom">  26212.11861568 </i>
    <i name="e_fr_energy">   1333.95132906 </i>
    <i name="e_wo_entrp">   1333.95133973 </i>
    <i name="e_0_energy">   1333.95133440 </i>
   </energy>
  </scstep>
  <scstep>
   <time name="dav">   18.47   18.50</time>
   <time name="total">   18.47   18.51</time>
   <energy>
    <i name="e_fr_energy">  -1117.04458180 </i>
    <i name="e_wo_entrp">  -1117.04458180 </i>
    <i name="e_0_energy">  -1117.04458180 </i>
   </energy>
  </scstep>
  <scstep>
   <time name="dav">   19.27   19.28</time>
   <time name="total">   19.27   19.28</time>
   <energy>
    <i name="e_fr_energy">  -1474.93555357 </i>
    <i name="e_wo_entrp">  -1474.93555357 </i>
    <i name="e_0_energy">  -1474.93555357 </i>
   </energy>
  </scstep>
  <scstep>
   <time name="dav">   17.77   17.81</time>
   <time name="total">   17.77   17.81</time>
   <energy>
    <i name="e_fr_energy">  -1486.84655495 </i>
    <i name="e_wo_entrp">  -1486.84655495 </i>
    <i name="e_0_energy">  -1486.84655495 </i>
   </energy>
  </scstep>
  <scstep>
   <time name="dav">   19.12   19.14</time>
   <time name="total">   21.82   21.84</time>
   <energy>
    <i name="e_fr_energy">  -1487.38451757 </i>
    <i name="e_wo_entrp">  -1487.38451757 </i>
    <i name="e_0_energy">  -1487.38451757 </i>
   </energy>
  </scstep>
  <scstep>
   <time name="dav">   18.99   18.99</time>
   <time name="total">   23.12   23.17</time>
   <energy>
    <i name="e_fr_energy">  -1409.23677711 </i>
    <i name="e_wo_entrp">  -1409.23677711 </i>
    <i name="e_0_energy">  -1409.23677711 </i>
   </energy>
  </scstep>
  <scstep>
   <time name="dav">   18.12   18.12</time>
   <time name="total">   22.28   22.29</time>
   <energy>
    <i name="e_fr_energy">  -1408.66252502 </i>
    <i name="e_wo_entrp">  -1408.66252502 </i>
    <i name="e_0_energy">  -1408.66252502 </i>
   </energy>
  </scstep>
  <scstep>
   <time name="dav">   17.86   17.86</time>
   <time name="total">   21.99   22.04</time>
   <energy>
    <i name="e_fr_energy">  -1408.84642477 </i>
    <i name="e_wo_entrp">  -1408.84642477 </i>
    <i name="e_0_energy">  -1408.84642477 </i>
   </energy>
  </scstep>
  <scstep>
   <time name="dav">   17.14   17.14</time>
   <time name="total">   21.32   21.33</time>
   <energy>
    <i name="e_fr_energy">  -1408.90993865 </i>
    <i name="e_wo_entrp">  -1408.90993865 </i>
    <i name="e_0_energy">  -1408.90993865 </i>
   </energy>
  </scstep>
  <scstep>
   <time name="dav">   19.13   19.13</time>
   <time name="total">   23.31   23.31</time>
   <energy>
    <i name="e_fr_energy">  -1408.91434124 </i>
    <i name="e_wo_entrp">  -1408.91434124 </i>
    <i name="e_0_energy">  -1408.91434124 </i>
   </energy>
  </scstep>
  <scstep>
   <time name="dav">   17.02   17.03</time>
   <time name="total">   21.21   21.22</time>
   <energy>
    <i name="e_fr_energy">  -1408.91650188 </i>
    <i name="e_wo_entrp">  -1408.91650188 </i>
    <i name="e_0_energy">  -1408.91650188 </i>
   </energy>
  </scstep>
  <scstep>
   <time name="dav">   16.81   16.81</time>
   <time name="total">   20.97   21.00</time>
   <energy>
    <i name="e_fr_energy">  -1408.91925885 </i>
    <i name="e_wo_entrp">  -1408.91925885 </i>
    <i name="e_0_energy">  -1408.91925885 </i>
   </energy>
  </scstep>
  <scstep>
   <time name="dav">   19.17   19.17</time>
   <time name="total">   23.35   23.37</time>
   <energy>
    <i name="e_fr_energy">  -1408.91891411 </i>
    <i name="e_wo_entrp">  -1408.91891411 </i>
    <i name="e_0_energy">  -1408.91891411 </i>
   </energy>
  </scstep>
  <scstep>
   <time name="dav">   17.91   17.91</time>
   <time name="total">   22.08   22.10</time>
   <energy>
    <i name="e_fr_energy">  -1408.91890579 </i>
    <i name="e_wo_entrp">  -1408.91890579 </i>
    <i name="e_0_energy">  -1408.91890579 </i>
   </energy>
  </scstep>
  <scstep>
   <time name="dav">   17.48   17.48</time>
   <time name="total">   21.65   21.68</time>
   <energy>
    <i name="e_fr_energy">  -1408.91890967 </i>
    <i name="e_wo_entrp">  -1408.91890967 </i>
    <i name="e_0_energy">  -1408.91890967 </i>
   </energy>
  </scstep>
  <scstep>
   <time name="dav">   17.00   17.00</time>
   <time name="total">   21.14   21.19</time>
   <energy>
    <i name="e_fr_energy">  -1408.91898075 </i>
    <i name="e_wo_entrp">  -1408.91898075 </i>
    <i name="e_0_energy">  -1408.91898075 </i>
   </energy>
  </scstep>
  <scstep>
   <time name="dav">   17.80   17.80</time>
   <time name="total">   21.99   22.00</time>
   <energy>
    <i name="e_fr_energy">  -1408.91897562 </i>
    <i name="e_wo_entrp">  -1408.91897562 </i>
    <i name="e_0_energy">  -1408.91897562 </i>
   </energy>
  </scstep>
  <scstep>
   <time name="dav">   13.22   13.22</time>
   <time name="total">   17.42   17.43</time>
   <energy>
    <i name="e_fr_energy">  -1408.91897236 </i>
    <i name="e_wo_entrp">  -1408.91897236 </i>
    <i name="e_0_energy">  -1408.91897236 </i>
   </energy>
  </scstep>
  <scstep>
   <time name="dav">   13.18   13.19</time>
   <time name="total">   17.34   17.38</time>
   <energy>
    <i name="e_fr_energy">  -1408.91896821 </i>
    <i name="e_wo_entrp">  -1408.91896821 </i>
    <i name="e_0_energy">  -1408.91896821 </i>
   </energy>
  </scstep>
  <scstep>
   <time name="dav">   12.50   12.50</time>
   <time name="total">   16.64   16.70</time>
   <energy>
    <i name="e_fr_energy">  -1408.91896642 </i>
    <i name="e_wo_entrp">  -1408.91896642 </i>
    <i name="e_0_energy">  -1408.91896642 </i>
   </energy>
  </scstep>
  <scstep>
   <time name="dav">   12.42   12.43</time>
   <time name="total">   13.90   13.94</time>
   <energy>
    <i name="alphaZ">    872.70583573 </i>
    <i name="ewald"> -17917.38678445 </i>
    <i name="hartreedc">  -7468.14473070 </i>
    <i name="XCdc">    943.33465102 </i>
    <i name="pawpsdc">  22721.79422720 </i>
    <i name="pawaedc"> -23779.56530542 </i>
    <i name="eentropy">     -0.00000000 </i>
    <i name="bandstr">  -2993.77547613 </i>
    <i name="atom">  26212.11861568 </i>
    <i name="e_fr_energy">  -1408.91896707 </i>
    <i name="e_wo_entrp">  -1408.91896707 </i>
    <i name="e_0_energy">  -1408.91896707 </i>
   </energy>
  </scstep>
  <structure>
   <crystal>
    <varray name="basis" >
     <v>       8.45648900       0.00000000       8.04030100 </v>
     <v>       0.00000000      11.72984700       0.00000000 </v>
     <v>      -8.45648900       0.00000000       8.04030100 </v>
    </varray>
    <i name="volume">   1595.08833419 </i>
    <varray name="rec_basis" >
     <v>       0.05912619      -0.00000000       0.06218673 </v>
     <v>       0.00000000       0.08525260      -0.00000000 </v>
     <v>      -0.05912619       0.00000000       0.06218673 </v>
    </varray>
   </crystal>
   <varray name="positions" >
    <v>       0.27202900       0.24970000       0.18668300 </v>
    <v>       0.77119400       0.25393400       0.75347800 </v>
    <v>       0.70638000       0.74922100       0.25054700 </v>
    <v>       0.21164300       0.74672000       0.78445600 </v>
    <v>       0.27358000       0.25556300       0.74562200 </v>
    <v>       0.80258100       0.24984800       0.21705900 </v>
    <v>       0.72397300       0.74965000       0.78241900 </v>
    <v>       0.24129900       0.74323100       0.28739100 </v>
    <v>       0.00484700       0.99594800       0.99956000 </v>
    <v>       0.49140800       0.02972900       0.49548700 </v>
    <v>       0.50362000       0.00170900       0.99559000 </v>
    <v>       0.02480600       0.99519500       0.50279900 </v>
    <v>       0.50399100       0.49955400       0.99622600 </v>
    <v>       0.00229600       0.49699600       0.50061700 </v>
    <v>       0.00409900       0.50296500       0.00071300 </v>
    <v>       0.49168600       0.48768500       0.49696100 </v>
    <v>       0.48109200       0.75087800       0.97237100 </v>
    <v>       0.96580400       0.75304700       0.45488400 </v>
    <v>       0.99470000       0.24959300       0.97405800 </v>
    <v>       0.39725800       0.24586100       0.47188600 </v>
    <v>       0.03389600       0.74970300       0.04168100 </v>
    <v>       0.55026300       0.73484200       0.51163900 </v>
    <v>       0.53755800       0.25022200       0.02554300 </v>
    <v>       0.01306900       0.24815700       0.54865100 </v>
    <v>       0.25176400       0.47851200       0.95327400 </v>
    <v>       0.45902600       0.52173200       0.24501500 </v>
    <v>       0.94886400       0.53580800       0.74713300 </v>
    <v>       0.54933200       0.03384800       0.74561500 </v>
    <v>       0.05455700       0.03639000       0.25768000 </v>
    <v>       0.75711200       0.97712300       0.04646400 </v>
    <v>       0.26602900       0.94447400       0.54882100 </v>
    <v>       0.25221000       0.02375900       0.94680800 </v>
    <v>       0.45934500       0.97469500       0.24778300 </v>
    <v>       0.95391800       0.96046200       0.74874600 </v>
    <v>       0.75683500       0.52272300       0.04679900 </v>
    <v>       0.23968700       0.53862800       0.55329900 </v>
    <v>       0.54368200       0.46747200       0.74768600 </v>
    <v>       0.05319000       0.46155600       0.25429800 </v>
    <v>       0.70360600       0.28475000       0.46396800 </v>
   </varray>
  </structure>
  <varray name="forces" >
   <v>       0.00562548       0.00062329      -0.06451952 </v>
   <v>      -0.06030862      -0.01303964       0.09081640 </v>
   <v>       0.02168814      -0.00248751      -0.04783029 </v>
   <v>      -0.02577953       0.00123402       0.03039247 </v>
   <v>      -0.03582811       0.00263081      -0.01849419 </v>
   <v>       0.51964886      -0.07099191      -0.21980602 </v>
   <v>      -0.02473285      -0.00007590       0.00729878 </v>
   <v>       0.01805400       0.01018146      -0.00858499 </v>
   <v>       0.00684435       0.04460166       0.02130479 </v>
   <v>       0.21707403      -0.14023978       0.16579338 </v>
   <v>       0.01426617       0.02776354      -0.00008889 </v>
   <v>       0.02350222       0.11062874       0.02517296 </v>
   <v>       0.01659554      -0.02864991       0.02193898 </v>
   <v>      -0.00839375      -0.13883091      -0.02764476 </v>
   <v>      -0.01675794      -0.05203831      -0.00034947 </v>
   <v>       0.19864861      -0.13607985       0.22762515 </v>
   <v>      -0.00635224      -0.00503397      -0.00213133 </v>
   <v>      -0.00483898      -0.01254834      -0.01428322 </v>
   <v>       0.05855788      -0.00545088       0.05828045 </v>
   <v>      -0.36272607       0.05950895      -0.32491621 </v>
   <v>       0.00331187      -0.00083928       0.00937509 </v>
   <v>      -0.03092891      -0.01102975      -0.06122101 </v>
   <v>      -0.00416372       0.00293186      -0.03040298 </v>
   <v>       0.14059654      -0.03377498       0.20851728 </v>
   <v>       0.02032251       0.01085751       0.00571535 </v>
   <v>      -0.06490103       0.01722252       0.04327870 </v>
   <v>       0.03084201       0.01799127      -0.00812209 </v>
   <v>      -0.03482065      -0.00041023       0.00989954 </v>
   <v>      -0.01914891      -0.02815934       0.02928560 </v>
   <v>       0.00117271      -0.03423914      -0.00704725 </v>
   <v>      -0.07295282       0.01051456      -0.07331628 </v>
   <v>       0.01665909      -0.01653765       0.00982820 </v>
   <v>       0.02808368      -0.01944651      -0.03340072 </v>
   <v>       0.03767243      -0.00980036      -0.02832754 </v>
   <v>      -0.00846576       0.03070303      -0.01440261 </v>
   <v>       0.09629990      -0.03352785       0.02969112 </v>
   <v>       0.02554488       0.00647443      -0.04889321 </v>
   <v>      -0.01766451       0.02884329       0.03116194 </v>
   <v>      -0.70224650       0.41052106       0.00840640 </v>
  </varray>
  <varray name="stress" >
   <v>      -5.23247372      -0.25184160      -1.75025049 </v>
   <v>      -0.25187310      -7.53646034       0.08930354 </v>
   <v>      -1.75038856       0.08937220      -4.68794424 </v>
  </varray>
  <energy>
   <i name="e_fr_energy">  -1408.91896707 </i>
   <i name="e_wo_entrp">  -1408.91896707 </i>
   <i name="e_0_energy">     -0.00000000 </i>
  </energy>
  <time name="totalsc">  479.85  480.46</time>
  <eigenvalues>
   <array>
    <dimension dim="1">band</dimension>
    <dimension dim="2">kpoint</dimension>
    <dimension dim="3">spin</dimension>
    <field>eigene</field>
    <field>occ</field>
    <set>
     <set comment="spin 1">
      <set comment="kpoint 1">
       <r>  -20.9155    1.0000 </r>
       <r>  -20.8212    1.0000 </r>
       <r>  -20.8032    1.0000 </r>
       <r>  -20.7770    1.0000 </r>
       <r>  -20.7501    1.0000 </r>
       <r>  -20.6374    1.0000 </r>
       <r>  -20.4985    1.0000 </r>
       <r>  -20.4751    1.0000 </r>
       <r>  -16.8465    1.0000 </r>
       <r>  -16.7852    1.0000 </r>
       <r>  -16.7733    1.0000 </r>
       <r>  -16.7592    1.0000 </r>
       <r>  -16.7306    1.0000 </r>
       <r>  -16.7281    1.0000 </r>
       <r>  -16.7221    1.0000 </r>
       <r>  -16.6817    1.0000 </r>
       <r>  -16.6812    1.0000 </r>
       <r>  -16.6754    1.0000 </r>
       <r>  -16.6596    1.0000 </r>
       <r>  -16.6403    1.0000 </r>
       <r>  -16.6286    1.0000 </r>
       <r>  -16.6190    1.0000 </r>
       <r>  -16.6132    1.0000 </r>
       <r>  -16.6086    1.0000 </r>
       <r>  -16.5834    1.0000 </r>
       <r>  -16.5641    1.0000 </r>
       <r>  -16.5527    1.0000 </r>
       <r>  -16.4981    1.0000 </r>
       <r>  -16.4944    1.0000 </r>
       <r>  -16.4722    1.0000 </r>
       <r>  -16.4616    1.0000 </r>
       <r>  -16.4476    1.0000 </r>
       <r>  -16.4198    1.0000 </r>
       <r>  -16.4081    1.0000 </r>
       <r>  -16.3894    1.0000 </r>
       <r>  -16.3776    1.0000 </r>
       <r>  -16.3492    1.0000 </r>
       <r>  -16.3428    1.0000 </r>
       <r>  -16.3353    1.0000 </r>
       <r>  -16.3270    1.0000 </r>
       <r>  -16.3246    1.0000 </r>
       <r>  -16.3207    1.0000 </r>
       <r>  -16.3162    1.0000 </r>
       <r>  -16.3143    1.0000 </r>
       <r>  -16.3074    1.0000 </r>
       <r>  -16.2886    1.0000 </r>
       <r>  -16.2838    1.0000 </r>
       <r>  -16.2742    1.0000 </r>
       <r>  -14.7115    1.0000 </r>
       <r>  -14.4672    1.0000 </r>
       <r>  -14.3407    1.0000 </r>
       <r>  -14.3202    1.0000 </r>
       <r>  -14.1791    1.0000 </r>
       <r>  -14.1500    1.0000 </r>
       <r>  -14.1202    1.0000 </r>
       <r>  -14.1036    1.0000 </r>
       <r>  -14.0924    1.0000 </r>
       <r>  -14.0884    1.0000 </r>
       <r>  -14.0742    1.0000 </r>
       <r>  -14.0682    1.0000 </r>
       <r>  -14.0625    1.0000 </r>
       <r>  -14.0574    1.0000 </r>
       <r>  -14.0372    1.0000 </r>
       <r>  -13.9995    1.0000 </r>
       <r>  -13.9546    1.0000 </r>
       <r>  -13.8687    1.0000 </r>
       <r>  -13.8572    1.0000 </r>
       <r>  -13.7860    1.0000 </r>
       <r>  -13.7769    1.0000 </r>
       <r>  -13.6455    1.0000 </r>
       <r>  -13.0566    1.0000 </r>
       <r>   -8.2544    1.0000 </r>
       <r>   -7.8712    1.0000 </r>
       <r>   -7.8066    1.0000 </r>
       <r>   -7.7175    1.0000 </r>
       <r>   -7.3708    1.0000 </r>
       <r>   -7.3368    1.0000 </r>
       <r>   -7.3175    1.0000 </r>
       <r>   -7.2913    1.0000 </r>
       <r>   -7.2855    1.0000 </r>
       <r>   -7.2452    1.0000 </r>
       <r>   -7.2408    1.0000 </r>
       <r>   -7.2295    1.0000 </r>
       <r>   -7.2176    1.0000 </r>
       <r>   -7.2058    1.0000 </r>
       <r>   -7.2017    1.0000 </r>
       <r>   -7.1952    1.0000 </r>
       <r>   -7.1874    1.0000 </r>
       <r>   -7.1770    1.0000 </r>
       <r>   -7.1622    1.0000 </r>
       <r>   -7.1510    1.0000 </r>
       <r>   -7.1435    1.0000 </r>
       <r>   -7.1257    1.0000 </r>
       <r>   -7.0697    1.0000 </r>
       <r>   -7.0504    1.0000 </r>
       <r>   -7.0491    1.0000 </r>
       <r>   -6.9689    1.0000 </r>
       <r>   -6.9610    1.0000 </r>
       <r>   -6.9243    1.0000 </r>
       <r>   -6.9180    1.0000 </r>
       <r>   -6.8847    1.0000 </r>
       <r>   -6.8233    1.0000 </r>
       <r>   -6.6371    1.0000 </r>
       <r>   -3.4071    1.0000 </r>
       <r>   -3.3419    1.0000 </r>
       <r>   -3.3347    1.0000 </r>
       <r>   -3.3100    1.0000 </r>
       <r>   -3.2407    1.0000 </r>
       <r>   -3.2305    1.0000 </r>
       <r>   -3.2061    1.0000 </r>
       <r>   -3.2019    1.0000 </r>
       <r>   -3.1013    1.0000 </r>
       <r>   -3.0933    1.0000 </r>
       <r>   -2.9042    1.0000 </r>
       <r>   -2.7526    1.0000 </r>
       <r>   -2.3580    1.0000 </r>
       <r>   -2.3291    1.0000 </r>
       <r>   -2.1606    1.0000 </r>
       <r>   -2.0705    1.0000 </r>
       <r>   -2.0501    1.0000 </r>
       <r>   -2.0187    1.0000 </r>
       <r>   -1.9954    1.0000 </r>
       <r>   -1.9269    1.0000 </r>
       <r>   -1.8693    1.0000 </r>
       <r>   -1.8576    1.0000 </r>
       <r>   -1.8096    1.0000 </r>
       <r>   -1.7844    1.0000 </r>
       <r>   -1.7252    1.0000 </r>
       <r>   -1.6837    1.0000 </r>
       <r>   -1.6487    1.0000 </r>
       <r>   -1.6312    1.0000 </r>
       <r>   -1.5998    1.0000 </r>
       <r>   -1.5841    1.0000 </r>
       <r>   -1.5457    1.0000 </r>
       <r>   -1.5428    1.0000 </r>
       <r>   -1.5212    1.0000 </r>
       <r>   -1.5196    1.0000 </r>
       <r>   -1.5046    1.0000 </r>
       <r>   -1.4964    1.0000 </r>
       <r>   -1.4626    1.0000 </r>
       <r>   -1.4511    1.0000 </r>
       <r>   -1.4384    1.0000 </r>
       <r>   -1.4132    1.0000 </r>
       <r>   -1.3986    1.0000 </r>
       <r>   -1.3900    1.0000 </r>
       <r>   -1.3823    1.0000 </r>
       <r>   -1.3775    1.0000 </r>
       <r>   -1.3628    1.0000 </r>
       <r>   -1.3532    1.0000 </r>
       <r>   -1.3449    1.0000 </r>
       <r>   -1.3352    1.0000 </r>
       <r>   -1.2774    1.0000 </r>
       <r>   -1.2668    1.0000 </r>
       <r>   -1.2395    1.0000 </r>
       <r>   -1.2318    1.0000 </r>
       <r>   -1.1968    1.0000 </r>
       <r>   -1.1721    1.0000 </r>
       <r>   -1.1492    1.0000 </r>
       <r>   -1.1327    1.0000 </r>
       <r>   -1.1073    1.0000 </r>
       <r>   -0.9699    1.0000 </r>
       <r>   -0.9527    1.0000 </r>
       <r>   -0.8946    1.0000 </r>
       <r>   -0.8687    1.0000 </r>
       <r>   -0.7703    1.0000 </r>
       <r>   -0.6766    1.0000 </r>
       <r>   -0.5569    1.0000 </r>
       <r>   -0.4968    1.0000 </r>
       <r>   -0.2911    1.0000 </r>
       <r>   -0.2090    1.0000 </r>
       <r>   -0.1564    1.0000 </r>
       <r>    0.3195    1.0000 </r>
       <r>    2.5642    0.0000 </r>
       <r>    2.6642    0.0000 </r>
       <r>    2.7393    0.0000 </r>
       <r>    2.7714    0.0000 </r>
       <r>    2.9987    0.0000 </r>
       <r>    3.0388    0.0000 </r>
       <r>    3.0506    0.0000 </r>
       <r>    3.1538    0.0000 </r>
       <r>    3.2040    0.0000 </r>
       <r>    3.4195    0.0000 </r>
       <r>    3.4292    0.0000 </r>
       <r>    3.5349    0.0000 </r>
       <r>    4.0545    0.0000 </r>
       <r>    4.5040    0.0000 </r>
       <r>    4.8792    0.0000 </r>
       <r>    5.1736    0.0000 </r>
       <r>    5.4403    0.0000 </r>
       <r>    5.5876    0.0000 </r>
       <r>    5.7159    0.0000 </r>
       <r>    5.7827    0.0000 </r>
       <r>    5.8067    0.0000 </r>
       <r>    5.9489    0.0000 </r>
       <r>    6.0391    0.0000 </r>
       <r>    6.0637    0.0000 </r>
       <r>    6.0942    0.0000 </r>
       <r>    6.1374    0.0000 </r>
       <r>    6.1836    0.0000 </r>
       <r>    6.2969    0.0000 </r>
       <r>    6.3342    0.0000 </r>
       <r>    6.4088    0.0000 </r>
       <r>    6.4195    0.0000 </r>
       <r>    6.4390    0.0000 </r>
       <r>    6.5287    0.0000 </r>
       <r>    6.5724    0.0000 </r>
       <r>    6.5923    0.0000 </r>
       <r>    6.6518    0.0000 </r>
      </set>
      <set comment="kpoint 2">
       <r>  -20.9155    1.0000 </r>
       <r>  -20.8212    1.0000 </r>
       <r>  -20.8032    1.0000 </r>
       <r>  -20.7770    1.0000 </r>
       <r>  -20.7501    1.0000 </r>
       <r>  -20.6374    1.0000 </r>
       <r>  -20.4985    1.0000 </r>
       <r>  -20.4751    1.0000 </r>
       <r>  -16.8465    1.0000 </r>
       <r>  -16.7851    1.0000 </r>
       <r>  -16.7733    1.0000 </r>
       <r>  -16.7592    1.0000 </r>
       <r>  -16.7304    1.0000 </r>
       <r>  -16.7280    1.0000 </r>
       <r>  -16.7221    1.0000 </r>
       <r>  -16.6818    1.0000 </r>
       <r>  -16.6812    1.0000 </r>
       <r>  -16.6754    1.0000 </r>
       <r>  -16.6596    1.0000 </r>
       <r>  -16.6404    1.0000 </r>
       <r>  -16.6286    1.0000 </r>
       <r>  -16.6190    1.0000 </r>
       <r>  -16.6132    1.0000 </r>
       <r>  -16.6086    1.0000 </r>
       <r>  -16.5834    1.0000 </r>
       <r>  -16.5641    1.0000 </r>
       <r>  -16.5527    1.0000 </r>
       <r>  -16.4981    1.0000 </r>
       <r>  -16.4866    1.0000 </r>
       <r>  -16.4627    1.0000 </r>
       <r>  -16.4545    1.0000 </r>
       <r>  -16.4362    1.0000 </r>
       <r>  -16.4303    1.0000 </r>
       <r>  -16.4132    1.0000 </r>
       <r>  -16.4033    1.0000 </r>
       <r>  -16.3859    1.0000 </r>
       <r>  -16.3493    1.0000 </r>
       <r>  -16.3428    1.0000 </r>
       <r>  -16.3352    1.0000 </r>
       <r>  -16.3270    1.0000 </r>
       <r>  -16.3247    1.0000 </r>
       <r>  -16.3207    1.0000 </r>
       <r>  -16.3162    1.0000 </r>
       <r>  -16.3143    1.0000 </r>
       <r>  -16.3074    1.0000 </r>
       <r>  -16.2887    1.0000 </r>
       <r>  -16.2838    1.0000 </r>
       <r>  -16.2743    1.0000 </r>
       <r>  -14.7107    1.0000 </r>
       <r>  -14.4628    1.0000 </r>
       <r>  -14.3481    1.0000 </r>
       <r>  -14.2987    1.0000 </r>
       <r>  -14.2570    1.0000 </r>
       <r>  -14.1510    1.0000 </r>
       <r>  -14.1424    1.0000 </r>
       <r>  -14.0996    1.0000 </r>
       <r>  -14.0902    1.0000 </r>
       <r>  -14.0845    1.0000 </r>
       <r>  -14.0732    1.0000 </r>
       <r>  -14.0630    1.0000 </r>
       <r>  -14.0601    1.0000 </r>
       <r>  -14.0388    1.0000 </r>
       <r>  -13.9821    1.0000 </r>
       <r>  -13.9306    1.0000 </r>
       <r>  -13.9194    1.0000 </r>
       <r>  -13.9079    1.0000 </r>
       <r>  -13.8794    1.0000 </r>
       <r>  -13.8354    1.0000 </r>
       <r>  -13.7779    1.0000 </r>
       <r>  -13.6457    1.0000 </r>
       <r>  -13.0565    1.0000 </r>
       <r>   -8.1694    1.0000 </r>
       <r>   -7.9830    1.0000 </r>
       <r>   -7.7038    1.0000 </r>
       <r>   -7.6061    1.0000 </r>
       <r>   -7.4943    1.0000 </r>
       <r>   -7.4413    1.0000 </r>
       <r>   -7.3370    1.0000 </r>
       <r>   -7.3079    1.0000 </r>
       <r>   -7.2800    1.0000 </r>
       <r>   -7.2427    1.0000 </r>
       <r>   -7.2417    1.0000 </r>
       <r>   -7.2268    1.0000 </r>
       <r>   -7.2120    1.0000 </r>
       <r>   -7.2024    1.0000 </r>
       <r>   -7.1953    1.0000 </r>
       <r>   -7.1907    1.0000 </r>
       <r>   -7.1877    1.0000 </r>
       <r>   -7.1689    1.0000 </r>
       <r>   -7.1638    1.0000 </r>
       <r>   -7.1440    1.0000 </r>
       <r>   -7.1344    1.0000 </r>
       <r>   -7.0763    1.0000 </r>
       <r>   -7.0517    1.0000 </r>
       <r>   -7.0506    1.0000 </r>
       <r>   -7.0082    1.0000 </r>
       <r>   -6.9687    1.0000 </r>
       <r>   -6.9607    1.0000 </r>
       <r>   -6.9203    1.0000 </r>
       <r>   -6.9179    1.0000 </r>
       <r>   -6.9078    1.0000 </r>
       <r>   -6.8466    1.0000 </r>
       <r>   -6.8131    1.0000 </r>
       <r>   -3.3489    1.0000 </r>
       <r>   -3.3398    1.0000 </r>
       <r>   -3.3198    1.0000 </r>
       <r>   -3.2532    1.0000 </r>
       <r>   -3.2053    1.0000 </r>
       <r>   -3.2005    1.0000 </r>
       <r>   -3.1368    1.0000 </r>
       <r>   -3.1108    1.0000 </r>
       <r>   -2.9162    1.0000 </r>
       <r>   -2.7638    1.0000 </r>
       <r>   -2.5665    1.0000 </r>
       <r>   -2.5548    1.0000 </r>
       <r>   -2.4615    1.0000 </r>
       <r>   -2.4361    1.0000 </r>
       <r>   -2.3777    1.0000 </r>
       <r>   -2.2994    1.0000 </r>
       <r>   -2.0915    1.0000 </r>
       <r>   -2.0729    1.0000 </r>
       <r>   -2.0377    1.0000 </r>
       <r>   -2.0266    1.0000 </r>
       <r>   -1.9896    1.0000 </r>
       <r>   -1.9435    1.0000 </r>
       <r>   -1.8706    1.0000 </r>
       <r>   -1.8279    1.0000 </r>
       <r>   -1.7604    1.0000 </r>
       <r>   -1.6800    1.0000 </r>
       <r>   -1.6729    1.0000 </r>
       <r>   -1.6341    1.0000 </r>
       <r>   -1.5959    1.0000 </r>
       <r>   -1.5732    1.0000 </r>
       <r>   -1.5654    1.0000 </r>
       <r>   -1.5519    1.0000 </r>
       <r>   -1.5360    1.0000 </r>
       <r>   -1.5231    1.0000 </r>
       <r>   -1.5021    1.0000 </r>
       <r>   -1.4788    1.0000 </r>
       <r>   -1.4595    1.0000 </r>
       <r>   -1.4463    1.0000 </r>
       <r>   -1.4403    1.0000 </r>
       <r>   -1.4286    1.0000 </r>
       <r>   -1.4279    1.0000 </r>
       <r>   -1.4152    1.0000 </r>
       <r>   -1.4074    1.0000 </r>
       <r>   -1.3796    1.0000 </r>
       <r>   -1.3582    1.0000 </r>
       <r>   -1.3519    1.0000 </r>
       <r>   -1.3441    1.0000 </r>
       <r>   -1.2848    1.0000 </r>
       <r>   -1.2610    1.0000 </r>
       <r>   -1.2526    1.0000 </r>
       <r>   -1.2338    1.0000 </r>
       <r>   -1.2298    1.0000 </r>
       <r>   -1.1870    1.0000 </r>
       <r>   -1.1775    1.0000 </r>
       <r>   -1.1521    1.0000 </r>
       <r>   -1.1367    1.0000 </r>
       <r>   -1.0917    1.0000 </r>
       <r>   -1.0567    1.0000 </r>
       <r>   -0.9503    1.0000 </r>
       <r>   -0.8970    1.0000 </r>
       <r>   -0.8732    1.0000 </r>
       <r>   -0.7195    1.0000 </r>
       <r>   -0.6713    1.0000 </r>
       <r>   -0.5746    1.0000 </r>
       <r>   -0.5530    1.0000 </r>
       <r>   -0.5173    1.0000 </r>
       <r>   -0.2574    1.0000 </r>
       <r>   -0.0695    1.0000 </r>
       <r>   -0.0056    1.0000 </r>
       <r>    2.6923    0.0000 </r>
       <r>    2.7555    0.0000 </r>
       <r>    2.8168    0.0000 </r>
       <r>    2.9107    0.0000 </r>
       <r>    2.9459    0.0000 </r>
       <r>    3.0624    0.0000 </r>
       <r>    3.1642    0.0000 </r>
       <r>    3.2415    0.0000 </r>
       <r>    3.3355    0.0000 </r>
       <r>    3.4792    0.0000 </r>
       <r>    3.8837    0.0000 </r>
       <r>    4.0931    0.0000 </r>
       <r>    4.4327    0.0000 </r>
       <r>    4.4684    0.0000 </r>
       <r>    4.7802    0.0000 </r>
       <r>    4.8004    0.0000 </r>
       <r>    5.2680    0.0000 </r>
       <r>    5.4801    0.0000 </r>
       <r>    5.5409    0.0000 </r>
       <r>    5.6052    0.0000 </r>
       <r>    5.6728    0.0000 </r>
       <r>    5.7175    0.0000 </r>
       <r>    5.8371    0.0000 </r>
       <r>    6.0588    0.0000 </r>
       <r>    6.1249    0.0000 </r>
       <r>    6.1282    0.0000 </r>
       <r>    6.1712    0.0000 </r>
       <r>    6.2265    0.0000 </r>
       <r>    6.2843    0.0000 </r>
       <r>    6.3277    0.0000 </r>
       <r>    6.3873    0.0000 </r>
       <r>    6.4420    0.0000 </r>
       <r>    6.4751    0.0000 </r>
       <r>    6.5182    0.0000 </r>
       <r>    6.5793    0.0000 </r>
       <r>    6.5972    0.0000 </r>
      </set>
      <set comment="kpoint 3">
       <r>  -20.9155    1.0000 </r>
       <r>  -20.8211    1.0000 </r>
       <r>  -20.8032    1.0000 </r>
       <r>  -20.7770    1.0000 </r>
       <r>  -20.7501    1.0000 </r>
       <r>  -20.6374    1.0000 </r>
       <r>  -20.4985    1.0000 </r>
       <r>  -20.4751    1.0000 </r>
       <r>  -16.8460    1.0000 </r>
       <r>  -16.7842    1.0000 </r>
       <r>  -16.7681    1.0000 </r>
       <r>  -16.7585    1.0000 </r>
       <r>  -16.7328    1.0000 </r>
       <r>  -16.7278    1.0000 </r>
       <r>  -16.7221    1.0000 </r>
       <r>  -16.6857    1.0000 </r>
       <r>  -16.6817    1.0000 </r>
       <r>  -16.6754    1.0000 </r>
       <r>  -16.6595    1.0000 </r>
       <r>  -16.6403    1.0000 </r>
       <r>  -16.6286    1.0000 </r>
       <r>  -16.6189    1.0000 </r>
       <r>  -16.6133    1.0000 </r>
       <r>  -16.6102    1.0000 </r>
       <r>  -16.5834    1.0000 </r>
       <r>  -16.5641    1.0000 </r>
       <r>  -16.5527    1.0000 </r>
       <r>  -16.4980    1.0000 </r>
       <r>  -16.4810    1.0000 </r>
       <r>  -16.4636    1.0000 </r>
       <r>  -16.4558    1.0000 </r>
       <r>  -16.4358    1.0000 </r>
       <r>  -16.4340    1.0000 </r>
       <r>  -16.4110    1.0000 </r>
       <r>  -16.4068    1.0000 </r>
       <r>  -16.3852    1.0000 </r>
       <r>  -16.3492    1.0000 </r>
       <r>  -16.3427    1.0000 </r>
       <r>  -16.3352    1.0000 </r>
       <r>  -16.3270    1.0000 </r>
       <r>  -16.3247    1.0000 </r>
       <r>  -16.3206    1.0000 </r>
       <r>  -16.3162    1.0000 </r>
       <r>  -16.3143    1.0000 </r>
       <r>  -16.3074    1.0000 </r>
       <r>  -16.2886    1.0000 </r>
       <r>  -16.2838    1.0000 </r>
       <r>  -16.2742    1.0000 </r>
       <r>  -14.7091    1.0000 </r>
       <r>  -14.4784    1.0000 </r>
       <r>  -14.3127    1.0000 </r>
       <r>  -14.2943    1.0000 </r>
       <r>  -14.2797    1.0000 </r>
       <r>  -14.1783    1.0000 </r>
       <r>  -14.1255    1.0000 </r>
       <r>  -14.1152    1.0000 </r>
       <r>  -14.0974    1.0000 </r>
       <r>  -14.0792    1.0000 </r>
       <r>  -14.0720    1.0000 </r>
       <r>  -14.0626    1.0000 </r>
       <r>  -14.0582    1.0000 </r>
       <r>  -14.0381    1.0000 </r>
       <r>  -13.9666    1.0000 </r>
       <r>  -13.9346    1.0000 </r>
       <r>  -13.9061    1.0000 </r>
       <r>  -13.8853    1.0000 </r>
       <r>  -13.8590    1.0000 </r>
       <r>  -13.8427    1.0000 </r>
       <r>  -13.8104    1.0000 </r>
       <r>  -13.6517    1.0000 </r>
       <r>  -13.0566    1.0000 </r>
       <r>   -8.0759    1.0000 </r>
       <r>   -7.9854    1.0000 </r>
       <r>   -7.6881    1.0000 </r>
       <r>   -7.6009    1.0000 </r>
       <r>   -7.5641    1.0000 </r>
       <r>   -7.4708    1.0000 </r>
       <r>   -7.3340    1.0000 </r>
       <r>   -7.3185    1.0000 </r>
       <r>   -7.2802    1.0000 </r>
       <r>   -7.2404    1.0000 </r>
       <r>   -7.2277    1.0000 </r>
       <r>   -7.2225    1.0000 </r>
       <r>   -7.2109    1.0000 </r>
       <r>   -7.2006    1.0000 </r>
       <r>   -7.1941    1.0000 </r>
       <r>   -7.1918    1.0000 </r>
       <r>   -7.1854    1.0000 </r>
       <r>   -7.1738    1.0000 </r>
       <r>   -7.1635    1.0000 </r>
       <r>   -7.1420    1.0000 </r>
       <r>   -7.1323    1.0000 </r>
       <r>   -7.0849    1.0000 </r>
       <r>   -7.0592    1.0000 </r>
       <r>   -7.0534    1.0000 </r>
       <r>   -7.0216    1.0000 </r>
       <r>   -6.9760    1.0000 </r>
       <r>   -6.9643    1.0000 </r>
       <r>   -6.9461    1.0000 </r>
       <r>   -6.9219    1.0000 </r>
       <r>   -6.9163    1.0000 </r>
       <r>   -6.8865    1.0000 </r>
       <r>   -6.8211    1.0000 </r>
       <r>   -3.3127    1.0000 </r>
       <r>   -3.3045    1.0000 </r>
       <r>   -3.2885    1.0000 </r>
       <r>   -3.2749    1.0000 </r>
       <r>   -3.1851    1.0000 </r>
       <r>   -3.1649    1.0000 </r>
       <r>   -3.0663    1.0000 </r>
       <r>   -2.8540    1.0000 </r>
       <r>   -2.7283    1.0000 </r>
       <r>   -2.5330    1.0000 </r>
       <r>   -2.5211    1.0000 </r>
       <r>   -2.4940    1.0000 </r>
       <r>   -2.4801    1.0000 </r>
       <r>   -2.4127    1.0000 </r>
       <r>   -2.3736    1.0000 </r>
       <r>   -2.2892    1.0000 </r>
       <r>   -2.2236    1.0000 </r>
       <r>   -2.1231    1.0000 </r>
       <r>   -2.1092    1.0000 </r>
       <r>   -2.0423    1.0000 </r>
       <r>   -1.9880    1.0000 </r>
       <r>   -1.9586    1.0000 </r>
       <r>   -1.9411    1.0000 </r>
       <r>   -1.8546    1.0000 </r>
       <r>   -1.8092    1.0000 </r>
       <r>   -1.7964    1.0000 </r>
       <r>   -1.7664    1.0000 </r>
       <r>   -1.7590    1.0000 </r>
       <r>   -1.6885    1.0000 </r>
       <r>   -1.6732    1.0000 </r>
       <r>   -1.5889    1.0000 </r>
       <r>   -1.5632    1.0000 </r>
       <r>   -1.5577    1.0000 </r>
       <r>   -1.5223    1.0000 </r>
       <r>   -1.5184    1.0000 </r>
       <r>   -1.4672    1.0000 </r>
       <r>   -1.4482    1.0000 </r>
       <r>   -1.4249    1.0000 </r>
       <r>   -1.4114    1.0000 </r>
       <r>   -1.4056    1.0000 </r>
       <r>   -1.4008    1.0000 </r>
       <r>   -1.3833    1.0000 </r>
       <r>   -1.3625    1.0000 </r>
       <r>   -1.3547    1.0000 </r>
       <r>   -1.3440    1.0000 </r>
       <r>   -1.3238    1.0000 </r>
       <r>   -1.2965    1.0000 </r>
       <r>   -1.2764    1.0000 </r>
       <r>   -1.2735    1.0000 </r>
       <r>   -1.2580    1.0000 </r>
       <r>   -1.2306    1.0000 </r>
       <r>   -1.2087    1.0000 </r>
       <r>   -1.1859    1.0000 </r>
       <r>   -1.1664    1.0000 </r>
       <r>   -1.1470    1.0000 </r>
       <r>   -1.1379    1.0000 </r>
       <r>   -1.1212    1.0000 </r>
       <r>   -1.0312    1.0000 </r>
       <r>   -0.9876    1.0000 </r>
       <r>   -0.9567    1.0000 </r>
       <r>   -0.9284    1.0000 </r>
       <r>   -0.8888    1.0000 </r>
       <r>   -0.7840    1.0000 </r>
       <r>   -0.6525    1.0000 </r>
       <r>   -0.5981    1.0000 </r>
       <r>   -0.5420    1.0000 </r>
       <r>   -0.1911    1.0000 </r>
       <r>   -0.1719    1.0000 </r>
       <r>   -0.1195    1.0000 </r>
       <r>    2.4650    0.0000 </r>
       <r>    2.8089    0.0000 </r>
       <r>    2.8956    0.0000 </r>
       <r>    2.9613    0.0000 </r>
       <r>    3.1922    0.0000 </r>
       <r>    3.1956    0.0000 </r>
       <r>    3.2365    0.0000 </r>
       <r>    3.2605    0.0000 </r>
       <r>    3.9349    0.0000 </r>
       <r>    4.0513    0.0000 </r>
       <r>    4.1960    0.0000 </r>
       <r>    4.2661    0.0000 </r>
       <r>    4.4133    0.0000 </r>
       <r>    4.4727    0.0000 </r>
       <r>    4.6775    0.0000 </r>
       <r>    4.6912    0.0000 </r>
       <r>    4.8090    0.0000 </r>
       <r>    4.9105    0.0000 </r>
       <r>    5.4709    0.0000 </r>
       <r>    5.5887    0.0000 </r>
       <r>    5.6227    0.0000 </r>
       <r>    5.6790    0.0000 </r>
       <r>    5.8199    0.0000 </r>
       <r>    5.9477    0.0000 </r>
       <r>    5.9870    0.0000 </r>
       <r>    6.0643    0.0000 </r>
       <r>    6.0871    0.0000 </r>
       <r>    6.1923    0.0000 </r>
       <r>    6.2362    0.0000 </r>
       <r>    6.3689    0.0000 </r>
       <r>    6.4109    0.0000 </r>
       <r>    6.5073    0.0000 </r>
       <r>    6.5553    0.0000 </r>
       <r>    6.5757    0.0000 </r>
       <r>    6.6034    0.0000 </r>
       <r>    6.6433    0.0000 </r>
      </set>
      <set comment="kpoint 4">
       <r>  -20.9155    1.0000 </r>
       <r>  -20.8212    1.0000 </r>
       <r>  -20.8032    1.0000 </r>
       <r>  -20.7770    1.0000 </r>
       <r>  -20.7501    1.0000 </r>
       <r>  -20.6374    1.0000 </r>
       <r>  -20.4985    1.0000 </r>
       <r>  -20.4751    1.0000 </r>
       <r>  -16.8459    1.0000 </r>
       <r>  -16.7842    1.0000 </r>
       <r>  -16.7681    1.0000 </r>
       <r>  -16.7585    1.0000 </r>
       <r>  -16.7327    1.0000 </r>
       <r>  -16.7277    1.0000 </r>
       <r>  -16.7221    1.0000 </r>
       <r>  -16.6857    1.0000 </r>
       <r>  -16.6817    1.0000 </r>
       <r>  -16.6754    1.0000 </r>
       <r>  -16.6596    1.0000 </r>
       <r>  -16.6404    1.0000 </r>
       <r>  -16.6286    1.0000 </r>
       <r>  -16.6190    1.0000 </r>
       <r>  -16.6133    1.0000 </r>
       <r>  -16.6103    1.0000 </r>
       <r>  -16.5834    1.0000 </r>
       <r>  -16.5641    1.0000 </r>
       <r>  -16.5528    1.0000 </r>
       <r>  -16.4980    1.0000 </r>
       <r>  -16.4624    1.0000 </r>
       <r>  -16.4536    1.0000 </r>
       <r>  -16.4439    1.0000 </r>
       <r>  -16.4399    1.0000 </r>
       <r>  -16.4317    1.0000 </r>
       <r>  -16.4299    1.0000 </r>
       <r>  -16.4119    1.0000 </r>
       <r>  -16.4018    1.0000 </r>
       <r>  -16.3492    1.0000 </r>
       <r>  -16.3427    1.0000 </r>
       <r>  -16.3352    1.0000 </r>
       <r>  -16.3270    1.0000 </r>
       <r>  -16.3247    1.0000 </r>
       <r>  -16.3207    1.0000 </r>
       <r>  -16.3162    1.0000 </r>
       <r>  -16.3143    1.0000 </r>
       <r>  -16.3075    1.0000 </r>
       <r>  -16.2887    1.0000 </r>
       <r>  -16.2838    1.0000 </r>
       <r>  -16.2743    1.0000 </r>
       <r>  -14.7083    1.0000 </r>
       <r>  -14.4748    1.0000 </r>
       <r>  -14.3175    1.0000 </r>
       <r>  -14.2747    1.0000 </r>
       <r>  -14.2686    1.0000 </r>
       <r>  -14.2454    1.0000 </r>
       <r>  -14.2182    1.0000 </r>
       <r>  -14.0908    1.0000 </r>
       <r>  -14.0773    1.0000 </r>
       <r>  -14.0635    1.0000 </r>
       <r>  -14.0630    1.0000 </r>
       <r>  -14.0392    1.0000 </r>
       <r>  -13.9849    1.0000 </r>
       <r>  -13.9661    1.0000 </r>
       <r>  -13.9488    1.0000 </r>
       <r>  -13.9333    1.0000 </r>
       <r>  -13.9294    1.0000 </r>
       <r>  -13.9264    1.0000 </r>
       <r>  -13.8805    1.0000 </r>
       <r>  -13.8719    1.0000 </r>
       <r>  -13.8195    1.0000 </r>
       <r>  -13.6519    1.0000 </r>
       <r>  -13.0566    1.0000 </r>
       <r>   -8.0160    1.0000 </r>
       <r>   -7.8867    1.0000 </r>
       <r>   -7.7768    1.0000 </r>
       <r>   -7.7167    1.0000 </r>
       <r>   -7.4041    1.0000 </r>
       <r>   -7.3581    1.0000 </r>
       <r>   -7.3387    1.0000 </r>
       <r>   -7.3190    1.0000 </r>
       <r>   -7.2866    1.0000 </r>
       <r>   -7.2696    1.0000 </r>
       <r>   -7.2368    1.0000 </r>
       <r>   -7.2269    1.0000 </r>
       <r>   -7.2118    1.0000 </r>
       <r>   -7.2084    1.0000 </r>
       <r>   -7.2037    1.0000 </r>
       <r>   -7.1921    1.0000 </r>
       <r>   -7.1905    1.0000 </r>
       <r>   -7.1838    1.0000 </r>
       <r>   -7.1738    1.0000 </r>
       <r>   -7.1695    1.0000 </r>
       <r>   -7.1530    1.0000 </r>
       <r>   -7.1287    1.0000 </r>
       <r>   -7.1029    1.0000 </r>
       <r>   -7.0577    1.0000 </r>
       <r>   -7.0496    1.0000 </r>
       <r>   -7.0457    1.0000 </r>
       <r>   -6.9700    1.0000 </r>
       <r>   -6.9583    1.0000 </r>
       <r>   -6.9217    1.0000 </r>
       <r>   -6.9147    1.0000 </r>
       <r>   -6.8867    1.0000 </r>
       <r>   -6.8203    1.0000 </r>
       <r>   -3.2847    1.0000 </r>
       <r>   -3.2653    1.0000 </r>
       <r>   -3.2091    1.0000 </r>
       <r>   -3.1897    1.0000 </r>
       <r>   -3.0887    1.0000 </r>
       <r>   -2.8619    1.0000 </r>
       <r>   -2.7406    1.0000 </r>
       <r>   -2.6674    1.0000 </r>
       <r>   -2.6563    1.0000 </r>
       <r>   -2.6237    1.0000 </r>
       <r>   -2.5994    1.0000 </r>
       <r>   -2.5084    1.0000 </r>
       <r>   -2.4033    1.0000 </r>
       <r>   -2.3872    1.0000 </r>
       <r>   -2.3814    1.0000 </r>
       <r>   -2.3611    1.0000 </r>
       <r>   -2.3415    1.0000 </r>
       <r>   -2.2921    1.0000 </r>
       <r>   -2.2113    1.0000 </r>
       <r>   -2.1271    1.0000 </r>
       <r>   -2.0970    1.0000 </r>
       <r>   -1.9561    1.0000 </r>
       <r>   -1.9320    1.0000 </r>
       <r>   -1.8912    1.0000 </r>
       <r>   -1.8264    1.0000 </r>
       <r>   -1.7994    1.0000 </r>
       <r>   -1.7197    1.0000 </r>
       <r>   -1.7087    1.0000 </r>
       <r>   -1.7038    1.0000 </r>
       <r>   -1.6848    1.0000 </r>
       <r>   -1.6611    1.0000 </r>
       <r>   -1.6429    1.0000 </r>
       <r>   -1.5981    1.0000 </r>
       <r>   -1.5732    1.0000 </r>
       <r>   -1.5552    1.0000 </r>
       <r>   -1.5363    1.0000 </r>
       <r>   -1.4975    1.0000 </r>
       <r>   -1.4727    1.0000 </r>
       <r>   -1.4363    1.0000 </r>
       <r>   -1.4357    1.0000 </r>
       <r>   -1.4113    1.0000 </r>
       <r>   -1.3821    1.0000 </r>
       <r>   -1.3562    1.0000 </r>
       <r>   -1.3420    1.0000 </r>
       <r>   -1.3376    1.0000 </r>
       <r>   -1.3063    1.0000 </r>
       <r>   -1.2929    1.0000 </r>
       <r>   -1.2746    1.0000 </r>
       <r>   -1.2282    1.0000 </r>
       <r>   -1.2110    1.0000 </r>
       <r>   -1.2015    1.0000 </r>
       <r>   -1.1959    1.0000 </r>
       <r>   -1.1787    1.0000 </r>
       <r>   -1.1689    1.0000 </r>
       <r>   -1.1479    1.0000 </r>
       <r>   -1.1346    1.0000 </r>
       <r>   -1.1134    1.0000 </r>
       <r>   -1.0503    1.0000 </r>
       <r>   -0.9957    1.0000 </r>
       <r>   -0.9681    1.0000 </r>
       <r>   -0.9454    1.0000 </r>
       <r>   -0.9256    1.0000 </r>
       <r>   -0.7898    1.0000 </r>
       <r>   -0.5880    1.0000 </r>
       <r>   -0.5637    1.0000 </r>
       <r>   -0.5581    1.0000 </r>
       <r>   -0.4666    1.0000 </r>
       <r>   -0.3913    1.0000 </r>
       <r>   -0.2503    1.0000 </r>
       <r>    2.7565    0.0000 </r>
       <r>    2.8899    0.0000 </r>
       <r>    2.9714    0.0000 </r>
       <r>    3.0288    0.0000 </r>
       <r>    3.1013    0.0000 </r>
       <r>    3.1568    0.0000 </r>
       <r>    3.6075    0.0000 </r>
       <r>    3.9279    0.0000 </r>
       <r>    4.2098    0.0000 </r>
       <r>    4.2580    0.0000 </r>
       <r>    4.3583    0.0000 </r>
       <r>    4.3953    0.0000 </r>
       <r>    4.5472    0.0000 </r>
       <r>    4.5549    0.0000 </r>
       <r>    4.6106    0.0000 </r>
       <r>    4.6563    0.0000 </r>
       <r>    4.7425    0.0000 </r>
       <r>    4.7999    0.0000 </r>
       <r>    4.8350    0.0000 </r>
       <r>    4.8906    0.0000 </r>
       <r>    5.5877    0.0000 </r>
       <r>    5.6796    0.0000 </r>
       <r>    5.8229    0.0000 </r>
       <r>    5.9055    0.0000 </r>
       <r>    5.9432    0.0000 </r>
       <r>    5.9785    0.0000 </r>
       <r>    6.1171    0.0000 </r>
       <r>    6.1578    0.0000 </r>
       <r>    6.1842    0.0000 </r>
       <r>    6.2374    0.0000 </r>
       <r>    6.3386    0.0000 </r>
       <r>    6.4052    0.0000 </r>
       <r>    6.4242    0.0000 </r>
       <r>    6.4678    0.0000 </r>
       <r>    6.5162    0.0000 </r>
       <r>    6.6100    0.0000 </r>
      </set>
      <set comment="kpoint 5">
       <r>  -20.9155    1.0000 </r>
       <r>  -20.8211    1.0000 </r>
       <r>  -20.8033    1.0000 </r>
       <r>  -20.7770    1.0000 </r>
       <r>  -20.7501    1.0000 </r>
       <r>  -20.6375    1.0000 </r>
       <r>  -20.4984    1.0000 </r>
       <r>  -20.4753    1.0000 </r>
       <r>  -16.8462    1.0000 </r>
       <r>  -16.7851    1.0000 </r>
       <r>  -16.7721    1.0000 </r>
       <r>  -16.7573    1.0000 </r>
       <r>  -16.7303    1.0000 </r>
       <r>  -16.7277    1.0000 </r>
       <r>  -16.7221    1.0000 </r>
       <r>  -16.6817    1.0000 </r>
       <r>  -16.6796    1.0000 </r>
       <r>  -16.6754    1.0000 </r>
       <r>  -16.6596    1.0000 </r>
       <r>  -16.6375    1.0000 </r>
       <r>  -16.6287    1.0000 </r>
       <r>  -16.6190    1.0000 </r>
       <r>  -16.6132    1.0000 </r>
       <r>  -16.6076    1.0000 </r>
       <r>  -16.5834    1.0000 </r>
       <r>  -16.5641    1.0000 </r>
       <r>  -16.5523    1.0000 </r>
       <r>  -16.4981    1.0000 </r>
       <r>  -16.4945    1.0000 </r>
       <r>  -16.4735    1.0000 </r>
       <r>  -16.4627    1.0000 </r>
       <r>  -16.4498    1.0000 </r>
       <r>  -16.4220    1.0000 </r>
       <r>  -16.4096    1.0000 </r>
       <r>  -16.3936    1.0000 </r>
       <r>  -16.3777    1.0000 </r>
       <r>  -16.3493    1.0000 </r>
       <r>  -16.3428    1.0000 </r>
       <r>  -16.3352    1.0000 </r>
       <r>  -16.3270    1.0000 </r>
       <r>  -16.3247    1.0000 </r>
       <r>  -16.3207    1.0000 </r>
       <r>  -16.3162    1.0000 </r>
       <r>  -16.3143    1.0000 </r>
       <r>  -16.3074    1.0000 </r>
       <r>  -16.2886    1.0000 </r>
       <r>  -16.2838    1.0000 </r>
       <r>  -16.2742    1.0000 </r>
       <r>  -14.7109    1.0000 </r>
       <r>  -14.4596    1.0000 </r>
       <r>  -14.3678    1.0000 </r>
       <r>  -14.3152    1.0000 </r>
       <r>  -14.1917    1.0000 </r>
       <r>  -14.1842    1.0000 </r>
       <r>  -14.1231    1.0000 </r>
       <r>  -14.1206    1.0000 </r>
       <r>  -14.1041    1.0000 </r>
       <r>  -14.0907    1.0000 </r>
       <r>  -14.0791    1.0000 </r>
       <r>  -14.0379    1.0000 </r>
       <r>  -14.0267    1.0000 </r>
       <r>  -14.0212    1.0000 </r>
       <r>  -14.0076    1.0000 </r>
       <r>  -13.9950    1.0000 </r>
       <r>  -13.9091    1.0000 </r>
       <r>  -13.8782    1.0000 </r>
       <r>  -13.8608    1.0000 </r>
       <r>  -13.8317    1.0000 </r>
       <r>  -13.7857    1.0000 </r>
       <r>  -13.6561    1.0000 </r>
       <r>  -13.0568    1.0000 </r>
       <r>   -8.0398    1.0000 </r>
       <r>   -8.0317    1.0000 </r>
       <r>   -7.7096    1.0000 </r>
       <r>   -7.5680    1.0000 </r>
       <r>   -7.5063    1.0000 </r>
       <r>   -7.4776    1.0000 </r>
       <r>   -7.3368    1.0000 </r>
       <r>   -7.3129    1.0000 </r>
       <r>   -7.2834    1.0000 </r>
       <r>   -7.2574    1.0000 </r>
       <r>   -7.2345    1.0000 </r>
       <r>   -7.2284    1.0000 </r>
       <r>   -7.2184    1.0000 </r>
       <r>   -7.2032    1.0000 </r>
       <r>   -7.1993    1.0000 </r>
       <r>   -7.1926    1.0000 </r>
       <r>   -7.1883    1.0000 </r>
       <r>   -7.1846    1.0000 </r>
       <r>   -7.1683    1.0000 </r>
       <r>   -7.1574    1.0000 </r>
       <r>   -7.1432    1.0000 </r>
       <r>   -7.1281    1.0000 </r>
       <r>   -7.0527    1.0000 </r>
       <r>   -7.0502    1.0000 </r>
       <r>   -7.0434    1.0000 </r>
       <r>   -6.9831    1.0000 </r>
       <r>   -6.9617    1.0000 </r>
       <r>   -6.9317    1.0000 </r>
       <r>   -6.9189    1.0000 </r>
       <r>   -6.8879    1.0000 </r>
       <r>   -6.8424    1.0000 </r>
       <r>   -6.8057    1.0000 </r>
       <r>   -3.3908    1.0000 </r>
       <r>   -3.3363    1.0000 </r>
       <r>   -3.2727    1.0000 </r>
       <r>   -3.2279    1.0000 </r>
       <r>   -3.2014    1.0000 </r>
       <r>   -3.1625    1.0000 </r>
       <r>   -3.0132    1.0000 </r>
       <r>   -2.8382    1.0000 </r>
       <r>   -2.6688    1.0000 </r>
       <r>   -2.5612    1.0000 </r>
       <r>   -2.5463    1.0000 </r>
       <r>   -2.5006    1.0000 </r>
       <r>   -2.4424    1.0000 </r>
       <r>   -2.4043    1.0000 </r>
       <r>   -2.3895    1.0000 </r>
       <r>   -2.3214    1.0000 </r>
       <r>   -2.2142    1.0000 </r>
       <r>   -2.1295    1.0000 </r>
       <r>   -2.0905    1.0000 </r>
       <r>   -2.0527    1.0000 </r>
       <r>   -1.9991    1.0000 </r>
       <r>   -1.9727    1.0000 </r>
       <r>   -1.9452    1.0000 </r>
       <r>   -1.8465    1.0000 </r>
       <r>   -1.8111    1.0000 </r>
       <r>   -1.8038    1.0000 </r>
       <r>   -1.7511    1.0000 </r>
       <r>   -1.7163    1.0000 </r>
       <r>   -1.7019    1.0000 </r>
       <r>   -1.6135    1.0000 </r>
       <r>   -1.5867    1.0000 </r>
       <r>   -1.5741    1.0000 </r>
       <r>   -1.5514    1.0000 </r>
       <r>   -1.5389    1.0000 </r>
       <r>   -1.5007    1.0000 </r>
       <r>   -1.4661    1.0000 </r>
       <r>   -1.4567    1.0000 </r>
       <r>   -1.4345    1.0000 </r>
       <r>   -1.4279    1.0000 </r>
       <r>   -1.4216    1.0000 </r>
       <r>   -1.3969    1.0000 </r>
       <r>   -1.3911    1.0000 </r>
       <r>   -1.3738    1.0000 </r>
       <r>   -1.3572    1.0000 </r>
       <r>   -1.3531    1.0000 </r>
       <r>   -1.3339    1.0000 </r>
       <r>   -1.3196    1.0000 </r>
       <r>   -1.3079    1.0000 </r>
       <r>   -1.2905    1.0000 </r>
       <r>   -1.2596    1.0000 </r>
       <r>   -1.2408    1.0000 </r>
       <r>   -1.2302    1.0000 </r>
       <r>   -1.2284    1.0000 </r>
       <r>   -1.1723    1.0000 </r>
       <r>   -1.1431    1.0000 </r>
       <r>   -1.1311    1.0000 </r>
       <r>   -1.0582    1.0000 </r>
       <r>   -1.0398    1.0000 </r>
       <r>   -0.9986    1.0000 </r>
       <r>   -0.9765    1.0000 </r>
       <r>   -0.9447    1.0000 </r>
       <r>   -0.9285    1.0000 </r>
       <r>   -0.6340    1.0000 </r>
       <r>   -0.6190    1.0000 </r>
       <r>   -0.5211    1.0000 </r>
       <r>   -0.5174    1.0000 </r>
       <r>   -0.4839    1.0000 </r>
       <r>   -0.1786    1.0000 </r>
       <r>    0.0493    1.0000 </r>
       <r>    2.6517    0.0000 </r>
       <r>    2.7649    0.0000 </r>
       <r>    2.9047    0.0000 </r>
       <r>    2.9266    0.0000 </r>
       <r>    2.9338    0.0000 </r>
       <r>    3.3177    0.0000 </r>
       <r>    3.3371    0.0000 </r>
       <r>    3.3585    0.0000 </r>
       <r>    3.9743    0.0000 </r>
       <r>    4.1278    0.0000 </r>
       <r>    4.2429    0.0000 </r>
       <r>    4.3460    0.0000 </r>
       <r>    4.3999    0.0000 </r>
       <r>    4.4800    0.0000 </r>
       <r>    4.5534    0.0000 </r>
       <r>    4.5708    0.0000 </r>
       <r>    4.7153    0.0000 </r>
       <r>    4.8878    0.0000 </r>
       <r>    5.2418    0.0000 </r>
       <r>    5.4413    0.0000 </r>
       <r>    5.5820    0.0000 </r>
       <r>    5.6329    0.0000 </r>
       <r>    5.6853    0.0000 </r>
       <r>    5.9147    0.0000 </r>
       <r>    6.0066    0.0000 </r>
       <r>    6.1065    0.0000 </r>
       <r>    6.1656    0.0000 </r>
       <r>    6.2418    0.0000 </r>
       <r>    6.2837    0.0000 </r>
       <r>    6.3377    0.0000 </r>
       <r>    6.4100    0.0000 </r>
       <r>    6.4798    0.0000 </r>
       <r>    6.5127    0.0000 </r>
       <r>    6.5763    0.0000 </r>
       <r>    6.6274    0.0000 </r>
       <r>    6.6815    0.0000 </r>
      </set>
      <set comment="kpoint 6">
       <r>  -20.9155    1.0000 </r>
       <r>  -20.8211    1.0000 </r>
       <r>  -20.8033    1.0000 </r>
       <r>  -20.7769    1.0000 </r>
       <r>  -20.7501    1.0000 </r>
       <r>  -20.6374    1.0000 </r>
       <r>  -20.4984    1.0000 </r>
       <r>  -20.4753    1.0000 </r>
       <r>  -16.8462    1.0000 </r>
       <r>  -16.7850    1.0000 </r>
       <r>  -16.7720    1.0000 </r>
       <r>  -16.7573    1.0000 </r>
       <r>  -16.7302    1.0000 </r>
       <r>  -16.7275    1.0000 </r>
       <r>  -16.7220    1.0000 </r>
       <r>  -16.6817    1.0000 </r>
       <r>  -16.6796    1.0000 </r>
       <r>  -16.6754    1.0000 </r>
       <r>  -16.6596    1.0000 </r>
       <r>  -16.6376    1.0000 </r>
       <r>  -16.6288    1.0000 </r>
       <r>  -16.6189    1.0000 </r>
       <r>  -16.6132    1.0000 </r>
       <r>  -16.6077    1.0000 </r>
       <r>  -16.5834    1.0000 </r>
       <r>  -16.5641    1.0000 </r>
       <r>  -16.5523    1.0000 </r>
       <r>  -16.4981    1.0000 </r>
       <r>  -16.4870    1.0000 </r>
       <r>  -16.4634    1.0000 </r>
       <r>  -16.4561    1.0000 </r>
       <r>  -16.4380    1.0000 </r>
       <r>  -16.4322    1.0000 </r>
       <r>  -16.4144    1.0000 </r>
       <r>  -16.4067    1.0000 </r>
       <r>  -16.3875    1.0000 </r>
       <r>  -16.3493    1.0000 </r>
       <r>  -16.3428    1.0000 </r>
       <r>  -16.3352    1.0000 </r>
       <r>  -16.3270    1.0000 </r>
       <r>  -16.3247    1.0000 </r>
       <r>  -16.3207    1.0000 </r>
       <r>  -16.3162    1.0000 </r>
       <r>  -16.3143    1.0000 </r>
       <r>  -16.3075    1.0000 </r>
       <r>  -16.2886    1.0000 </r>
       <r>  -16.2838    1.0000 </r>
       <r>  -16.2743    1.0000 </r>
       <r>  -14.7107    1.0000 </r>
       <r>  -14.4590    1.0000 </r>
       <r>  -14.3237    1.0000 </r>
       <r>  -14.3148    1.0000 </r>
       <r>  -14.3059    1.0000 </r>
       <r>  -14.1728    1.0000 </r>
       <r>  -14.1524    1.0000 </r>
       <r>  -14.1225    1.0000 </r>
       <r>  -14.0999    1.0000 </r>
       <r>  -14.0862    1.0000 </r>
       <r>  -14.0416    1.0000 </r>
       <r>  -14.0238    1.0000 </r>
       <r>  -14.0075    1.0000 </r>
       <r>  -13.9941    1.0000 </r>
       <r>  -13.9509    1.0000 </r>
       <r>  -13.9444    1.0000 </r>
       <r>  -13.9406    1.0000 </r>
       <r>  -13.9268    1.0000 </r>
       <r>  -13.8523    1.0000 </r>
       <r>  -13.8379    1.0000 </r>
       <r>  -13.8302    1.0000 </r>
       <r>  -13.6559    1.0000 </r>
       <r>  -13.0568    1.0000 </r>
       <r>   -8.0425    1.0000 </r>
       <r>   -7.7999    1.0000 </r>
       <r>   -7.7905    1.0000 </r>
       <r>   -7.7016    1.0000 </r>
       <r>   -7.5597    1.0000 </r>
       <r>   -7.3420    1.0000 </r>
       <r>   -7.3382    1.0000 </r>
       <r>   -7.2959    1.0000 </r>
       <r>   -7.2826    1.0000 </r>
       <r>   -7.2618    1.0000 </r>
       <r>   -7.2310    1.0000 </r>
       <r>   -7.2237    1.0000 </r>
       <r>   -7.2174    1.0000 </r>
       <r>   -7.2102    1.0000 </r>
       <r>   -7.2035    1.0000 </r>
       <r>   -7.1903    1.0000 </r>
       <r>   -7.1890    1.0000 </r>
       <r>   -7.1723    1.0000 </r>
       <r>   -7.1701    1.0000 </r>
       <r>   -7.1586    1.0000 </r>
[...]
        <r>  0.0020  0.0030  0.0017 </r>
        <r>  0.0002  0.0013  0.0007 </r>
        <r>  0.0035  0.0017  0.0030 </r>
        <r>  0.0001  0.0008  0.0005 </r>
        <r>  0.0006  0.0029  0.0003 </r>
        <r>  0.0014  0.0015  0.0009 </r>
        <r>  0.0001  0.0026  0.0005 </r>
        <r>  0.0001  0.0021  0.0014 </r>
        <r>  0.0000  0.0004  0.0014 </r>
       </set>
       <set comment="band 199">
        <r>  0.0003  0.0002  0.0153 </r>
        <r>  0.0050  0.0009  0.0163 </r>
        <r>  0.0028  0.0006  0.0106 </r>
        <r>  0.0005  0.0002  0.0005 </r>
        <r>  0.0011  0.0002  0.0022 </r>
        <r>  0.0012  0.0012  0.0354 </r>
        <r>  0.0000  0.0002  0.0006 </r>
        <r>  0.0000  0.0002  0.0052 </r>
        <r>  0.0000  0.0007  0.0002 </r>
        <r>  0.0003  0.0030  0.0002 </r>
        <r>  0.0000  0.0004  0.0002 </r>
        <r>  0.0000  0.0039  0.0004 </r>
        <r>  0.0000  0.0012  0.0002 </r>
        <r>  0.0000  0.0075  0.0003 </r>
        <r>  0.0000  0.0042  0.0001 </r>
        <r>  0.0001  0.0102  0.0004 </r>
        <r>  0.0001  0.0002  0.0003 </r>
        <r>  0.0003  0.0012  0.0005 </r>
        <r>  0.0000  0.0027  0.0030 </r>
        <r>  0.0001  0.0004  0.0020 </r>
        <r>  0.0000  0.0005  0.0002 </r>
        <r>  0.0000  0.0009  0.0001 </r>
        <r>  0.0005  0.0058  0.0040 </r>
        <r>  0.0000  0.0012  0.0018 </r>
        <r>  0.0000  0.0007  0.0002 </r>
        <r>  0.0014  0.0015  0.0013 </r>
        <r>  0.0002  0.0011  0.0005 </r>
        <r>  0.0006  0.0006  0.0004 </r>
        <r>  0.0003  0.0006  0.0015 </r>
        <r>  0.0012  0.0011  0.0018 </r>
        <r>  0.0003  0.0018  0.0005 </r>
        <r>  0.0001  0.0006  0.0004 </r>
        <r>  0.0002  0.0010  0.0005 </r>
        <r>  0.0000  0.0023  0.0004 </r>
        <r>  0.0000  0.0071  0.0017 </r>
        <r>  0.0006  0.0064  0.0006 </r>
        <r>  0.0005  0.0001  0.0008 </r>
        <r>  0.0013  0.0009  0.0014 </r>
        <r>  0.0009  0.0002  0.0039 </r>
       </set>
       <set comment="band 200">
        <r>  0.0005  0.0004  0.0037 </r>
        <r>  0.0006  0.0008  0.0006 </r>
        <r>  0.0000  0.0011  0.0061 </r>
        <r>  0.0004  0.0006  0.0075 </r>
        <r>  0.0113  0.0004  0.0188 </r>
        <r>  0.0017  0.0005  0.0051 </r>
        <r>  0.0040  0.0005  0.0090 </r>
        <r>  0.0008  0.0006  0.0129 </r>
        <r>  0.0001  0.0042  0.0003 </r>
        <r>  0.0003  0.0054  0.0005 </r>
        <r>  0.0000  0.0087  0.0002 </r>
        <r>  0.0005  0.0065  0.0003 </r>
        <r>  0.0000  0.0017  0.0001 </r>
        <r>  0.0002  0.0024  0.0002 </r>
        <r>  0.0000  0.0012  0.0000 </r>
        <r>  0.0000  0.0109  0.0000 </r>
        <r>  0.0007  0.0013  0.0006 </r>
        <r>  0.0000  0.0045  0.0008 </r>
        <r>  0.0000  0.0026  0.0007 </r>
        <r>  0.0003  0.0030  0.0007 </r>
        <r>  0.0003  0.0006  0.0004 </r>
        <r>  0.0001  0.0040  0.0007 </r>
        <r>  0.0003  0.0009  0.0005 </r>
        <r>  0.0009  0.0021  0.0017 </r>
        <r>  0.0002  0.0023  0.0022 </r>
        <r>  0.0001  0.0017  0.0010 </r>
        <r>  0.0012  0.0001  0.0015 </r>
        <r>  0.0020  0.0005  0.0042 </r>
        <r>  0.0024  0.0002  0.0014 </r>
        <r>  0.0012  0.0005  0.0010 </r>
        <r>  0.0041  0.0003  0.0031 </r>
        <r>  0.0004  0.0025  0.0013 </r>
        <r>  0.0000  0.0080  0.0006 </r>
        <r>  0.0000  0.0031  0.0009 </r>
        <r>  0.0000  0.0048  0.0004 </r>
        <r>  0.0006  0.0025  0.0012 </r>
        <r>  0.0005  0.0013  0.0011 </r>
        <r>  0.0000  0.0014  0.0002 </r>
        <r>  0.0000  0.0014  0.0001 </r>
       </set>
       <set comment="band 201">
        <r>  0.0001  0.0002  0.0007 </r>
        <r>  0.0000  0.0001  0.0049 </r>
        <r>  0.0028  0.0015  0.0112 </r>
        <r>  0.0119  0.0011  0.0129 </r>
        <r>  0.0000  0.0000  0.0076 </r>
        <r>  0.0000  0.0004  0.0024 </r>
        <r>  0.0006  0.0027  0.0102 </r>
        <r>  0.0062  0.0006  0.0037 </r>
        <r>  0.0000  0.0051  0.0004 </r>
        <r>  0.0000  0.0059  0.0001 </r>
        <r>  0.0000  0.0088  0.0002 </r>
        <r>  0.0000  0.0016  0.0003 </r>
        <r>  0.0000  0.0080  0.0001 </r>
        <r>  0.0000  0.0014  0.0002 </r>
        <r>  0.0000  0.0046  0.0004 </r>
        <r>  0.0000  0.0061  0.0001 </r>
        <r>  0.0026  0.0054  0.0044 </r>
        <r>  0.0005  0.0018  0.0009 </r>
        <r>  0.0000  0.0057  0.0005 </r>
        <r>  0.0000  0.0025  0.0002 </r>
        <r>  0.0031  0.0012  0.0037 </r>
        <r>  0.0010  0.0015  0.0035 </r>
        <r>  0.0000  0.0036  0.0001 </r>
        <r>  0.0000  0.0012  0.0005 </r>
        <r>  0.0005  0.0005  0.0008 </r>
        <r>  0.0001  0.0029  0.0006 </r>
        <r>  0.0000  0.0005  0.0010 </r>
        <r>  0.0011  0.0020  0.0011 </r>
        <r>  0.0005  0.0008  0.0002 </r>
        <r>  0.0009  0.0032  0.0015 </r>
        <r>  0.0002  0.0039  0.0014 </r>
        <r>  0.0006  0.0004  0.0011 </r>
        <r>  0.0003  0.0032  0.0006 </r>
        <r>  0.0002  0.0009  0.0010 </r>
        <r>  0.0005  0.0016  0.0014 </r>
        <r>  0.0001  0.0035  0.0013 </r>
        <r>  0.0008  0.0021  0.0012 </r>
        <r>  0.0002  0.0005  0.0001 </r>
        <r>  0.0000  0.0001  0.0001 </r>
       </set>
       <set comment="band 202">
        <r>  0.0000  0.0002  0.0056 </r>
        <r>  0.0006  0.0007  0.0008 </r>
        <r>  0.0020  0.0019  0.0099 </r>
        <r>  0.0024  0.0010  0.0036 </r>
        <r>  0.0070  0.0004  0.0086 </r>
        <r>  0.0009  0.0007  0.0054 </r>
        <r>  0.0076  0.0003  0.0107 </r>
        <r>  0.0019  0.0005  0.0147 </r>
        <r>  0.0000  0.0011  0.0001 </r>
        <r>  0.0000  0.0035  0.0002 </r>
        <r>  0.0000  0.0038  0.0001 </r>
        <r>  0.0000  0.0031  0.0001 </r>
        <r>  0.0000  0.0058  0.0004 </r>
        <r>  0.0002  0.0065  0.0006 </r>
        <r>  0.0000  0.0069  0.0001 </r>
        <r>  0.0003  0.0041  0.0007 </r>
        <r>  0.0020  0.0018  0.0018 </r>
        <r>  0.0000  0.0024  0.0021 </r>
        <r>  0.0001  0.0031  0.0006 </r>
        <r>  0.0001  0.0039  0.0004 </r>
        <r>  0.0010  0.0016  0.0012 </r>
        <r>  0.0005  0.0036  0.0017 </r>
        <r>  0.0007  0.0022  0.0007 </r>
        <r>  0.0004  0.0016  0.0013 </r>
        <r>  0.0004  0.0027  0.0009 </r>
        <r>  0.0001  0.0066  0.0010 </r>
        <r>  0.0000  0.0045  0.0007 </r>
        <r>  0.0001  0.0013  0.0003 </r>
        <r>  0.0004  0.0010  0.0003 </r>
        <r>  0.0003  0.0047  0.0008 </r>
        <r>  0.0003  0.0015  0.0007 </r>
        <r>  0.0001  0.0016  0.0010 </r>
        <r>  0.0000  0.0008  0.0013 </r>
        <r>  0.0006  0.0004  0.0012 </r>
        <r>  0.0020  0.0014  0.0018 </r>
        <r>  0.0037  0.0010  0.0026 </r>
        <r>  0.0019  0.0005  0.0026 </r>
        <r>  0.0014  0.0001  0.0013 </r>
        <r>  0.0000  0.0018  0.0002 </r>
       </set>
       <set comment="band 203">
        <r>  0.0027  0.0007  0.0175 </r>
        <r>  0.0022  0.0010  0.0057 </r>
        <r>  0.0003  0.0001  0.0091 </r>
        <r>  0.0002  0.0012  0.0093 </r>
        <r>  0.0046  0.0005  0.0075 </r>
        <r>  0.0043  0.0003  0.0030 </r>
        <r>  0.0012  0.0006  0.0033 </r>
        <r>  0.0006  0.0010  0.0199 </r>
        <r>  0.0000  0.0032  0.0002 </r>
        <r>  0.0000  0.0027  0.0003 </r>
        <r>  0.0000  0.0099  0.0003 </r>
        <r>  0.0000  0.0116  0.0002 </r>
        <r>  0.0000  0.0021  0.0002 </r>
        <r>  0.0000  0.0013  0.0003 </r>
        <r>  0.0001  0.0043  0.0008 </r>
        <r>  0.0000  0.0016  0.0004 </r>
        <r>  0.0003  0.0019  0.0009 </r>
        <r>  0.0001  0.0005  0.0002 </r>
        <r>  0.0009  0.0012  0.0017 </r>
        <r>  0.0001  0.0030  0.0016 </r>
        <r>  0.0000  0.0051  0.0013 </r>
        <r>  0.0006  0.0009  0.0007 </r>
        <r>  0.0002  0.0040  0.0008 </r>
        <r>  0.0000  0.0018  0.0001 </r>
        <r>  0.0007  0.0014  0.0011 </r>
        <r>  0.0000  0.0007  0.0016 </r>
        <r>  0.0001  0.0016  0.0004 </r>
        <r>  0.0002  0.0017  0.0010 </r>
        <r>  0.0005  0.0034  0.0018 </r>
        <r>  0.0012  0.0044  0.0009 </r>
        <r>  0.0000  0.0005  0.0009 </r>
        <r>  0.0042  0.0018  0.0044 </r>
        <r>  0.0002  0.0036  0.0010 </r>
        <r>  0.0010  0.0027  0.0015 </r>
        <r>  0.0009  0.0029  0.0010 </r>
        <r>  0.0001  0.0008  0.0021 </r>
        <r>  0.0001  0.0011  0.0007 </r>
        <r>  0.0018  0.0003  0.0022 </r>
        <r>  0.0002  0.0024  0.0003 </r>
       </set>
       <set comment="band 204">
        <r>  0.0033  0.0001  0.0086 </r>
        <r>  0.0007  0.0008  0.0032 </r>
        <r>  0.0003  0.0002  0.0156 </r>
        <r>  0.0011  0.0007  0.0159 </r>
        <r>  0.0026  0.0006  0.0067 </r>
        <r>  0.0000  0.0010  0.0093 </r>
        <r>  0.0061  0.0002  0.0055 </r>
        <r>  0.0004  0.0013  0.0159 </r>
        <r>  0.0001  0.0086  0.0006 </r>
        <r>  0.0001  0.0085  0.0002 </r>
        <r>  0.0000  0.0020  0.0004 </r>
        <r>  0.0000  0.0007  0.0002 </r>
        <r>  0.0000  0.0101  0.0002 </r>
        <r>  0.0000  0.0104  0.0002 </r>
        <r>  0.0001  0.0045  0.0002 </r>
        <r>  0.0001  0.0014  0.0001 </r>
        <r>  0.0002  0.0048  0.0010 </r>
        <r>  0.0004  0.0002  0.0005 </r>
        <r>  0.0004  0.0018  0.0010 </r>
        <r>  0.0000  0.0020  0.0007 </r>
        <r>  0.0004  0.0022  0.0023 </r>
        <r>  0.0021  0.0007  0.0010 </r>
        <r>  0.0003  0.0014  0.0008 </r>
        <r>  0.0001  0.0007  0.0004 </r>
        <r>  0.0032  0.0028  0.0033 </r>
        <r>  0.0001  0.0013  0.0005 </r>
        <r>  0.0007  0.0025  0.0021 </r>
        <r>  0.0005  0.0013  0.0016 </r>
        <r>  0.0013  0.0025  0.0016 </r>
        <r>  0.0001  0.0030  0.0011 </r>
        <r>  0.0000  0.0009  0.0015 </r>
        <r>  0.0000  0.0028  0.0003 </r>
        <r>  0.0007  0.0007  0.0030 </r>
        <r>  0.0000  0.0015  0.0007 </r>
        <r>  0.0020  0.0030  0.0021 </r>
        <r>  0.0000  0.0014  0.0006 </r>
        <r>  0.0004  0.0020  0.0012 </r>
        <r>  0.0000  0.0055  0.0005 </r>
        <r>  0.0001  0.0005  0.0003 </r>
       </set>
       <set comment="band 205">
        <r>  0.0009  0.0014  0.0276 </r>
        <r>  0.0000  0.0003  0.0046 </r>
        <r>  0.0003  0.0011  0.0057 </r>
        <r>  0.0000  0.0002  0.0092 </r>
        <r>  0.0011  0.0019  0.0337 </r>
        <r>  0.0064  0.0001  0.0116 </r>
        <r>  0.0002  0.0001  0.0064 </r>
        <r>  0.0000  0.0000  0.0088 </r>
        <r>  0.0000  0.0029  0.0002 </r>
        <r>  0.0000  0.0037  0.0003 </r>
        <r>  0.0000  0.0045  0.0002 </r>
        <r>  0.0000  0.0130  0.0002 </r>
        <r>  0.0000  0.0074  0.0002 </r>
        <r>  0.0000  0.0131  0.0005 </r>
        <r>  0.0002  0.0016  0.0004 </r>
        <r>  0.0000  0.0034  0.0002 </r>
        <r>  0.0000  0.0042  0.0002 </r>
        <r>  0.0002  0.0004  0.0003 </r>
        <r>  0.0004  0.0018  0.0001 </r>
        <r>  0.0000  0.0014  0.0018 </r>
        <r>  0.0001  0.0004  0.0003 </r>
        <r>  0.0001  0.0011  0.0001 </r>
        <r>  0.0020  0.0006  0.0059 </r>
        <r>  0.0003  0.0016  0.0009 </r>
        <r>  0.0001  0.0035  0.0040 </r>
        <r>  0.0000  0.0006  0.0007 </r>
        <r>  0.0001  0.0015  0.0002 </r>
        <r>  0.0001  0.0004  0.0004 </r>
        <r>  0.0005  0.0009  0.0015 </r>
        <r>  0.0015  0.0003  0.0013 </r>
        <r>  0.0006  0.0029  0.0015 </r>
        <r>  0.0007  0.0033  0.0043 </r>
        <r>  0.0000  0.0004  0.0007 </r>
        <r>  0.0000  0.0007  0.0002 </r>
        <r>  0.0012  0.0014  0.0011 </r>
        <r>  0.0000  0.0047  0.0021 </r>
        <r>  0.0002  0.0009  0.0001 </r>
        <r>  0.0001  0.0011  0.0012 </r>
        <r>  0.0001  0.0010  0.0007 </r>
       </set>
       <set comment="band 206">
        <r>  0.0018  0.0005  0.0056 </r>
        <r>  0.0000  0.0002  0.0016 </r>
        <r>  0.0001  0.0013  0.0342 </r>
        <r>  0.0000  0.0001  0.0054 </r>
        <r>  0.0003  0.0012  0.0129 </r>
        <r>  0.0009  0.0002  0.0169 </r>
        <r>  0.0028  0.0003  0.0111 </r>
        <r>  0.0000  0.0005  0.0180 </r>
        <r>  0.0000  0.0015  0.0004 </r>
        <r>  0.0001  0.0044  0.0007 </r>
        <r>  0.0000  0.0078  0.0002 </r>
        <r>  0.0000  0.0055  0.0003 </r>
        <r>  0.0001  0.0005  0.0014 </r>
        <r>  0.0000  0.0044  0.0008 </r>
        <r>  0.0000  0.0025  0.0001 </r>
        <r>  0.0000  0.0087  0.0003 </r>
        <r>  0.0001  0.0019  0.0006 </r>
        <r>  0.0001  0.0012  0.0011 </r>
        <r>  0.0001  0.0001  0.0006 </r>
        <r>  0.0002  0.0022  0.0019 </r>
        <r>  0.0000  0.0006  0.0011 </r>
        <r>  0.0017  0.0005  0.0023 </r>
        <r>  0.0017  0.0008  0.0033 </r>
        <r>  0.0007  0.0017  0.0007 </r>
        <r>  0.0000  0.0011  0.0010 </r>
        <r>  0.0002  0.0013  0.0017 </r>
        <r>  0.0004  0.0005  0.0009 </r>
        <r>  0.0000  0.0008  0.0002 </r>
        <r>  0.0005  0.0012  0.0011 </r>
        <r>  0.0005  0.0004  0.0013 </r>
        <r>  0.0001  0.0013  0.0008 </r>
        <r>  0.0000  0.0012  0.0008 </r>
        <r>  0.0013  0.0019  0.0028 </r>
        <r>  0.0000  0.0005  0.0005 </r>
        <r>  0.0000  0.0034  0.0013 </r>
        <r>  0.0006  0.0023  0.0011 </r>
        <r>  0.0007  0.0008  0.0019 </r>
        <r>  0.0001  0.0006  0.0021 </r>
        <r>  0.0012  0.0009  0.0005 </r>
       </set>
       <set comment="band 207">
        <r>  0.0010  0.0001  0.0043 </r>
        <r>  0.0022  0.0007  0.0066 </r>
        <r>  0.0004  0.0012  0.0283 </r>
        <r>  0.0017  0.0001  0.0281 </r>
        <r>  0.0002  0.0000  0.0193 </r>
        <r>  0.0000  0.0002  0.0082 </r>
        <r>  0.0006  0.0011  0.0083 </r>
        <r>  0.0000  0.0002  0.0139 </r>
        <r>  0.0000  0.0044  0.0003 </r>
        <r>  0.0001  0.0007  0.0001 </r>
        <r>  0.0000  0.0027  0.0007 </r>
        <r>  0.0000  0.0034  0.0008 </r>
        <r>  0.0001  0.0027  0.0003 </r>
        <r>  0.0000  0.0054  0.0003 </r>
        <r>  0.0000  0.0088  0.0004 </r>
        <r>  0.0000  0.0014  0.0002 </r>
        <r>  0.0007  0.0004  0.0035 </r>
        <r>  0.0008  0.0007  0.0023 </r>
        <r>  0.0002  0.0002  0.0006 </r>
        <r>  0.0001  0.0003  0.0009 </r>
        <r>  0.0000  0.0013  0.0005 </r>
        <r>  0.0001  0.0011  0.0015 </r>
        <r>  0.0002  0.0011  0.0011 </r>
        <r>  0.0015  0.0014  0.0015 </r>
        <r>  0.0010  0.0030  0.0019 </r>
        <r>  0.0001  0.0021  0.0014 </r>
        <r>  0.0002  0.0004  0.0011 </r>
        <r>  0.0000  0.0019  0.0019 </r>
        <r>  0.0000  0.0034  0.0009 </r>
        <r>  0.0000  0.0033  0.0023 </r>
        <r>  0.0003  0.0019  0.0019 </r>
        <r>  0.0002  0.0001  0.0009 </r>
        <r>  0.0004  0.0006  0.0006 </r>
        <r>  0.0011  0.0008  0.0026 </r>
        <r>  0.0009  0.0009  0.0013 </r>
        <r>  0.0002  0.0006  0.0005 </r>
        <r>  0.0000  0.0010  0.0018 </r>
        <r>  0.0002  0.0015  0.0008 </r>
        <r>  0.0001  0.0002  0.0003 </r>
       </set>
       <set comment="band 208">
        <r>  0.0041  0.0001  0.0027 </r>
        <r>  0.0033  0.0003  0.0114 </r>
        <r>  0.0001  0.0007  0.0215 </r>
        <r>  0.0014  0.0001  0.0254 </r>
        <r>  0.0002  0.0004  0.0118 </r>
        <r>  0.0006  0.0002  0.0064 </r>
        <r>  0.0004  0.0019  0.0147 </r>
        <r>  0.0000  0.0003  0.0077 </r>
        <r>  0.0000  0.0097  0.0004 </r>
        <r>  0.0002  0.0025  0.0003 </r>
        <r>  0.0001  0.0006  0.0005 </r>
        <r>  0.0000  0.0042  0.0002 </r>
        <r>  0.0000  0.0079  0.0002 </r>
        <r>  0.0000  0.0037  0.0001 </r>
        <r>  0.0000  0.0062  0.0006 </r>
        <r>  0.0000  0.0048  0.0001 </r>
        <r>  0.0009  0.0028  0.0025 </r>
        <r>  0.0003  0.0015  0.0005 </r>
        <r>  0.0000  0.0006  0.0013 </r>
        <r>  0.0006  0.0001  0.0020 </r>
        <r>  0.0000  0.0020  0.0005 </r>
        <r>  0.0001  0.0017  0.0013 </r>
        <r>  0.0005  0.0026  0.0009 </r>
        <r>  0.0005  0.0013  0.0007 </r>
        <r>  0.0001  0.0006  0.0013 </r>
        <r>  0.0012  0.0014  0.0012 </r>
        <r>  0.0023  0.0010  0.0041 </r>
        <r>  0.0003  0.0015  0.0019 </r>
        <r>  0.0004  0.0012  0.0008 </r>
        <r>  0.0008  0.0026  0.0015 </r>
        <r>  0.0000  0.0016  0.0005 </r>
        <r>  0.0007  0.0020  0.0020 </r>
        <r>  0.0005  0.0012  0.0006 </r>
        <r>  0.0005  0.0002  0.0015 </r>
        <r>  0.0000  0.0025  0.0023 </r>
        <r>  0.0000  0.0027  0.0007 </r>
        <r>  0.0003  0.0020  0.0025 </r>
        <r>  0.0001  0.0028  0.0005 </r>
        <r>  0.0002  0.0018  0.0005 </r>
       </set>
      </set>
     </set>
    </set>
   </array>
  </projected>
 </calculation>
 <structure name="finalpos" >
  <crystal>
   <varray name="basis" >
    <v>       8.45648900       0.00000000       8.04030100 </v>
    <v>       0.00000000      11.72984700       0.00000000 </v>
    <v>      -8.45648900       0.00000000       8.04030100 </v>
   </varray>
   <i name="volume">   1595.08833419 </i>
   <varray name="rec_basis" >
    <v>       0.05912619      -0.00000000       0.06218673 </v>
    <v>       0.00000000       0.08525260      -0.00000000 </v>
    <v>      -0.05912619       0.00000000       0.06218673 </v>
   </varray>
  </crystal>
  <varray name="positions" >
   <v>       0.27202900       0.24970000       0.18668300 </v>
   <v>       0.77119400       0.25393400       0.75347800 </v>
   <v>       0.70638000       0.74922100       0.25054700 </v>
   <v>       0.21164300       0.74672000       0.78445600 </v>
   <v>       0.27358000       0.25556300       0.74562200 </v>
   <v>       0.80258100       0.24984800       0.21705900 </v>
   <v>       0.72397300       0.74965000       0.78241900 </v>
   <v>       0.24129900       0.74323100       0.28739100 </v>
   <v>       0.00484700       0.99594800       0.99956000 </v>
   <v>       0.49140800       0.02972900       0.49548700 </v>
   <v>       0.50362000       0.00170900       0.99559000 </v>
   <v>       0.02480600       0.99519500       0.50279900 </v>
   <v>       0.50399100       0.49955400       0.99622600 </v>
   <v>       0.00229600       0.49699600       0.50061700 </v>
   <v>       0.00409900       0.50296500       0.00071300 </v>
   <v>       0.49168600       0.48768500       0.49696100 </v>
   <v>       0.48109200       0.75087800       0.97237100 </v>
   <v>       0.96580400       0.75304700       0.45488400 </v>
   <v>       0.99470000       0.24959300       0.97405800 </v>
   <v>       0.39725800       0.24586100       0.47188600 </v>
   <v>       0.03389600       0.74970300       0.04168100 </v>
   <v>       0.55026300       0.73484200       0.51163900 </v>
   <v>       0.53755800       0.25022200       0.02554300 </v>
   <v>       0.01306900       0.24815700       0.54865100 </v>
   <v>       0.25176400       0.47851200       0.95327400 </v>
   <v>       0.45902600       0.52173200       0.24501500 </v>
   <v>       0.94886400       0.53580800       0.74713300 </v>
   <v>       0.54933200       0.03384800       0.74561500 </v>
   <v>       0.05455700       0.03639000       0.25768000 </v>
   <v>       0.75711200       0.97712300       0.04646400 </v>
   <v>       0.26602900       0.94447400       0.54882100 </v>
   <v>       0.25221000       0.02375900       0.94680800 </v>
   <v>       0.45934500       0.97469500       0.24778300 </v>
   <v>       0.95391800       0.96046200       0.74874600 </v>
   <v>       0.75683500       0.52272300       0.04679900 </v>
   <v>       0.23968700       0.53862800       0.55329900 </v>
   <v>       0.54368200       0.46747200       0.74768600 </v>
   <v>       0.05319000       0.46155600       0.25429800 </v>
   <v>       0.70360600       0.28475000       0.46396800 </v>
  </varray>
 </structure>
</modeling>
