CsPbBr3 cubic bulk                      
           1
     8.456489    0.000000    8.040301
     0.000000   11.729847    0.000000
    -8.456489    0.000000    8.040301
   Cs   Pb   Br
   8   8  23
Direct configuration=     1
   0.27202900  0.24970000  0.18668300
   0.77119400  0.25393400  0.75347800
   0.70638000  0.74922100  0.25054700
   0.21164300  0.74672000  0.78445600
   0.27358000  0.25556300  0.74562200
   0.80258100  0.24984800  0.21705900
   0.72397300  0.74965000  0.78241900
   0.24129900  0.74323100  0.28739100
   0.00484700  0.99594800  0.99956000
   0.49140800  0.02972900  0.49548700
   0.50362000  0.00170900  0.99559000
   0.02480600  0.99519500  0.50279900
   0.50399100  0.49955400  0.99622600
   0.00229600  0.49699600  0.50061700
   0.00409900  0.50296500  0.00071300
   0.49168600  0.48768500  0.49696100
   0.48109200  0.75087800  0.97237100
   0.96580400  0.75304700  0.45488400
   0.99470000  0.24959300  0.97405800
   0.39725800  0.24586100  0.47188600
   0.03389600  0.74970300  0.04168100
   0.55026300  0.73484200  0.51163900
   0.53755800  0.25022200  0.02554300
   0.01306900  0.24815700  0.54865100
   0.25176400  0.47851200  0.95327400
   0.45902600  0.52173200  0.24501500
   0.94886400  0.53580800  0.74713300
   0.54933200  0.03384800  0.74561500
   0.05455700  0.03639000  0.25768000
   0.75711200  0.97712300  0.04646400
   0.26602900  0.94447400  0.54882100
   0.25221000  0.02375900  0.94680800
   0.45934500  0.97469500  0.24778300
   0.95391800  0.96046200  0.74874600
   0.75683500  0.52272300  0.04679900
   0.23968700  0.53862800  0.55329900
   0.54368200  0.46747200  0.74768600
   0.05319000  0.46155600  0.25429800
   0.70360600  0.28475000  0.46396800
