  20  20   1   0
  0.4043415E+02  0.8185593E-09  0.1164759E-08  0.8481880E-09  0.5000000E-15
   1.0000000000000000E-004
  CAR 
 CsPbBr3 cubic bulk                      
      8.56070179    -22.24416422  301      0.47442447      1.00000000
    -22.244  0.0000E+00  0.0000E+00
    -22.141  0.0000E+00  0.0000E+00
    -22.039  0.0000E+00  0.0000E+00
    -21.936  0.0000E+00  0.0000E+00
    -21.833  0.0000E+00  0.0000E+00
    -21.731  0.0000E+00  0.0000E+00
    -21.628  0.0000E+00  0.0000E+00
    -21.525  0.0000E+00  0.0000E+00
    -21.423  0.0000E+00  0.0000E+00
    -21.320  0.0000E+00  0.0000E+00
    -21.217  0.0000E+00  0.0000E+00
    -21.115  0.0000E+00  0.0000E+00
    -21.012  0.0000E+00  0.0000E+00
    -20.909  0.0000E+00  0.0000E+00
    -20.807  0.7791E+02  0.8000E+01
    -20.704  0.0000E+00  0.8000E+01
    -20.601  0.0000E+00  0.8000E+01
    -20.499  0.0000E+00  0.8000E+01
    -20.396  0.0000E+00  0.8000E+01
    -20.293  0.0000E+00  0.8000E+01
    -20.191  0.0000E+00  0.8000E+01
    -20.088  0.0000E+00  0.8000E+01
    -19.985  0.0000E+00  0.8000E+01
    -19.882  0.0000E+00  0.8000E+01
    -19.780  0.0000E+00  0.8000E+01
    -19.677  0.0000E+00  0.8000E+01
    -19.574  0.0000E+00  0.8000E+01
    -19.472  0.0000E+00  0.8000E+01
    -19.369  0.0000E+00  0.8000E+01
    -19.266  0.0000E+00  0.8000E+01
    -19.164  0.0000E+00  0.8000E+01
    -19.061  0.0000E+00  0.8000E+01
    -18.958  0.0000E+00  0.8000E+01
    -18.856  0.0000E+00  0.8000E+01
    -18.753  0.0000E+00  0.8000E+01
    -18.650  0.0000E+00  0.8000E+01
    -18.548  0.0000E+00  0.8000E+01
    -18.445  0.0000E+00  0.8000E+01
    -18.342  0.0000E+00  0.8000E+01
    -18.240  0.0000E+00  0.8000E+01
    -18.137  0.0000E+00  0.8000E+01
    -18.034  0.0000E+00  0.8000E+01
    -17.931  0.0000E+00  0.8000E+01
    -17.829  0.0000E+00  0.8000E+01
    -17.726  0.0000E+00  0.8000E+01
    -17.623  0.0000E+00  0.8000E+01
    -17.521  0.0000E+00  0.8000E+01
    -17.418  0.0000E+00  0.8000E+01
    -17.315  0.0000E+00  0.8000E+01
    -17.213  0.0000E+00  0.8000E+01
    -17.110  0.0000E+00  0.8000E+01
    -17.007  0.0000E+00  0.8000E+01
    -16.905  0.0000E+00  0.8000E+01
    -16.802  0.0000E+00  0.8000E+01
    -16.699  0.0000E+00  0.8000E+01
    -16.597  0.0000E+00  0.8000E+01
    -16.494  0.4799E+01  0.8493E+01
    -16.391  0.1227E+03  0.2394E+02
    -16.289  0.2337E+03  0.4800E+02
    -16.186  0.0000E+00  0.4800E+02
    -16.083  0.0000E+00  0.4800E+02
    -15.981  0.0000E+00  0.4800E+02
    -15.878  0.0000E+00  0.4800E+02
    -15.775  0.0000E+00  0.4800E+02
    -15.672  0.0000E+00  0.4800E+02
    -15.570  0.0000E+00  0.4800E+02
    -15.467  0.0000E+00  0.4800E+02
    -15.364  0.0000E+00  0.4800E+02
    -15.262  0.0000E+00  0.4800E+02
    -15.159  0.0000E+00  0.4800E+02
    -15.056  0.0000E+00  0.4800E+02
    -14.954  0.0000E+00  0.4800E+02
    -14.851  0.0000E+00  0.4800E+02
    -14.748  0.0000E+00  0.4800E+02
    -14.646  0.0000E+00  0.4800E+02
    -14.543  0.0000E+00  0.4800E+02
    -14.440  0.0000E+00  0.4800E+02
    -14.338  0.1052E+01  0.4811E+02
    -14.235  0.1919E+02  0.5008E+02
    -14.132  0.2680E+02  0.5286E+02
    -14.030  0.2835E+02  0.5713E+02
    -13.927  0.3265E+02  0.6291E+02
    -13.824  0.3150E+02  0.6779E+02
    -13.721  0.2055E+02  0.7200E+02
    -13.619  0.0000E+00  0.7200E+02
    -13.516  0.0000E+00  0.7200E+02
    -13.413  0.0000E+00  0.7200E+02
    -13.311  0.0000E+00  0.7200E+02
    -13.208  0.0000E+00  0.7200E+02
    -13.105  0.0000E+00  0.7200E+02
    -13.003  0.0000E+00  0.7200E+02
    -12.900  0.0000E+00  0.7200E+02
    -12.797  0.0000E+00  0.7200E+02
    -12.695  0.0000E+00  0.7200E+02
    -12.592  0.0000E+00  0.7200E+02
    -12.489  0.0000E+00  0.7200E+02
    -12.387  0.0000E+00  0.7200E+02
    -12.284  0.0000E+00  0.7200E+02
    -12.181  0.0000E+00  0.7200E+02
    -12.079  0.0000E+00  0.7200E+02
    -11.976  0.0000E+00  0.7200E+02
    -11.873  0.0000E+00  0.7200E+02
    -11.771  0.0000E+00  0.7200E+02
    -11.668  0.0000E+00  0.7200E+02
    -11.565  0.0000E+00  0.7200E+02
    -11.462  0.0000E+00  0.7200E+02
    -11.360  0.0000E+00  0.7200E+02
    -11.257  0.0000E+00  0.7200E+02
    -11.154  0.0000E+00  0.7200E+02
    -11.052  0.0000E+00  0.7200E+02
    -10.949  0.0000E+00  0.7200E+02
    -10.846  0.0000E+00  0.7200E+02
    -10.744  0.0000E+00  0.7200E+02
    -10.641  0.0000E+00  0.7200E+02
    -10.538  0.0000E+00  0.7200E+02
    -10.436  0.0000E+00  0.7200E+02
    -10.333  0.0000E+00  0.7200E+02
    -10.230  0.0000E+00  0.7200E+02
    -10.128  0.0000E+00  0.7200E+02
    -10.025  0.0000E+00  0.7200E+02
     -9.922  0.0000E+00  0.7200E+02
     -9.820  0.0000E+00  0.7200E+02
     -9.717  0.0000E+00  0.7200E+02
     -9.614  0.0000E+00  0.7200E+02
     -9.511  0.0000E+00  0.7200E+02
     -9.409  0.0000E+00  0.7200E+02
     -9.306  0.0000E+00  0.7200E+02
     -9.203  0.0000E+00  0.7200E+02
     -9.101  0.0000E+00  0.7200E+02
     -8.998  0.0000E+00  0.7200E+02
     -8.895  0.0000E+00  0.7200E+02
     -8.793  0.0000E+00  0.7200E+02
     -8.690  0.0000E+00  0.7200E+02
     -8.587  0.0000E+00  0.7200E+02
     -8.485  0.0000E+00  0.7200E+02
     -8.382  0.0000E+00  0.7200E+02
     -8.279  0.0000E+00  0.7200E+02
     -8.177  0.9594E+00  0.7210E+02
     -8.074  0.0000E+00  0.7211E+02
     -7.971  0.3251E+01  0.7244E+02
     -7.869  0.9303E-02  0.7278E+02
     -7.766  0.1548E-02  0.7322E+02
     -7.663  0.9633E+01  0.7421E+02
     -7.561  0.1298E+02  0.7556E+02
     -7.458  0.7245E+01  0.7630E+02
     -7.355  0.8694E+01  0.7734E+02
     -7.252  0.4631E+02  0.8253E+02
     -7.150  0.1309E+03  0.1028E+03
     -7.047  0.1293E-06  0.1028E+03
     -6.944  0.4330E+01  0.1032E+03
     -6.842  0.4328E+01  0.1039E+03
     -6.739  0.0000E+00  0.1039E+03
     -6.636  0.0000E+00  0.1039E+03
     -6.534  0.1082E+01  0.1040E+03
     -6.431  0.0000E+00  0.1040E+03
     -6.328  0.0000E+00  0.1040E+03
     -6.226  0.0000E+00  0.1040E+03
     -6.123  0.0000E+00  0.1040E+03
     -6.020  0.0000E+00  0.1040E+03
     -5.918  0.0000E+00  0.1040E+03
     -5.815  0.0000E+00  0.1040E+03
     -5.712  0.0000E+00  0.1040E+03
     -5.610  0.0000E+00  0.1040E+03
     -5.507  0.0000E+00  0.1040E+03
     -5.404  0.0000E+00  0.1040E+03
     -5.301  0.0000E+00  0.1040E+03
     -5.199  0.0000E+00  0.1040E+03
     -5.096  0.0000E+00  0.1040E+03
     -4.993  0.0000E+00  0.1040E+03
     -4.891  0.0000E+00  0.1040E+03
     -4.788  0.0000E+00  0.1040E+03
     -4.685  0.0000E+00  0.1040E+03
     -4.583  0.0000E+00  0.1040E+03
     -4.480  0.0000E+00  0.1040E+03
     -4.377  0.0000E+00  0.1040E+03
     -4.275  0.0000E+00  0.1040E+03
     -4.172  0.0000E+00  0.1040E+03
     -4.069  0.0000E+00  0.1040E+03
     -3.967  0.0000E+00  0.1040E+03
     -3.864  0.0000E+00  0.1040E+03
     -3.761  0.0000E+00  0.1040E+03
     -3.659  0.0000E+00  0.1040E+03
     -3.556  0.0000E+00  0.1040E+03
     -3.453  0.0000E+00  0.1040E+03
     -3.351  0.5048E+00  0.1041E+03
     -3.248  0.1289E+02  0.1054E+03
     -3.145  0.1609E+02  0.1071E+03
     -3.042  0.6493E+01  0.1087E+03
     -2.940  0.4312E+01  0.1093E+03
     -2.837  0.1309E+02  0.1107E+03
     -2.734  0.1859E+02  0.1130E+03
     -2.632  0.8652E+01  0.1140E+03
     -2.529  0.8652E+01  0.1149E+03
     -2.426  0.1083E+02  0.1160E+03
     -2.324  0.1082E+02  0.1180E+03
     -2.221  0.4245E+01  0.1184E+03
     -2.118  0.2584E+02  0.1211E+03
     -2.016  0.2819E+02  0.1241E+03
     -1.913  0.1307E+02  0.1268E+03
     -1.810  0.9780E+01  0.1280E+03
     -1.708  0.2562E+02  0.1309E+03
     -1.605  0.3102E+02  0.1345E+03
     -1.502  0.3003E+02  0.1376E+03
     -1.400  0.3335E+02  0.1432E+03
     -1.297  0.6790E+02  0.1513E+03
     -1.194  0.4629E+02  0.1580E+03
     -1.091  0.4965E+02  0.1643E+03
     -0.989  0.2287E+02  0.1677E+03
     -0.886  0.4491E+00  0.1680E+03
     -0.783  0.2250E+02  0.1710E+03
     -0.681  0.4584E+01  0.1715E+03
     -0.578  0.1568E+02  0.1732E+03
     -0.475  0.8657E+01  0.1742E+03
     -0.373  0.4328E+01  0.1747E+03
     -0.270  0.0000E+00  0.1747E+03
     -0.167  0.1634E+01  0.1748E+03
     -0.065  0.6504E+01  0.1757E+03
      0.038  0.0000E+00  0.1759E+03
      0.141  0.0000E+00  0.1759E+03
      0.243  0.0000E+00  0.1759E+03
      0.346  0.0000E+00  0.1759E+03
      0.449  0.1081E+01  0.1760E+03
      0.551  0.0000E+00  0.1760E+03
      0.654  0.0000E+00  0.1760E+03
      0.757  0.0000E+00  0.1760E+03
      0.859  0.0000E+00  0.1760E+03
      0.962  0.0000E+00  0.1760E+03
      1.065  0.0000E+00  0.1760E+03
      1.168  0.0000E+00  0.1760E+03
      1.270  0.0000E+00  0.1760E+03
      1.373  0.0000E+00  0.1760E+03
      1.476  0.0000E+00  0.1760E+03
      1.578  0.0000E+00  0.1760E+03
      1.681  0.0000E+00  0.1760E+03
      1.784  0.0000E+00  0.1760E+03
      1.886  0.0000E+00  0.1760E+03
      1.989  0.0000E+00  0.1760E+03
      2.092  0.0000E+00  0.1760E+03
      2.194  0.0000E+00  0.1760E+03
      2.297  0.0000E+00  0.1760E+03
      2.400  0.0000E+00  0.1760E+03
      2.502  0.0000E+00  0.1760E+03
      2.605  0.0000E+00  0.1760E+03
      2.708  0.1071E+01  0.1761E+03
      2.810  0.1082E+01  0.1762E+03
      2.913  0.2985E+01  0.1765E+03
      3.016  0.9221E+01  0.1775E+03
      3.119  0.5409E+01  0.1782E+03
      3.221  0.8657E+01  0.1792E+03
      3.324  0.4571E+01  0.1797E+03
      3.427  0.7375E+01  0.1806E+03
      3.529  0.1105E-03  0.1808E+03
      3.632  0.7611E+01  0.1816E+03
      3.735  0.6224E+01  0.1824E+03
      3.837  0.1075E+02  0.1835E+03
      3.940  0.6310E+01  0.1842E+03
      4.043  0.1082E+02  0.1853E+03
      4.145  0.2164E+01  0.1856E+03
      4.248  0.4328E+01  0.1860E+03
      4.351  0.2164E+01  0.1862E+03
      4.453  0.1778E+01  0.1864E+03
      4.556  0.2317E+01  0.1873E+03
      4.659  0.2070E-10  0.1880E+03
      4.761  0.1713E+02  0.1898E+03
      4.864  0.7576E+01  0.1906E+03
      4.967  0.4327E+01  0.1910E+03
      5.069  0.1947E+02  0.1930E+03
      5.172  0.7421E-05  0.1930E+03
      5.275  0.1297E+02  0.1943E+03
      5.378  0.4699E+01  0.1948E+03
      5.480  0.6848E-14  0.1952E+03
      5.583  0.6796E+01  0.1959E+03
      5.686  0.2164E+01  0.1963E+03
      5.788  0.1688E+02  0.1981E+03
      5.891  0.6488E+01  0.1988E+03
      5.994  0.9030E+01  0.1998E+03
      6.096  0.1082E+02  0.2011E+03
      6.199  0.1152E+02  0.2023E+03
      6.302  0.7246E+01  0.2046E+03
      6.404  0.1862E+02  0.2067E+03
      6.507  0.2082E+02  0.2091E+03
      6.610  0.2587E+02  0.2120E+03
      6.712  0.2945E+02  0.2154E+03
      6.815  0.1882E+02  0.2177E+03
      6.918  0.3971E+02  0.2229E+03
      7.020  0.4301E+01  0.2236E+03
      7.123  0.2787E-06  0.2236E+03
      7.226  0.4328E+01  0.2240E+03
      7.329  0.0000E+00  0.2240E+03
      7.431  0.0000E+00  0.2240E+03
      7.534  0.0000E+00  0.2240E+03
      7.637  0.0000E+00  0.2240E+03
      7.739  0.0000E+00  0.2240E+03
      7.842  0.0000E+00  0.2240E+03
      7.945  0.0000E+00  0.2240E+03
      8.047  0.0000E+00  0.2240E+03
      8.150  0.0000E+00  0.2240E+03
      8.253  0.0000E+00  0.2240E+03
      8.355  0.0000E+00  0.2240E+03
      8.458  0.0000E+00  0.2240E+03
      8.561  0.0000E+00  0.2240E+03
      8.56070179    -22.24416422  301      0.47442447      1.00000000
    -22.244  0.0000E+00  0.0000E+00  0.0000E+00
    -22.141  0.0000E+00  0.0000E+00  0.0000E+00
    -22.039  0.0000E+00  0.0000E+00  0.0000E+00
    -21.936  0.0000E+00  0.0000E+00  0.0000E+00
    -21.833  0.0000E+00  0.0000E+00  0.0000E+00
    -21.731  0.0000E+00  0.0000E+00  0.0000E+00
    -21.628  0.0000E+00  0.0000E+00  0.0000E+00
    -21.525  0.0000E+00  0.0000E+00  0.0000E+00
    -21.423  0.0000E+00  0.0000E+00  0.0000E+00
    -21.320  0.0000E+00  0.0000E+00  0.0000E+00
    -21.217  0.0000E+00  0.0000E+00  0.0000E+00
    -21.115  0.0000E+00  0.0000E+00  0.0000E+00
    -21.012  0.0000E+00  0.0000E+00  0.0000E+00
    -20.909  0.0000E+00  0.0000E+00  0.0000E+00
    -20.807  0.1729E+02  0.2417E-05  0.3458E-05
    -20.704  0.0000E+00  0.0000E+00  0.0000E+00
    -20.601  0.0000E+00  0.0000E+00  0.0000E+00
    -20.499  0.0000E+00  0.0000E+00  0.0000E+00
    -20.396  0.0000E+00  0.0000E+00  0.0000E+00
    -20.293  0.0000E+00  0.0000E+00  0.0000E+00
    -20.191  0.0000E+00  0.0000E+00  0.0000E+00
    -20.088  0.0000E+00  0.0000E+00  0.0000E+00
    -19.985  0.0000E+00  0.0000E+00  0.0000E+00
    -19.882  0.0000E+00  0.0000E+00  0.0000E+00
    -19.780  0.0000E+00  0.0000E+00  0.0000E+00
    -19.677  0.0000E+00  0.0000E+00  0.0000E+00
    -19.574  0.0000E+00  0.0000E+00  0.0000E+00
    -19.472  0.0000E+00  0.0000E+00  0.0000E+00
    -19.369  0.0000E+00  0.0000E+00  0.0000E+00
    -19.266  0.0000E+00  0.0000E+00  0.0000E+00
    -19.164  0.0000E+00  0.0000E+00  0.0000E+00
    -19.061  0.0000E+00  0.0000E+00  0.0000E+00
    -18.958  0.0000E+00  0.0000E+00  0.0000E+00
    -18.856  0.0000E+00  0.0000E+00  0.0000E+00
    -18.753  0.0000E+00  0.0000E+00  0.0000E+00
    -18.650  0.0000E+00  0.0000E+00  0.0000E+00
    -18.548  0.0000E+00  0.0000E+00  0.0000E+00
    -18.445  0.0000E+00  0.0000E+00  0.0000E+00
    -18.342  0.0000E+00  0.0000E+00  0.0000E+00
    -18.240  0.0000E+00  0.0000E+00  0.0000E+00
    -18.137  0.0000E+00  0.0000E+00  0.0000E+00
    -18.034  0.0000E+00  0.0000E+00  0.0000E+00
    -17.931  0.0000E+00  0.0000E+00  0.0000E+00
    -17.829  0.0000E+00  0.0000E+00  0.0000E+00
    -17.726  0.0000E+00  0.0000E+00  0.0000E+00
    -17.623  0.0000E+00  0.0000E+00  0.0000E+00
    -17.521  0.0000E+00  0.0000E+00  0.0000E+00
    -17.418  0.0000E+00  0.0000E+00  0.0000E+00
    -17.315  0.0000E+00  0.0000E+00  0.0000E+00
    -17.213  0.0000E+00  0.0000E+00  0.0000E+00
    -17.110  0.0000E+00  0.0000E+00  0.0000E+00
    -17.007  0.0000E+00  0.0000E+00  0.0000E+00
    -16.905  0.0000E+00  0.0000E+00  0.0000E+00
    -16.802  0.0000E+00  0.0000E+00  0.0000E+00
    -16.699  0.0000E+00  0.0000E+00  0.0000E+00
    -16.597  0.0000E+00  0.0000E+00  0.0000E+00
    -16.494  0.1577E-04  0.5875E-05  0.9627E-06
    -16.391  0.5056E-04  0.7839E-04  0.1209E-04
    -16.289  0.6238E-04  0.3440E-04  0.3982E-05
    -16.186  0.0000E+00  0.0000E+00  0.0000E+00
    -16.083  0.0000E+00  0.0000E+00  0.0000E+00
    -15.981  0.0000E+00  0.0000E+00  0.0000E+00
    -15.878  0.0000E+00  0.0000E+00  0.0000E+00
    -15.775  0.0000E+00  0.0000E+00  0.0000E+00
    -15.672  0.0000E+00  0.0000E+00  0.0000E+00
    -15.570  0.0000E+00  0.0000E+00  0.0000E+00
    -15.467  0.0000E+00  0.0000E+00  0.0000E+00
    -15.364  0.0000E+00  0.0000E+00  0.0000E+00
    -15.262  0.0000E+00  0.0000E+00  0.0000E+00
    -15.159  0.0000E+00  0.0000E+00  0.0000E+00
    -15.056  0.0000E+00  0.0000E+00  0.0000E+00
    -14.954  0.0000E+00  0.0000E+00  0.0000E+00
    -14.851  0.0000E+00  0.0000E+00  0.0000E+00
    -14.748  0.0000E+00  0.0000E+00  0.0000E+00
    -14.646  0.0000E+00  0.0000E+00  0.0000E+00
    -14.543  0.0000E+00  0.0000E+00  0.0000E+00
    -14.440  0.0000E+00  0.0000E+00  0.0000E+00
    -14.338  0.4054E-03  0.2994E-05  0.6347E-06
    -14.235  0.3749E-02  0.2337E-02  0.4923E-04
    -14.132  0.1482E-02  0.4491E-02  0.1677E-03
    -14.030  0.1190E-02  0.3429E-02  0.2821E-03
    -13.927  0.5791E-03  0.2656E-02  0.2551E-03
    -13.824  0.6400E-03  0.2285E-02  0.3213E-03
    -13.721  0.6775E-03  0.1355E-02  0.1654E-03
    -13.619  0.0000E+00  0.0000E+00  0.0000E+00
    -13.516  0.0000E+00  0.0000E+00  0.0000E+00
    -13.413  0.0000E+00  0.0000E+00  0.0000E+00
    -13.311  0.0000E+00  0.0000E+00  0.0000E+00
    -13.208  0.0000E+00  0.0000E+00  0.0000E+00
    -13.105  0.0000E+00  0.0000E+00  0.0000E+00
    -13.003  0.0000E+00  0.0000E+00  0.0000E+00
    -12.900  0.0000E+00  0.0000E+00  0.0000E+00
    -12.797  0.0000E+00  0.0000E+00  0.0000E+00
    -12.695  0.0000E+00  0.0000E+00  0.0000E+00
    -12.592  0.0000E+00  0.0000E+00  0.0000E+00
    -12.489  0.0000E+00  0.0000E+00  0.0000E+00
    -12.387  0.0000E+00  0.0000E+00  0.0000E+00
    -12.284  0.0000E+00  0.0000E+00  0.0000E+00
    -12.181  0.0000E+00  0.0000E+00  0.0000E+00
    -12.079  0.0000E+00  0.0000E+00  0.0000E+00
    -11.976  0.0000E+00  0.0000E+00  0.0000E+00
    -11.873  0.0000E+00  0.0000E+00  0.0000E+00
    -11.771  0.0000E+00  0.0000E+00  0.0000E+00
    -11.668  0.0000E+00  0.0000E+00  0.0000E+00
    -11.565  0.0000E+00  0.0000E+00  0.0000E+00
    -11.462  0.0000E+00  0.0000E+00  0.0000E+00
    -11.360  0.0000E+00  0.0000E+00  0.0000E+00
    -11.257  0.0000E+00  0.0000E+00  0.0000E+00
    -11.154  0.0000E+00  0.0000E+00  0.0000E+00
    -11.052  0.0000E+00  0.0000E+00  0.0000E+00
    -10.949  0.0000E+00  0.0000E+00  0.0000E+00
    -10.846  0.0000E+00  0.0000E+00  0.0000E+00
    -10.744  0.0000E+00  0.0000E+00  0.0000E+00
    -10.641  0.0000E+00  0.0000E+00  0.0000E+00
    -10.538  0.0000E+00  0.0000E+00  0.0000E+00
    -10.436  0.0000E+00  0.0000E+00  0.0000E+00
    -10.333  0.0000E+00  0.0000E+00  0.0000E+00
    -10.230  0.0000E+00  0.0000E+00  0.0000E+00
    -10.128  0.0000E+00  0.0000E+00  0.0000E+00
    -10.025  0.0000E+00  0.0000E+00  0.0000E+00
     -9.922  0.0000E+00  0.0000E+00  0.0000E+00
     -9.820  0.0000E+00  0.0000E+00  0.0000E+00
     -9.717  0.0000E+00  0.0000E+00  0.0000E+00
     -9.614  0.0000E+00  0.0000E+00  0.0000E+00
     -9.511  0.0000E+00  0.0000E+00  0.0000E+00
     -9.409  0.0000E+00  0.0000E+00  0.0000E+00
     -9.306  0.0000E+00  0.0000E+00  0.0000E+00
     -9.203  0.0000E+00  0.0000E+00  0.0000E+00
     -9.101  0.0000E+00  0.0000E+00  0.0000E+00
     -8.998  0.0000E+00  0.0000E+00  0.0000E+00
     -8.895  0.0000E+00  0.0000E+00  0.0000E+00
     -8.793  0.0000E+00  0.0000E+00  0.0000E+00
     -8.690  0.0000E+00  0.0000E+00  0.0000E+00
     -8.587  0.0000E+00  0.0000E+00  0.0000E+00
     -8.485  0.0000E+00  0.0000E+00  0.0000E+00
     -8.382  0.0000E+00  0.0000E+00  0.0000E+00
     -8.279  0.0000E+00  0.0000E+00  0.0000E+00
     -8.177  0.4587E-17  0.1803E-03  0.2865E-05
     -8.074  0.0000E+00  0.0000E+00  0.0000E+00
     -7.971  0.2820E-08  0.2595E-02  0.1113E-04
     -7.869  0.5463E-18  0.3294E-05  0.4555E-07
     -7.766  0.3577E-09  0.4000E-05  0.6899E-08
     -7.663  0.1812E-04  0.2917E-01  0.3129E-04
     -7.561  0.9609E-05  0.6420E-01  0.4915E-04
     -7.458  0.8097E-05  0.8032E-01  0.3896E-04
     -7.355  0.2562E-04  0.5047E+00  0.2947E-04
     -7.252  0.3870E-04  0.8128E+01  0.3760E-04
     -7.150  0.3624E-04  0.2351E+02  0.7272E-04
     -7.047  0.8011E-12  0.3291E-08  0.7362E-12
     -6.944  0.2683E-04  0.1102E+00  0.2465E-04
     -6.842  0.4306E-04  0.2466E-01  0.1516E-04
     -6.739  0.0000E+00  0.0000E+00  0.0000E+00
     -6.636  0.0000E+00  0.0000E+00  0.0000E+00
     -6.534  0.1348E-04  0.1751E-02  0.2192E-05
     -6.431  0.0000E+00  0.0000E+00  0.0000E+00
     -6.328  0.0000E+00  0.0000E+00  0.0000E+00
     -6.226  0.0000E+00  0.0000E+00  0.0000E+00
     -6.123  0.0000E+00  0.0000E+00  0.0000E+00
     -6.020  0.0000E+00  0.0000E+00  0.0000E+00
     -5.918  0.0000E+00  0.0000E+00  0.0000E+00
     -5.815  0.0000E+00  0.0000E+00  0.0000E+00
     -5.712  0.0000E+00  0.0000E+00  0.0000E+00
     -5.610  0.0000E+00  0.0000E+00  0.0000E+00
     -5.507  0.0000E+00  0.0000E+00  0.0000E+00
     -5.404  0.0000E+00  0.0000E+00  0.0000E+00
     -5.301  0.0000E+00  0.0000E+00  0.0000E+00
     -5.199  0.0000E+00  0.0000E+00  0.0000E+00
     -5.096  0.0000E+00  0.0000E+00  0.0000E+00
     -4.993  0.0000E+00  0.0000E+00  0.0000E+00
     -4.891  0.0000E+00  0.0000E+00  0.0000E+00
     -4.788  0.0000E+00  0.0000E+00  0.0000E+00
     -4.685  0.0000E+00  0.0000E+00  0.0000E+00
     -4.583  0.0000E+00  0.0000E+00  0.0000E+00
     -4.480  0.0000E+00  0.0000E+00  0.0000E+00
     -4.377  0.0000E+00  0.0000E+00  0.0000E+00
     -4.275  0.0000E+00  0.0000E+00  0.0000E+00
     -4.172  0.0000E+00  0.0000E+00  0.0000E+00
     -4.069  0.0000E+00  0.0000E+00  0.0000E+00
     -3.967  0.0000E+00  0.0000E+00  0.0000E+00
     -3.864  0.0000E+00  0.0000E+00  0.0000E+00
     -3.761  0.0000E+00  0.0000E+00  0.0000E+00
     -3.659  0.0000E+00  0.0000E+00  0.0000E+00
     -3.556  0.0000E+00  0.0000E+00  0.0000E+00
     -3.453  0.0000E+00  0.0000E+00  0.0000E+00
     -3.351  0.1898E-05  0.9969E-03  0.2040E-04
     -3.248  0.4736E-05  0.1427E-01  0.1035E-02
     -3.145  0.5244E-04  0.9511E-02  0.1611E-02
     -3.042  0.6387E-07  0.1234E-02  0.5110E-03
     -2.940  0.2093E-04  0.4729E-02  0.2471E-03
     -2.837  0.3264E-03  0.1899E-01  0.8792E-03
     -2.734  0.2647E-03  0.1831E-01  0.1637E-02
     -2.632  0.1957E-03  0.6223E-02  0.7153E-03
     -2.529  0.3025E-03  0.1466E-01  0.9779E-03
     -2.426  0.1013E-02  0.1259E-01  0.8649E-03
     -2.324  0.1488E-02  0.7009E-02  0.1736E-02
     -2.221  0.6851E-03  0.7009E-02  0.3538E-03
     -2.118  0.1354E-01  0.2121E-01  0.3087E-02
     -2.016  0.1596E-01  0.3793E-01  0.5307E-02
     -1.913  0.6223E-02  0.3703E-01  0.1617E-02
     -1.810  0.1006E-02  0.5969E-01  0.2247E-02
     -1.708  0.1995E-02  0.1029E+00  0.8539E-02
     -1.605  0.1358E-02  0.8386E-01  0.1238E-01
     -1.502  0.2239E-02  0.8355E-01  0.9704E-02
     -1.400  0.3886E-02  0.4803E-01  0.1425E-01
     -1.297  0.5876E-02  0.8143E-01  0.2600E-01
     -1.194  0.3208E-02  0.6808E-01  0.1107E-01
     -1.091  0.2462E-02  0.6668E-01  0.1179E-01
     -0.989  0.6303E-03  0.2733E-01  0.5980E-02
     -0.886  0.8815E-05  0.6250E-03  0.1650E-03
     -0.783  0.1198E-02  0.2688E-01  0.5986E-02
     -0.681  0.3764E-03  0.2950E-02  0.4881E-03
     -0.578  0.4499E-03  0.5874E-02  0.1342E-02
     -0.475  0.1865E-03  0.1557E-02  0.6015E-03
     -0.373  0.5055E-15  0.2928E-02  0.1588E-04
     -0.270  0.0000E+00  0.0000E+00  0.0000E+00
     -0.167  0.9098E-05  0.2657E-03  0.2143E-03
     -0.065  0.1068E-06  0.2622E-03  0.8321E-03
      0.038  0.0000E+00  0.0000E+00  0.0000E+00
      0.141  0.0000E+00  0.0000E+00  0.0000E+00
      0.243  0.0000E+00  0.0000E+00  0.0000E+00
      0.346  0.0000E+00  0.0000E+00  0.0000E+00
      0.449  0.3746E-16  0.8643E-05  0.2189E-04
      0.551  0.0000E+00  0.0000E+00  0.0000E+00
      0.654  0.0000E+00  0.0000E+00  0.0000E+00
      0.757  0.0000E+00  0.0000E+00  0.0000E+00
      0.859  0.0000E+00  0.0000E+00  0.0000E+00
      0.962  0.0000E+00  0.0000E+00  0.0000E+00
      1.065  0.0000E+00  0.0000E+00  0.0000E+00
      1.168  0.0000E+00  0.0000E+00  0.0000E+00
      1.270  0.0000E+00  0.0000E+00  0.0000E+00
      1.373  0.0000E+00  0.0000E+00  0.0000E+00
      1.476  0.0000E+00  0.0000E+00  0.0000E+00
      1.578  0.0000E+00  0.0000E+00  0.0000E+00
      1.681  0.0000E+00  0.0000E+00  0.0000E+00
      1.784  0.0000E+00  0.0000E+00  0.0000E+00
      1.886  0.0000E+00  0.0000E+00  0.0000E+00
      1.989  0.0000E+00  0.0000E+00  0.0000E+00
      2.092  0.0000E+00  0.0000E+00  0.0000E+00
      2.194  0.0000E+00  0.0000E+00  0.0000E+00
      2.297  0.0000E+00  0.0000E+00  0.0000E+00
      2.400  0.0000E+00  0.0000E+00  0.0000E+00
      2.502  0.0000E+00  0.0000E+00  0.0000E+00
      2.605  0.0000E+00  0.0000E+00  0.0000E+00
      2.708  0.3365E-17  0.2496E-04  0.1260E-02
      2.810  0.8693E-10  0.1997E-05  0.5031E-03
      2.913  0.3676E-04  0.4309E-03  0.2253E-02
      3.016  0.5496E-03  0.2770E-02  0.3230E-02
      3.119  0.2477E-03  0.1034E-02  0.2632E-02
      3.221  0.3545E-03  0.4177E-02  0.2706E-02
      3.324  0.4786E-03  0.9588E-03  0.5598E-03
      3.427  0.6851E-03  0.2134E-02  0.3260E-02
      3.529  0.1582E-18  0.2503E-07  0.1580E-06
      3.632  0.1275E-03  0.2018E-02  0.7150E-02
      3.735  0.2151E-03  0.1722E-02  0.5643E-02
      3.837  0.7688E-03  0.1392E-02  0.5519E-02
      3.940  0.7022E-03  0.1883E-02  0.3029E-02
      4.043  0.6084E-03  0.2674E-02  0.4804E-02
      4.145  0.2795E-03  0.4000E-03  0.7749E-03
      4.248  0.3218E-04  0.1400E-02  0.1021E-02
      4.351  0.5910E-07  0.1674E-03  0.3568E-02
      4.453  0.2356E-03  0.5177E-03  0.2268E-02
      4.556  0.2193E-04  0.7658E-03  0.1825E-02
      4.659  0.3928E-14  0.5302E-14  0.1050E-13
      4.761  0.4565E-02  0.6062E-02  0.9165E-02
      4.864  0.1186E-01  0.6621E-03  0.9841E-02
      4.967  0.2390E-02  0.2993E-02  0.2680E-02
      5.069  0.1583E-01  0.1084E-01  0.1947E-01
      5.172  0.1892E-08  0.3291E-08  0.4037E-08
      5.275  0.1734E-01  0.8263E-02  0.8156E-02
      5.378  0.4984E-02  0.5109E-02  0.5554E-02
      5.480  0.3646E-17  0.1683E-18  0.1686E-16
      5.583  0.1962E-01  0.4803E-02  0.1362E-01
      5.686  0.2903E-12  0.3125E-03  0.1934E-02
      5.788  0.4877E-01  0.1189E-01  0.4150E-01
      5.891  0.4881E-04  0.6825E-03  0.1176E-01
      5.994  0.3186E-01  0.5620E-02  0.4565E-01
      6.096  0.4093E-01  0.1255E-01  0.6107E-01
      6.199  0.4001E-02  0.3113E-02  0.8993E-01
      6.302  0.2517E-01  0.4409E-02  0.1600E+00
      6.404  0.2550E-01  0.2684E-01  0.4406E+00
      6.507  0.5755E-01  0.2051E-01  0.4551E+00
      6.610  0.5327E-01  0.4338E-01  0.7402E+00
      6.712  0.2696E-01  0.6882E-01  0.8010E+00
      6.815  0.7566E-02  0.2867E-01  0.6280E+00
      6.918  0.2410E-01  0.9373E-01  0.1228E+01
      7.020  0.4768E-02  0.1255E-01  0.1286E+00
      7.123  0.2787E-09  0.3646E-09  0.4988E-08
      7.226  0.4328E-02  0.5662E-02  0.7747E-01
      7.329  0.0000E+00  0.0000E+00  0.0000E+00
      7.431  0.0000E+00  0.0000E+00  0.0000E+00
      7.534  0.0000E+00  0.0000E+00  0.0000E+00
      7.637  0.0000E+00  0.0000E+00  0.0000E+00
      7.739  0.0000E+00  0.0000E+00  0.0000E+00
      7.842  0.0000E+00  0.0000E+00  0.0000E+00
      7.945  0.0000E+00  0.0000E+00  0.0000E+00
      8.047  0.0000E+00  0.0000E+00  0.0000E+00
      8.150  0.0000E+00  0.0000E+00  0.0000E+00
      8.253  0.0000E+00  0.0000E+00  0.0000E+00
      8.355  0.0000E+00  0.0000E+00  0.0000E+00
      8.458  0.0000E+00  0.0000E+00  0.0000E+00
      8.561  0.0000E+00  0.0000E+00  0.0000E+00
      8.56070179    -22.24416422  301      0.47442447      1.00000000
    -22.244  0.0000E+00  0.0000E+00  0.0000E+00
    -22.141  0.0000E+00  0.0000E+00  0.0000E+00
    -22.039  0.0000E+00  0.0000E+00  0.0000E+00
    -21.936  0.0000E+00  0.0000E+00  0.0000E+00
    -21.833  0.0000E+00  0.0000E+00  0.0000E+00
    -21.731  0.0000E+00  0.0000E+00  0.0000E+00
    -21.628  0.0000E+00  0.0000E+00  0.0000E+00
    -21.525  0.0000E+00  0.0000E+00  0.0000E+00
    -21.423  0.0000E+00  0.0000E+00  0.0000E+00
    -21.320  0.0000E+00  0.0000E+00  0.0000E+00
    -21.217  0.0000E+00  0.0000E+00  0.0000E+00
    -21.115  0.0000E+00  0.0000E+00  0.0000E+00
    -21.012  0.0000E+00  0.0000E+00  0.0000E+00
    -20.909  0.0000E+00  0.0000E+00  0.0000E+00
    -20.807  0.1729E+02  0.2414E-05  0.3472E-05
    -20.704  0.0000E+00  0.0000E+00  0.0000E+00
    -20.601  0.0000E+00  0.0000E+00  0.0000E+00
    -20.499  0.0000E+00  0.0000E+00  0.0000E+00
    -20.396  0.0000E+00  0.0000E+00  0.0000E+00
    -20.293  0.0000E+00  0.0000E+00  0.0000E+00
    -20.191  0.0000E+00  0.0000E+00  0.0000E+00
    -20.088  0.0000E+00  0.0000E+00  0.0000E+00
    -19.985  0.0000E+00  0.0000E+00  0.0000E+00
    -19.882  0.0000E+00  0.0000E+00  0.0000E+00
    -19.780  0.0000E+00  0.0000E+00  0.0000E+00
    -19.677  0.0000E+00  0.0000E+00  0.0000E+00
    -19.574  0.0000E+00  0.0000E+00  0.0000E+00
    -19.472  0.0000E+00  0.0000E+00  0.0000E+00
    -19.369  0.0000E+00  0.0000E+00  0.0000E+00
    -19.266  0.0000E+00  0.0000E+00  0.0000E+00
    -19.164  0.0000E+00  0.0000E+00  0.0000E+00
    -19.061  0.0000E+00  0.0000E+00  0.0000E+00
    -18.958  0.0000E+00  0.0000E+00  0.0000E+00
    -18.856  0.0000E+00  0.0000E+00  0.0000E+00
    -18.753  0.0000E+00  0.0000E+00  0.0000E+00
    -18.650  0.0000E+00  0.0000E+00  0.0000E+00
    -18.548  0.0000E+00  0.0000E+00  0.0000E+00
    -18.445  0.0000E+00  0.0000E+00  0.0000E+00
    -18.342  0.0000E+00  0.0000E+00  0.0000E+00
    -18.240  0.0000E+00  0.0000E+00  0.0000E+00
    -18.137  0.0000E+00  0.0000E+00  0.0000E+00
    -18.034  0.0000E+00  0.0000E+00  0.0000E+00
    -17.931  0.0000E+00  0.0000E+00  0.0000E+00
    -17.829  0.0000E+00  0.0000E+00  0.0000E+00
    -17.726  0.0000E+00  0.0000E+00  0.0000E+00
    -17.623  0.0000E+00  0.0000E+00  0.0000E+00
    -17.521  0.0000E+00  0.0000E+00  0.0000E+00
    -17.418  0.0000E+00  0.0000E+00  0.0000E+00
    -17.315  0.0000E+00  0.0000E+00  0.0000E+00
    -17.213  0.0000E+00  0.0000E+00  0.0000E+00
    -17.110  0.0000E+00  0.0000E+00  0.0000E+00
    -17.007  0.0000E+00  0.0000E+00  0.0000E+00
    -16.905  0.0000E+00  0.0000E+00  0.0000E+00
    -16.802  0.0000E+00  0.0000E+00  0.0000E+00
    -16.699  0.0000E+00  0.0000E+00  0.0000E+00
    -16.597  0.0000E+00  0.0000E+00  0.0000E+00
    -16.494  0.8101E-05  0.5860E-05  0.1078E-05
    -16.391  0.6605E-04  0.8373E-04  0.1323E-04
    -16.289  0.6231E-04  0.3443E-04  0.3989E-05
    -16.186  0.0000E+00  0.0000E+00  0.0000E+00
    -16.083  0.0000E+00  0.0000E+00  0.0000E+00
    -15.981  0.0000E+00  0.0000E+00  0.0000E+00
    -15.878  0.0000E+00  0.0000E+00  0.0000E+00
    -15.775  0.0000E+00  0.0000E+00  0.0000E+00
    -15.672  0.0000E+00  0.0000E+00  0.0000E+00
    -15.570  0.0000E+00  0.0000E+00  0.0000E+00
    -15.467  0.0000E+00  0.0000E+00  0.0000E+00
    -15.364  0.0000E+00  0.0000E+00  0.0000E+00
    -15.262  0.0000E+00  0.0000E+00  0.0000E+00
    -15.159  0.0000E+00  0.0000E+00  0.0000E+00
    -15.056  0.0000E+00  0.0000E+00  0.0000E+00
    -14.954  0.0000E+00  0.0000E+00  0.0000E+00
    -14.851  0.0000E+00  0.0000E+00  0.0000E+00
    -14.748  0.0000E+00  0.0000E+00  0.0000E+00
    -14.646  0.0000E+00  0.0000E+00  0.0000E+00
    -14.543  0.0000E+00  0.0000E+00  0.0000E+00
    -14.440  0.0000E+00  0.0000E+00  0.0000E+00
    -14.338  0.4054E-03  0.2994E-05  0.6347E-06
    -14.235  0.3949E-02  0.1911E-02  0.5659E-04
    -14.132  0.1627E-02  0.5034E-02  0.1607E-03
    -14.030  0.1095E-02  0.3839E-02  0.2639E-03
    -13.927  0.7841E-03  0.3405E-02  0.3973E-03
    -13.824  0.1088E-02  0.2475E-02  0.3009E-03
    -13.721  0.7047E-03  0.1331E-02  0.1564E-03
    -13.619  0.0000E+00  0.0000E+00  0.0000E+00
    -13.516  0.0000E+00  0.0000E+00  0.0000E+00
    -13.413  0.0000E+00  0.0000E+00  0.0000E+00
    -13.311  0.0000E+00  0.0000E+00  0.0000E+00
    -13.208  0.0000E+00  0.0000E+00  0.0000E+00
    -13.105  0.0000E+00  0.0000E+00  0.0000E+00