 vasp.5.4.4.18Apr17-6-g9f103f2a35 (build Jun 29 2021 13:39:03) complex           
 executed on tx2_gcc-7.3_libsci-1 date 2021.09.21  08:29:00
 running on   64 total cores
 distrk:  each k-point on   64 cores,    1 groups
 distr:  one band on NCORES_PER_BAND=   8 cores,    8 groups


--------------------------------------------------------------------------------------------------------


 INCAR:
 POTCAR:    PAW_PBE Cs_sv 08Apr2002               
 POTCAR:    PAW_PBE Pb_d 06Sep2000                
 POTCAR:    PAW_PBE Br 06Sep2000                  
 POTCAR:    PAW_PBE Cs_sv 08Apr2002               
   SHA256 =  c1463496f0f6037ed62c6012a8013a89ee9ad6ffb38599dcd6c079e7ed31779b Cs
   COPYR  = (c) Copyright 08Apr2002 Georg Kresse                                
   COPYR  = This file is part of the software VASP. Any use, copying, and all ot
   COPYR  = If you do not have a valid VASP license, you may not use, copy or di
   VRHFIN =Cs: 5s5p6s                                                           
   LEXCH  = PE                                                                  
   EATOM  =   555.6835 eV,   40.8416 Ry                                         
                                                                                
   TITEL  = PAW_PBE Cs_sv 08Apr2002                                             
   LULTRA =        F    use ultrasoft PP ?                                      
   IUNSCR =        1    unscreen: 0-lin 1-nonlin 2-no                           
   RPACOR =    2.200    partial core radius                                     
   POMASS =  132.900; ZVAL   =    9.000    mass and valenz                      
   RCORE  =    2.500    outmost cutoff radius                                   
   RWIGS  =    2.500; RWIGS  =    1.323    wigner-seitz radius (au A)           
   ENMAX  =  220.318; ENMIN  =  165.238 eV                                      
   RCLOC  =    2.207    cutoff for local pot                                    
   LCOR   =        T    correct aug charges                                     
   LPAW   =        T    paw PP                                                  
   EAUG   =  407.933                                                            
   DEXC   =    0.000                                                            
   RMAX   =    2.554    core radius for proj-oper                               
   RAUG   =    1.300    factor for augmentation sphere                          
   RDEP   =    2.590    radius for radial grids                                 
   RDEPT  =    2.117    core radius for aug-charge                              
                                                                                
   Atomic configuration                                                         
   13 entries                                                                   
     n  l   j            E        occ.                                          
     1  0  0.50    -35790.1377   2.0000                                         
     2  0  0.50     -5613.6201   2.0000                                         
     2  1  1.50     -5035.0101   6.0000                                         
     3  0  0.50     -1167.0767   2.0000                                         
     3  1  1.50      -980.9754   6.0000                                         
     3  2  2.50      -708.0703  10.0000                                         
     4  0  0.50      -220.2386   2.0000                                         
     4  1  1.50      -160.7596   6.0000                                         
     4  2  2.50       -74.2354  10.0000                                         
     5  0  0.50       -26.7287   2.0000                                         
     6  0  0.50        -2.0862   1.0000                                         
     5  1  1.50       -13.5159   6.0000                                         
     5  2  2.50        -0.4136   0.0000                                         
   Description                                                                  
     l       E           TYP  RCUT    TYP  RCUT                                 
     0    -26.7287425     23  1.900                                             
     0     -2.0862306     23  1.900                                             
     1    -13.5158719     23  2.500                                             
     1     -2.7211652     23  2.500                                             
     2     -0.4136171     23  2.500                                             
  local pseudopotential read in
  partial core-charges read in
  partial kinetic energy density read in
  atomic valenz-charges read in
  non local Contribution for L=           0  read in
    real space projection operators read in
  non local Contribution for L=           0  read in
    real space projection operators read in
  non local Contribution for L=           1  read in
    real space projection operators read in
  non local Contribution for L=           1  read in
    real space projection operators read in
  non local Contribution for L=           2  read in
    real space projection operators read in
    PAW grid and wavefunctions read in

   number of l-projection  operators is LMAX  =           5
   number of lm-projection operators is LMMAX =          13

 POTCAR:    PAW_PBE Pb_d 06Sep2000                
   SHA256 =  fb885b08f0fba73a15f6a6b0e39bd200c13ec96ef97cf3ecd8e63bade5137abd Pb
   COPYR  = (c) Copyright 06Sep2000 Georg Kresse                                
   COPYR  = This file is part of the software VASP. Any use, copying, and all ot
   COPYR  = If you do not have a valid VASP license, you may not use, copy or di
   VRHFIN =Pb:                                                                  
   LEXCH  = PE                                                                  
   EATOM  =  1661.6185 eV,  122.1255 Ry                                         
                                                                                
   TITEL  = PAW_PBE Pb_d 06Sep2000                                              
   LULTRA =        F    use ultrasoft PP ?                                      
   IUNSCR =        1    unscreen: 0-lin 1-nonlin 2-no                           
   RPACOR =    2.200    partial core radius                                     
   POMASS =  207.200; ZVAL   =   14.000    mass and valenz                      
   RCORE  =    2.500    outmost cutoff radius                                   
   RWIGS  =    3.260; RWIGS  =    1.725    wigner-seitz radius (au A)           
   ENMAX  =  237.835; ENMIN  =  178.376 eV                                      
   ICORE  =        3    local potential                                         
   LCOR   =        T    correct aug charges                                     
   LPAW   =        T    paw PP                                                  
   EAUG   =  391.914                                                            
   DEXC   =    0.000                                                            
   RMAX   =    2.565    core radius for proj-oper                               
   RAUG   =    1.300    factor for augmentation sphere                          
   RDEP   =    2.643    radius for radial grids                                 
   RDEPT  =    2.092    core radius for aug-charge                              
                                                                                
   Atomic configuration                                                         
   16 entries                                                                   
     n  l   j            E        occ.                                          
     1  0  0.50    -88091.8466   2.0000                                         
     2  0  0.50    -15753.4197   2.0000                                         
     2  1  1.50    -13508.1797   6.0000                                         
     3  0  0.50     -3781.7194   2.0000                                         
     3  1  1.50     -3138.2529   6.0000                                         
     3  2  2.50     -2483.2977  10.0000                                         
     4  0  0.50      -856.2895   2.0000                                         
     4  1  1.50      -645.4942   6.0000                                         
     4  2  2.50      -401.8768  10.0000                                         
     4  3  3.50      -132.9059  14.0000                                         
     5  0  0.50      -144.0950   2.0000                                         
     5  1  1.50       -85.7879   6.0000                                         
     5  2  2.50       -21.1769  10.0000                                         
     6  0  0.50       -12.0372   2.0000                                         
     6  1  1.50        -3.4971   2.0000                                         
     5  3  2.50        -2.7212   0.0000                                         
   Description                                                                  
     l       E           TYP  RCUT    TYP  RCUT                                 
     2    -21.1768523     23  2.500                                             
     2      1.3605826     23  2.500                                             
     0    -12.0371562     23  2.500                                             
     0     13.6058260     23  2.500                                             
     1     -3.4971339     23  2.500                                             
     1     13.6058260     23  2.500                                             
     3     -1.3605826      7  2.500                                             
  local pseudopotential read in
  partial core-charges read in
  partial kinetic energy density read in
  atomic valenz-charges read in
  non local Contribution for L=           2  read in
    real space projection operators read in
  non local Contribution for L=           2  read in
    real space projection operators read in
  non local Contribution for L=           0  read in
    real space projection operators read in
  non local Contribution for L=           0  read in
    real space projection operators read in
  non local Contribution for L=           1  read in
    real space projection operators read in
  non local Contribution for L=           1  read in
    real space projection operators read in
    PAW grid and wavefunctions read in

   number of l-projection  operators is LMAX  =           6
   number of lm-projection operators is LMMAX =          18

 POTCAR:    PAW_PBE Br 06Sep2000                  
   SHA256 =  96a73d2954943bbee26f4990d676cc6c3bf44b8dd2c75cd4b3b825d8403f0103 Br
   COPYR  = (c) Copyright 06Sep2000 Georg Kresse                                
   COPYR  = This file is part of the software VASP. Any use, copying, and all ot
   COPYR  = If you do not have a valid VASP license, you may not use, copy or di
   VRHFIN =Br: s2p5                                                             
   LEXCH  = PE                                                                  
   EATOM  =   368.4488 eV,   27.0802 Ry                                         
                                                                                
   TITEL  = PAW_PBE Br 06Sep2000                                                
   LULTRA =        F    use ultrasoft PP ?                                      
   IUNSCR =        1    unscreen: 0-lin 1-nonlin 2-no                           
   RPACOR =    1.900    partial core radius                                     
   POMASS =   79.904; ZVAL   =    7.000    mass and valenz                      
   RCORE  =    2.100    outmost cutoff radius                                   
   RWIGS  =    2.200; RWIGS  =    1.164    wigner-seitz radius (au A)           
   ENMAX  =  216.285; ENMIN  =  162.214 eV                                      
   ICORE  =        3    local potential                                         
   LCOR   =        T    correct aug charges                                     
   LPAW   =        T    paw PP                                                  
   EAUG   =  503.852                                                            
   DEXC   =    0.000                                                            
   RMAX   =    2.139    core radius for proj-oper                               
   RAUG   =    1.300    factor for augmentation sphere                          
   RDEP   =    2.186    radius for radial grids                                 
   RDEPT  =    1.890    core radius for aug-charge                              
                                                                                
   Atomic configuration                                                         
   10 entries                                                                   
     n  l   j            E        occ.                                          
     1  0  0.50    -13316.2796   2.0000                                         
     2  0  0.50     -1732.8239   2.0000                                         
     2  1  1.50     -1528.2193   6.0000                                         
     3  0  0.50      -238.0460   2.0000                                         
     3  1  1.50      -173.4609   6.0000                                         
     3  2  2.50       -66.7132  10.0000                                         
     4  0  0.50       -20.1334   2.0000                                         
     4  1  0.50        -7.8591   5.0000                                         
     4  2  2.50        -8.1635   0.0000                                         
     4  3  2.50        -8.1635   0.0000                                         
   Description                                                                  
     l       E           TYP  RCUT    TYP  RCUT                                 
     0    -20.1333652     23  2.100                                             
     0    -21.4939478     23  2.100                                             
     1     -7.8591052     23  2.100                                             
     1     -3.1608434     23  2.100                                             
     2     -8.1634956     23  2.100                                             
     3     -1.3605826      7  2.100                                             
  local pseudopotential read in
  partial core-charges read in
  partial kinetic energy density read in
  atomic valenz-charges read in
  non local Contribution for L=           0  read in
    real space projection operators read in
  non local Contribution for L=           0  read in
    real space projection operators read in
  non local Contribution for L=           1  read in
    real space projection operators read in
  non local Contribution for L=           1  read in
    real space projection operators read in
  non local Contribution for L=           2  read in
    real space projection operators read in
    PAW grid and wavefunctions read in

   number of l-projection  operators is LMAX  =           5
   number of lm-projection operators is LMMAX =          13

 Optimization of the real space projectors (new method)

 maximal supplied QI-value         = 15.12
 optimisation between [QCUT,QGAM] = [  8.77, 17.69] = [ 21.53, 87.61] Ry 
 Optimized for a Real-space Cutoff    1.85 Angstroem

   l    n(q)    QCUT    max X(q) W(low)/X(q) W(high)/X(q)  e(spline) 
   0     10     8.768    25.322    0.81E-04    0.51E-04    0.48E-06
   0     10     8.768    99.187    0.78E-04    0.50E-04    0.47E-06
   1      9     8.768    11.761    0.21E-03    0.20E-03    0.37E-06
   1      9     8.768     8.275    0.24E-03    0.22E-03    0.41E-06
   2      9     8.768     3.829    0.23E-04    0.15E-03    0.18E-06
 Optimization of the real space projectors (new method)

 maximal supplied QI-value         = 15.12
 optimisation between [QCUT,QGAM] = [  8.77, 17.69] = [ 21.53, 87.61] Ry 
 Optimized for a Real-space Cutoff    1.59 Angstroem

   l    n(q)    QCUT    max X(q) W(low)/X(q) W(high)/X(q)  e(spline) 
   2      7     8.768     3.846    0.48E-04    0.11E-03    0.11E-06
   2      7     8.768     8.593    0.20E-03    0.22E-04    0.24E-06
   0      8     8.768    20.082    0.68E-04    0.88E-04    0.41E-07
   0      8     8.768     8.597    0.89E-04    0.13E-03    0.59E-07
   1      8     8.768    33.223    0.15E-03    0.53E-04    0.87E-07
   1      8     8.768    15.899    0.14E-03    0.44E-04    0.78E-07
 Optimization of the real space projectors (new method)

 maximal supplied QI-value         = 17.95
 optimisation between [QCUT,QGAM] = [  8.80, 17.59] = [ 21.67, 86.68] Ry 
 Optimized for a Real-space Cutoff    1.59 Angstroem

   l    n(q)    QCUT    max X(q) W(low)/X(q) W(high)/X(q)  e(spline) 
   0      8     8.797   175.082    0.82E-04    0.14E-03    0.89E-07
   0      8     8.797   174.004    0.79E-04    0.14E-03    0.86E-07
   1      8     8.797    54.315    0.16E-03    0.14E-04    0.30E-06
   1      8     8.797    42.441    0.16E-03    0.14E-04    0.30E-06
   2      7     8.797     3.596    0.92E-04    0.15E-03    0.85E-07
  PAW_PBE Cs_sv 08Apr2002               :
 energy of atom  1       EATOM= -555.6835
 kinetic energy error for atom=    0.0069 (will be added to EATOM!!)
  PAW_PBE Pb_d 06Sep2000                :
 energy of atom  2       EATOM=-1661.6185
 kinetic energy error for atom=    0.0498 (will be added to EATOM!!)
  PAW_PBE Br 06Sep2000                  :
 energy of atom  3       EATOM= -368.4488
 kinetic energy error for atom=    0.0072 (will be added to EATOM!!)


 POSCAR: Cs4 Pb4 Br12                            
  positions in direct lattice
  velocities in cartesian coordinates

 METAGGA = SCAN     LMAXTAU =  6    LMIXTAU =  F

 exchange correlation table for  LEXCH =        8
   RHO(1)=    0.500       N(1)  =     2000
   RHO(2)=  100.500       N(2)  =     4000

 VTST: version 3.2, (02/03/18)

 CHAIN: initializing optimizer
 
 OPT: Using VASP Conjugate-Gradient optimizer
 CHAIN: Read ICHAIN            0

 POSCAR: Cs4 Pb4 Br12                            
  positions in direct lattice
  velocities in cartesian coordinates



--------------------------------------------------------------------------------------------------------


 ion  position               nearest neighbor table
   1  0.046  0.250  0.492-
   2  0.454  0.750  0.992-
   3  0.546  0.250  0.008-
   4  0.954  0.750  0.508-
   5  0.000  0.000  0.000-  10 2.98  11 2.98  16 3.01  17 3.01  15 3.01  18 3.01
   6  0.500  0.000  0.500-   9 2.98  12 2.98  15 3.01  18 3.01  17 3.01  16 3.01
   7  0.500  0.500  0.500-   9 2.98  12 2.98  14 3.01  20 3.01  19 3.01  13 3.01
   8  0.000  0.500  0.000-  10 2.98  11 2.98  13 3.01  19 3.01  14 3.01  20 3.01
   9  0.506  0.750  0.424-   6 2.98   7 2.98
  10  0.994  0.250  0.924-   5 2.98   8 2.98
  11  0.006  0.750  0.076-   5 2.98   8 2.98
  12  0.494  0.250  0.576-   6 2.98   7 2.98
  13  0.288  0.461  0.214-   8 3.01   7 3.01
  14  0.212  0.539  0.714-   7 3.01   8 3.01
  15  0.788  0.039  0.286-   6 3.01   5 3.01
  16  0.712  0.961  0.786-   5 3.01   6 3.01
  17  0.288  0.039  0.214-   5 3.01   6 3.01
  18  0.212  0.961  0.714-   6 3.01   5 3.01
  19  0.712  0.539  0.786-   8 3.01   7 3.01
  20  0.788  0.461  0.286-   7 3.01   8 3.01

  LATTYP: Found a simple orthorhombic cell.
 ALAT       =     8.1855931264
 B/A-ratio  =     1.0361960887
 C/A-ratio  =     1.4229377034
  
  Lattice vectors:
  
 A1 = (  -8.1855931264,   0.0000000000,   0.0000000000)
 A2 = (   0.0000000000,   0.0000000000,  -8.4818795814)
 A3 = (   0.0000000000, -11.6475890843,   0.0000000000)


Analysis of symmetry for initial positions (statically):
=====================================================================
 Subroutine PRICEL returns:
 Original cell was already a primitive cell.
 

 Routine SETGRP: Setting up the symmetry group for a 
 simple orthorhombic supercell.


 Subroutine GETGRP returns: Found  8 space group operations
 (whereof  2 operations were pure point group operations)
 out of a pool of  8 trial point group operations.


The static configuration has the point symmetry S_2 .
 The point group associated with its full space group is D_2h.


Analysis of symmetry for dynamics (positions and initial velocities):
=====================================================================
 Subroutine PRICEL returns:
 Original cell was already a primitive cell.
 

 Routine SETGRP: Setting up the symmetry group for a 
 simple orthorhombic supercell.


 Subroutine GETGRP returns: Found  8 space group operations
 (whereof  2 operations were pure point group operations)
 out of a pool of  8 trial point group operations.


The dynamic configuration has the point symmetry S_2 .
 The point group associated with its full space group is D_2h.


 Subroutine INISYM returns: Found  8 space group operations
 (whereof  2 operations are pure point group operations),
 and found     1 'primitive' translations



 KPOINTS: 1x1x1                                   

Automatic generation of k-mesh.
Space group operators:
 irot       det(A)        alpha          n_x          n_y          n_z        tau_x        tau_y        tau_z
    1     1.000000     0.000000     1.000000     0.000000     0.000000     0.000000     0.000000     0.000000
    2    -1.000000     0.000000     1.000000     0.000000     0.000000     0.000000     0.000000     0.000000
    3     1.000000   180.000000     0.000000     1.000000     0.000000     0.000000    -0.500000     0.000000
    4    -1.000000   180.000000     0.000000     1.000000     0.000000     0.000000    -0.500000     0.000000
    5     1.000000   180.000000     0.000000     0.000000     1.000000    -0.500000     0.000000    -0.500000
    6    -1.000000   180.000000     0.000000     0.000000     1.000000    -0.500000     0.000000    -0.500000
    7     1.000000   180.000000     1.000000     0.000000     0.000000    -0.500000    -0.500000    -0.500000
    8    -1.000000   180.000000     1.000000     0.000000     0.000000    -0.500000    -0.500000    -0.500000
 
 Subroutine IBZKPT returns following result:
 ===========================================
 
 Found      8 irreducible k-points:
 
 Following reciprocal coordinates:
            Coordinates               Weight
  0.000000  0.000000  0.000000      1.000000
  0.333333  0.000000  0.000000      2.000000
  0.000000  0.500000  0.000000      1.000000
  0.333333  0.500000  0.000000      2.000000
  0.000000  0.000000  0.333333      2.000000
  0.333333  0.000000  0.333333      4.000000
  0.000000  0.500000  0.333333      2.000000
  0.333333  0.500000  0.333333      4.000000
 
 Following cartesian coordinates:
            Coordinates               Weight
  0.000000  0.000000  0.000000      1.000000
  0.040722  0.000000  0.000000      2.000000
  0.000000  0.042927  0.000000      1.000000
  0.040722  0.042927  0.000000      2.000000
  0.000000  0.000000  0.039299      2.000000
  0.040722  0.000000  0.039299      4.000000
  0.000000  0.042927  0.039299      2.000000
  0.040722  0.042927  0.039299      4.000000
 


--------------------------------------------------------------------------------------------------------




 Dimension of arrays:
   k-points           NKPTS =      8   k-points in BZ     NKDIM =      8   number of bands    NBANDS=    112
   number of dos      NEDOS =    301   number of ions     NIONS =     20
   non local maximal  LDIM  =      6   non local SUM 2l+1 LMDIM =     18
   total plane-waves  NPLWV = 161280
   max r-space proj   IRMAX =   5322   max aug-charges    IRDMAX=  84897
   dimension x,y,z NGX =    48 NGY =   70 NGZ =   48
   dimension x,y,z NGXF=    96 NGYF=  140 NGZF=   96
   support grid    NGXF=   192 NGYF=  280 NGZF=  192
   ions per type =               4   4  12
   NGX,Y,Z   is equivalent  to a cutoff of   9.75,  9.99,  9.41 a.u.
   NGXF,Y,Z  is equivalent  to a cutoff of  19.50, 19.98, 18.82 a.u.

 SYSTEM =  CsPbBr3 cubic bulk                      
 POSCAR =  Cs4 Pb4 Br12                            

 Startparameter for this run:
   NWRITE =      2    write-flag & timer
   PREC   = accura    normal or accurate (medium, high low for compatibility)
   ISTART =      0    job   : 0-new  1-cont  2-samecut
   ICHARG =      2    charge: 1-file 2-atom 10-const
   ISPIN  =      1    spin polarized calculation?
   LNONCOLLINEAR =      F non collinear calculations
   LSORBIT =      F    spin-orbit coupling
   INIWAV =      1    electr: 0-lowe 1-rand  2-diag
   LASPH  =      T    aspherical Exc in radial PAW
   METAGGA=      F    non-selfconsistent MetaGGA calc.

 Electronic Relaxation 1
   ENCUT  =  300.0 eV  22.05 Ry    4.70 a.u.  11.56 16.45 11.98*2*pi/ulx,y,z
   ENINI  =  300.0     initial cutoff
   ENAUG  =  503.9 eV  augmentation charge cutoff
   NELM   =    200;   NELMIN=  2; NELMDL= -5     # of ELM steps 
   EDIFF  = 0.1E-05   stopping-criterion for ELM
   LREAL  =      T    real-space projection
   NLSPLINE    = F    spline interpolate recip. space projectors
   LCOMPAT=      F    compatible to vasp.4.4
   GGA_COMPAT  = T    GGA compatible to vasp.4.4-vasp.4.6
   LMAXPAW     = -100 max onsite density
   LMAXMIX     =    2 max onsite mixed and CHGCAR
   VOSKOWN=      0    Vosko Wilk Nusair interpolation
   ROPT   =   -0.00025  -0.00025  -0.00025
 Ionic relaxation
   EDIFFG = -.1E-01   stopping-criterion for IOM
   NSW    =      0    number of steps for IOM
   NBLOCK =      1;   KBLOCK =      1    inner block; outer block 
   IBRION =     -1    ionic relax: 0-MD 1-quasi-New 2-CG
   NFREE  =      1    steps in history (QN), initial steepest desc. (CG)
   ISIF   =      3    stress and relaxation
   IWAVPR =     10    prediction:  0-non 1-charg 2-wave 3-comb
   ISYM   =      2    0-nonsym 1-usesym 2-fastsym
   LCORR  =      T    Harris-Foulkes like correction to forces

   POTIM  = 0.5000    time-step for ionic-motion
   TEIN   =    0.0    initial temperature
   TEBEG  =    0.0;   TEEND  =   0.0 temperature during run
   SMASS  =  -3.00    Nose mass-parameter (am)
   estimated Nose-frequenzy (Omega)   =  0.10E-29 period in steps =****** mass=  -0.153E-26a.u.
   SCALEE = 1.0000    scale energy and forces
   NPACO  =    256;   APACO  = 16.0  distance and # of slots for P.C.
   PSTRESS=    0.0 pullay stress

  Mass of Ions in am
   POMASS = 132.90207.20 79.90
  Ionic Valenz
   ZVAL   =   9.00 14.00  7.00
  Atomic Wigner-Seitz radii
   RWIGS  =  -1.00 -1.00 -1.00
  virtual crystal weights 
   VCA    =   1.00  1.00  1.00
   NELECT =     176.0000    total number of electrons
   NUPDOWN=      -1.0000    fix difference up-down

 DOS related values:
   EMIN   =  10.00;   EMAX   =-10.00  energy-range for DOS
   EFERMI =   0.00
   ISMEAR =     0;   SIGMA  =   0.01  broadening in eV -4-tet -1-fermi 0-gaus

 Electronic relaxation 2 (details)
   IALGO  =     38    algorithm
   LDIAG  =      T    sub-space diagonalisation (order eigenvalues)
   LSUBROT=      F    optimize rotation matrix (better conditioning)
   TURBO    =      0    0=normal 1=particle mesh
   IRESTART =      0    0=no restart 2=restart with 2 vectors
   NREBOOT  =      0    no. of reboots
   NMIN     =      0    reboot dimension
   EREF     =   0.00    reference energy to select bands
   IMIX   =      4    mixing-type and parameters
     AMIX     =   0.40;   BMIX     =  1.00
     AMIX_MAG =   1.60;   BMIX_MAG =  1.00
     AMIN     =   0.10
     WC   =   100.;   INIMIX=   1;  MIXPRE=   1;  MAXMIX= -45

 Intra band minimization:
   WEIMIN = 0.0000     energy-eigenvalue tresh-hold
   EBREAK =  0.22E-08  absolut break condition
   DEPER  =   0.30     relativ break condition  

   TIME   =   0.40     timestep for ELM

  volume/ion in A,a.u.               =      40.43       272.86
  Fermi-wavevector in a.u.,A,eV,Ry     =   0.984736  1.860880 13.193626  0.969704
  Thomas-Fermi vector in A             =   2.115990

 Write flags
   LWAVE        =      F    write WAVECAR
   LDOWNSAMPLE  =      F    k-point downsampling of WAVECAR
   LCHARG       =      F    write CHGCAR
   LVTOT        =      F    write LOCPOT, total local potential
   LVHAR        =      T    write LOCPOT, Hartree potential only
   LELF         =      F    write electronic localiz. function (ELF)
   LORBIT       =     10    0 simple, 1 ext, 2 COOP (PROOUT), +10 PAW based schemes


 Dipole corrections
   LMONO  =      F    monopole corrections only (constant potential shift)
   LDIPOL =      F    correct potential (dipole corrections)
   IDIPOL =      0    1-x, 2-y, 3-z, 4-all directions 
   EPSILON=  1.0000000 bulk dielectric constant

 Exchange correlation treatment:
   GGA     =    --    GGA type
   LEXCH   =     8    internal setting for exchange type
   VOSKOWN=      0    Vosko Wilk Nusair interpolation
   LHFCALC =     F    Hartree Fock is set to
   LHFONE  =     F    Hartree Fock one center treatment
   AEXX    =    0.0000 exact exchange contribution

 Linear response parameters
   LEPSILON=     F    determine dielectric tensor
   LRPA    =     F    only Hartree local field effects (RPA)
   LNABLA  =     F    use nabla operator in PAW spheres
   LVEL    =     F    velocity operator in full k-point grid
   LINTERFAST=   F  fast interpolation
   KINTER  =     0    interpolate to denser k-point grid
   CSHIFT  =0.1000    complex shift for real part using Kramers Kronig
   OMEGAMAX=  -1.0    maximum frequency
   DEG_THRESHOLD= 0.2000000E-02 threshold for treating states as degnerate
   RTIME   =   -0.100 relaxation time in fs
  (WPLASMAI=    0.000 imaginary part of plasma frequency in eV, 0.658/RTIME)
   DFIELD  = 0.0000000 0.0000000 0.0000000 field for delta impulse in time

 Orbital magnetization related:
   ORBITALMAG=     F  switch on orbital magnetization
   LCHIMAG   =     F  perturbation theory with respect to B field
   DQ        =  0.001000  dq finite difference perturbation B field
   LLRAUG    =     F  two centre corrections for induced B field



--------------------------------------------------------------------------------------------------------


 Static calculation
 charge density and potential will be updated during run
 non-spin polarized calculation
 Variant of blocked Davidson
 Davidson routine will perform the subspace rotation
 perform sub-space diagonalisation
    after iterative eigenvector-optimisation
 modified Broyden-mixing scheme, WC =      100.0
 initial mixing is a Kerker type mixing with AMIX =  0.4000 and BMIX =      1.0000
 Hartree-type preconditioning will be used
 using additional bands           24
 real space projection scheme for non local part
 use partial core corrections
 calculate Harris-corrections to forces   (improved forces if not selfconsistent)
 use gradient corrections 
 use of overlap-Matrix (Vanderbilt PP)
 Gauss-broadening in eV      SIGMA  =   0.01


--------------------------------------------------------------------------------------------------------


  energy-cutoff  :      300.00
  volume of cell :      808.68
      direct lattice vectors                 reciprocal lattice vectors
     8.185593126  0.000000000  0.000000000     0.122165857  0.000000000  0.000000000
     0.000000000 11.647589084  0.000000000     0.000000000  0.085854677  0.000000000
     0.000000000  0.000000000  8.481879581     0.000000000  0.000000000  0.117898396

  length of vectors
     8.185593126 11.647589084  8.481879581     0.122165857  0.085854677  0.117898396



 k-points in units of 2pi/SCALE and weight: 1x1x1                                   
   0.00000000  0.00000000  0.00000000       0.056
   0.04072195  0.00000000  0.00000000       0.111
   0.00000000  0.04292734  0.00000000       0.056
   0.04072195  0.04292734  0.00000000       0.111
   0.00000000  0.00000000  0.03929947       0.111
   0.04072195  0.00000000  0.03929947       0.222
   0.00000000  0.04292734  0.03929947       0.111
   0.04072195  0.04292734  0.03929947       0.222

 k-points in reciprocal lattice and weights: 1x1x1                                   
   0.00000000  0.00000000  0.00000000       0.056
   0.33333333  0.00000000  0.00000000       0.111
   0.00000000  0.50000000  0.00000000       0.056
   0.33333333  0.50000000  0.00000000       0.111
   0.00000000  0.00000000  0.33333333       0.111
   0.33333333  0.00000000  0.33333333       0.222
   0.00000000  0.50000000  0.33333333       0.111
   0.33333333  0.50000000  0.33333333       0.222

 position of ions in fractional coordinates (direct lattice) 
   0.04609920  0.25000000  0.49234287
   0.45390080  0.75000000  0.99234287
   0.54609920  0.25000000  0.00765713
   0.95390080  0.75000000  0.50765713
   0.00000000  0.00000000  0.00000000
   0.50000000  0.00000000  0.50000000
   0.50000000  0.50000000  0.50000000
   0.00000000  0.50000000  0.00000000
   0.50608633  0.75000000  0.42373364
   0.99391367  0.25000000  0.92373364
   0.00608633  0.75000000  0.07626636
   0.49391367  0.25000000  0.57626636
   0.28792791  0.46132041  0.21442650
   0.21207209  0.53867959  0.71442650
   0.78792791  0.03867959  0.28557350
   0.71207209  0.96132041  0.78557350
   0.28792791  0.03867959  0.21442650
   0.21207209  0.96132041  0.71442650
   0.71207209  0.53867959  0.78557350
   0.78792791  0.46132041  0.28557350

 position of ions in cartesian coordinates  (Angst):
   0.37734932  2.91189727  4.17599296
   3.71544725  8.73569181  8.41693275
   4.47014588  2.91189727  0.06494683
   7.80824381  8.73569181  4.30588662
   0.00000000  0.00000000  0.00000000
   4.09279656  0.00000000  4.24093979
   4.09279656  5.82379454  4.24093979
   0.00000000  5.82379454  0.00000000
   4.14261682  8.73569181  3.59405768
   8.13577287  2.91189727  7.83499747
   0.04982026  8.73569181  0.64688211
   4.04297631  2.91189727  4.88782190
   2.35686074  5.37327060  1.81873972
   1.73593583  6.27431849  6.05967951
   6.44965730  0.45052395  2.42220007
   5.82873239 11.19706514  6.66313986
   2.35686074  0.45052395  1.81873972
   1.73593583 11.19706514  6.05967951
   5.82873239  6.27431849  6.66313986
   6.44965730  5.37327060  2.42220007



--------------------------------------------------------------------------------------------------------


 k-point  1 :   0.0000 0.0000 0.0000  plane waves:    9525
 k-point  2 :   0.3333 0.0000 0.0000  plane waves:    9557
 k-point  3 :   0.0000 0.5000 0.0000  plane waves:    9524
 k-point  4 :   0.3333 0.5000 0.0000  plane waves:    9512
 k-point  5 :   0.0000 0.0000 0.3333  plane waves:    9554
 k-point  6 :   0.3333 0.0000 0.3333  plane waves:    9559
 k-point  7 :   0.0000 0.5000 0.3333  plane waves:    9540
 k-point  8 :   0.3333 0.5000 0.3333  plane waves:    9520

 maximum and minimum number of plane-waves per node :      1215     1169

 maximum number of plane-waves:      9559
 maximum index in each direction: 
   IXMAX=   11   IYMAX=   16   IZMAX=   11
   IXMIN=  -11   IYMIN=  -16   IZMIN=  -12


 real space projection operators:
  total allocation   :       7909.12 KBytes
  max/ min on nodes  :       1004.19        968.44


 parallel 3D FFT for wavefunctions:
    minimum data exchange during FFTs selected (reduces bandwidth)
 parallel 3D FFT for charge:
    minimum data exchange during FFTs selected (reduces bandwidth)


 total amount of memory used by VASP MPI-rank0    42375. kBytes
=======================================================================

   base      :      30000. kBytes
   nonlr-proj:       3001. kBytes
   fftplans  :       3668. kBytes
   grid      :       3424. kBytes
   one-center:         46. kBytes
   wavefun   :       2236. kBytes

     INWAV:  cpu time    0.0000: real time    0.0000
 Broyden mixing: mesh for mixing (old mesh)
   NGX = 23   NGY = 33   NGZ = 23
  (NGX  = 96   NGY  =140   NGZ  = 96)
  gives a total of  17457 points

 initial charge density was supplied:
 charge density of overlapping atoms calculated
 number of electron     176.0000000 magnetization 
 keeping initial charge density in first step


--------------------------------------------------------------------------------------------------------


 Maximum index for non-local projection operator          626
 Maximum index for augmentation-charges         2283 (set IRDMAX)


--------------------------------------------------------------------------------------------------------


 First call to EWALD:  gamma=   0.190
 Maximum number of real-space cells 3x 2x 3
 Maximum number of reciprocal cells 2x 3x 3

    FEWALD:  cpu time    0.0018: real time    0.0018


--------------------------------------- Iteration      1(   1)  ---------------------------------------


    POTLOK:  cpu time    0.1283: real time    0.1403
    SETDIJ:  cpu time    1.0958: real time    1.0958
     EDDAV:  cpu time    3.9738: real time    3.9789
       DOS:  cpu time    0.0006: real time    0.0006
    --------------------------------------------
      LOOP:  cpu time    5.1986: real time    5.2156

 eigenvalue-minimisations  :  1856
 total energy-change (2. order) : 0.6571696E+03  (-0.5598191E+04)
 number of electron     176.0000000 magnetization 
 augmentation part      176.0000000 magnetization 

 Free energy of the ion-electron system (eV)
  ---------------------------------------------------
  alpha Z        PSCENC =       446.16858218
  Ewald energy   TEWEN  =     -9205.52149891
  -Hartree energ DENC   =     -3667.69475045
  -exchange      EXHF   =         0.00000000
  -V(xc)+E(xc)   XCENC  =       461.93349449
  PAW double counting   =     10816.98087266   -11353.96092700
  entropy T*S    EENTRO =        -0.00107155
  eigenvalues    EBANDS =      -131.01520148
  atomic energy  EATOM  =     13290.28009929
  Solvation  Ediel_sol  =         0.00000000
  ---------------------------------------------------
  free energy    TOTEN  =       657.16959922 eV

  energy without entropy =      657.17067077  energy(sigma->0) =      657.17013499


--------------------------------------------------------------------------------------------------------




--------------------------------------- Iteration      1(   2)  ---------------------------------------


     EDDAV:  cpu time    4.4265: real time    4.4508
       DOS:  cpu time    0.0006: real time    0.0006
    --------------------------------------------
      LOOP:  cpu time    4.4271: real time    4.4514

 eigenvalue-minimisations  :  2168
 total energy-change (2. order) :-0.1230902E+04  (-0.1172059E+04)
 number of electron     176.0000000 magnetization 
 augmentation part      176.0000000 magnetization 

 Free energy of the ion-electron system (eV)
  ---------------------------------------------------
  alpha Z        PSCENC =       446.16858218
  Ewald energy   TEWEN  =     -9205.52149891
  -Hartree energ DENC   =     -3667.69475045
  -exchange      EXHF   =         0.00000000
  -V(xc)+E(xc)   XCENC  =       461.93349449
  PAW double counting   =     10816.98087266   -11353.96092700
  entropy T*S    EENTRO =        -0.00000000
  eigenvalues    EBANDS =     -1361.91863579
  atomic energy  EATOM  =     13290.28009929
  Solvation  Ediel_sol  =         0.00000000
  ---------------------------------------------------
  free energy    TOTEN  =      -573.73276354 eV

  energy without entropy =     -573.73276354  energy(sigma->0) =     -573.73276354


--------------------------------------------------------------------------------------------------------




--------------------------------------- Iteration      1(   3)  ---------------------------------------


     EDDAV:  cpu time    4.7931: real time    4.8053
       DOS:  cpu time    0.0003: real time    0.0003
    --------------------------------------------
      LOOP:  cpu time    4.7934: real time    4.8056

 eigenvalue-minimisations  :  2448
 total energy-change (2. order) :-0.1751733E+03  (-0.1740517E+03)
 number of electron     176.0000000 magnetization 
 augmentation part      176.0000000 magnetization 

 Free energy of the ion-electron system (eV)
  ---------------------------------------------------
  alpha Z        PSCENC =       446.16858218
  Ewald energy   TEWEN  =     -9205.52149891
  -Hartree energ DENC   =     -3667.69475045
  -exchange      EXHF   =         0.00000000
  -V(xc)+E(xc)   XCENC  =       461.93349449
  PAW double counting   =     10816.98087266   -11353.96092700
  entropy T*S    EENTRO =        -0.00000000
  eigenvalues    EBANDS =     -1537.09189068
  atomic energy  EATOM  =     13290.28009929
  Solvation  Ediel_sol  =         0.00000000
  ---------------------------------------------------
  free energy    TOTEN  =      -748.90601843 eV

  energy without entropy =     -748.90601843  energy(sigma->0) =     -748.90601843


--------------------------------------------------------------------------------------------------------




--------------------------------------- Iteration      1(   4)  ---------------------------------------


     EDDAV:  cpu time    4.4563: real time    4.4716
       DOS:  cpu time    0.0003: real time    0.0003
    --------------------------------------------
      LOOP:  cpu time    4.4566: real time    4.4720

 eigenvalue-minimisations  :  2184
 total energy-change (2. order) :-0.5531657E+01  (-0.5513505E+01)
 number of electron     176.0000000 magnetization 
 augmentation part      176.0000000 magnetization 

 Free energy of the ion-electron system (eV)
  ---------------------------------------------------
  alpha Z        PSCENC =       446.16858218
  Ewald energy   TEWEN  =     -9205.52149891
  -Hartree energ DENC   =     -3667.69475045
  -exchange      EXHF   =         0.00000000
  -V(xc)+E(xc)   XCENC  =       461.93349449
  PAW double counting   =     10816.98087266   -11353.96092700
  entropy T*S    EENTRO =        -0.00000000
  eigenvalues    EBANDS =     -1542.62354776
  atomic energy  EATOM  =     13290.28009929
  Solvation  Ediel_sol  =         0.00000000
  ---------------------------------------------------
  free energy    TOTEN  =      -754.43767551 eV

  energy without entropy =     -754.43767551  energy(sigma->0) =     -754.43767551


--------------------------------------------------------------------------------------------------------




--------------------------------------- Iteration      1(   5)  ---------------------------------------


     EDDAV:  cpu time    4.7409: real time    4.7646
       DOS:  cpu time    0.0004: real time    0.0004
    CHARGE:  cpu time    0.8701: real time    0.8702
    MIXING:  cpu time    0.0008: real time    0.0008
    --------------------------------------------
      LOOP:  cpu time    5.6123: real time    5.6360

 eigenvalue-minimisations  :  2408
 total energy-change (2. order) :-0.2546987E+00  (-0.2545105E+00)
 number of electron     175.9999999 magnetization 
 augmentation part       -3.2478464 magnetization 

 Broyden mixing:
  rms(total) = 0.70367E+00    rms(broyden)= 0.70340E+00
  rms(prec ) = 0.98163E+00
  weight for this iteration     100.00

 Free energy of the ion-electron system (eV)
  ---------------------------------------------------
  alpha Z        PSCENC =       446.16858218
  Ewald energy   TEWEN  =     -9205.52149891
  -Hartree energ DENC   =     -3667.69475045
  -exchange      EXHF   =         0.00000000
  -V(xc)+E(xc)   XCENC  =       461.93349449
  PAW double counting   =     10816.98087266   -11353.96092700
  entropy T*S    EENTRO =        -0.00000000
  eigenvalues    EBANDS =     -1542.87824645
  atomic energy  EATOM  =     13290.28009929
  Solvation  Ediel_sol  =         0.00000000
  ---------------------------------------------------
  free energy    TOTEN  =      -754.69237420 eV

  energy without entropy =     -754.69237420  energy(sigma->0) =     -754.69237420


--------------------------------------------------------------------------------------------------------




--------------------------------------- Iteration      1(   6)  ---------------------------------------


    POTLOK:  cpu time    0.1473: real time    0.1738
    SETDIJ:  cpu time    1.0965: real time    1.0965
     EDDAV:  cpu time    4.6380: real time    4.6381
       DOS:  cpu time    0.0004: real time    0.0004
    CHARGE:  cpu time    0.8431: real time    0.8431
    MIXING:  cpu time    0.0009: real time    0.0009
    --------------------------------------------
      LOOP:  cpu time    6.7262: real time    6.7529

 eigenvalue-minimisations  :  2368
 total energy-change (2. order) : 0.3973188E+02  (-0.1178986E+01)
 number of electron     175.9999999 magnetization 
 augmentation part       -2.5229411 magnetization 

 Broyden mixing:
  rms(total) = 0.50119E+00    rms(broyden)= 0.50111E+00
  rms(prec ) = 0.62486E+00
  weight for this iteration     100.00

 eigenvalues of (default mixing * dielectric matrix)
  average eigenvalue GAMMA=   1.1608
  1.1608

 Free energy of the ion-electron system (eV)
  ---------------------------------------------------
  alpha Z        PSCENC =       446.16858218
  Ewald energy   TEWEN  =     -9205.52149891
  -Hartree energ DENC   =     -3658.25345876
  -exchange      EXHF   =         0.00000000
  -V(xc)+E(xc)   XCENC  =       477.33990285
  PAW double counting   =     10963.01126867   -11499.12209382
  entropy T*S    EENTRO =        -0.00000000
  eigenvalues    EBANDS =     -1528.86329804
  atomic energy  EATOM  =     13290.28009929
  Solvation  Ediel_sol  =         0.00000000
  ---------------------------------------------------
  free energy    TOTEN  =      -714.96049655 eV

  energy without entropy =     -714.96049655  energy(sigma->0) =     -714.96049655


--------------------------------------------------------------------------------------------------------




--------------------------------------- Iteration      1(   7)  ---------------------------------------


    POTLOK:  cpu time    0.1743: real time    0.1758
    SETDIJ:  cpu time    1.0962: real time    1.0962
     EDDAV:  cpu time    4.5266: real time    4.5269
       DOS:  cpu time    0.0004: real time    0.0004
    CHARGE:  cpu time    0.8325: real time    0.8326
    MIXING:  cpu time    0.0009: real time    0.0009
    --------------------------------------------
      LOOP:  cpu time    6.6308: real time    6.6327

 eigenvalue-minimisations  :  2280
 total energy-change (2. order) : 0.2320537E+00  (-0.3847406E+00)
 number of electron     175.9999999 magnetization 
 augmentation part       -2.2596995 magnetization 

 Broyden mixing:
  rms(total) = 0.25744E+00    rms(broyden)= 0.25742E+00
  rms(prec ) = 0.28293E+00
  weight for this iteration     100.00

 eigenvalues of (default mixing * dielectric matrix)
  average eigenvalue GAMMA=   1.3153
  1.3153  1.3153

 Free energy of the ion-electron system (eV)
  ---------------------------------------------------
  alpha Z        PSCENC =       446.16858218
  Ewald energy   TEWEN  =     -9205.52149891
  -Hartree energ DENC   =     -3678.21787338
  -exchange      EXHF   =         0.00000000
  -V(xc)+E(xc)   XCENC  =       479.95462260
  PAW double counting   =     11269.72885206   -11804.94876378
  entropy T*S    EENTRO =        -0.00000000
  eigenvalues    EBANDS =     -1512.17246293
  atomic energy  EATOM  =     13290.28009929
  Solvation  Ediel_sol  =         0.00000000
  ---------------------------------------------------
  free energy    TOTEN  =      -714.72844286 eV

  energy without entropy =     -714.72844286  energy(sigma->0) =     -714.72844286


--------------------------------------------------------------------------------------------------------




--------------------------------------- Iteration      1(   8)  ---------------------------------------


    POTLOK:  cpu time    0.1584: real time    0.1700
    SETDIJ:  cpu time    1.0962: real time    1.0962
     EDDAV:  cpu time    4.3427: real time    4.3429
       DOS:  cpu time    0.0004: real time    0.0004
    CHARGE:  cpu time    0.8308: real time    0.8308
    MIXING:  cpu time    0.0009: real time    0.0009
    --------------------------------------------
      LOOP:  cpu time    6.4295: real time    6.4413

 eigenvalue-minimisations  :  2144
 total energy-change (2. order) :-0.9545858E-01  (-0.1816607E-01)
 number of electron     175.9999999 magnetization 
 augmentation part       -2.3010906 magnetization 

 Broyden mixing:
  rms(total) = 0.14820E+00    rms(broyden)= 0.14820E+00
  rms(prec ) = 0.16435E+00
  weight for this iteration     100.00

 eigenvalues of (default mixing * dielectric matrix)
  average eigenvalue GAMMA=   1.7196
  1.1081  1.3037  2.7471

 Free energy of the ion-electron system (eV)
  ---------------------------------------------------
  alpha Z        PSCENC =       446.16858218
  Ewald energy   TEWEN  =     -9205.52149891
  -Hartree energ DENC   =     -3680.44956572
  -exchange      EXHF   =         0.00000000
  -V(xc)+E(xc)   XCENC  =       480.33800180
  PAW double counting   =     11389.83927869   -11925.21066706
  entropy T*S    EENTRO =        -0.00000000
  eigenvalues    EBANDS =     -1510.26813171
  atomic energy  EATOM  =     13290.28009929
  Solvation  Ediel_sol  =         0.00000000
  ---------------------------------------------------
  free energy    TOTEN  =      -714.82390145 eV

  energy without entropy =     -714.82390145  energy(sigma->0) =     -714.82390145


--------------------------------------------------------------------------------------------------------




--------------------------------------- Iteration      1(   9)  ---------------------------------------


    POTLOK:  cpu time    0.1198: real time    0.1771
    SETDIJ:  cpu time    1.0947: real time    1.0947
     EDDAV:  cpu time    4.1322: real time    4.1323
       DOS:  cpu time    0.0005: real time    0.0005
    CHARGE:  cpu time    0.8292: real time    0.8293
    MIXING:  cpu time    0.0009: real time    0.0009
    --------------------------------------------
      LOOP:  cpu time    6.1773: real time    6.2348

 eigenvalue-minimisations  :  1984
 total energy-change (2. order) :-0.4157008E-01  (-0.8410440E-02)
 number of electron     175.9999999 magnetization 
 augmentation part       -2.3227081 magnetization 

 Broyden mixing:
  rms(total) = 0.32655E-01    rms(broyden)= 0.32652E-01
  rms(prec ) = 0.35008E-01
  weight for this iteration     100.00

 eigenvalues of (default mixing * dielectric matrix)
  average eigenvalue GAMMA=   1.4661
  2.5571  1.2411  1.2411  0.8251

 Free energy of the ion-electron system (eV)
  ---------------------------------------------------
  alpha Z        PSCENC =       446.16858218
  Ewald energy   TEWEN  =     -9205.52149891
  -Hartree energ DENC   =     -3683.04988301
  -exchange      EXHF   =         0.00000000
  -V(xc)+E(xc)   XCENC  =       481.34580042
  PAW double counting   =     11562.97482088   -12098.70854136
  entropy T*S    EENTRO =        -0.00000000
  eigenvalues    EBANDS =     -1508.35485102
  atomic energy  EATOM  =     13290.28009929
  Solvation  Ediel_sol  =         0.00000000
  ---------------------------------------------------
  free energy    TOTEN  =      -714.86547153 eV

  energy without entropy =     -714.86547153  energy(sigma->0) =     -714.86547153


--------------------------------------------------------------------------------------------------------




--------------------------------------- Iteration      1(  10)  ---------------------------------------


    POTLOK:  cpu time    0.1237: real time    0.1769
    SETDIJ:  cpu time    1.0955: real time    1.0956
     EDDAV:  cpu time    4.9648: real time    4.9651
       DOS:  cpu time    0.0004: real time    0.0004
    CHARGE:  cpu time    0.8286: real time    0.8287
    MIXING:  cpu time    0.0010: real time    0.0010
    --------------------------------------------
      LOOP:  cpu time    7.0140: real time    7.0676

 eigenvalue-minimisations  :  2608
 total energy-change (2. order) :-0.7758305E-03  (-0.4784060E-03)
 number of electron     175.9999999 magnetization 
 augmentation part       -2.3159868 magnetization 

 Broyden mixing:
  rms(total) = 0.18660E-01    rms(broyden)= 0.18659E-01
  rms(prec ) = 0.20734E-01
  weight for this iteration     100.00

 eigenvalues of (default mixing * dielectric matrix)
  average eigenvalue GAMMA=   1.5869
  2.4172  2.4172  1.1276  1.1276  0.8447

 Free energy of the ion-electron system (eV)
  ---------------------------------------------------
  alpha Z        PSCENC =       446.16858218
  Ewald energy   TEWEN  =     -9205.52149891
  -Hartree energ DENC   =     -3682.13049208
  -exchange      EXHF   =         0.00000000
  -V(xc)+E(xc)   XCENC  =       481.23546096
  PAW double counting   =     11544.85555917   -12080.62639201
  entropy T*S    EENTRO =        -0.00000000
  eigenvalues    EBANDS =     -1509.12756595
  atomic energy  EATOM  =     13290.28009929
  Solvation  Ediel_sol  =         0.00000000
  ---------------------------------------------------
  free energy    TOTEN  =      -714.86624736 eV

  energy without entropy =     -714.86624736  energy(sigma->0) =     -714.86624736


--------------------------------------------------------------------------------------------------------




--------------------------------------- Iteration      1(  11)  ---------------------------------------


    POTLOK:  cpu time    0.1714: real time    0.1739
    SETDIJ:  cpu time    1.0926: real time    1.0927
     EDDAV:  cpu time    4.1666: real time    4.1668
       DOS:  cpu time    0.0004: real time    0.0004
    CHARGE:  cpu time    0.8326: real time    0.8327
    MIXING:  cpu time    0.0010: real time    0.0010
    --------------------------------------------
      LOOP:  cpu time    6.2647: real time    6.2674

 eigenvalue-minimisations  :  2016
 total energy-change (2. order) :-0.1476879E-02  (-0.1619350E-03)
 number of electron     175.9999999 magnetization 
 augmentation part       -2.3154519 magnetization 

 Broyden mixing:
  rms(total) = 0.66644E-02    rms(broyden)= 0.66638E-02
  rms(prec ) = 0.81899E-02
  weight for this iteration     100.00

 eigenvalues of (default mixing * dielectric matrix)
  average eigenvalue GAMMA=   1.5753
  2.5758  2.5758  1.2319  1.2319  0.9182  0.9182

 Free energy of the ion-electron system (eV)
  ---------------------------------------------------
  alpha Z        PSCENC =       446.16858218
  Ewald energy   TEWEN  =     -9205.52149891
  -Hartree energ DENC   =     -3680.80670051
  -exchange      EXHF   =         0.00000000
  -V(xc)+E(xc)   XCENC  =       481.18490562
  PAW double counting   =     11530.39374329   -12066.31174818
  entropy T*S    EENTRO =        -0.00000000
  eigenvalues    EBANDS =     -1510.25510700
  atomic energy  EATOM  =     13290.28009929
  Solvation  Ediel_sol  =         0.00000000
  ---------------------------------------------------
  free energy    TOTEN  =      -714.86772424 eV

  energy without entropy =     -714.86772424  energy(sigma->0) =     -714.86772424


--------------------------------------------------------------------------------------------------------




--------------------------------------- Iteration      1(  12)  ---------------------------------------


    POTLOK:  cpu time    0.1573: real time    0.1723
    SETDIJ:  cpu time    1.0945: real time    1.0946
     EDDAV:  cpu time    4.3080: real time    4.3083
       DOS:  cpu time    0.0004: real time    0.0004
    CHARGE:  cpu time    0.8300: real time    0.8301
    MIXING:  cpu time    0.0010: real time    0.0010
    --------------------------------------------
      LOOP:  cpu time    6.3913: real time    6.4066

 eigenvalue-minimisations  :  2120
 total energy-change (2. order) :-0.1110202E-03  (-0.4625788E-04)
 number of electron     175.9999999 magnetization 
 augmentation part       -2.3172596 magnetization 

 Broyden mixing:
  rms(total) = 0.24047E-02    rms(broyden)= 0.24037E-02
  rms(prec ) = 0.26491E-02
  weight for this iteration     100.00

 eigenvalues of (default mixing * dielectric matrix)
  average eigenvalue GAMMA=   1.6314
  3.0394  2.3715  1.8491  1.2113  1.0294  0.9597  0.9597

 Free energy of the ion-electron system (eV)
  ---------------------------------------------------
  alpha Z        PSCENC =       446.16858218
  Ewald energy   TEWEN  =     -9205.52149891
  -Hartree energ DENC   =     -3680.92752739
  -exchange      EXHF   =         0.00000000
  -V(xc)+E(xc)   XCENC  =       481.24727092
  PAW double counting   =     11535.56652017   -12071.53407821
  entropy T*S    EENTRO =        -0.00000000
  eigenvalues    EBANDS =     -1510.14720330
  atomic energy  EATOM  =     13290.28009929
  Solvation  Ediel_sol  =         0.00000000
  ---------------------------------------------------
  free energy    TOTEN  =      -714.86783526 eV

  energy without entropy =     -714.86783526  energy(sigma->0) =     -714.86783526


--------------------------------------------------------------------------------------------------------




--------------------------------------- Iteration      1(  13)  ---------------------------------------


    POTLOK:  cpu time    0.1195: real time    0.1658
    SETDIJ:  cpu time    1.0930: real time    1.0931
     EDDAV:  cpu time    4.4279: real time    4.4281
       DOS:  cpu time    0.0004: real time    0.0004
    CHARGE:  cpu time    0.8267: real time    0.8268
    MIXING:  cpu time    0.0014: real time    0.0014
    --------------------------------------------
      LOOP:  cpu time    6.4690: real time    6.5156

 eigenvalue-minimisations  :  2208
 total energy-change (2. order) :-0.1723035E-04  (-0.3617913E-05)
 number of electron     175.9999999 magnetization 
 augmentation part       -2.3172399 magnetization 

 Broyden mixing:
  rms(total) = 0.72912E-03    rms(broyden)= 0.72713E-03
  rms(prec ) = 0.77662E-03
  weight for this iteration     100.00

 eigenvalues of (default mixing * dielectric matrix)
  average eigenvalue GAMMA=   1.6351
  3.0020  2.2939  2.2939  1.2826  1.2826  0.9308  0.9975  0.9975

 Free energy of the ion-electron system (eV)
  ---------------------------------------------------
  alpha Z        PSCENC =       446.16858218
  Ewald energy   TEWEN  =     -9205.52149891
  -Hartree energ DENC   =     -3681.05267865
  -exchange      EXHF   =         0.00000000
  -V(xc)+E(xc)   XCENC  =       481.25860613
  PAW double counting   =     11534.00301686   -12069.97652934
  entropy T*S    EENTRO =        -0.00000000
  eigenvalues    EBANDS =     -1510.02745004
  atomic energy  EATOM  =     13290.28009929
  Solvation  Ediel_sol  =         0.00000000
  ---------------------------------------------------
  free energy    TOTEN  =      -714.86785249 eV

  energy without entropy =     -714.86785249  energy(sigma->0) =     -714.86785249


--------------------------------------------------------------------------------------------------------




--------------------------------------- Iteration      1(  14)  ---------------------------------------


    POTLOK:  cpu time    0.1380: real time    0.1606
    SETDIJ:  cpu time    1.0941: real time    1.0941
     EDDAV:  cpu time    3.9094: real time    3.9096
       DOS:  cpu time    0.0004: real time    0.0004
    CHARGE:  cpu time    0.8425: real time    0.8426
    MIXING:  cpu time    0.0011: real time    0.0011
    --------------------------------------------
      LOOP:  cpu time    5.9855: real time    6.0084

 eigenvalue-minimisations  :  1784
 total energy-change (2. order) :-0.4376019E-05  (-0.2865757E-06)
 number of electron     175.9999999 magnetization 
 augmentation part       -2.3170577 magnetization 

 Broyden mixing:
  rms(total) = 0.19654E-03    rms(broyden)= 0.18943E-03
  rms(prec ) = 0.22841E-03
  weight for this iteration     100.00

 eigenvalues of (default mixing * dielectric matrix)
  average eigenvalue GAMMA=   1.6751
  2.8135  2.8135  2.0987  2.0987  1.1826  1.1826  0.9314  0.9773  0.9773

 Free energy of the ion-electron system (eV)
  ---------------------------------------------------
  alpha Z        PSCENC =       446.16858218
  Ewald energy   TEWEN  =     -9205.52149891
  -Hartree energ DENC   =     -3681.07131346
  -exchange      EXHF   =         0.00000000
  -V(xc)+E(xc)   XCENC  =       481.25944160
  PAW double counting   =     11533.74088851   -12069.71215321
  entropy T*S    EENTRO =        -0.00000000
  eigenvalues    EBANDS =     -1510.01190287
  atomic energy  EATOM  =     13290.28009929
  Solvation  Ediel_sol  =         0.00000000
  ---------------------------------------------------
  free energy    TOTEN  =      -714.86785686 eV

  energy without entropy =     -714.86785686  energy(sigma->0) =     -714.86785686


--------------------------------------------------------------------------------------------------------




--------------------------------------- Iteration      1(  15)  ---------------------------------------


    POTLOK:  cpu time    0.1200: real time    0.1604
    SETDIJ:  cpu time    1.0927: real time    1.0927
     EDDAV:  cpu time    3.2153: real time    3.2154
       DOS:  cpu time    0.0004: real time    0.0004
    CHARGE:  cpu time    0.8306: real time    0.8307
    MIXING:  cpu time    0.0011: real time    0.0011
    --------------------------------------------
      LOOP:  cpu time    5.2601: real time    5.3006

 eigenvalue-minimisations  :  1240
 total energy-change (2. order) :-0.6431132E-05  (-0.6302377E-07)
 number of electron     175.9999999 magnetization 
 augmentation part       -2.3170822 magnetization 

 Broyden mixing:
  rms(total) = 0.99599E-04    rms(broyden)= 0.84804E-04
  rms(prec ) = 0.10168E-03
  weight for this iteration     100.00
  WARNING: grid for Broyden might be to small

 eigenvalues of (default mixing * dielectric matrix)
  average eigenvalue GAMMA=   1.6364
  3.0458  2.5174  2.5174  1.9746  1.2068  1.2068  1.0255  1.0255  0.9219  0.9219

 Free energy of the ion-electron system (eV)
  ---------------------------------------------------
  alpha Z        PSCENC =       446.16858218
  Ewald energy   TEWEN  =     -9205.52149891
  -Hartree energ DENC   =     -3681.05048222
  -exchange      EXHF   =         0.00000000
  -V(xc)+E(xc)   XCENC  =       481.25803950
  PAW double counting   =     11533.71432978   -12069.68606769
  entropy T*S    EENTRO =        -0.00000000
  eigenvalues    EBANDS =     -1510.03086524
  atomic energy  EATOM  =     13290.28009929
  Solvation  Ediel_sol  =         0.00000000
  ---------------------------------------------------
  free energy    TOTEN  =      -714.86786330 eV

  energy without entropy =     -714.86786330  energy(sigma->0) =     -714.86786330


--------------------------------------------------------------------------------------------------------




--------------------------------------- Iteration      1(  16)  ---------------------------------------


    POTLOK:  cpu time    0.1383: real time    0.1728
    SETDIJ:  cpu time    1.0936: real time    1.0937
     EDDAV:  cpu time    3.1495: real time    3.1496
       DOS:  cpu time    0.0004: real time    0.0004
    CHARGE:  cpu time    0.8328: real time    0.8329
    MIXING:  cpu time    0.0014: real time    0.0014
    --------------------------------------------
      LOOP:  cpu time    5.2160: real time    5.2508

 eigenvalue-minimisations  :  1192
 total energy-change (2. order) : 0.3648332E-05  (-0.1291907E-07)
 number of electron     175.9999999 magnetization 
 augmentation part       -2.3171089 magnetization 

 Broyden mixing:
  rms(total) = 0.59966E-04    rms(broyden)= 0.29469E-04
  rms(prec ) = 0.33474E-04
  weight for this iteration     100.00
  WARNING: grid for Broyden might be to small

 eigenvalues of (default mixing * dielectric matrix)
  average eigenvalue GAMMA=   1.6192
  2.8889  2.7386  2.4797  1.8305  1.5287  1.1857  1.1857  0.9878  0.9878  0.9841
  1.0133

 Free energy of the ion-electron system (eV)
  ---------------------------------------------------
  alpha Z        PSCENC =       446.16858218
  Ewald energy   TEWEN  =     -9205.52149891
  -Hartree energ DENC   =     -3681.05822270
  -exchange      EXHF   =         0.00000000
  -V(xc)+E(xc)   XCENC  =       481.25880768
  PAW double counting   =     11533.72787234   -12069.69921567
  entropy T*S    EENTRO =        -0.00000000
  eigenvalues    EBANDS =     -1510.02428385
  atomic energy  EATOM  =     13290.28009929
  Solvation  Ediel_sol  =         0.00000000
  ---------------------------------------------------
  free energy    TOTEN  =      -714.86785965 eV

  energy without entropy =     -714.86785965  energy(sigma->0) =     -714.86785965


--------------------------------------------------------------------------------------------------------




--------------------------------------- Iteration      1(  17)  ---------------------------------------


    POTLOK:  cpu time    0.1323: real time    0.1749
    SETDIJ:  cpu time    1.0940: real time    1.0940
     EDDAV:  cpu time    3.0567: real time    3.0568
       DOS:  cpu time    0.0003: real time    0.0003
    --------------------------------------------
      LOOP:  cpu time    4.2832: real time    4.3259

 eigenvalue-minimisations  :  1128
 total energy-change (2. order) : 0.3604891E-06  (-0.3220266E-08)
 number of electron     175.9999999 magnetization 
 augmentation part       -2.3171089 magnetization 

 Free energy of the ion-electron system (eV)
  ---------------------------------------------------
  alpha Z        PSCENC =       446.16858218
  Ewald energy   TEWEN  =     -9205.52149891
  -Hartree energ DENC   =     -3681.06029148
  -exchange      EXHF   =         0.00000000
  -V(xc)+E(xc)   XCENC  =       481.25895048
  PAW double counting   =     11533.70771670   -12069.67912351
  entropy T*S    EENTRO =        -0.00000000
  eigenvalues    EBANDS =     -1510.02229404
  atomic energy  EATOM  =     13290.28009929
  Solvation  Ediel_sol  =         0.00000000
  ---------------------------------------------------
  free energy    TOTEN  =      -714.86785929 eV

  energy without entropy =     -714.86785929  energy(sigma->0) =     -714.86785929


--------------------------------------------------------------------------------------------------------




 average (electrostatic) potential at core
  the test charge radii are     1.1312  1.1541  1.0178
  (the norm of the test charge is              1.0000)
       1 -55.3184       2 -55.3184       3 -55.3184       4 -55.3184       5-101.6766
       6-101.6766       7-101.6766       8-101.6766       9 -69.0159      10 -69.0159
      11 -69.0159      12 -69.0159      13 -68.9931      14 -68.9931      15 -68.9931
      16 -68.9931      17 -68.9931      18 -68.9931      19 -68.9931      20 -68.9931



 E-fermi :   0.4744     XC(G=0):  -8.0465     alpha+bet : -6.9997


 k-point     1 :       0.0000    0.0000    0.0000
  band No.  band energies     occupation 
      1     -20.8439      2.00000
      2     -20.8424      2.00000
      3     -20.8407      2.00000
      4     -20.8395      2.00000
      5     -16.4961      2.00000
      6     -16.4829      2.00000
      7     -16.4825      2.00000
      8     -16.4720      2.00000
      9     -16.4348      2.00000
     10     -16.4049      2.00000
     11     -16.4005      2.00000
     12     -16.4004      2.00000
     13     -16.3418      2.00000
     14     -16.3411      2.00000
     15     -16.3411      2.00000
     16     -16.3403      2.00000
     17     -16.3346      2.00000
     18     -16.3340      2.00000
     19     -16.3340      2.00000
     20     -16.3334      2.00000
     21     -16.3280      2.00000
     22     -16.3277      2.00000
     23     -16.3271      2.00000
     24     -16.3267      2.00000
     25     -14.3511      2.00000
     26     -14.1543      2.00000
     27     -14.0629      2.00000
     28     -14.0502      2.00000
     29     -14.0291      2.00000
     30     -14.0237      2.00000
     31     -13.9896      2.00000
     32     -13.9864      2.00000
     33     -13.9775      2.00000
     34     -13.7644      2.00000
     35     -13.7486      2.00000
     36     -13.7414      2.00000
     37      -8.1852      2.00000
     38      -7.6724      2.00000
     39      -7.2742      2.00000
     40      -7.2681      2.00000
     41      -7.2648      2.00000
     42      -7.2640      2.00000
     43      -7.2405      2.00000
     44      -7.2333      2.00000
     45      -7.2267      2.00000
     46      -7.2259      2.00000
     47      -7.2239      2.00000
     48      -7.2148      2.00000
     49      -7.2014      2.00000
     50      -7.1995      2.00000
     51      -7.1888      2.00000
     52      -6.5579      2.00000
     53      -3.3499      2.00000
     54      -3.3209      2.00000
     55      -3.2581      2.00000
     56      -3.1716      2.00000
     57      -3.0932      2.00000
     58      -3.0849      2.00000
     59      -2.1291      2.00000
     60      -1.9221      2.00000
     61      -1.9155      2.00000
     62      -1.8820      2.00000
     63      -1.8686      2.00000
     64      -1.8446      2.00000
     65      -1.6640      2.00000
     66      -1.5173      2.00000
     67      -1.5007      2.00000
     68      -1.4850      2.00000
     69      -1.4720      2.00000
     70      -1.4178      2.00000
     71      -1.4112      2.00000
     72      -1.4000      2.00000
     73      -1.3993      2.00000
     74      -1.3578      2.00000
     75      -1.3411      2.00000
     76      -1.3246      2.00000
     77      -1.2895      2.00000
     78      -1.2367      2.00000
     79      -1.2202      2.00000
     80      -1.1271      2.00000
     81      -1.0602      2.00000
     82      -1.0082      2.00000
     83      -0.9848      2.00000
     84      -0.9799      2.00000
     85      -0.8337      2.00000
     86      -0.6758      2.00000
     87      -0.2103      2.00000
     88       0.4265      2.00000
     89       2.6914      0.00000
     90       2.7668      0.00000
     91       2.8410      0.00000
     92       3.1012      0.00000
     93       3.1333      0.00000
     94       3.5832      0.00000
     95       4.8206      0.00000
     96       5.6240      0.00000
     97       5.6626      0.00000
     98       5.9104      0.00000
     99       6.0414      0.00000
    100       6.0497      0.00000
    101       6.1457      0.00000
    102       6.2872      0.00000
    103       6.3087      0.00000
    104       6.4917      0.00000
    105       6.5324      0.00000
    106       6.5377      0.00000
    107       6.5648      0.00000
    108       6.6707      0.00000
    109       6.7098      0.00000
    110       6.7225      0.00000
    111       6.7434      0.00000
    112       6.8530      0.00000

 k-point     2 :       0.3333    0.0000    0.0000
  band No.  band energies     occupation 
      1     -20.8431      2.00000
      2     -20.8416      2.00000
      3     -20.8415      2.00000
      4     -20.8403      2.00000
      5     -16.4899      2.00000
      6     -16.4779      2.00000
      7     -16.4634      2.00000
      8     -16.4633      2.00000
      9     -16.4271      2.00000
     10     -16.4223      2.00000
     11     -16.4222      2.00000
     12     -16.4123      2.00000
     13     -16.3417      2.00000
     14     -16.3412      2.00000
     15     -16.3410      2.00000
     16     -16.3406      2.00000
     17     -16.3344      2.00000
     18     -16.3341      2.00000
     19     -16.3340      2.00000
     20     -16.3336      2.00000
     21     -16.3280      2.00000
     22     -16.3278      2.00000
     23     -16.3271      2.00000
     24     -16.3269      2.00000
     25     -14.2987      2.00000
     26     -14.1591      2.00000
     27     -14.1129      2.00000
     28     -14.0583      2.00000
     29     -14.0533      2.00000
     30     -14.0246      2.00000
     31     -13.9619      2.00000
     32     -13.9535      2.00000
     33     -13.8541      2.00000
     34     -13.8204      2.00000
     35     -13.8125      2.00000
     36     -13.7841      2.00000
     37      -7.9749      2.00000
     38      -7.5015      2.00000
     39      -7.4575      2.00000
     40      -7.2666      2.00000
     41      -7.2575      2.00000
     42      -7.2497      2.00000
     43      -7.2476      2.00000
     44      -7.2330      2.00000
     45      -7.2229      2.00000
     46      -7.2189      2.00000
     47      -7.2188      2.00000
     48      -7.2185      2.00000
     49      -7.2118      2.00000
     50      -7.2015      2.00000
     51      -7.2013      2.00000
     52      -6.8942      2.00000
     53      -3.2811      2.00000
     54      -3.1910      2.00000
     55      -3.0226      2.00000
     56      -2.8780      2.00000
     57      -2.6912      2.00000
     58      -2.6518      2.00000
     59      -2.2335      2.00000
     60      -2.1327      2.00000
     61      -2.0375      2.00000
     62      -1.9646      2.00000
     63      -1.9639      2.00000
     64      -1.9086      2.00000
     65      -1.8516      2.00000
     66      -1.7349      2.00000
     67      -1.6778      2.00000
     68      -1.6117      2.00000
     69      -1.4585      2.00000
     70      -1.4455      2.00000
     71      -1.4063      2.00000
     72      -1.3828      2.00000
     73      -1.3362      2.00000
     74      -1.3319      2.00000
     75      -1.3153      2.00000
     76      -1.3108      2.00000
     77      -1.2670      2.00000
     78      -1.2534      2.00000
     79      -1.2354      2.00000
     80      -1.2318      2.00000
     81      -1.1895      2.00000
     82      -1.1410      2.00000
     83      -1.0916      2.00000
     84      -1.0529      2.00000
     85      -0.8486      2.00000
     86      -0.7009      2.00000
     87      -0.5872      2.00000
     88      -0.1349      2.00000
     89       3.0196      0.00000
     90       3.3617      0.00000
     91       3.5567      0.00000
     92       3.6468      0.00000
     93       3.9302      0.00000
     94       3.9698      0.00000
     95       4.9265      0.00000
     96       5.0353      0.00000
     97       5.2140      0.00000
     98       5.5354      0.00000
     99       5.7390      0.00000
    100       5.8719      0.00000
    101       6.1332      0.00000
    102       6.1923      0.00000
    103       6.2364      0.00000
    104       6.4439      0.00000
    105       6.5788      0.00000
    106       6.5847      0.00000
    107       6.6112      0.00000
    108       6.6457      0.00000
    109       6.7225      0.00000
    110       6.9095      0.00000
    111       6.9333      0.00000
    112       7.0046      0.00000

 k-point     3 :       0.0000    0.5000    0.0000
  band No.  band energies     occupation 
      1     -20.8431      2.00000
      2     -20.8431      2.00000
      3     -20.8401      2.00000
      4     -20.8401      2.00000
      5     -16.4827      2.00000
      6     -16.4827      2.00000
      7     -16.4657      2.00000
      8     -16.4657      2.00000
      9     -16.4390      2.00000
     10     -16.4390      2.00000
     11     -16.4005      2.00000
     12     -16.4005      2.00000
     13     -16.3415      2.00000
     14     -16.3415      2.00000
     15     -16.3407      2.00000
     16     -16.3407      2.00000
     17     -16.3343      2.00000
     18     -16.3343      2.00000
     19     -16.3337      2.00000
     20     -16.3337      2.00000
     21     -16.3275      2.00000
     22     -16.3275      2.00000
     23     -16.3272      2.00000
     24     -16.3272      2.00000
     25     -14.2924      2.00000
     26     -14.2924      2.00000
     27     -14.0286      2.00000
     28     -14.0286      2.00000
     29     -14.0176      2.00000
     30     -14.0176      2.00000
     31     -13.9836      2.00000
     32     -13.9836      2.00000
     33     -13.8710      2.00000
     34     -13.8710      2.00000
     35     -13.7449      2.00000
     36     -13.7449      2.00000
     37      -7.9497      2.00000
     38      -7.9497      2.00000
     39      -7.2649      2.00000
     40      -7.2649      2.00000
     41      -7.2574      2.00000
     42      -7.2574      2.00000
     43      -7.2461      2.00000
     44      -7.2461      2.00000
     45      -7.2185      2.00000
     46      -7.2185      2.00000
     47      -7.2175      2.00000
     48      -7.2175      2.00000
     49      -7.2151      2.00000
     50      -7.2151      2.00000
     51      -6.9218      2.00000
     52      -6.9218      2.00000
     53      -3.2954      2.00000
     54      -3.2954      2.00000
     55      -3.1330      2.00000
     56      -3.1330      2.00000
     57      -2.5006      2.00000
     58      -2.5006      2.00000
     59      -2.3644      2.00000
     60      -2.3644      2.00000
     61      -2.0109      2.00000
     62      -2.0109      2.00000
     63      -1.8248      2.00000
     64      -1.8248      2.00000
     65      -1.7998      2.00000
     66      -1.7998      2.00000
     67      -1.4921      2.00000
     68      -1.4921      2.00000
     69      -1.4882      2.00000
     70      -1.4882      2.00000
     71      -1.3958      2.00000
     72      -1.3958      2.00000
     73      -1.3341      2.00000
     74      -1.3341      2.00000
     75      -1.3170      2.00000
     76      -1.3170      2.00000
     77      -1.2885      2.00000
     78      -1.2885      2.00000
     79      -1.1304      2.00000
     80      -1.1304      2.00000
     81      -1.0846      2.00000
     82      -1.0846      2.00000
     83      -1.0559      2.00000
     84      -1.0559      2.00000
     85      -0.8429      2.00000
     86      -0.8429      2.00000
     87      -0.0465      2.00000
     88      -0.0465      2.00000
     89       2.9049      0.00000
     90       2.9049      0.00000
     91       2.9525      0.00000
     92       2.9525      0.00000
     93       4.3200      0.00000
     94       4.3200      0.00000
     95       4.8868      0.00000
     96       4.8868      0.00000
     97       5.5410      0.00000
     98       5.5410      0.00000
     99       5.8236      0.00000
    100       5.8236      0.00000
    101       6.2125      0.00000
    102       6.2125      0.00000
    103       6.2177      0.00000
    104       6.2177      0.00000
    105       6.3843      0.00000
    106       6.3843      0.00000
    107       6.6432      0.00000
    108       6.6432      0.00000
    109       6.8247      0.00000
    110       6.8247      0.00000
    111       6.8569      0.00000
    112       6.8571      0.00000

 k-point     4 :       0.3333    0.5000    0.0000
  band No.  band energies     occupation 
      1     -20.8423      2.00000
      2     -20.8423      2.00000
      3     -20.8408      2.00000
      4     -20.8408      2.00000
      5     -16.4633      2.00000
      6     -16.4633      2.00000
      7     -16.4588      2.00000
      8     -16.4588      2.00000
      9     -16.4455      2.00000
     10     -16.4455      2.00000
     11     -16.4223      2.00000
     12     -16.4223      2.00000
     13     -16.3413      2.00000
     14     -16.3413      2.00000
     15     -16.3408      2.00000
     16     -16.3408      2.00000
     17     -16.3342      2.00000
     18     -16.3342      2.00000
     19     -16.3338      2.00000
     20     -16.3338      2.00000
     21     -16.3275      2.00000
     22     -16.3275      2.00000
     23     -16.3273      2.00000
     24     -16.3273      2.00000
     25     -14.2462      2.00000
     26     -14.2462      2.00000
     27     -14.1300      2.00000
     28     -14.1300      2.00000
     29     -13.9585      2.00000
     30     -13.9585      2.00000
     31     -13.9148      2.00000
     32     -13.9148      2.00000
     33     -13.8793      2.00000
     34     -13.8793      2.00000
     35     -13.8163      2.00000
     36     -13.8163      2.00000
     37      -7.7369      2.00000
     38      -7.7369      2.00000
     39      -7.2907      2.00000
     40      -7.2907      2.00000
     41      -7.2507      2.00000
     42      -7.2507      2.00000
     43      -7.2447      2.00000
     44      -7.2447      2.00000
     45      -7.2305      2.00000
     46      -7.2305      2.00000
     47      -7.2149      2.00000
[...]
     60      -2.3958      2.00000
     61      -2.1845      2.00000
     62      -2.1845      2.00000
     63      -2.0677      2.00000
     64      -2.0677      2.00000
     65      -1.7178      2.00000
     66      -1.7178      2.00000
     67      -1.6532      2.00000
     68      -1.6532      2.00000
     69      -1.5457      2.00000
     70      -1.5457      2.00000
     71      -1.4816      2.00000
     72      -1.4816      2.00000
     73      -1.4030      2.00000
     74      -1.4030      2.00000
     75      -1.2750      2.00000
     76      -1.2750      2.00000
     77      -1.2007      2.00000
     78      -1.2007      2.00000
     79      -1.1007      2.00000
     80      -1.1007      2.00000
     81      -1.0872      2.00000
     82      -1.0872      2.00000
     83      -1.0401      2.00000
     84      -1.0401      2.00000
     85      -0.8752      2.00000
     86      -0.8752      2.00000
     87      -0.6387      2.00000
     88      -0.6387      2.00000
     89       3.6073      0.00000
     90       3.6073      0.00000
     91       3.8636      0.00000
     92       3.8636      0.00000
     93       4.4551      0.00000
     94       4.4551      0.00000
     95       4.7119      0.00000
     96       4.7119      0.00000
     97       5.0359      0.00000
     98       5.0359      0.00000
     99       5.3200      0.00000
    100       5.3200      0.00000
    101       5.9723      0.00000
    102       5.9723      0.00000
    103       6.2931      0.00000
    104       6.2931      0.00000
    105       6.4645      0.00000
    106       6.4645      0.00000
    107       6.6741      0.00000
    108       6.6741      0.00000
    109       6.7695      0.00000
    110       6.7695      0.00000
    111       6.8524      0.00000
    112       6.8524      0.00000

 k-point     8 :       0.3333    0.5000    0.3333
  band No.  band energies     occupation 
      1     -20.8419      2.00000
      2     -20.8419      2.00000
      3     -20.8412      2.00000
      4     -20.8412      2.00000
      5     -16.4718      2.00000
      6     -16.4718      2.00000
      7     -16.4600      2.00000
      8     -16.4600      2.00000
      9     -16.4370      2.00000
     10     -16.4370      2.00000
     11     -16.4217      2.00000
     12     -16.4217      2.00000
     13     -16.3411      2.00000
     14     -16.3411      2.00000
     15     -16.3410      2.00000
     16     -16.3410      2.00000
     17     -16.3340      2.00000
     18     -16.3340      2.00000
     19     -16.3339      2.00000
     20     -16.3339      2.00000
     21     -16.3275      2.00000
     22     -16.3275      2.00000
     23     -16.3274      2.00000
     24     -16.3274      2.00000
     25     -14.2057      2.00000
     26     -14.2057      2.00000
     27     -14.1277      2.00000
     28     -14.1277      2.00000
     29     -14.0095      2.00000
     30     -14.0095      2.00000
     31     -13.9357      2.00000
     32     -13.9357      2.00000
     33     -13.8535      2.00000
     34     -13.8535      2.00000
     35     -13.8190      2.00000
     36     -13.8190      2.00000
     37      -7.6100      2.00000
     38      -7.6100      2.00000
     39      -7.3751      2.00000
     40      -7.3751      2.00000
     41      -7.2499      2.00000
     42      -7.2499      2.00000
     43      -7.2407      2.00000
     44      -7.2407      2.00000
     45      -7.2253      2.00000
     46      -7.2253      2.00000
     47      -7.2143      2.00000
     48      -7.2143      2.00000
     49      -7.2065      2.00000
     50      -7.2065      2.00000
     51      -7.1926      2.00000
     52      -7.1926      2.00000
     53      -3.1398      2.00000
     54      -3.1398      2.00000
     55      -2.7837      2.00000
     56      -2.7837      2.00000
     57      -2.5521      2.00000
     58      -2.5521      2.00000
     59      -2.4039      2.00000
     60      -2.4039      2.00000
     61      -2.1270      2.00000
     62      -2.1270      2.00000
     63      -2.0047      2.00000
     64      -2.0047      2.00000
     65      -1.7092      2.00000
     66      -1.7092      2.00000
     67      -1.6387      2.00000
     68      -1.6387      2.00000
     69      -1.5062      2.00000
     70      -1.5062      2.00000
     71      -1.4177      2.00000
     72      -1.4177      2.00000
     73      -1.3585      2.00000
     74      -1.3585      2.00000
     75      -1.3110      2.00000
     76      -1.3110      2.00000
     77      -1.2575      2.00000
     78      -1.2575      2.00000
     79      -1.1906      2.00000
     80      -1.1906      2.00000
     81      -1.1360      2.00000
     82      -1.1360      2.00000
     83      -1.0992      2.00000
     84      -1.0992      2.00000
     85      -0.7972      2.00000
     86      -0.7972      2.00000
     87      -0.5300      2.00000
     88      -0.5300      2.00000
     89       3.1829      0.00000
     90       3.1829      0.00000
     91       3.9672      0.00000
     92       3.9672      0.00000
     93       4.5605      0.00000
     94       4.5605      0.00000
     95       4.7076      0.00000
     96       4.7076      0.00000
     97       5.0127      0.00000
     98       5.0127      0.00000
     99       5.7713      0.00000
    100       5.7713      0.00000
    101       6.2098      0.00000
    102       6.2098      0.00000
    103       6.4483      0.00000
    104       6.4483      0.00000
    105       6.5990      0.00000
    106       6.5990      0.00000
    107       6.6959      0.00000
    108       6.6959      0.00000
    109       6.8742      0.00000
    110       6.8743      0.00000
    111       6.8972      0.00000
    112       6.8972      0.00000


--------------------------------------------------------------------------------------------------------


 soft charge-density along one line, spin component           1
         0         1         2         3         4         5         6         7         8         9
 total charge-density along one line

 pseudopotential strength for first ion, spin component:           1
 17.989  -4.709   0.000   0.000  -0.001  -0.000  -0.000   0.001
 -4.709   1.241  -0.000  -0.000   0.000   0.000   0.000  -0.000
  0.000  -0.000   2.273  -0.000  -0.000  -2.720   0.000   0.000
  0.000  -0.000  -0.000   2.272  -0.001   0.000  -2.719   0.001
 -0.001   0.000  -0.000  -0.001   2.273   0.000   0.001  -2.720
 -0.000   0.000  -2.720   0.000   0.000   3.223  -0.000  -0.000
 -0.000   0.000   0.000  -2.719   0.001  -0.000   3.222  -0.002
  0.001  -0.000   0.000   0.001  -2.720  -0.000  -0.002   3.224
 -0.000   0.000   0.000   0.000  -0.000  -0.000  -0.000   0.000
 -0.000   0.000   0.002   0.000   0.000  -0.002  -0.000  -0.000
 -0.001   0.000  -0.000  -0.002   0.000   0.000   0.003  -0.001
 -0.001   0.000   0.000  -0.000   0.001  -0.000   0.000  -0.002
  0.000  -0.000  -0.000  -0.000  -0.001   0.000   0.000   0.002
 total augmentation occupancy for first ion, spin component:           1
  1.910  -0.142   0.000  -0.000  -0.000   0.000   0.000  -0.000   0.000   0.000  -0.001  -0.002  -0.000
 -0.142   0.113  -0.000   0.000  -0.002   0.000  -0.001   0.001   0.000   0.000   0.001   0.005   0.001
  0.000  -0.000   2.017   0.000   0.000   0.004   0.000   0.000   0.001   0.004   0.000  -0.000   0.000
 -0.000   0.000   0.000   2.015  -0.003   0.000   0.002  -0.002   0.000   0.000  -0.004   0.000  -0.001
 -0.000  -0.002   0.000  -0.003   2.016   0.000  -0.002   0.003   0.000   0.000   0.001   0.002  -0.003
  0.000   0.000   0.004   0.000   0.000   0.007   0.000   0.000  -0.001  -0.003  -0.000   0.000  -0.000
  0.000  -0.001   0.000   0.002  -0.002   0.000   0.008   0.001   0.000   0.000   0.003  -0.001   0.001
 -0.000   0.001   0.000  -0.002   0.003   0.000   0.001   0.008   0.000   0.000  -0.001  -0.001   0.002
  0.000   0.000   0.001   0.000   0.000  -0.001   0.000   0.000   0.005   0.002  -0.000  -0.000   0.000
  0.000   0.000   0.004   0.000   0.000  -0.003   0.000   0.000   0.002   0.005  -0.000   0.000   0.000
 -0.001   0.001   0.000  -0.004   0.001  -0.000   0.003  -0.001  -0.000  -0.000   0.005  -0.002  -0.001
 -0.002   0.005  -0.000   0.000   0.002   0.000  -0.001  -0.001  -0.000   0.000  -0.002   0.004   0.000
 -0.000   0.001   0.000  -0.001  -0.003  -0.000   0.001   0.002   0.000   0.000  -0.001   0.000   0.004


------------------------ aborting loop because EDIFF is reached ----------------------------------------





 total charge     

# of ion       s       p       d       tot
------------------------------------------
    1        1.785   4.719   0.017   6.521
    2        1.785   4.719   0.017   6.521
    3        1.785   4.719   0.017   6.521
    4        1.785   4.719   0.017   6.521
    5        1.553   0.419   9.833  11.805
    6        1.553   0.419   9.833  11.805
    7        1.553   0.419   9.833  11.805
    8        1.553   0.419   9.833  11.805
    9        1.614   3.286   0.006   4.907
   10        1.614   3.286   0.006   4.907
   11        1.614   3.286   0.006   4.907
   12        1.614   3.286   0.006   4.907
   13        1.615   3.269   0.006   4.890
   14        1.613   3.293   0.006   4.912
   15        1.613   3.293   0.006   4.912
   16        1.615   3.269   0.006   4.890
   17        1.615   3.269   0.006   4.890
   18        1.613   3.293   0.006   4.912
   19        1.615   3.269   0.006   4.890
   20        1.613   3.293   0.006   4.912
--------------------------------------------------
tot         32.721  59.944  39.473 132.138

    CHARGE:  cpu time    0.1292: real time    0.1292
    FORLOC:  cpu time    0.0037: real time    0.0037
    FORNL :  cpu time    0.5423: real time    0.5424
    STRESS:  cpu time   12.3494: real time   12.3502
    FORCOR:  cpu time    0.1021: real time    0.1021
    FORHAR:  cpu time    0.0107: real time    0.0106
    MIXING:  cpu time    0.0011: real time    0.0011
    OFIELD:  cpu time    0.0000: real time    0.0000

  FORCE on cell =-STRESS in cart. coord.  units (eV):
  Direction    XX          YY          ZZ          XY          YZ          ZX
  --------------------------------------------------------------------------------------
  Alpha Z   446.16858   446.16858   446.16858
  Ewald   -3157.14909 -3010.97247 -3037.42772     0.00000    -0.00000     0.00000
  Hartree  1168.53646  1268.91914  1243.60618    -0.00000    -0.00000    -0.00000
  E(xc)    -738.77379  -738.79635  -738.74980    -0.00000     0.00000    -0.03894
  Local   -1277.27320 -1522.33821 -1469.50161     0.00000    -0.00000     0.00000
  n-local   898.48140   900.14478   899.60013     0.00000    -0.00000     0.17736
  augment   405.68816   406.27239   406.94494     0.00000    -0.00002     0.00001
  Kinetic  2253.47089  2250.01097  2246.27948    -0.00001     0.00002    -1.72669
  Fock        0.00000     0.00000     0.00000     0.00000     0.00000     0.00000
  -------------------------------------------------------------------------------------
  Total      -0.85058    -0.59117    -3.07980     0.00000     0.00000     0.00000
  in kB      -1.68518    -1.17123    -6.10176     0.00000     0.00000     0.00000
  external pressure =       -2.99 kB  Pullay stress =        0.00 kB


 VOLUME and BASIS-vectors are now :
 -----------------------------------------------------------------------------
  energy-cutoff  :      300.00
  volume of cell :      808.68
      direct lattice vectors                 reciprocal lattice vectors
     8.185593126  0.000000000  0.000000000     0.122165857  0.000000000  0.000000000
     0.000000000 11.647589084  0.000000000     0.000000000  0.085854677  0.000000000
     0.000000000  0.000000000  8.481879581     0.000000000  0.000000000  0.117898396

  length of vectors
     8.185593126 11.647589084  8.481879581     0.122165857  0.085854677  0.117898396


 FORCES acting on ions
    electron-ion (+dipol)            ewald-force                    non-local-force                 convergence-correction
 -----------------------------------------------------------------------------------------------
   0.240E+02 0.176E-12 -.659E+01   -.239E+02 -.711E-14 0.655E+01   -.676E-01 -.132E-22 0.376E-01   -.214E-04 0.112E-12 0.520E-04
   -.240E+02 0.347E-12 -.659E+01   0.239E+02 0.000E+00 0.655E+01   0.676E-01 0.265E-22 0.376E-01   0.214E-04 -.579E-13 0.520E-04
   0.240E+02 -.123E-11 0.659E+01   -.239E+02 0.000E+00 -.655E+01   -.676E-01 -.265E-22 -.376E-01   -.214E-04 0.849E-13 -.520E-04
   -.240E+02 -.904E-11 0.659E+01   0.239E+02 -.711E-14 -.655E+01   0.676E-01 0.132E-22 -.376E-01   0.214E-04 -.693E-13 -.520E-04
   0.538E-10 -.175E-11 -.116E-12   0.320E-13 -.870E-13 0.568E-13   0.000E+00 0.000E+00 -.210E-22   -.131E-12 -.170E-12 -.125E-13
   0.558E-10 -.232E-11 -.816E-11   0.391E-13 -.101E-12 -.568E-13   0.000E+00 0.000E+00 -.122E-22   -.447E-13 -.163E-12 0.934E-13
   0.566E-10 0.603E-12 -.573E-11   0.000E+00 0.185E-12 0.142E-13   0.000E+00 0.000E+00 -.183E-22   -.591E-13 0.127E-12 0.577E-13
   0.538E-10 0.332E-11 -.157E-12   0.000E+00 0.114E-12 0.000E+00   0.000E+00 0.000E+00 0.455E-23   -.113E-12 0.119E-12 0.837E-14
   0.862E+01 0.111E-11 0.373E+02   -.869E+01 -.426E-13 -.377E+02   0.616E-01 0.000E+00 0.312E+00   -.206E-04 -.121E-12 -.432E-04
   -.862E+01 0.103E-11 0.373E+02   0.869E+01 0.000E+00 -.377E+02   -.616E-01 0.265E-22 0.312E+00   0.206E-04 0.350E-13 -.432E-04
   0.862E+01 -.144E-12 -.373E+02   -.869E+01 -.142E-13 0.377E+02   0.616E-01 0.265E-22 -.312E+00   -.206E-04 -.837E-13 0.432E-04
   -.862E+01 0.184E-11 -.373E+02   0.869E+01 -.142E-13 0.377E+02   -.616E-01 0.265E-22 -.312E+00   0.206E-04 0.665E-13 0.432E-04
   -.155E+02 0.197E+02 0.176E+02   0.157E+02 -.198E+02 -.178E+02   -.133E+00 0.174E+00 0.126E+00   0.162E-05 0.185E-04 -.947E-05
   0.155E+02 -.197E+02 0.176E+02   -.157E+02 0.198E+02 -.178E+02   0.133E+00 -.174E+00 0.126E+00   -.162E-05 -.185E-04 -.947E-05
   -.155E+02 -.197E+02 -.176E+02   0.157E+02 0.198E+02 0.178E+02   -.133E+00 -.174E+00 -.126E+00   0.162E-05 -.185E-04 0.947E-05
   0.155E+02 0.197E+02 -.176E+02   -.157E+02 -.198E+02 0.178E+02   0.133E+00 0.174E+00 -.126E+00   -.162E-05 0.185E-04 0.947E-05
   -.155E+02 -.197E+02 0.176E+02   0.157E+02 0.198E+02 -.178E+02   -.133E+00 -.174E+00 0.126E+00   0.162E-05 -.185E-04 -.947E-05
   0.155E+02 0.197E+02 0.176E+02   -.157E+02 -.198E+02 -.178E+02   0.133E+00 0.174E+00 0.126E+00   -.162E-05 0.185E-04 -.947E-05
   0.155E+02 -.197E+02 -.176E+02   -.157E+02 0.198E+02 0.178E+02   0.133E+00 -.174E+00 -.126E+00   -.162E-05 -.185E-04 0.947E-05
   -.155E+02 0.197E+02 -.176E+02   0.157E+02 -.198E+02 0.178E+02   -.133E+00 0.174E+00 -.126E+00   0.162E-05 0.185E-04 0.947E-05
 -----------------------------------------------------------------------------------------------
   0.628E-09 -.482E-11 -.174E-10   0.000E+00 0.000E+00 -.213E-13   0.000E+00 0.000E+00 0.555E-16   -.278E-12 -.109E-12 0.155E-12


 POSITION                                       TOTAL-FORCE (eV/Angst)
 -----------------------------------------------------------------------------------
      0.37735      2.91190      4.17599        -0.001117     -0.000000      0.004013
      3.71545      8.73569      8.41693         0.001117      0.000000      0.004013
      4.47015      2.91190      0.06495        -0.001117      0.000000     -0.004013
      7.80824      8.73569      4.30589         0.001117      0.000000     -0.004013
      0.00000      0.00000      0.00000         0.000000      0.000000      0.000000
      4.09280      0.00000      4.24094         0.000000      0.000000      0.000000
      4.09280      5.82379      4.24094         0.000000      0.000000      0.000000
      0.00000      5.82379      0.00000         0.000000      0.000000      0.000000
      4.14262      8.73569      3.59406         0.005522      0.000000     -0.016234
      8.13577      2.91190      7.83500        -0.005522      0.000000     -0.016234
      0.04982      8.73569      0.64688         0.005522      0.000000      0.016234
      4.04298      2.91190      4.88782        -0.005522     -0.000000      0.016234
      2.35686      5.37327      1.81874        -0.002999      0.003270     -0.000951
      1.73594      6.27432      6.05968         0.002999     -0.003270     -0.000951
      6.44966      0.45052      2.42220        -0.002999     -0.003270      0.000951
      5.82873     11.19707      6.66314         0.002999      0.003270      0.000951
      2.35686      0.45052      1.81874        -0.002999     -0.003270     -0.000951
      1.73594     11.19707      6.05968         0.002999      0.003270     -0.000951
      5.82873      6.27432      6.66314         0.002999     -0.003270      0.000951
      6.44966      5.37327      2.42220        -0.002999      0.003270      0.000951
 -----------------------------------------------------------------------------------
    total drift:                                0.000000     -0.000000     -0.000000


--------------------------------------------------------------------------------------------------------



  FREE ENERGIE OF THE ION-ELECTRON SYSTEM (eV)
  ---------------------------------------------------
  free  energy   TOTEN  =      -714.86785929 eV

  energy  without entropy=     -714.86785929  energy(sigma->0) =     -714.86785929



--------------------------------------------------------------------------------------------------------


    POTLOK:  cpu time    1.1971: real time    1.1971


--------------------------------------------------------------------------------------------------------


 stress matrix after NEB project (eV)
     -0.85058      0.00000      0.00000
      0.00000     -0.59117      0.00000
      0.00000      0.00000     -3.07980
  FORCES: max atom, RMS     0.017148    0.008397
  FORCE total and by dimension    0.037553    0.016234
  Stress total and by dimension    3.249331    3.079804
     LOOP+:  cpu time  112.8429: real time  113.3181
    4ORBIT:  cpu time    0.0000: real time    0.0000



 total charge     

# of ion       s       p       d       tot
------------------------------------------
    1        1.785   4.719   0.017   6.521
    2        1.785   4.719   0.017   6.521
    3        1.785   4.719   0.017   6.521
    4        1.785   4.719   0.017   6.521
    5        1.553   0.419   9.833  11.805
    6        1.553   0.419   9.833  11.805
    7        1.553   0.419   9.833  11.805
    8        1.553   0.419   9.833  11.805
    9        1.614   3.286   0.006   4.907
   10        1.614   3.286   0.006   4.907
   11        1.614   3.286   0.006   4.907
   12        1.614   3.286   0.006   4.907
   13        1.615   3.269   0.006   4.890
   14        1.613   3.293   0.006   4.912
   15        1.613   3.293   0.006   4.912
   16        1.615   3.269   0.006   4.890
   17        1.615   3.269   0.006   4.890
   18        1.613   3.293   0.006   4.912
   19        1.615   3.269   0.006   4.890
   20        1.613   3.293   0.006   4.912
--------------------------------------------------
tot         32.721  59.944  39.473 132.138


 total amount of memory used by VASP MPI-rank0    42375. kBytes
=======================================================================

   base      :      30000. kBytes
   nonlr-proj:       3001. kBytes
   fftplans  :       3668. kBytes
   grid      :       3424. kBytes
   one-center:         46. kBytes
   wavefun   :       2236. kBytes

  
  
 General timing and accounting informations for this job:
 ========================================================
  
                  Total CPU time used (sec):      119.230
                            User time (sec):      118.410
                          System time (sec):        0.820
                         Elapsed time (sec):      119.889
  
                   Maximum memory used (kb):       78288.
                   Average memory used (kb):           0.
  
                          Minor page faults:        19054
                          Major page faults:            0
                 Voluntary context switches:         1479
