PROCAR new format
# of k-points:    8         # of bands:  112         # of ions:   20

 k-point     1 :    0.00000000 0.00000000 0.00000000     weight = 0.05555556

band     1 # energy  -20.84394303 # occ.  2.00000000

ion      s      p      d    tot
    1  0.222  0.000  0.000  0.222
    2  0.221  0.000  0.000  0.221
    3  0.222  0.000  0.000  0.222
    4  0.221  0.000  0.000  0.221
    5  0.000  0.000  0.000  0.000
    6  0.000  0.000  0.000  0.000
    7  0.000  0.000  0.000  0.000
    8  0.000  0.000  0.000  0.000
    9  0.000  0.000  0.000  0.000
   10  0.000  0.000  0.000  0.000
   11  0.000  0.000  0.000  0.000
   12  0.000  0.000  0.000  0.000
   13  0.000  0.000  0.000  0.000
   14  0.000  0.000  0.000  0.000
   15  0.000  0.000  0.000  0.000
   16  0.000  0.000  0.000  0.000
   17  0.000  0.000  0.000  0.000
   18  0.000  0.000  0.000  0.000
   19  0.000  0.000  0.000  0.000
   20  0.000  0.000  0.000  0.000
tot    0.887  0.000  0.000  0.887

band     2 # energy  -20.84235035 # occ.  2.00000000

ion      s      p      d    tot
    1  0.221  0.000  0.000  0.221
    2  0.222  0.000  0.000  0.222
    3  0.221  0.000  0.000  0.221
    4  0.222  0.000  0.000  0.222
    5  0.000  0.000  0.000  0.000
    6  0.000  0.000  0.000  0.000
    7  0.000  0.000  0.000  0.000
    8  0.000  0.000  0.000  0.000
    9  0.000  0.000  0.000  0.000
   10  0.000  0.000  0.000  0.000
   11  0.000  0.000  0.000  0.000
   12  0.000  0.000  0.000  0.000
   13  0.000  0.000  0.000  0.000
   14  0.000  0.000  0.000  0.000
   15  0.000  0.000  0.000  0.000
   16  0.000  0.000  0.000  0.000
   17  0.000  0.000  0.000  0.000
   18  0.000  0.000  0.000  0.000
   19  0.000  0.000  0.000  0.000
   20  0.000  0.000  0.000  0.000
tot    0.888  0.000  0.000  0.888

band     3 # energy  -20.84070578 # occ.  2.00000000

ion      s      p      d    tot
    1  0.223  0.000  0.000  0.223
    2  0.221  0.000  0.000  0.221
    3  0.223  0.000  0.000  0.223
    4  0.221  0.000  0.000  0.221
    5  0.000  0.000  0.000  0.000
    6  0.000  0.000  0.000  0.000
    7  0.000  0.000  0.000  0.000
    8  0.000  0.000  0.000  0.000
    9  0.000  0.000  0.000  0.000
   10  0.000  0.000  0.000  0.000
   11  0.000  0.000  0.000  0.000
   12  0.000  0.000  0.000  0.000
   13  0.000  0.000  0.000  0.000
   14  0.000  0.000  0.000  0.000
   15  0.000  0.000  0.000  0.000
   16  0.000  0.000  0.000  0.000
   17  0.000  0.000  0.000  0.000
   18  0.000  0.000  0.000  0.000
   19  0.000  0.000  0.000  0.000
   20  0.000  0.000  0.000  0.000
tot    0.888  0.000  0.000  0.888

band     4 # energy  -20.83947064 # occ.  2.00000000

ion      s      p      d    tot
    1  0.221  0.000  0.000  0.221
    2  0.223  0.000  0.000  0.223
    3  0.221  0.000  0.000  0.221
    4  0.223  0.000  0.000  0.223
    5  0.000  0.000  0.000  0.000
    6  0.000  0.000  0.000  0.000
    7  0.000  0.000  0.000  0.000
    8  0.000  0.000  0.000  0.000
    9  0.000  0.000  0.000  0.000
   10  0.000  0.000  0.000  0.000
   11  0.000  0.000  0.000  0.000
   12  0.000  0.000  0.000  0.000
   13  0.000  0.000  0.000  0.000
   14  0.000  0.000  0.000  0.000
   15  0.000  0.000  0.000  0.000
   16  0.000  0.000  0.000  0.000
   17  0.000  0.000  0.000  0.000
   18  0.000  0.000  0.000  0.000
   19  0.000  0.000  0.000  0.000
   20  0.000  0.000  0.000  0.000
tot    0.888  0.000  0.000  0.888

band     5 # energy  -16.49610300 # occ.  2.00000000

ion      s      p      d    tot
    1  0.000  0.000  0.000  0.000
    2  0.000  0.000  0.000  0.000
    3  0.000  0.000  0.000  0.000
    4  0.000  0.000  0.000  0.000
    5  0.000  0.000  0.231  0.231
    6  0.000  0.000  0.231  0.231
    7  0.000  0.000  0.231  0.231
    8  0.000  0.000  0.231  0.231
    9  0.007  0.000  0.000  0.007
   10  0.007  0.000  0.000  0.007
   11  0.007  0.000  0.000  0.007
   12  0.007  0.000  0.000  0.007
   13  0.001  0.000  0.000  0.001
   14  0.001  0.000  0.000  0.001
   15  0.001  0.000  0.000  0.001
   16  0.001  0.000  0.000  0.001
   17  0.001  0.000  0.000  0.001
   18  0.001  0.000  0.000  0.001
   19  0.001  0.000  0.000  0.001
   20  0.001  0.000  0.000  0.001
tot    0.037  0.000  0.924  0.961

band     6 # energy  -16.48290696 # occ.  2.00000000

ion      s      p      d    tot
    1  0.000  0.000  0.000  0.000
    2  0.000  0.000  0.000  0.000
    3  0.000  0.000  0.000  0.000
    4  0.000  0.000  0.000  0.000
    5  0.000  0.000  0.232  0.232
    6  0.000  0.000  0.232  0.232
    7  0.000  0.000  0.232  0.232
    8  0.000  0.000  0.232  0.232
    9  0.000  0.000  0.000  0.000
   10  0.000  0.000  0.000  0.000
   11  0.000  0.000  0.000  0.000
   12  0.000  0.000  0.000  0.000
   13  0.004  0.000  0.000  0.004
   14  0.004  0.000  0.000  0.004
   15  0.004  0.000  0.000  0.004
   16  0.004  0.000  0.000  0.004
   17  0.004  0.000  0.000  0.004
   18  0.004  0.000  0.000  0.004
   19  0.004  0.000  0.000  0.004
   20  0.004  0.000  0.000  0.004
tot    0.034  0.000  0.929  0.962

band     7 # energy  -16.48250864 # occ.  2.00000000

ion      s      p      d    tot
    1  0.000  0.000  0.000  0.000
    2  0.000  0.000  0.000  0.000
    3  0.000  0.000  0.000  0.000
    4  0.000  0.000  0.000  0.000
    5  0.000  0.000  0.232  0.232
    6  0.000  0.000  0.232  0.232
    7  0.000  0.000  0.232  0.232
    8  0.000  0.000  0.232  0.232
    9  0.000  0.000  0.000  0.000
   10  0.000  0.000  0.000  0.000
   11  0.000  0.000  0.000  0.000
   12  0.000  0.000  0.000  0.000
   13  0.004  0.000  0.000  0.004
   14  0.004  0.000  0.000  0.004
   15  0.004  0.000  0.000  0.004
   16  0.004  0.000  0.000  0.004
   17  0.004  0.000  0.000  0.004
   18  0.004  0.000  0.000  0.004
   19  0.004  0.000  0.000  0.004
   20  0.004  0.000  0.000  0.004
tot    0.033  0.000  0.929  0.962

band     8 # energy  -16.47202889 # occ.  2.00000000

ion      s      p      d    tot
    1  0.000  0.000  0.000  0.000
    2  0.000  0.000  0.000  0.000
    3  0.000  0.000  0.000  0.000
    4  0.000  0.000  0.000  0.000
    5  0.000  0.000  0.233  0.234
    6  0.000  0.000  0.234  0.234
    7  0.000  0.000  0.233  0.234
    8  0.000  0.000  0.234  0.234
    9  0.007  0.000  0.000  0.007
   10  0.007  0.000  0.000  0.007
   11  0.007  0.000  0.000  0.007
   12  0.007  0.000  0.000  0.007
   13  0.000  0.000  0.000  0.000
   14  0.000  0.000  0.000  0.000
   15  0.000  0.000  0.000  0.000
   16  0.000  0.000  0.000  0.000
   17  0.000  0.000  0.000  0.000
   18  0.000  0.000  0.000  0.000
   19  0.000  0.000  0.000  0.000
   20  0.000  0.000  0.000  0.000
tot    0.029  0.001  0.934  0.964

band     9 # energy  -16.43477427 # occ.  2.00000000

ion      s      p      d    tot
    1  0.000  0.000  0.000  0.000
    2  0.000  0.000  0.000  0.000
    3  0.000  0.000  0.000  0.000
    4  0.000  0.000  0.000  0.000
    5  0.000  0.000  0.238  0.239
    6  0.000  0.000  0.238  0.239
    7  0.000  0.000  0.238  0.239
    8  0.000  0.000  0.238  0.239
    9  0.000  0.000  0.000  0.000
   10  0.000  0.000  0.000  0.000
   11  0.000  0.000  0.000  0.000
   12  0.000  0.000  0.000  0.000
   13  0.002  0.000  0.000  0.002
   14  0.002  0.000  0.000  0.002
   15  0.002  0.000  0.000  0.002
   16  0.002  0.000  0.000  0.002
   17  0.002  0.000  0.000  0.002
   18  0.002  0.000  0.000  0.002
   19  0.002  0.000  0.000  0.002
   20  0.002  0.000  0.000  0.002
tot    0.014  0.002  0.954  0.969

band    10 # energy  -16.40494743 # occ.  2.00000000

ion      s      p      d    tot
    1  0.000  0.000  0.000  0.000
    2  0.000  0.000  0.000  0.000
    3  0.000  0.000  0.000  0.000
    4  0.000  0.000  0.000  0.000
    5  0.000  0.000  0.243  0.243
    6  0.000  0.000  0.243  0.243
    7  0.000  0.000  0.243  0.243
    8  0.000  0.000  0.243  0.243
    9  0.000  0.000  0.000  0.000
   10  0.000  0.000  0.000  0.000
   11  0.000  0.000  0.000  0.000
   12  0.000  0.000  0.000  0.000
   13  0.000  0.000  0.000  0.000
   14  0.000  0.000  0.000  0.000
   15  0.000  0.000  0.000  0.000
   16  0.000  0.000  0.000  0.000
   17  0.000  0.000  0.000  0.000
   18  0.000  0.000  0.000  0.000
   19  0.000  0.000  0.000  0.000
   20  0.000  0.000  0.000  0.000
tot    0.000  0.002  0.972  0.974

band    11 # energy  -16.40052902 # occ.  2.00000000

ion      s      p      d    tot
    1  0.000  0.000  0.000  0.000
    2  0.000  0.000  0.000  0.000
    3  0.000  0.000  0.000  0.000
    4  0.000  0.000  0.000  0.000
    5  0.000  0.000  0.243  0.243
    6  0.000  0.000  0.243  0.243
    7  0.000  0.000  0.243  0.243
    8  0.000  0.000  0.243  0.243
    9  0.000  0.000  0.000  0.000
   10  0.000  0.000  0.000  0.000
   11  0.000  0.000  0.000  0.000
   12  0.000  0.000  0.000  0.000
   13  0.000  0.000  0.000  0.000
   14  0.000  0.000  0.000  0.000
   15  0.000  0.000  0.000  0.000
   16  0.000  0.000  0.000  0.000
   17  0.000  0.000  0.000  0.000
   18  0.000  0.000  0.000  0.000
   19  0.000  0.000  0.000  0.000
   20  0.000  0.000  0.000  0.000
tot    0.000  0.002  0.972  0.975

band    12 # energy  -16.40043325 # occ.  2.00000000

ion      s      p      d    tot
    1  0.000  0.000  0.000  0.000
    2  0.000  0.000  0.000  0.000
    3  0.000  0.000  0.000  0.000
    4  0.000  0.000  0.000  0.000
    5  0.000  0.000  0.243  0.243
    6  0.000  0.000  0.243  0.243
    7  0.000  0.000  0.243  0.243
    8  0.000  0.000  0.243  0.243
    9  0.000  0.000  0.000  0.000
   10  0.000  0.000  0.000  0.000
   11  0.000  0.000  0.000  0.000
   12  0.000  0.000  0.000  0.000
   13  0.000  0.000  0.000  0.000
   14  0.000  0.000  0.000  0.000
   15  0.000  0.000  0.000  0.000
   16  0.000  0.000  0.000  0.000
   17  0.000  0.000  0.000  0.000
   18  0.000  0.000  0.000  0.000
   19  0.000  0.000  0.000  0.000
   20  0.000  0.000  0.000  0.000
tot    0.000  0.002  0.972  0.975

band    13 # energy  -16.34181391 # occ.  2.00000000

ion      s      p      d    tot
    1  0.000  0.000  0.000  0.000
    2  0.000  0.000  0.000  0.000
    3  0.000  0.000  0.000  0.000
    4  0.000  0.000  0.000  0.000
    5  0.000  0.000  0.244  0.244
    6  0.000  0.000  0.244  0.244
    7  0.000  0.000  0.244  0.244
    8  0.000  0.000  0.244  0.244
    9  0.000  0.000  0.000  0.000
   10  0.000  0.000  0.000  0.000
   11  0.000  0.000  0.000  0.000
   12  0.000  0.000  0.000  0.000
   13  0.000  0.000  0.000  0.000
   14  0.000  0.000  0.000  0.000
   15  0.000  0.000  0.000  0.000
   16  0.000  0.000  0.000  0.000
   17  0.000  0.000  0.000  0.000
   18  0.000  0.000  0.000  0.000
   19  0.000  0.000  0.000  0.000
   20  0.000  0.000  0.000  0.000
tot    0.000  0.000  0.977  0.978

band    14 # energy  -16.34108287 # occ.  2.00000000

ion      s      p      d    tot
    1  0.000  0.000  0.000  0.000
    2  0.000  0.000  0.000  0.000
    3  0.000  0.000  0.000  0.000
    4  0.000  0.000  0.000  0.000
    5  0.000  0.000  0.244  0.244
    6  0.000  0.000  0.244  0.244
    7  0.000  0.000  0.244  0.244
    8  0.000  0.000  0.244  0.244
    9  0.000  0.000  0.000  0.000
   10  0.000  0.000  0.000  0.000
   11  0.000  0.000  0.000  0.000
   12  0.000  0.000  0.000  0.000
   13  0.000  0.000  0.000  0.000
   14  0.000  0.000  0.000  0.000
   15  0.000  0.000  0.000  0.000
   16  0.000  0.000  0.000  0.000
   17  0.000  0.000  0.000  0.000
   18  0.000  0.000  0.000  0.000
   19  0.000  0.000  0.000  0.000
   20  0.000  0.000  0.000  0.000
tot    0.000  0.000  0.978  0.978

band    15 # energy  -16.34106570 # occ.  2.00000000

ion      s      p      d    tot
    1  0.000  0.000  0.000  0.000
    2  0.000  0.000  0.000  0.000
    3  0.000  0.000  0.000  0.000
    4  0.000  0.000  0.000  0.000
    5  0.000  0.000  0.244  0.244
    6  0.000  0.000  0.244  0.244
    7  0.000  0.000  0.244  0.244
    8  0.000  0.000  0.244  0.244
    9  0.000  0.000  0.000  0.000
   10  0.000  0.000  0.000  0.000
   11  0.000  0.000  0.000  0.000
   12  0.000  0.000  0.000  0.000
   13  0.000  0.000  0.000  0.000
   14  0.000  0.000  0.000  0.000
   15  0.000  0.000  0.000  0.000
   16  0.000  0.000  0.000  0.000
   17  0.000  0.000  0.000  0.000
   18  0.000  0.000  0.000  0.000
   19  0.000  0.000  0.000  0.000
   20  0.000  0.000  0.000  0.000
tot    0.000  0.000  0.978  0.978

band    16 # energy  -16.34029058 # occ.  2.00000000

ion      s      p      d    tot
    1  0.000  0.000  0.000  0.000
    2  0.000  0.000  0.000  0.000
    3  0.000  0.000  0.000  0.000
    4  0.000  0.000  0.000  0.000
    5  0.000  0.000  0.244  0.244
    6  0.000  0.000  0.244  0.244
    7  0.000  0.000  0.244  0.244
    8  0.000  0.000  0.244  0.244
    9  0.000  0.000  0.000  0.000
   10  0.000  0.000  0.000  0.000
   11  0.000  0.000  0.000  0.000
   12  0.000  0.000  0.000  0.000
   13  0.000  0.000  0.000  0.000
   14  0.000  0.000  0.000  0.000
   15  0.000  0.000  0.000  0.000
   16  0.000  0.000  0.000  0.000
   17  0.000  0.000  0.000  0.000
   18  0.000  0.000  0.000  0.000
   19  0.000  0.000  0.000  0.000
   20  0.000  0.000  0.000  0.000
tot    0.000  0.000  0.978  0.978

band    17 # energy  -16.33459628 # occ.  2.00000000

ion      s      p      d    tot
    1  0.000  0.000  0.000  0.000
    2  0.000  0.000  0.000  0.000
    3  0.000  0.000  0.000  0.000
    4  0.000  0.000  0.000  0.000
    5  0.000  0.000  0.244  0.244
    6  0.000  0.000  0.244  0.244
    7  0.000  0.000  0.244  0.244
    8  0.000  0.000  0.244  0.244
    9  0.000  0.000  0.000  0.000
   10  0.000  0.000  0.000  0.000
   11  0.000  0.000  0.000  0.000
   12  0.000  0.000  0.000  0.000
   13  0.000  0.000  0.000  0.000
   14  0.000  0.000  0.000  0.000
   15  0.000  0.000  0.000  0.000
   16  0.000  0.000  0.000  0.000
   17  0.000  0.000  0.000  0.000
   18  0.000  0.000  0.000  0.000
   19  0.000  0.000  0.000  0.000
   20  0.000  0.000  0.000  0.000
tot    0.000  0.000  0.977  0.978

band    18 # energy  -16.33397381 # occ.  2.00000000

ion      s      p      d    tot
    1  0.000  0.000  0.000  0.000
    2  0.000  0.000  0.000  0.000
    3  0.000  0.000  0.000  0.000
    4  0.000  0.000  0.000  0.000
    5  0.000  0.000  0.245  0.245
    6  0.000  0.000  0.244  0.244
    7  0.000  0.000  0.245  0.245
    8  0.000  0.000  0.244  0.244
    9  0.000  0.000  0.000  0.000
   10  0.000  0.000  0.000  0.000
   11  0.000  0.000  0.000  0.000
   12  0.000  0.000  0.000  0.000
   13  0.000  0.000  0.000  0.000
   14  0.000  0.000  0.000  0.000
   15  0.000  0.000  0.000  0.000
   16  0.000  0.000  0.000  0.000
   17  0.000  0.000  0.000  0.000
   18  0.000  0.000  0.000  0.000
   19  0.000  0.000  0.000  0.000
   20  0.000  0.000  0.000  0.000
tot    0.000  0.000  0.978  0.978

band    19 # energy  -16.33395254 # occ.  2.00000000

ion      s      p      d    tot
    1  0.000  0.000  0.000  0.000
    2  0.000  0.000  0.000  0.000
    3  0.000  0.000  0.000  0.000
    4  0.000  0.000  0.000  0.000
    5  0.000  0.000  0.244  0.244
    6  0.000  0.000  0.245  0.245
    7  0.000  0.000  0.244  0.244
    8  0.000  0.000  0.245  0.245
    9  0.000  0.000  0.000  0.000
   10  0.000  0.000  0.000  0.000
   11  0.000  0.000  0.000  0.000
   12  0.000  0.000  0.000  0.000
   13  0.000  0.000  0.000  0.000
   14  0.000  0.000  0.000  0.000
   15  0.000  0.000  0.000  0.000
   16  0.000  0.000  0.000  0.000
   17  0.000  0.000  0.000  0.000
   18  0.000  0.000  0.000  0.000
   19  0.000  0.000  0.000  0.000
   20  0.000  0.000  0.000  0.000
tot    0.000  0.000  0.978  0.978

band    20 # energy  -16.33337600 # occ.  2.00000000

ion      s      p      d    tot
    1  0.000  0.000  0.000  0.000
    2  0.000  0.000  0.000  0.000
    3  0.000  0.000  0.000  0.000
    4  0.000  0.000  0.000  0.000
    5  0.000  0.000  0.244  0.244
    6  0.000  0.000  0.244  0.244
    7  0.000  0.000  0.244  0.244
    8  0.000  0.000  0.244  0.244
    9  0.000  0.000  0.000  0.000
   10  0.000  0.000  0.000  0.000
   11  0.000  0.000  0.000  0.000
   12  0.000  0.000  0.000  0.000
   13  0.000  0.000  0.000  0.000
   14  0.000  0.000  0.000  0.000
   15  0.000  0.000  0.000  0.000
   16  0.000  0.000  0.000  0.000
   17  0.000  0.000  0.000  0.000
   18  0.000  0.000  0.000  0.000
   19  0.000  0.000  0.000  0.000
   20  0.000  0.000  0.000  0.000
tot    0.000  0.000  0.978  0.978

band    21 # energy  -16.32798515 # occ.  2.00000000

ion      s      p      d    tot
    1  0.000  0.000  0.000  0.000
    2  0.000  0.000  0.000  0.000
    3  0.000  0.000  0.000  0.000
    4  0.000  0.000  0.000  0.000
    5  0.000  0.000  0.244  0.244
    6  0.000  0.000  0.244  0.244
    7  0.000  0.000  0.244  0.244
    8  0.000  0.000  0.244  0.244
    9  0.000  0.000  0.000  0.000
   10  0.000  0.000  0.000  0.000
   11  0.000  0.000  0.000  0.000
   12  0.000  0.000  0.000  0.000
   13  0.000  0.000  0.000  0.000
   14  0.000  0.000  0.000  0.000
   15  0.000  0.000  0.000  0.000
   16  0.000  0.000  0.000  0.000
   17  0.000  0.000  0.000  0.000
   18  0.000  0.000  0.000  0.000
   19  0.000  0.000  0.000  0.000
   20  0.000  0.000  0.000  0.000
tot    0.000  0.000  0.977  0.978

band    22 # energy  -16.32765254 # occ.  2.00000000

ion      s      p      d    tot
    1  0.000  0.000  0.000  0.000
    2  0.000  0.000  0.000  0.000
    3  0.000  0.000  0.000  0.000
    4  0.000  0.000  0.000  0.000
    5  0.000  0.000  0.244  0.244
    6  0.000  0.000  0.244  0.244
    7  0.000  0.000  0.244  0.244
    8  0.000  0.000  0.244  0.244
    9  0.000  0.000  0.000  0.000
   10  0.000  0.000  0.000  0.000
   11  0.000  0.000  0.000  0.000
   12  0.000  0.000  0.000  0.000
   13  0.000  0.000  0.000  0.000
   14  0.000  0.000  0.000  0.000
   15  0.000  0.000  0.000  0.000
   16  0.000  0.000  0.000  0.000
   17  0.000  0.000  0.000  0.000
   18  0.000  0.000  0.000  0.000
   19  0.000  0.000  0.000  0.000
   20  0.000  0.000  0.000  0.000
tot    0.000  0.000  0.978  0.978

band    23 # energy  -16.32714531 # occ.  2.00000000

ion      s      p      d    tot
    1  0.000  0.000  0.000  0.000
    2  0.000  0.000  0.000  0.000
    3  0.000  0.000  0.000  0.000
    4  0.000  0.000  0.000  0.000
    5  0.000  0.000  0.244  0.244
    6  0.000  0.000  0.244  0.244
    7  0.000  0.000  0.244  0.244
    8  0.000  0.000  0.244  0.244
    9  0.000  0.000  0.000  0.000
   10  0.000  0.000  0.000  0.000
   11  0.000  0.000  0.000  0.000
   12  0.000  0.000  0.000  0.000
   13  0.000  0.000  0.000  0.000
   14  0.000  0.000  0.000  0.000
   15  0.000  0.000  0.000  0.000
   16  0.000  0.000  0.000  0.000
   17  0.000  0.000  0.000  0.000
   18  0.000  0.000  0.000  0.000
   19  0.000  0.000  0.000  0.000
   20  0.000  0.000  0.000  0.000
tot    0.000  0.000  0.978  0.978

band    24 # energy  -16.32668789 # occ.  2.00000000

ion      s      p      d    tot
    1  0.000  0.000  0.000  0.000
    2  0.000  0.000  0.000  0.000
    3  0.000  0.000  0.000  0.000
    4  0.000  0.000  0.000  0.000
    5  0.000  0.000  0.244  0.244
    6  0.000  0.000  0.244  0.244
    7  0.000  0.000  0.244  0.244
    8  0.000  0.000  0.244  0.244
    9  0.000  0.000  0.000  0.000
   10  0.000  0.000  0.000  0.000
   11  0.000  0.000  0.000  0.000
   12  0.000  0.000  0.000  0.000
   13  0.000  0.000  0.000  0.000
   14  0.000  0.000  0.000  0.000
   15  0.000  0.000  0.000  0.000
   16  0.000  0.000  0.000  0.000
   17  0.000  0.000  0.000  0.000
   18  0.000  0.000  0.000  0.000
   19  0.000  0.000  0.000  0.000
   20  0.000  0.000  0.000  0.000
tot    0.000  0.000  0.978  0.978

band    25 # energy  -14.35111385 # occ.  2.00000000

ion      s      p      d    tot
    1  0.000  0.000  0.000  0.000
    2  0.000  0.000  0.000  0.000
    3  0.000  0.000  0.000  0.000
    4  0.000  0.000  0.000  0.000
    5  0.008  0.000  0.000  0.008
    6  0.008  0.000  0.000  0.008
    7  0.008  0.000  0.000  0.008
    8  0.008  0.000  0.000  0.008
    9  0.067  0.000  0.000  0.067
   10  0.067  0.000  0.000  0.067
   11  0.067  0.000  0.000  0.067
   12  0.067  0.000  0.000  0.067
   13  0.059  0.000  0.000  0.059
   14  0.059  0.000  0.000  0.059
   15  0.059  0.000  0.000  0.059
   16  0.059  0.000  0.000  0.059
   17  0.059  0.000  0.000  0.059
   18  0.059  0.000  0.000  0.059
   19  0.059  0.000  0.000  0.059
   20  0.059  0.000  0.000  0.059
tot    0.771  0.000  0.001  0.772

band    26 # energy  -14.15427171 # occ.  2.00000000

ion      s      p      d    tot
    1  0.000  0.000  0.000  0.000
    2  0.000  0.000  0.000  0.000
    3  0.000  0.000  0.000  0.000
    4  0.000  0.000  0.000  0.000
    5  0.005  0.000  0.005  0.010
    6  0.005  0.000  0.005  0.010
    7  0.005  0.000  0.005  0.010
    8  0.005  0.000  0.005  0.010
    9  0.000  0.000  0.000  0.000
   10  0.000  0.000  0.000  0.000
   11  0.000  0.000  0.000  0.000
   12  0.000  0.000  0.000  0.000
   13  0.093  0.000  0.000  0.093
   14  0.093  0.000  0.000  0.093
   15  0.093  0.000  0.000  0.093
   16  0.093  0.000  0.000  0.093
   17  0.093  0.000  0.000  0.093
   18  0.093  0.000  0.000  0.093
   19  0.093  0.000  0.000  0.093
   20  0.093  0.000  0.000  0.093
tot    0.765  0.002  0.020  0.787

band    27 # energy  -14.06285705 # occ.  2.00000000

ion      s      p      d    tot
    1  0.000  0.000  0.000  0.000
    2  0.000  0.000  0.000  0.000
    3  0.000  0.000  0.000  0.000
    4  0.000  0.000  0.000  0.000
    5  0.000  0.001  0.000  0.001
    6  0.000  0.001  0.000  0.001
    7  0.000  0.001  0.000  0.001
    8  0.000  0.001  0.000  0.001
    9  0.176  0.000  0.000  0.176
   10  0.176  0.000  0.000  0.176
   11  0.176  0.000  0.000  0.176
   12  0.176  0.000  0.000  0.176
   13  0.011  0.000  0.000  0.011
   14  0.011  0.000  0.000  0.011
   15  0.011  0.000  0.000  0.011
   16  0.011  0.000  0.000  0.011
   17  0.011  0.000  0.000  0.011
   18  0.011  0.000  0.000  0.011
   19  0.011  0.000  0.000  0.011
   20  0.011  0.000  0.000  0.011
tot    0.791  0.005  0.000  0.797

band    28 # energy  -14.05016239 # occ.  2.00000000

ion      s      p      d    tot
    1  0.000  0.000  0.000  0.000
    2  0.000  0.000  0.000  0.000
    3  0.000  0.000  0.000  0.000
    4  0.000  0.000  0.000  0.000
    5  0.000  0.001  0.000  0.001
    6  0.000  0.001  0.000  0.001
    7  0.000  0.001  0.000  0.001
    8  0.000  0.001  0.000  0.001
    9  0.198  0.000  0.000  0.198
   10  0.198  0.000  0.000  0.198
   11  0.198  0.000  0.000  0.198
   12  0.198  0.000  0.000  0.198
   13  0.000  0.000  0.000  0.000
   14  0.000  0.000  0.000  0.000
   15  0.000  0.000  0.000  0.000
   16  0.000  0.000  0.000  0.000
   17  0.000  0.000  0.000  0.000
   18  0.000  0.000  0.000  0.000
   19  0.000  0.000  0.000  0.000
   20  0.000  0.000  0.000  0.000
tot    0.794  0.005  0.000  0.799

band    29 # energy  -14.02905791 # occ.  2.00000000

ion      s      p      d    tot
    1  0.000  0.000  0.000  0.000
    2  0.000  0.000  0.000  0.000
    3  0.000  0.000  0.000  0.000
    4  0.000  0.000  0.000  0.000
    5  0.000  0.001  0.000  0.001
    6  0.000  0.001  0.000  0.001
    7  0.000  0.001  0.000  0.001
    8  0.000  0.001  0.000  0.001
    9  0.022  0.000  0.000  0.022
   10  0.022  0.000  0.000  0.022
   11  0.022  0.000  0.000  0.022
   12  0.022  0.000  0.000  0.022
   13  0.088  0.000  0.000  0.088
   14  0.088  0.000  0.000  0.088
   15  0.088  0.000  0.000  0.088
   16  0.088  0.000  0.000  0.088
   17  0.088  0.000  0.000  0.088
   18  0.088  0.000  0.000  0.088
   19  0.088  0.000  0.000  0.088
   20  0.088  0.000  0.000  0.088
tot    0.793  0.004  0.000  0.797

band    30 # energy  -14.02371987 # occ.  2.00000000

ion      s      p      d    tot
    1  0.000  0.000  0.000  0.000
    2  0.000  0.000  0.000  0.000
    3  0.000  0.000  0.000  0.000
    4  0.000  0.000  0.000  0.000
    5  0.000  0.001  0.000  0.001
    6  0.000  0.001  0.000  0.001
    7  0.000  0.001  0.000  0.001
    8  0.000  0.001  0.000  0.001
    9  0.000  0.000  0.000  0.000
   10  0.000  0.000  0.000  0.000
   11  0.000  0.000  0.000  0.000
   12  0.000  0.000  0.000  0.000
   13  0.099  0.000  0.000  0.099
   14  0.099  0.000  0.000  0.099
   15  0.099  0.000  0.000  0.099
   16  0.099  0.000  0.000  0.099
   17  0.099  0.000  0.000  0.099
   18  0.099  0.000  0.000  0.099
   19  0.099  0.000  0.000  0.099
   20  0.099  0.000  0.000  0.099
tot    0.793  0.004  0.000  0.798

band    31 # energy  -13.98959778 # occ.  2.00000000

ion      s      p      d    tot
    1  0.000  0.000  0.000  0.000
    2  0.000  0.000  0.000  0.000
    3  0.000  0.000  0.000  0.000
    4  0.000  0.000  0.000  0.000
    5  0.000  0.001  0.000  0.001
    6  0.000  0.001  0.000  0.001
    7  0.000  0.001  0.000  0.001
    8  0.000  0.001  0.000  0.001
    9  0.000  0.000  0.000  0.000
   10  0.000  0.000  0.000  0.000
   11  0.000  0.000  0.000  0.000
   12  0.000  0.000  0.000  0.000
   13  0.099  0.000  0.000  0.099
   14  0.099  0.000  0.000  0.099
   15  0.099  0.000  0.000  0.099
   16  0.099  0.000  0.000  0.099
   17  0.099  0.000  0.000  0.099
   18  0.099  0.000  0.000  0.099
   19  0.099  0.000  0.000  0.099
   20  0.099  0.000  0.000  0.099
tot    0.795  0.004  0.000  0.800

band    32 # energy  -13.98638934 # occ.  2.00000000

ion      s      p      d    tot
    1  0.000  0.000  0.000  0.000
    2  0.000  0.000  0.000  0.000
    3  0.000  0.000  0.000  0.000
    4  0.000  0.000  0.000  0.000
    5  0.003  0.000  0.011  0.014
    6  0.003  0.000  0.011  0.014
    7  0.003  0.000  0.011  0.014
    8  0.003  0.000  0.011  0.014
    9  0.188  0.000  0.000  0.188
   10  0.188  0.000  0.000  0.188
   11  0.188  0.000  0.000  0.188
   12  0.188  0.000  0.000  0.188
   13  0.000  0.000  0.000  0.000
   14  0.000  0.000  0.000  0.000
   15  0.000  0.000  0.000  0.000
   16  0.000  0.000  0.000  0.000
   17  0.000  0.000  0.000  0.000
   18  0.000  0.000  0.000  0.000
   19  0.000  0.000  0.000  0.000
   20  0.000  0.000  0.000  0.000
tot    0.765  0.001  0.043  0.809

band    33 # energy  -13.97745848 # occ.  2.00000000

ion      s      p      d    tot
    1  0.000  0.000  0.000  0.000
    2  0.000  0.000  0.000  0.000
    3  0.000  0.000  0.000  0.000
    4  0.000  0.000  0.000  0.000
    5  0.000  0.001  0.000  0.001
    6  0.000  0.001  0.000  0.001
    7  0.000  0.001  0.000  0.001
    8  0.000  0.001  0.000  0.001
    9  0.000  0.000  0.000  0.000
   10  0.000  0.000  0.000  0.000
   11  0.000  0.000  0.000  0.000
   12  0.000  0.000  0.000  0.000
   13  0.100  0.000  0.000  0.100
   14  0.100  0.000  0.000  0.100
   15  0.100  0.000  0.000  0.100
   16  0.100  0.000  0.000  0.100
   17  0.100  0.000  0.000  0.100
   18  0.100  0.000  0.000  0.100
   19  0.100  0.000  0.000  0.100
   20  0.100  0.000  0.000  0.100
tot    0.798  0.004  0.000  0.801

band    34 # energy  -13.76436538 # occ.  2.00000000

ion      s      p      d    tot
    1  0.000  0.000  0.000  0.000
    2  0.000  0.000  0.000  0.000
    3  0.000  0.000  0.000  0.000
    4  0.000  0.000  0.000  0.000
    5  0.000  0.000  0.014  0.014
    6  0.000  0.000  0.014  0.014
    7  0.000  0.000  0.014  0.014
    8  0.000  0.000  0.014  0.014
    9  0.122  0.000  0.000  0.122
   10  0.122  0.000  0.000  0.122
   11  0.122  0.000  0.000  0.122
   12  0.122  0.000  0.000  0.122
   13  0.035  0.000  0.000  0.035
   14  0.035  0.000  0.000  0.035
   15  0.035  0.000  0.000  0.035
   16  0.035  0.000  0.000  0.035
   17  0.035  0.000  0.000  0.035
   18  0.035  0.000  0.000  0.035
   19  0.035  0.000  0.000  0.035
   20  0.035  0.000  0.000  0.035
tot    0.772  0.001  0.056  0.828

band    35 # energy  -13.74859155 # occ.  2.00000000

ion      s      p      d    tot
    1  0.000  0.000  0.000  0.000
    2  0.000  0.000  0.000  0.000
    3  0.000  0.000  0.000  0.000
    4  0.000  0.000  0.000  0.000
    5  0.000  0.000  0.013  0.013
    6  0.000  0.000  0.013  0.013
    7  0.000  0.000  0.013  0.013
    8  0.000  0.000  0.013  0.013
    9  0.000  0.000  0.000  0.000
   10  0.000  0.000  0.000  0.000
   11  0.000  0.000  0.000  0.000
   12  0.000  0.000  0.000  0.000
   13  0.097  0.000  0.000  0.097
   14  0.097  0.000  0.000  0.097
   15  0.097  0.000  0.000  0.097
   16  0.097  0.000  0.000  0.097
   17  0.097  0.000  0.000  0.097
   18  0.097  0.000  0.000  0.097
   19  0.097  0.000  0.000  0.097
   20  0.097  0.000  0.000  0.097
tot    0.776  0.000  0.051  0.827

band    36 # energy  -13.74137522 # occ.  2.00000000

ion      s      p      d    tot
    1  0.000  0.000  0.000  0.000
    2  0.000  0.000  0.000  0.000
    3  0.000  0.000  0.000  0.000
    4  0.000  0.000  0.000  0.000
    5  0.000  0.000  0.013  0.013
    6  0.000  0.000  0.013  0.013
    7  0.000  0.000  0.013  0.013
    8  0.000  0.000  0.013  0.013
    9  0.000  0.000  0.000  0.000
   10  0.000  0.000  0.000  0.000
   11  0.000  0.000  0.000  0.000
   12  0.000  0.000  0.000  0.000
   13  0.097  0.000  0.000  0.097
   14  0.097  0.000  0.000  0.097
   15  0.097  0.000  0.000  0.097
   16  0.097  0.000  0.000  0.097
   17  0.097  0.000  0.000  0.097
   18  0.097  0.000  0.000  0.097
   19  0.097  0.000  0.000  0.097
   20  0.097  0.000  0.000  0.097
tot    0.777  0.000  0.051  0.828

band    37 # energy   -8.18515719 # occ.  2.00000000

ion      s      p      d    tot
    1  0.000  0.000  0.000  0.000
    2  0.000  0.000  0.000  0.000
    3  0.000  0.000  0.000  0.000
    4  0.000  0.000  0.000  0.000
    5  0.143  0.000  0.000  0.143
    6  0.143  0.000  0.000  0.143
    7  0.143  0.000  0.000  0.143
    8  0.143  0.000  0.000  0.143
    9  0.000  0.009  0.000  0.009
   10  0.000  0.009  0.000  0.009
   11  0.000  0.009  0.000  0.009
   12  0.000  0.009  0.000  0.009
   13  0.000  0.008  0.000  0.008
   14  0.000  0.008  0.000  0.008
   15  0.000  0.008  0.000  0.008
   16  0.000  0.008  0.000  0.008
   17  0.000  0.008  0.000  0.008
   18  0.000  0.008  0.000  0.008
   19  0.000  0.008  0.000  0.008
   20  0.000  0.008  0.000  0.008
tot    0.573  0.096  0.001  0.670

band    38 # energy   -7.67242005 # occ.  2.00000000

ion      s      p      d    tot
    1  0.000  0.006  0.000  0.006
    2  0.000  0.006  0.000  0.006
    3  0.000  0.006  0.000  0.006