<?xml version="1.0" encoding="ISO-8859-1"?>
<modeling>
 <generator>
  <i name="program" type="string">vasp </i>
  <i name="version" type="string">5.4.4.18Apr17-6-g9f103f2a35  </i>
  <i name="subversion" type="string">(build Jun 29 2021 13:39:03) complex            parallel </i>
  <i name="platform" type="string">tx2_gcc-7.3_libsci-18.07_cray-fftw-3.3.8 </i>
  <i name="date" type="string">2021 09 21 </i>
  <i name="time" type="string">08:29:00 </i>
 </generator>
 <incar>
  <i type="string" name="SYSTEM"> CsPbBr3 cubic bulk</i>
  <i type="string" name="PREC">accurate</i>
  <i type="string" name="ALGO"> Normal   ! Electronic minimisation algo</i>
  <i type="logical" name="ADDGRID"> T  </i>
  <i type="int" name="NELM">   200</i>
  <i type="int" name="IBRION">     2</i>
  <i name="EDIFF">      0.00000100</i>
  <i name="EDIFFG">     -0.01000000</i>
  <i type="int" name="NSW">     0</i>
  <i type="int" name="ISIF">     3</i>
  <i type="int" name="ISYM">     2</i>
  <i name="ENCUT">    300.00000000</i>
  <i name="POTIM">      0.50000000</i>
  <i type="string" name="LREAL"> AUTO</i>
  <i type="int" name="ISMEAR">     0</i>
  <i name="SIGMA">      0.01000000</i>
  <i name="PSTRESS">      0.00000000</i>
  <i type="logical" name="LWAVE"> F  </i>
  <i type="logical" name="LCHARG"> F  </i>
  <i type="logical" name="LVHAR"> T  </i>
  <i type="int" name="LORBIT">    10</i>
  <i type="logical" name="LASPH"> T  </i>
  <v type="int" name="KPOINT_BSE">    -1     0     0     0</v>
  <i type="int" name="NELM">   200</i>
  <i type="string" name="METAGGA"> SCAN       ! PBE exchange-correlation</i>
  <i type="logical" name="LASPH"> T  </i>
 </incar>
 <structure name="primitive_cell" >
  <crystal>
   <varray name="basis" >
    <v>       8.18559313       0.00000000       0.00000000 </v>
    <v>       0.00000000      11.64758908       0.00000000 </v>
    <v>       0.00000000       0.00000000       8.48187958 </v>
   </varray>
   <i name="volume">    808.68296910 </i>
   <varray name="rec_basis" >
    <v>       0.12216586       0.00000000       0.00000000 </v>
    <v>       0.00000000       0.08585468       0.00000000 </v>
    <v>       0.00000000       0.00000000       0.11789840 </v>
   </varray>
  </crystal>
  <varray name="positions" >
   <v>       0.04609920       0.25000000       0.49234287 </v>
   <v>      -0.00608633       0.25000000      -0.07626636 </v>
   <v>      -0.21207209       0.03867959       0.28557350 </v>
   <v>      -0.21207209       0.46132041       0.28557350 </v>
   <v>       0.49391367       0.25000000      -0.42373364 </v>
   <v>       0.28792791       0.46132041       0.21442650 </v>
   <v>       0.28792791       0.03867959       0.21442650 </v>
   <v>       0.21207209      -0.46132041      -0.28557350 </v>
   <v>       0.21207209      -0.03867959      -0.28557350 </v>
   <v>      -0.50000000       0.00000000      -0.50000000 </v>
   <v>      -0.50000000      -0.50000000      -0.50000000 </v>
   <v>      -0.28792791      -0.03867959      -0.21442650 </v>
   <v>      -0.28792791      -0.46132041      -0.21442650 </v>
   <v>       0.00000000       0.00000000       0.00000000 </v>
   <v>       0.00000000      -0.50000000       0.00000000 </v>
   <v>      -0.45390080       0.25000000       0.00765713 </v>
   <v>      -0.04609920      -0.25000000      -0.49234287 </v>
   <v>       0.00608633      -0.25000000       0.07626636 </v>
   <v>      -0.49391367      -0.25000000       0.42373364 </v>
   <v>       0.45390080      -0.25000000      -0.00765713 </v>
  </varray>
 </structure>
 <varray name="primitive_index" >
  <v type="int" >        1 </v>
  <v type="int" >       10 </v>
  <v type="int" >       15 </v>
  <v type="int" >       20 </v>
  <v type="int" >       12 </v>
  <v type="int" >       13 </v>
  <v type="int" >       17 </v>
  <v type="int" >       14 </v>
  <v type="int" >       18 </v>
  <v type="int" >        6 </v>
  <v type="int" >        7 </v>
  <v type="int" >       16 </v>
  <v type="int" >       19 </v>
  <v type="int" >        5 </v>
  <v type="int" >        8 </v>
  <v type="int" >        3 </v>
  <v type="int" >        4 </v>
  <v type="int" >       11 </v>
  <v type="int" >        9 </v>
  <v type="int" >        2 </v>
 </varray>
 <kpoints>
  <generation param="Gamma">
   <v type="int" name="divisions">       3        2        3 </v>
   <v name="usershift">      0.00000000       0.00000000       0.00000000 </v>
   <v name="genvec1">      0.33333333       0.00000000       0.00000000 </v>
   <v name="genvec2">      0.00000000       0.50000000       0.00000000 </v>
   <v name="genvec3">      0.00000000       0.00000000       0.33333333 </v>
   <v name="shift">      0.00000000       0.00000000       0.00000000 </v>
  </generation>
  <varray name="kpointlist" >
   <v>       0.00000000       0.00000000       0.00000000 </v>
   <v>       0.33333333       0.00000000       0.00000000 </v>
   <v>       0.00000000       0.50000000       0.00000000 </v>
   <v>       0.33333333       0.50000000       0.00000000 </v>
   <v>       0.00000000       0.00000000       0.33333333 </v>
   <v>       0.33333333       0.00000000       0.33333333 </v>
   <v>       0.00000000       0.50000000       0.33333333 </v>
   <v>       0.33333333       0.50000000       0.33333333 </v>
  </varray>
  <varray name="weights" >
   <v>       0.05555556 </v>
   <v>       0.11111111 </v>
   <v>       0.05555556 </v>
   <v>       0.11111111 </v>
   <v>       0.11111111 </v>
   <v>       0.22222222 </v>
   <v>       0.11111111 </v>
   <v>       0.22222222 </v>
  </varray>
 </kpoints>
 <parameters>
  <separator name="general" >
   <i type="string" name="SYSTEM">CsPbBr3 cubic bulk</i>
   <i type="logical" name="LCOMPAT"> F  </i>
  </separator>
  <separator name="electronic" >
   <i type="string" name="PREC">accura</i>
   <i name="ENMAX">    300.00000000</i>
   <i name="ENAUG">    503.85200000</i>
   <i name="EDIFF">      0.00000100</i>
   <i type="int" name="IALGO">    38</i>
   <i type="int" name="IWAVPR">    10</i>
   <i type="int" name="NBANDS">   112</i>
   <i name="NELECT">    176.00000000</i>
   <i type="int" name="TURBO">     0</i>
   <i type="int" name="IRESTART">     0</i>
   <i type="int" name="NREBOOT">     0</i>
   <i type="int" name="NMIN">     0</i>
   <i name="EREF">      0.00000000</i>
   <separator name="electronic smearing" >
    <i type="int" name="ISMEAR">     0</i>
    <i name="SIGMA">      0.01000000</i>
    <i name="KSPACING">      0.50000000</i>
    <i type="logical" name="KGAMMA"> T  </i>
   </separator>
   <separator name="electronic projectors" >
    <i type="logical" name="LREAL"> T  </i>
    <v name="ROPT">     -0.00025000     -0.00025000     -0.00025000</v>
    <i type="int" name="LMAXPAW">  -100</i>
    <i type="int" name="LMAXMIX">     2</i>
    <i type="logical" name="NLSPLINE"> F  </i>
   </separator>
   <separator name="electronic startup" >
    <i type="int" name="ISTART">     0</i>
    <i type="int" name="ICHARG">     2</i>
    <i type="int" name="INIWAV">     1</i>
   </separator>
   <separator name="electronic spin" >
    <i type="int" name="ISPIN">     1</i>
    <i type="logical" name="LNONCOLLINEAR"> F  </i>
    <v name="MAGMOM">      1.00000000      1.00000000      1.00000000      1.00000000      1.00000000      1.00000000      1.00000000      1.00000000      1.00000000      1.00000000      1.00000000      1.00000000      1.00000000      1.00000000      1.00000000      1.00000000      1.00000000      1.00000000      1.00000000      1.00000000
</v>
    <i name="NUPDOWN">     -1.00000000</i>
    <i type="logical" name="LSORBIT"> F  </i>
    <v name="SAXIS">      0.00000000      0.00000000      1.00000000</v>
    <i type="logical" name="LSPIRAL"> F  </i>
    <v name="QSPIRAL">      0.00000000      0.00000000      0.00000000</v>
    <i type="logical" name="LZEROZ"> F  </i>
   </separator>
   <separator name="electronic exchange-correlation" >
    <i type="logical" name="LASPH"> T  </i>
    <i type="logical" name="LMETAGGA"> F  </i>
   </separator>
   <separator name="electronic convergence" >
    <i type="int" name="NELM">   200</i>
    <i type="int" name="NELMDL">    -5</i>
    <i type="int" name="NELMIN">     2</i>
    <i name="ENINI">    300.00000000</i>
    <separator name="electronic convergence detail" >
     <i type="logical" name="LDIAG"> T  </i>
     <i type="logical" name="LSUBROT"> F  </i>
     <i name="WEIMIN">      0.00000000</i>
     <i name="EBREAK">      0.00000000</i>
     <i name="DEPER">      0.30000000</i>
     <i type="int" name="NRMM">     4</i>
     <i name="TIME">      0.40000000</i>
    </separator>
   </separator>
   <separator name="electronic mixer" >
    <i name="AMIX">      0.40000000</i>
    <i name="BMIX">      1.00000000</i>
    <i name="AMIN">      0.10000000</i>
    <i name="AMIX_MAG">      1.60000000</i>
    <i name="BMIX_MAG">      1.00000000</i>
    <separator name="electronic mixer details" >
     <i type="int" name="IMIX">     4</i>
     <i type="logical" name="MIXFIRST"> F  </i>
     <i type="int" name="MAXMIX">   -45</i>
     <i name="WC">    100.00000000</i>
     <i type="int" name="INIMIX">     1</i>
     <i type="int" name="MIXPRE">     1</i>
     <i type="int" name="MREMOVE">     5</i>
    </separator>
   </separator>
   <separator name="electronic dipolcorrection" >
    <i type="logical" name="LDIPOL"> F  </i>
    <i type="logical" name="LMONO"> F  </i>
    <i type="int" name="IDIPOL">     0</i>
    <i name="EPSILON">      1.00000000</i>
    <v name="DIPOL">   -100.00000000   -100.00000000   -100.00000000</v>
    <i name="EFIELD">      0.00000000</i>
   </separator>
  </separator>
  <separator name="grids" >
   <i type="int" name="NGX">    48</i>
   <i type="int" name="NGY">    70</i>
   <i type="int" name="NGZ">    48</i>
   <i type="int" name="NGXF">    96</i>
   <i type="int" name="NGYF">   140</i>
   <i type="int" name="NGZF">    96</i>
   <i type="logical" name="ADDGRID"> T  </i>
  </separator>
  <separator name="ionic" >
   <i type="int" name="NSW">     0</i>
   <i type="int" name="IBRION">    -1</i>
   <i type="int" name="MDALGO">     0</i>
   <i type="int" name="ISIF">     3</i>
   <i name="PSTRESS">      0.00000000</i>
   <i name="EDIFFG">     -0.01000000</i>
   <i type="int" name="NFREE">     1</i>
   <i name="POTIM">      0.50000000</i>
   <i name="SMASS">     -3.00000000</i>
   <i name="SCALEE">      1.00000000</i>
  </separator>
  <separator name="ionic md" >
   <i name="TEBEG">      0.00010000</i>
   <i name="TEEND">      0.00010000</i>
   <i type="int" name="NBLOCK">     1</i>
   <i type="int" name="KBLOCK">     1</i>
   <i type="int" name="NPACO">   256</i>
   <i name="APACO">     16.00000000</i>
  </separator>
  <separator name="symmetry" >
   <i type="int" name="ISYM">     2</i>
   <i name="SYMPREC">      0.00001000</i>
  </separator>
  <separator name="dos" >
   <i type="int" name="LORBIT">    10</i>
   <v name="RWIGS">     -1.00000000     -1.00000000     -1.00000000</v>
   <i type="int" name="NEDOS">   301</i>
   <i name="EMIN">     10.00000000</i>
   <i name="EMAX">    -10.00000000</i>
   <i name="EFERMI">      0.00000000</i>
  </separator>
  <separator name="writing" >
   <i type="int" name="NWRITE">     2</i>
   <i type="logical" name="LWAVE"> F  </i>
   <i type="logical" name="LDOWNSAMPLE"> F  </i>
   <i type="logical" name="LCHARG"> F  </i>
   <i type="logical" name="LPARD"> F  </i>
   <i type="logical" name="LVTOT"> F  </i>
   <i type="logical" name="LVHAR"> T  </i>
   <i type="logical" name="LELF"> F  </i>
   <i type="logical" name="LOPTICS"> F  </i>
   <v name="STM">      0.00000000      0.00000000      0.00000000      0.00000000      0.00000000      0.00000000      0.00000000</v>
  </separator>
  <separator name="performance" >
   <i type="int" name="NPAR">     8</i>
   <i type="int" name="NSIM">     4</i>
   <i type="int" name="NBLK">    -1</i>
   <i type="logical" name="LPLANE"> T  </i>
   <i type="logical" name="LSCALAPACK"> T  </i>
   <i type="logical" name="LSCAAWARE"> F  </i>
   <i type="logical" name="LSCALU"> F  </i>
   <i type="logical" name="LASYNC"> F  </i>
   <i type="logical" name="LORBITALREAL"> F  </i>
  </separator>
  <separator name="miscellaneous" >
   <i type="int" name="IDIOT">     3</i>
   <i type="int" name="ISPECIAL">     0</i>
   <i type="logical" name="LMUSIC"> F  </i>
   <v name="POMASS">    132.90000000    207.20000000     79.90400000</v>
   <v name="DARWINR">      0.00000000      0.00000000      0.00000000</v>
   <v name="DARWINV">      1.00000000      1.00000000      1.00000000</v>
   <i type="logical" name="LCORR"> T  </i>
  </separator>
  <i type="logical" name="GGA_COMPAT"> T  </i>
  <i type="logical" name="LBERRY"> F  </i>
  <i type="int" name="ICORELEVEL">     0</i>
  <i type="logical" name="LDAU"> F  </i>
  <i type="int" name="I_CONSTRAINED_M">     0</i>
  <separator name="electronic exchange-correlation" >
   <i type="string" name="GGA">--</i>
   <i type="int" name="VOSKOWN">     0</i>
   <i type="logical" name="LHFCALC"> F  </i>
   <i type="string" name="PRECFOCK"></i>
   <i type="logical" name="LSYMGRAD"> F  </i>
   <i type="logical" name="LHFONE"> F  </i>
   <i type="logical" name="LRHFCALC"> F  </i>
   <i type="logical" name="LTHOMAS"> F  </i>
   <i type="logical" name="LMODELHF"> F  </i>
   <i name="ENCUT4O">     -1.00000000</i>
   <i type="int" name="EXXOEP">     0</i>
   <i type="int" name="FOURORBIT">     0</i>
   <i name="AEXX">      0.00000000</i>
   <i name="HFALPHA">      0.00000000</i>
   <i name="MCALPHA">      0.00000000</i>
   <i name="ALDAX">      1.00000000</i>
   <i name="AGGAX">      1.00000000</i>
   <i name="ALDAC">      1.00000000</i>
   <i name="AGGAC">      1.00000000</i>
   <i type="int" name="NKREDX">     1</i>
   <i type="int" name="NKREDY">     1</i>
   <i type="int" name="NKREDZ">     1</i>
   <i type="logical" name="SHIFTRED"> F  </i>
   <i type="logical" name="ODDONLY"> F  </i>
   <i type="logical" name="EVENONLY"> F  </i>
   <i type="int" name="LMAXFOCK">     0</i>
   <i type="int" name="NMAXFOCKAE">     0</i>
   <i type="logical" name="LFOCKAEDFT"> F  </i>
   <i name="HFSCREEN">      0.00000000</i>
   <i name="HFSCREENC">      0.00000000</i>
   <i type="int" name="NBANDSGWLOW">     0</i>
  </separator>
  <separator name="vdW DFT" >
   <i type="logical" name="LUSE_VDW"> F  </i>
   <i name="Zab_VDW">     -0.84910000</i>
   <i name="PARAM1">      0.12340000</i>
   <i name="PARAM2">      1.00000000</i>
   <i name="PARAM3">      0.00000000</i>
  </separator>
  <separator name="model GW" >
   <i type="int" name="MODEL_GW">     0</i>
   <i name="MODEL_EPS0">     24.26048907</i>
   <i name="MODEL_ALPHA">      1.00000000</i>
  </separator>
  <separator name="linear response parameters" >
   <i type="logical" name="LEPSILON"> F  </i>
   <i type="logical" name="LRPA"> F  </i>
   <i type="logical" name="LNABLA"> F  </i>
   <i type="logical" name="LVEL"> F  </i>
   <i type="int" name="KINTER">     0</i>
   <i name="CSHIFT">      0.10000000</i>
   <i name="OMEGAMAX">     -1.00000000</i>
   <i name="DEG_THRESHOLD">      0.00200000</i>
   <i name="RTIME">     -0.10000000</i>
   <i name="WPLASMAI">      0.00000000</i>
   <v name="DFIELD">      0.00000000      0.00000000      0.00000000</v>
   <v name="WPLASMA">      0.00000000      0.00000000      0.00000000      0.00000000      0.00000000      0.00000000      0.00000000      0.00000000      0.00000000</v>
  </separator>
  <separator name="orbital magnetization" >
   <i type="logical" name="NUCIND"> F  </i>
   <v name="MAGPOS">      0.00000000      0.00000000      0.00000000</v>
   <i type="logical" name="LNICSALL"> T  </i>
   <i type="logical" name="ORBITALMAG"> F  </i>
   <i type="logical" name="LMAGBLOCH"> F  </i>
   <i type="logical" name="LCHIMAG"> F  </i>
   <i type="logical" name="LGAUGE"> T  </i>
   <i type="int" name="MAGATOM">     0</i>
   <v name="MAGDIPOL">      0.00000000      0.00000000      0.00000000</v>
   <v name="AVECCONST">      0.00000000      0.00000000      0.00000000</v>
  </separator>
  <separator name="response functions" >
   <i type="logical" name="LADDER"> F  </i>
   <i type="logical" name="LRPAFORCE"> F  </i>
   <i type="logical" name="LFXC"> F  </i>
   <i type="logical" name="LHARTREE"> T  </i>
   <i type="int" name="IBSE">     0</i>
   <v type="int" name="KPOINT">    -1     0     0     0</v>
   <i type="logical" name="LTCTE"> F  </i>
   <i type="logical" name="LTETE"> F  </i>
   <i type="logical" name="LTRIPLET"> F  </i>
   <i type="logical" name="LFXCEPS"> F  </i>
   <i type="logical" name="LFXHEG"> F  </i>
   <i type="int" name="NATURALO">     2</i>
   <i type="logical" name="L2ORDER"> F  </i>
   <i type="logical" name="LMP2LT"> F  </i>
   <i type="logical" name="LUSEW"> F  </i>
   <i name="ENCUTGW">     -2.00000000</i>
   <i name="ENCUTGWSOFT">     -2.00000000</i>
   <i name="ENCUTLF">     -1.00000000</i>
   <i type="int" name="LMAXMP2">    -1</i>
   <i name="SCISSOR">      0.00000000</i>
   <i type="int" name="NOMEGA">     0</i>
   <i type="int" name="NOMEGAR">     0</i>
   <i type="int" name="NBANDSGW">    -1</i>
   <i type="int" name="NBANDSO">    -1</i>
   <i type="int" name="NBANDSV">    -1</i>
   <i type="int" name="NELM">   200</i>
   <i type="int" name="NELMHF">     1</i>
   <i type="int" name="DIM">     3</i>
   <i type="int" name="ANTIRES">     0</i>
   <i name="OMEGAMAX">    -30.00000000</i>
   <i name="OMEGAMIN">    -30.00000000</i>
   <i name="OMEGATL">   -200.00000000</i>
   <i type="int" name="OMEGAGRID">   140</i>
   <i name="CSHIFT">     -0.10000000</i>
   <i type="logical" name="SELFENERGY"> F  </i>
   <i type="logical" name="LSPECTRAL"> F  </i>
   <i type="logical" name="LSPECTRALGW"> F  </i>
   <i type="logical" name="LSINGLES"> F  </i>
   <i type="logical" name="LFERMIGW"> F  </i>
   <i type="logical" name="ODDONLYGW"> F  </i>
   <i type="logical" name="EVENONLYGW"> F  </i>
   <i type="int" name="NKREDLFX">     1</i>
   <i type="int" name="NKREDLFY">     1</i>
   <i type="int" name="NKREDLFZ">     1</i>
   <i type="int" name="MAXMEM">  2800</i>
   <i type="int" name="TELESCOPE">     0</i>
   <i type="int" name="TAUPAR">     1</i>
   <i type="int" name="OMEGAPAR">    -1</i>
   <i name="LAMBDA">      1.00000000</i>
  </separator>
  <separator name="External order field" >
   <i name="OFIELD_KAPPA">      0.00000000</i>
   <v name="OFIELD_K">      0.00000000      0.00000000      0.00000000</v>
   <i name="OFIELD_Q6_NEAR">      0.00000000</i>
   <i name="OFIELD_Q6_FAR">      0.00000000</i>
   <i name="OFIELD_A">      0.00000000</i>
  </separator>
 </parameters>
 <atominfo>
  <atoms>      20 </atoms>
  <types>       3 </types>
  <array name="atoms" >
   <dimension dim="1">ion</dimension>
   <field type="string">element</field>
   <field type="int">atomtype</field>
   <set>
    <rc><c>Cs</c><c>   1</c></rc>
    <rc><c>Cs</c><c>   1</c></rc>
    <rc><c>Cs</c><c>   1</c></rc>
    <rc><c>Cs</c><c>   1</c></rc>
    <rc><c>Pb</c><c>   2</c></rc>
    <rc><c>Pb</c><c>   2</c></rc>
    <rc><c>Pb</c><c>   2</c></rc>
    <rc><c>Pb</c><c>   2</c></rc>
    <rc><c>Br</c><c>   3</c></rc>
    <rc><c>Br</c><c>   3</c></rc>
    <rc><c>Br</c><c>   3</c></rc>
    <rc><c>Br</c><c>   3</c></rc>
    <rc><c>Br</c><c>   3</c></rc>
    <rc><c>Br</c><c>   3</c></rc>
    <rc><c>Br</c><c>   3</c></rc>
    <rc><c>Br</c><c>   3</c></rc>
    <rc><c>Br</c><c>   3</c></rc>
    <rc><c>Br</c><c>   3</c></rc>
    <rc><c>Br</c><c>   3</c></rc>
    <rc><c>Br</c><c>   3</c></rc>
   </set>
  </array>
  <array name="atomtypes" >
   <dimension dim="1">type</dimension>
   <field type="int">atomspertype</field>
   <field type="string">element</field>
   <field>mass</field>
   <field>valence</field>
   <field type="string">pseudopotential</field>
   <set>
    <rc><c>   4</c><c>Cs</c><c>    132.90000000</c><c>      9.00000000</c><c>  PAW_PBE Cs_sv 08Apr2002               </c></rc>
    <rc><c>   4</c><c>Pb</c><c>    207.20000000</c><c>     14.00000000</c><c>  PAW_PBE Pb_d 06Sep2000                </c></rc>
    <rc><c>  12</c><c>Br</c><c>     79.90400000</c><c>      7.00000000</c><c>  PAW_PBE Br 06Sep2000                  </c></rc>
   </set>
  </array>
 </atominfo>
 <structure name="initialpos" >
  <crystal>
   <varray name="basis" >
    <v>       8.18559313       0.00000000       0.00000000 </v>
    <v>       0.00000000      11.64758908       0.00000000 </v>
    <v>       0.00000000       0.00000000       8.48187958 </v>
   </varray>
   <i name="volume">    808.68296910 </i>
   <varray name="rec_basis" >
    <v>       0.12216586       0.00000000       0.00000000 </v>
    <v>       0.00000000       0.08585468       0.00000000 </v>
    <v>       0.00000000       0.00000000       0.11789840 </v>
   </varray>
  </crystal>
  <varray name="positions" >
   <v>       0.04609920       0.25000000       0.49234287 </v>
   <v>       0.45390080       0.75000000       0.99234287 </v>
   <v>       0.54609920       0.25000000       0.00765713 </v>
   <v>       0.95390080       0.75000000       0.50765713 </v>
   <v>       0.00000000       0.00000000       0.00000000 </v>
   <v>       0.50000000       0.00000000       0.50000000 </v>
   <v>       0.50000000       0.50000000       0.50000000 </v>
   <v>       0.00000000       0.50000000       0.00000000 </v>
   <v>       0.50608633       0.75000000       0.42373364 </v>
   <v>       0.99391367       0.25000000       0.92373364 </v>
   <v>       0.00608633       0.75000000       0.07626636 </v>
   <v>       0.49391367       0.25000000       0.57626636 </v>
   <v>       0.28792791       0.46132041       0.21442650 </v>
   <v>       0.21207209       0.53867959       0.71442650 </v>
   <v>       0.78792791       0.03867959       0.28557350 </v>
   <v>       0.71207209       0.96132041       0.78557350 </v>
   <v>       0.28792791       0.03867959       0.21442650 </v>
   <v>       0.21207209       0.96132041       0.71442650 </v>
   <v>       0.71207209       0.53867959       0.78557350 </v>
   <v>       0.78792791       0.46132041       0.28557350 </v>
  </varray>
 </structure>
 <calculation>
  <scstep>
   <time name="dav">    3.97    3.98</time>
   <time name="total">    5.20    5.22</time>
   <energy>
    <i name="alphaZ">    446.16858218 </i>
    <i name="ewald">  -9205.52149891 </i>
    <i name="hartreedc">  -3667.69475045 </i>
    <i name="XCdc">    461.93349449 </i>
    <i name="pawpsdc">  10816.98087266 </i>
    <i name="pawaedc"> -11353.96092700 </i>
    <i name="eentropy">     -0.00107155 </i>
    <i name="bandstr">   -131.01520148 </i>
    <i name="atom">  13290.28009929 </i>
    <i name="e_fr_energy">    657.16959922 </i>
    <i name="e_wo_entrp">    657.17067077 </i>
    <i name="e_0_energy">    657.17013499 </i>
   </energy>
  </scstep>
  <scstep>
   <time name="dav">    4.43    4.45</time>
   <time name="total">    4.43    4.45</time>
   <energy>
    <i name="e_fr_energy">   -573.73276354 </i>
    <i name="e_wo_entrp">   -573.73276354 </i>
    <i name="e_0_energy">   -573.73276354 </i>
   </energy>
  </scstep>
  <scstep>
   <time name="dav">    4.79    4.81</time>
   <time name="total">    4.79    4.81</time>
   <energy>
    <i name="e_fr_energy">   -748.90601843 </i>
    <i name="e_wo_entrp">   -748.90601843 </i>
    <i name="e_0_energy">   -748.90601843 </i>
   </energy>
  </scstep>
  <scstep>
   <time name="dav">    4.46    4.47</time>
   <time name="total">    4.46    4.47</time>
   <energy>
    <i name="e_fr_energy">   -754.43767551 </i>
    <i name="e_wo_entrp">   -754.43767551 </i>
    <i name="e_0_energy">   -754.43767551 </i>
   </energy>
  </scstep>
  <scstep>
   <time name="dav">    4.74    4.76</time>
   <time name="total">    5.61    5.64</time>
   <energy>
    <i name="e_fr_energy">   -754.69237420 </i>
    <i name="e_wo_entrp">   -754.69237420 </i>
    <i name="e_0_energy">   -754.69237420 </i>
   </energy>
  </scstep>
  <scstep>
   <time name="dav">    4.64    4.64</time>
   <time name="total">    6.73    6.75</time>
   <energy>
    <i name="e_fr_energy">   -714.96049655 </i>
    <i name="e_wo_entrp">   -714.96049655 </i>
    <i name="e_0_energy">   -714.96049655 </i>
   </energy>
  </scstep>
  <scstep>
   <time name="dav">    4.53    4.53</time>
   <time name="total">    6.63    6.63</time>
   <energy>
    <i name="e_fr_energy">   -714.72844286 </i>
    <i name="e_wo_entrp">   -714.72844286 </i>
    <i name="e_0_energy">   -714.72844286 </i>
   </energy>
  </scstep>
  <scstep>
   <time name="dav">    4.34    4.34</time>
   <time name="total">    6.43    6.44</time>
   <energy>
    <i name="e_fr_energy">   -714.82390145 </i>
    <i name="e_wo_entrp">   -714.82390145 </i>
    <i name="e_0_energy">   -714.82390145 </i>
   </energy>
  </scstep>
  <scstep>
   <time name="dav">    4.13    4.13</time>
   <time name="total">    6.18    6.23</time>
   <energy>
    <i name="e_fr_energy">   -714.86547153 </i>
    <i name="e_wo_entrp">   -714.86547153 </i>
    <i name="e_0_energy">   -714.86547153 </i>
   </energy>
  </scstep>
  <scstep>
   <time name="dav">    4.96    4.97</time>
   <time name="total">    7.01    7.07</time>
   <energy>
    <i name="e_fr_energy">   -714.86624736 </i>
    <i name="e_wo_entrp">   -714.86624736 </i>
    <i name="e_0_energy">   -714.86624736 </i>
   </energy>
  </scstep>
  <scstep>
   <time name="dav">    4.17    4.17</time>
   <time name="total">    6.26    6.27</time>
   <energy>
    <i name="e_fr_energy">   -714.86772424 </i>
    <i name="e_wo_entrp">   -714.86772424 </i>
    <i name="e_0_energy">   -714.86772424 </i>
   </energy>
  </scstep>
  <scstep>
   <time name="dav">    4.31    4.31</time>
   <time name="total">    6.39    6.41</time>
   <energy>
    <i name="e_fr_energy">   -714.86783526 </i>
    <i name="e_wo_entrp">   -714.86783526 </i>
    <i name="e_0_energy">   -714.86783526 </i>
   </energy>
  </scstep>
  <scstep>
   <time name="dav">    4.43    4.43</time>
   <time name="total">    6.47    6.52</time>
   <energy>
    <i name="e_fr_energy">   -714.86785249 </i>
    <i name="e_wo_entrp">   -714.86785249 </i>
    <i name="e_0_energy">   -714.86785249 </i>
   </energy>
  </scstep>
  <scstep>
   <time name="dav">    3.91    3.91</time>
   <time name="total">    5.99    6.01</time>
   <energy>
    <i name="e_fr_energy">   -714.86785686 </i>
    <i name="e_wo_entrp">   -714.86785686 </i>
    <i name="e_0_energy">   -714.86785686 </i>
   </energy>
  </scstep>
  <scstep>
   <time name="dav">    3.22    3.22</time>
   <time name="total">    5.26    5.30</time>
   <energy>
    <i name="e_fr_energy">   -714.86786330 </i>
    <i name="e_wo_entrp">   -714.86786330 </i>
    <i name="e_0_energy">   -714.86786330 </i>
   </energy>
  </scstep>
  <scstep>
   <time name="dav">    3.15    3.15</time>
   <time name="total">    5.22    5.25</time>
   <energy>
    <i name="e_fr_energy">   -714.86785965 </i>
    <i name="e_wo_entrp">   -714.86785965 </i>
    <i name="e_0_energy">   -714.86785965 </i>
   </energy>
  </scstep>
  <scstep>
   <time name="dav">    3.06    3.06</time>
   <time name="total">    4.28    4.33</time>
   <energy>
    <i name="alphaZ">    446.16858218 </i>
    <i name="ewald">  -9205.52149891 </i>
    <i name="hartreedc">  -3681.06029148 </i>
    <i name="XCdc">    481.25895048 </i>
    <i name="pawpsdc">  11533.70771670 </i>
    <i name="pawaedc"> -12069.67912351 </i>
    <i name="eentropy">     -0.00000000 </i>
    <i name="bandstr">  -1510.02229404 </i>
    <i name="atom">  13290.28009929 </i>
    <i name="e_fr_energy">   -714.86785929 </i>
    <i name="e_wo_entrp">   -714.86785929 </i>
    <i name="e_0_energy">   -714.86785929 </i>
   </energy>
  </scstep>
  <structure>
   <crystal>
    <varray name="basis" >
     <v>       8.18559313       0.00000000       0.00000000 </v>
     <v>       0.00000000      11.64758908       0.00000000 </v>
     <v>       0.00000000       0.00000000       8.48187958 </v>
    </varray>
    <i name="volume">    808.68296910 </i>
    <varray name="rec_basis" >
     <v>       0.12216586       0.00000000       0.00000000 </v>
     <v>       0.00000000       0.08585468       0.00000000 </v>
     <v>       0.00000000       0.00000000       0.11789840 </v>
    </varray>
   </crystal>
   <varray name="positions" >
    <v>       0.04609920       0.25000000       0.49234287 </v>
    <v>       0.45390080       0.75000000       0.99234287 </v>
    <v>       0.54609920       0.25000000       0.00765713 </v>
    <v>       0.95390080       0.75000000       0.50765713 </v>
    <v>       0.00000000       0.00000000       0.00000000 </v>
    <v>       0.50000000       0.00000000       0.50000000 </v>
    <v>       0.50000000       0.50000000       0.50000000 </v>
    <v>       0.00000000       0.50000000       0.00000000 </v>
    <v>       0.50608633       0.75000000       0.42373364 </v>
    <v>       0.99391367       0.25000000       0.92373364 </v>
    <v>       0.00608633       0.75000000       0.07626636 </v>
    <v>       0.49391367       0.25000000       0.57626636 </v>
    <v>       0.28792791       0.46132041       0.21442650 </v>
    <v>       0.21207209       0.53867959       0.71442650 </v>
    <v>       0.78792791       0.03867959       0.28557350 </v>
    <v>       0.71207209       0.96132041       0.78557350 </v>
    <v>       0.28792791       0.03867959       0.21442650 </v>
    <v>       0.21207209       0.96132041       0.71442650 </v>
    <v>       0.71207209       0.53867959       0.78557350 </v>
    <v>       0.78792791       0.46132041       0.28557350 </v>
   </varray>
  </structure>
  <varray name="forces" >
   <v>      -0.00111680      -0.00000000       0.00401254 </v>
   <v>       0.00111680       0.00000000       0.00401254 </v>
   <v>      -0.00111680       0.00000000      -0.00401254 </v>
   <v>       0.00111680       0.00000000      -0.00401254 </v>
   <v>       0.00000000       0.00000000       0.00000000 </v>
   <v>       0.00000000       0.00000000       0.00000000 </v>
   <v>       0.00000000       0.00000000       0.00000000 </v>
   <v>       0.00000000       0.00000000       0.00000000 </v>
   <v>       0.00552237       0.00000000      -0.01623414 </v>
   <v>      -0.00552237       0.00000000      -0.01623414 </v>
   <v>       0.00552237       0.00000000       0.01623414 </v>
   <v>      -0.00552237      -0.00000000       0.01623414 </v>
   <v>      -0.00299859       0.00326961      -0.00095131 </v>
   <v>       0.00299859      -0.00326961      -0.00095131 </v>
   <v>      -0.00299859      -0.00326961       0.00095131 </v>
   <v>       0.00299859       0.00326961       0.00095131 </v>
   <v>      -0.00299859      -0.00326961      -0.00095131 </v>
   <v>       0.00299859       0.00326961      -0.00095131 </v>
   <v>       0.00299859      -0.00326961       0.00095131 </v>
   <v>      -0.00299859       0.00326961       0.00095131 </v>
  </varray>
  <varray name="stress" >
   <v>      -1.68518335       0.00000000       0.00000000 </v>
   <v>       0.00000000      -1.17122712       0.00000000 </v>
   <v>       0.00000000       0.00000000      -6.10176353 </v>
  </varray>
  <energy>
   <i name="e_fr_energy">   -714.86785929 </i>
   <i name="e_wo_entrp">   -714.86785929 </i>
   <i name="e_0_energy">     -0.00000000 </i>
  </energy>
  <time name="totalsc">  112.84  113.32</time>
  <eigenvalues>
   <array>
    <dimension dim="1">band</dimension>
    <dimension dim="2">kpoint</dimension>
    <dimension dim="3">spin</dimension>
    <field>eigene</field>
    <field>occ</field>
    <set>
     <set comment="spin 1">
      <set comment="kpoint 1">
       <r>  -20.8439    1.0000 </r>
       <r>  -20.8424    1.0000 </r>
       <r>  -20.8407    1.0000 </r>
       <r>  -20.8395    1.0000 </r>
       <r>  -16.4961    1.0000 </r>
       <r>  -16.4829    1.0000 </r>
       <r>  -16.4825    1.0000 </r>
       <r>  -16.4720    1.0000 </r>
       <r>  -16.4348    1.0000 </r>
       <r>  -16.4049    1.0000 </r>
       <r>  -16.4005    1.0000 </r>
       <r>  -16.4004    1.0000 </r>
       <r>  -16.3418    1.0000 </r>
       <r>  -16.3411    1.0000 </r>
       <r>  -16.3411    1.0000 </r>
       <r>  -16.3403    1.0000 </r>
       <r>  -16.3346    1.0000 </r>
       <r>  -16.3340    1.0000 </r>
       <r>  -16.3340    1.0000 </r>
       <r>  -16.3334    1.0000 </r>
       <r>  -16.3280    1.0000 </r>
       <r>  -16.3277    1.0000 </r>
       <r>  -16.3271    1.0000 </r>
       <r>  -16.3267    1.0000 </r>
       <r>  -14.3511    1.0000 </r>
       <r>  -14.1543    1.0000 </r>
       <r>  -14.0629    1.0000 </r>
       <r>  -14.0502    1.0000 </r>
       <r>  -14.0291    1.0000 </r>
       <r>  -14.0237    1.0000 </r>
       <r>  -13.9896    1.0000 </r>
       <r>  -13.9864    1.0000 </r>
       <r>  -13.9775    1.0000 </r>
       <r>  -13.7644    1.0000 </r>
       <r>  -13.7486    1.0000 </r>
       <r>  -13.7414    1.0000 </r>
       <r>   -8.1852    1.0000 </r>
       <r>   -7.6724    1.0000 </r>
       <r>   -7.2742    1.0000 </r>
       <r>   -7.2681    1.0000 </r>
       <r>   -7.2648    1.0000 </r>
       <r>   -7.2640    1.0000 </r>
       <r>   -7.2405    1.0000 </r>
       <r>   -7.2333    1.0000 </r>
       <r>   -7.2267    1.0000 </r>
       <r>   -7.2259    1.0000 </r>
       <r>   -7.2239    1.0000 </r>
       <r>   -7.2148    1.0000 </r>
       <r>   -7.2014    1.0000 </r>
       <r>   -7.1995    1.0000 </r>
       <r>   -7.1888    1.0000 </r>
       <r>   -6.5579    1.0000 </r>
       <r>   -3.3499    1.0000 </r>
       <r>   -3.3209    1.0000 </r>
       <r>   -3.2581    1.0000 </r>
       <r>   -3.1716    1.0000 </r>
       <r>   -3.0932    1.0000 </r>
       <r>   -3.0849    1.0000 </r>
       <r>   -2.1291    1.0000 </r>
       <r>   -1.9221    1.0000 </r>
       <r>   -1.9155    1.0000 </r>
       <r>   -1.8820    1.0000 </r>
       <r>   -1.8686    1.0000 </r>
       <r>   -1.8446    1.0000 </r>
       <r>   -1.6640    1.0000 </r>
       <r>   -1.5173    1.0000 </r>
       <r>   -1.5007    1.0000 </r>
       <r>   -1.4850    1.0000 </r>
       <r>   -1.4720    1.0000 </r>
       <r>   -1.4178    1.0000 </r>
       <r>   -1.4112    1.0000 </r>
       <r>   -1.4000    1.0000 </r>
       <r>   -1.3993    1.0000 </r>
       <r>   -1.3578    1.0000 </r>
       <r>   -1.3411    1.0000 </r>
       <r>   -1.3246    1.0000 </r>
       <r>   -1.2895    1.0000 </r>
       <r>   -1.2367    1.0000 </r>
       <r>   -1.2202    1.0000 </r>
       <r>   -1.1271    1.0000 </r>
       <r>   -1.0602    1.0000 </r>
       <r>   -1.0082    1.0000 </r>
       <r>   -0.9848    1.0000 </r>
       <r>   -0.9799    1.0000 </r>
       <r>   -0.8337    1.0000 </r>
       <r>   -0.6758    1.0000 </r>
       <r>   -0.2103    1.0000 </r>
       <r>    0.4265    1.0000 </r>
       <r>    2.6914    0.0000 </r>
       <r>    2.7668    0.0000 </r>
       <r>    2.8410    0.0000 </r>
       <r>    3.1012    0.0000 </r>
       <r>    3.1333    0.0000 </r>
       <r>    3.5832    0.0000 </r>
       <r>    4.8206    0.0000 </r>
       <r>    5.6240    0.0000 </r>
       <r>    5.6626    0.0000 </r>
       <r>    5.9104    0.0000 </r>
       <r>    6.0414    0.0000 </r>
       <r>    6.0497    0.0000 </r>
       <r>    6.1457    0.0000 </r>
       <r>    6.2872    0.0000 </r>
       <r>    6.3087    0.0000 </r>
       <r>    6.4917    0.0000 </r>
       <r>    6.5324    0.0000 </r>
       <r>    6.5377    0.0000 </r>
       <r>    6.5648    0.0000 </r>
       <r>    6.6707    0.0000 </r>
       <r>    6.7098    0.0000 </r>
       <r>    6.7225    0.0000 </r>
       <r>    6.7434    0.0000 </r>
       <r>    6.8530    0.0000 </r>
      </set>
      <set comment="kpoint 2">
       <r>  -20.8431    1.0000 </r>
       <r>  -20.8416    1.0000 </r>
       <r>  -20.8415    1.0000 </r>
       <r>  -20.8403    1.0000 </r>
       <r>  -16.4899    1.0000 </r>
       <r>  -16.4779    1.0000 </r>
       <r>  -16.4634    1.0000 </r>
       <r>  -16.4633    1.0000 </r>
       <r>  -16.4271    1.0000 </r>
       <r>  -16.4223    1.0000 </r>
       <r>  -16.4222    1.0000 </r>
       <r>  -16.4123    1.0000 </r>
       <r>  -16.3417    1.0000 </r>
       <r>  -16.3412    1.0000 </r>
       <r>  -16.3410    1.0000 </r>
       <r>  -16.3406    1.0000 </r>
       <r>  -16.3344    1.0000 </r>
       <r>  -16.3341    1.0000 </r>
       <r>  -16.3340    1.0000 </r>
       <r>  -16.3336    1.0000 </r>
       <r>  -16.3280    1.0000 </r>
       <r>  -16.3278    1.0000 </r>
       <r>  -16.3271    1.0000 </r>
       <r>  -16.3269    1.0000 </r>
       <r>  -14.2987    1.0000 </r>
       <r>  -14.1591    1.0000 </r>
       <r>  -14.1129    1.0000 </r>
       <r>  -14.0583    1.0000 </r>
       <r>  -14.0533    1.0000 </r>
       <r>  -14.0246    1.0000 </r>
       <r>  -13.9619    1.0000 </r>
       <r>  -13.9535    1.0000 </r>
       <r>  -13.8541    1.0000 </r>
       <r>  -13.8204    1.0000 </r>
       <r>  -13.8125    1.0000 </r>
       <r>  -13.7841    1.0000 </r>
       <r>   -7.9749    1.0000 </r>
       <r>   -7.5015    1.0000 </r>
       <r>   -7.4575    1.0000 </r>
       <r>   -7.2666    1.0000 </r>
       <r>   -7.2575    1.0000 </r>
       <r>   -7.2497    1.0000 </r>
       <r>   -7.2476    1.0000 </r>
       <r>   -7.2330    1.0000 </r>
       <r>   -7.2229    1.0000 </r>
       <r>   -7.2189    1.0000 </r>
       <r>   -7.2188    1.0000 </r>
       <r>   -7.2185    1.0000 </r>
       <r>   -7.2118    1.0000 </r>
       <r>   -7.2015    1.0000 </r>
       <r>   -7.2013    1.0000 </r>
       <r>   -6.8942    1.0000 </r>
       <r>   -3.2811    1.0000 </r>
       <r>   -3.1910    1.0000 </r>
       <r>   -3.0226    1.0000 </r>
       <r>   -2.8780    1.0000 </r>
       <r>   -2.6912    1.0000 </r>
       <r>   -2.6518    1.0000 </r>
       <r>   -2.2335    1.0000 </r>
       <r>   -2.1327    1.0000 </r>
       <r>   -2.0375    1.0000 </r>
       <r>   -1.9646    1.0000 </r>
       <r>   -1.9639    1.0000 </r>
       <r>   -1.9086    1.0000 </r>
       <r>   -1.8516    1.0000 </r>
       <r>   -1.7349    1.0000 </r>
       <r>   -1.6778    1.0000 </r>
       <r>   -1.6117    1.0000 </r>
       <r>   -1.4585    1.0000 </r>
       <r>   -1.4455    1.0000 </r>
       <r>   -1.4063    1.0000 </r>
       <r>   -1.3828    1.0000 </r>
       <r>   -1.3362    1.0000 </r>
       <r>   -1.3319    1.0000 </r>
       <r>   -1.3153    1.0000 </r>
       <r>   -1.3108    1.0000 </r>
       <r>   -1.2670    1.0000 </r>
       <r>   -1.2534    1.0000 </r>
       <r>   -1.2354    1.0000 </r>
       <r>   -1.2318    1.0000 </r>
       <r>   -1.1895    1.0000 </r>
       <r>   -1.1410    1.0000 </r>
       <r>   -1.0916    1.0000 </r>
       <r>   -1.0529    1.0000 </r>
       <r>   -0.8486    1.0000 </r>
       <r>   -0.7009    1.0000 </r>
       <r>   -0.5872    1.0000 </r>
       <r>   -0.1349    1.0000 </r>
       <r>    3.0196    0.0000 </r>
       <r>    3.3617    0.0000 </r>
       <r>    3.5567    0.0000 </r>
       <r>    3.6468    0.0000 </r>
       <r>    3.9302    0.0000 </r>
       <r>    3.9698    0.0000 </r>
       <r>    4.9265    0.0000 </r>
       <r>    5.0353    0.0000 </r>
       <r>    5.2140    0.0000 </r>
       <r>    5.5354    0.0000 </r>
       <r>    5.7390    0.0000 </r>
       <r>    5.8719    0.0000 </r>
       <r>    6.1332    0.0000 </r>
       <r>    6.1923    0.0000 </r>
       <r>    6.2364    0.0000 </r>
       <r>    6.4439    0.0000 </r>
       <r>    6.5788    0.0000 </r>
       <r>    6.5847    0.0000 </r>
       <r>    6.6112    0.0000 </r>
       <r>    6.6457    0.0000 </r>
       <r>    6.7225    0.0000 </r>
       <r>    6.9095    0.0000 </r>
       <r>    6.9333    0.0000 </r>
       <r>    7.0046    0.0000 </r>
      </set>
      <set comment="kpoint 3">
       <r>  -20.8431    1.0000 </r>
       <r>  -20.8431    1.0000 </r>
       <r>  -20.8401    1.0000 </r>
       <r>  -20.8401    1.0000 </r>
       <r>  -16.4827    1.0000 </r>
       <r>  -16.4827    1.0000 </r>
       <r>  -16.4657    1.0000 </r>
       <r>  -16.4657    1.0000 </r>
       <r>  -16.4390    1.0000 </r>
       <r>  -16.4390    1.0000 </r>
       <r>  -16.4005    1.0000 </r>
       <r>  -16.4005    1.0000 </r>
       <r>  -16.3415    1.0000 </r>
       <r>  -16.3415    1.0000 </r>
       <r>  -16.3407    1.0000 </r>
       <r>  -16.3407    1.0000 </r>
       <r>  -16.3343    1.0000 </r>
       <r>  -16.3343    1.0000 </r>
       <r>  -16.3337    1.0000 </r>
       <r>  -16.3337    1.0000 </r>
       <r>  -16.3275    1.0000 </r>
       <r>  -16.3275    1.0000 </r>
       <r>  -16.3272    1.0000 </r>
       <r>  -16.3272    1.0000 </r>
       <r>  -14.2924    1.0000 </r>
       <r>  -14.2924    1.0000 </r>
       <r>  -14.0286    1.0000 </r>
       <r>  -14.0286    1.0000 </r>
       <r>  -14.0176    1.0000 </r>
       <r>  -14.0176    1.0000 </r>
       <r>  -13.9836    1.0000 </r>
       <r>  -13.9836    1.0000 </r>
       <r>  -13.8710    1.0000 </r>
       <r>  -13.8710    1.0000 </r>
       <r>  -13.7449    1.0000 </r>
       <r>  -13.7449    1.0000 </r>
       <r>   -7.9497    1.0000 </r>
       <r>   -7.9497    1.0000 </r>
       <r>   -7.2649    1.0000 </r>
       <r>   -7.2649    1.0000 </r>
       <r>   -7.2574    1.0000 </r>
       <r>   -7.2574    1.0000 </r>
       <r>   -7.2461    1.0000 </r>
       <r>   -7.2461    1.0000 </r>
       <r>   -7.2185    1.0000 </r>
       <r>   -7.2185    1.0000 </r>
       <r>   -7.2175    1.0000 </r>
       <r>   -7.2175    1.0000 </r>
       <r>   -7.2151    1.0000 </r>
       <r>   -7.2151    1.0000 </r>
       <r>   -6.9218    1.0000 </r>
       <r>   -6.9218    1.0000 </r>
       <r>   -3.2954    1.0000 </r>
       <r>   -3.2954    1.0000 </r>
       <r>   -3.1330    1.0000 </r>
       <r>   -3.1330    1.0000 </r>
       <r>   -2.5006    1.0000 </r>
       <r>   -2.5006    1.0000 </r>
       <r>   -2.3644    1.0000 </r>
       <r>   -2.3644    1.0000 </r>
       <r>   -2.0109    1.0000 </r>
       <r>   -2.0109    1.0000 </r>
       <r>   -1.8248    1.0000 </r>
       <r>   -1.8248    1.0000 </r>
       <r>   -1.7998    1.0000 </r>
       <r>   -1.7998    1.0000 </r>
       <r>   -1.4921    1.0000 </r>
       <r>   -1.4921    1.0000 </r>
       <r>   -1.4882    1.0000 </r>
       <r>   -1.4882    1.0000 </r>
       <r>   -1.3958    1.0000 </r>
       <r>   -1.3958    1.0000 </r>
       <r>   -1.3341    1.0000 </r>
       <r>   -1.3341    1.0000 </r>
       <r>   -1.3170    1.0000 </r>
       <r>   -1.3170    1.0000 </r>
       <r>   -1.2885    1.0000 </r>
       <r>   -1.2885    1.0000 </r>
       <r>   -1.1304    1.0000 </r>
       <r>   -1.1304    1.0000 </r>
       <r>   -1.0846    1.0000 </r>
       <r>   -1.0846    1.0000 </r>
       <r>   -1.0559    1.0000 </r>
       <r>   -1.0559    1.0000 </r>
       <r>   -0.8429    1.0000 </r>
       <r>   -0.8429    1.0000 </r>
       <r>   -0.0465    1.0000 </r>
       <r>   -0.0465    1.0000 </r>
       <r>    2.9049    0.0000 </r>
       <r>    2.9049    0.0000 </r>
       <r>    2.9525    0.0000 </r>
       <r>    2.9525    0.0000 </r>
       <r>    4.3200    0.0000 </r>
       <r>    4.3200    0.0000 </r>
       <r>    4.8868    0.0000 </r>
       <r>    4.8868    0.0000 </r>
       <r>    5.5410    0.0000 </r>
       <r>    5.5410    0.0000 </r>
       <r>    5.8236    0.0000 </r>
       <r>    5.8236    0.0000 </r>
       <r>    6.2125    0.0000 </r>
       <r>    6.2125    0.0000 </r>
       <r>    6.2177    0.0000 </r>
       <r>    6.2177    0.0000 </r>
       <r>    6.3843    0.0000 </r>
       <r>    6.3843    0.0000 </r>
       <r>    6.6432    0.0000 </r>
       <r>    6.6432    0.0000 </r>
       <r>    6.8247    0.0000 </r>
       <r>    6.8247    0.0000 </r>
       <r>    6.8569    0.0000 </r>
       <r>    6.8571    0.0000 </r>
      </set>
      <set comment="kpoint 4">
       <r>  -20.8423    1.0000 </r>
       <r>  -20.8423    1.0000 </r>
       <r>  -20.8408    1.0000 </r>
       <r>  -20.8408    1.0000 </r>
       <r>  -16.4633    1.0000 </r>
       <r>  -16.4633    1.0000 </r>
       <r>  -16.4588    1.0000 </r>
       <r>  -16.4588    1.0000 </r>
       <r>  -16.4455    1.0000 </r>
       <r>  -16.4455    1.0000 </r>
       <r>  -16.4223    1.0000 </r>
       <r>  -16.4223    1.0000 </r>
       <r>  -16.3413    1.0000 </r>
       <r>  -16.3413    1.0000 </r>
       <r>  -16.3408    1.0000 </r>
       <r>  -16.3408    1.0000 </r>
       <r>  -16.3342    1.0000 </r>
       <r>  -16.3342    1.0000 </r>
       <r>  -16.3338    1.0000 </r>
       <r>  -16.3338    1.0000 </r>
       <r>  -16.3275    1.0000 </r>
       <r>  -16.3275    1.0000 </r>
       <r>  -16.3273    1.0000 </r>
       <r>  -16.3273    1.0000 </r>
       <r>  -14.2462    1.0000 </r>
       <r>  -14.2462    1.0000 </r>
       <r>  -14.1300    1.0000 </r>
       <r>  -14.1300    1.0000 </r>
       <r>  -13.9585    1.0000 </r>
       <r>  -13.9585    1.0000 </r>
       <r>  -13.9148    1.0000 </r>
       <r>  -13.9148    1.0000 </r>
       <r>  -13.8793    1.0000 </r>
       <r>  -13.8793    1.0000 </r>
       <r>  -13.8163    1.0000 </r>
       <r>  -13.8163    1.0000 </r>
       <r>   -7.7369    1.0000 </r>
       <r>   -7.7369    1.0000 </r>
       <r>   -7.2907    1.0000 </r>
       <r>   -7.2907    1.0000 </r>
       <r>   -7.2507    1.0000 </r>
       <r>   -7.2507    1.0000 </r>
       <r>   -7.2447    1.0000 </r>
       <r>   -7.2447    1.0000 </r>
       <r>   -7.2305    1.0000 </r>
       <r>   -7.2305    1.0000 </r>
       <r>   -7.2149    1.0000 </r>
       <r>   -7.2149    1.0000 </r>
       <r>   -7.2145    1.0000 </r>
       <r>   -7.2145    1.0000 </r>
       <r>   -7.1681    1.0000 </r>
       <r>   -7.1681    1.0000 </r>
       <r>   -2.9586    1.0000 </r>
       <r>   -2.9586    1.0000 </r>
       <r>   -2.7772    1.0000 </r>
       <r>   -2.7772    1.0000 </r>
       <r>   -2.4701    1.0000 </r>
       <r>   -2.4701    1.0000 </r>
       <r>   -2.3724    1.0000 </r>
       <r>   -2.3724    1.0000 </r>
       <r>   -2.1476    1.0000 </r>
       <r>   -2.1476    1.0000 </r>
       <r>   -2.0361    1.0000 </r>
       <r>   -2.0361    1.0000 </r>
       <r>   -1.7305    1.0000 </r>
       <r>   -1.7305    1.0000 </r>
       <r>   -1.6545    1.0000 </r>
       <r>   -1.6545    1.0000 </r>
       <r>   -1.5263    1.0000 </r>
       <r>   -1.5263    1.0000 </r>
       <r>   -1.5014    1.0000 </r>
       <r>   -1.5014    1.0000 </r>
       <r>   -1.3988    1.0000 </r>
       <r>   -1.3988    1.0000 </r>
       <r>   -1.3412    1.0000 </r>
       <r>   -1.3412    1.0000 </r>
       <r>   -1.2655    1.0000 </r>
       <r>   -1.2655    1.0000 </r>
       <r>   -1.1572    1.0000 </r>
       <r>   -1.1572    1.0000 </r>
       <r>   -1.1227    1.0000 </r>
       <r>   -1.1227    1.0000 </r>
       <r>   -1.0915    1.0000 </r>
       <r>   -1.0915    1.0000 </r>
       <r>   -0.8593    1.0000 </r>
       <r>   -0.8593    1.0000 </r>
       <r>   -0.5822    1.0000 </r>
       <r>   -0.5822    1.0000 </r>
       <r>    3.7153    0.0000 </r>
       <r>    3.7153    0.0000 </r>
       <r>    3.7981    0.0000 </r>
       <r>    3.7981    0.0000 </r>
       <r>    4.4714    0.0000 </r>
       <r>    4.4714    0.0000 </r>
       <r>    4.7493    0.0000 </r>
       <r>    4.7493    0.0000 </r>
       <r>    5.0482    0.0000 </r>
       <r>    5.0482    0.0000 </r>
       <r>    5.3872    0.0000 </r>
       <r>    5.3872    0.0000 </r>
       <r>    6.0507    0.0000 </r>
       <r>    6.0507    0.0000 </r>
       <r>    6.3841    0.0000 </r>
       <r>    6.3841    0.0000 </r>
       <r>    6.4079    0.0000 </r>
       <r>    6.4080    0.0000 </r>
       <r>    6.5747    0.0000 </r>
       <r>    6.5747    0.0000 </r>
       <r>    6.6849    0.0000 </r>
       <r>    6.6849    0.0000 </r>
       <r>    6.8345    0.0000 </r>
       <r>    6.8346    0.0000 </r>
      </set>
      <set comment="kpoint 5">
       <r>  -20.8431    1.0000 </r>
       <r>  -20.8418    1.0000 </r>
       <r>  -20.8414    1.0000 </r>
       <r>  -20.8402    1.0000 </r>
       <r>  -16.4900    1.0000 </r>
       <r>  -16.4779    1.0000 </r>
       <r>  -16.4634    1.0000 </r>
       <r>  -16.4631    1.0000 </r>
       <r>  -16.4273    1.0000 </r>
       <r>  -16.4221    1.0000 </r>
       <r>  -16.4219    1.0000 </r>
       <r>  -16.4123    1.0000 </r>
       <r>  -16.3416    1.0000 </r>
       <r>  -16.3413    1.0000 </r>
       <r>  -16.3410    1.0000 </r>
       <r>  -16.3406    1.0000 </r>
       <r>  -16.3345    1.0000 </r>
       <r>  -16.3341    1.0000 </r>
       <r>  -16.3339    1.0000 </r>
       <r>  -16.3336    1.0000 </r>
       <r>  -16.3280    1.0000 </r>
       <r>  -16.3279    1.0000 </r>
       <r>  -16.3271    1.0000 </r>
       <r>  -16.3269    1.0000 </r>
       <r>  -14.3049    1.0000 </r>
       <r>  -14.1783    1.0000 </r>
       <r>  -14.1235    1.0000 </r>
       <r>  -14.0583    1.0000 </r>
       <r>  -14.0570    1.0000 </r>
       <r>  -14.0530    1.0000 </r>
       <r>  -13.9294    1.0000 </r>
       <r>  -13.9184    1.0000 </r>
       <r>  -13.8665    1.0000 </r>
       <r>  -13.8090    1.0000 </r>
       <r>  -13.8004    1.0000 </r>
       <r>  -13.7876    1.0000 </r>
       <r>   -7.9773    1.0000 </r>
       <r>   -7.4972    1.0000 </r>
       <r>   -7.4657    1.0000 </r>
       <r>   -7.2639    1.0000 </r>
       <r>   -7.2588    1.0000 </r>
       <r>   -7.2575    1.0000 </r>
       <r>   -7.2546    1.0000 </r>
       <r>   -7.2476    1.0000 </r>
       <r>   -7.2382    1.0000 </r>
       <r>   -7.2305    1.0000 </r>
       <r>   -7.2222    1.0000 </r>
       <r>   -7.2073    1.0000 </r>
       <r>   -7.2059    1.0000 </r>
       <r>   -7.2058    1.0000 </r>
       <r>   -7.1879    1.0000 </r>
       <r>   -6.9028    1.0000 </r>
       <r>   -3.2794    1.0000 </r>
       <r>   -3.1869    1.0000 </r>
       <r>   -2.9041    1.0000 </r>
       <r>   -2.8141    1.0000 </r>
       <r>   -2.7928    1.0000 </r>
       <r>   -2.7360    1.0000 </r>
       <r>   -2.2791    1.0000 </r>
       <r>   -2.1291    1.0000 </r>
       <r>   -2.0612    1.0000 </r>
       <r>   -2.0158    1.0000 </r>
       <r>   -2.0020    1.0000 </r>
       <r>   -1.9428    1.0000 </r>
       <r>   -1.8236    1.0000 </r>
       <r>   -1.7182    1.0000 </r>
       <r>   -1.6484    1.0000 </r>
       <r>   -1.6478    1.0000 </r>
       <r>   -1.5210    1.0000 </r>
       <r>   -1.4970    1.0000 </r>
       <r>   -1.3833    1.0000 </r>
       <r>   -1.3745    1.0000 </r>
       <r>   -1.3659    1.0000 </r>
       <r>   -1.3565    1.0000 </r>
       <r>   -1.3401    1.0000 </r>
       <r>   -1.2745    1.0000 </r>
       <r>   -1.2536    1.0000 </r>
       <r>   -1.1948    1.0000 </r>
       <r>   -1.1908    1.0000 </r>
       <r>   -1.1299    1.0000 </r>
       <r>   -1.0524    1.0000 </r>
       <r>   -1.0453    1.0000 </r>
       <r>   -1.0270    1.0000 </r>
       <r>   -0.9865    1.0000 </r>
       <r>   -0.8764    1.0000 </r>
       <r>   -0.7293    1.0000 </r>
       <r>   -0.5874    1.0000 </r>
       <r>   -0.1627    1.0000 </r>
       <r>    3.0025    0.0000 </r>
       <r>    3.3325    0.0000 </r>
       <r>    3.4282    0.0000 </r>
       <r>    3.7262    0.0000 </r>
       <r>    3.8199    0.0000 </r>
       <r>    4.0760    0.0000 </r>
       <r>    4.8376    0.0000 </r>
       <r>    5.2142    0.0000 </r>
       <r>    5.2206    0.0000 </r>
       <r>    5.2581    0.0000 </r>
       <r>    5.7434    0.0000 </r>
       <r>    5.8533    0.0000 </r>
       <r>    6.0002    0.0000 </r>
       <r>    6.1960    0.0000 </r>
       <r>    6.2108    0.0000 </r>
       <r>    6.3651    0.0000 </r>
       <r>    6.5151    0.0000 </r>
       <r>    6.6059    0.0000 </r>
       <r>    6.7085    0.0000 </r>
       <r>    6.7487    0.0000 </r>
       <r>    6.7810    0.0000 </r>
       <r>    6.8615    0.0000 </r>
       <r>    6.8847    0.0000 </r>
       <r>    6.9693    0.0000 </r>
      </set>
      <set comment="kpoint 6">
       <r>  -20.8427    1.0000 </r>
       <r>  -20.8418    1.0000 </r>
       <r>  -20.8413    1.0000 </r>
       <r>  -20.8406    1.0000 </r>
       <r>  -16.4934    1.0000 </r>
       <r>  -16.4858    1.0000 </r>
       <r>  -16.4620    1.0000 </r>
       <r>  -16.4470    1.0000 </r>
       <r>  -16.4448    1.0000 </r>
       <r>  -16.4281    1.0000 </r>
       <r>  -16.4144    1.0000 </r>
       <r>  -16.4039    1.0000 </r>
       <r>  -16.3415    1.0000 </r>
       <r>  -16.3413    1.0000 </r>
       <r>  -16.3409    1.0000 </r>
       <r>  -16.3407    1.0000 </r>
       <r>  -16.3344    1.0000 </r>
       <r>  -16.3342    1.0000 </r>
       <r>  -16.3338    1.0000 </r>
       <r>  -16.3337    1.0000 </r>
       <r>  -16.3279    1.0000 </r>
       <r>  -16.3279    1.0000 </r>
       <r>  -16.3270    1.0000 </r>
       <r>  -16.3269    1.0000 </r>
       <r>  -14.2530    1.0000 </r>
       <r>  -14.1624    1.0000 </r>
       <r>  -14.0776    1.0000 </r>
       <r>  -14.0572    1.0000 </r>
       <r>  -14.0554    1.0000 </r>
       <r>  -14.0109    1.0000 </r>
       <r>  -14.0101    1.0000 </r>
       <r>  -13.9580    1.0000 </r>
       <r>  -13.9183    1.0000 </r>
       <r>  -13.8641    1.0000 </r>
       <r>  -13.7860    1.0000 </r>
       <r>  -13.7520    1.0000 </r>
       <r>   -7.8484    1.0000 </r>
       <r>   -7.6093    1.0000 </r>
       <r>   -7.3395    1.0000 </r>
       <r>   -7.2551    1.0000 </r>
       <r>   -7.2497    1.0000 </r>
       <r>   -7.2426    1.0000 </r>
       <r>   -7.2414    1.0000 </r>
       <r>   -7.2351    1.0000 </r>
       <r>   -7.2345    1.0000 </r>
       <r>   -7.2256    1.0000 </r>
       <r>   -7.2141    1.0000 </r>
       <r>   -7.2133    1.0000 </r>
       <r>   -7.2118    1.0000 </r>
       <r>   -7.2050    1.0000 </r>
       <r>   -7.1701    1.0000 </r>
       <r>   -7.0088    1.0000 </r>
       <r>   -3.2661    1.0000 </r>
       <r>   -3.2191    1.0000 </r>
       <r>   -3.2066    1.0000 </r>
       <r>   -3.0639    1.0000 </r>
       <r>   -2.8253    1.0000 </r>
       <r>   -2.6693    1.0000 </r>
       <r>   -2.1854    1.0000 </r>
       <r>   -2.0898    1.0000 </r>
       <r>   -2.0844    1.0000 </r>
       <r>   -2.0602    1.0000 </r>
       <r>   -1.9806    1.0000 </r>
       <r>   -1.7516    1.0000 </r>
       <r>   -1.7149    1.0000 </r>
       <r>   -1.6648    1.0000 </r>
       <r>   -1.5663    1.0000 </r>
       <r>   -1.5291    1.0000 </r>
       <r>   -1.4902    1.0000 </r>
       <r>   -1.4390    1.0000 </r>
       <r>   -1.4294    1.0000 </r>
       <r>   -1.3760    1.0000 </r>
       <r>   -1.3572    1.0000 </r>
       <r>   -1.3563    1.0000 </r>
       <r>   -1.3100    1.0000 </r>
       <r>   -1.2998    1.0000 </r>
       <r>   -1.2913    1.0000 </r>
       <r>   -1.2858    1.0000 </r>
       <r>   -1.2364    1.0000 </r>
       <r>   -1.2298    1.0000 </r>
       <r>   -1.1981    1.0000 </r>
       <r>   -1.1496    1.0000 </r>
       <r>   -1.1062    1.0000 </r>
       <r>   -1.0612    1.0000 </r>
       <r>   -0.8207    1.0000 </r>
       <r>   -0.6556    1.0000 </r>
       <r>   -0.4181    1.0000 </r>
       <r>   -0.0959    1.0000 </r>
       <r>    2.9966    0.0000 </r>
       <r>    3.0991    0.0000 </r>
       <r>    3.2640    0.0000 </r>
       <r>    3.3976    0.0000 </r>
       <r>    3.8217    0.0000 </r>
       <r>    4.1736    0.0000 </r>
       <r>    4.8277    0.0000 </r>
       <r>    5.2050    0.0000 </r>
       <r>    5.5816    0.0000 </r>
       <r>    5.7785    0.0000 </r>
       <r>    5.9625    0.0000 </r>
       <r>    6.0318    0.0000 </r>
       <r>    6.1441    0.0000 </r>
       <r>    6.3293    0.0000 </r>
       <r>    6.3548    0.0000 </r>
       <r>    6.4727    0.0000 </r>
       <r>    6.6039    0.0000 </r>
       <r>    6.6696    0.0000 </r>
       <r>    6.7529    0.0000 </r>
       <r>    6.7911    0.0000 </r>
       <r>    6.8266    0.0000 </r>
       <r>    6.9008    0.0000 </r>
       <r>    6.9013    0.0000 </r>
       <r>    7.1605    0.0000 </r>
      </set>
      <set comment="kpoint 7">
       <r>  -20.8424    1.0000 </r>
       <r>  -20.8424    1.0000 </r>
       <r>  -20.8409    1.0000 </r>
       <r>  -20.8408    1.0000 </r>
       <r>  -16.4632    1.0000 </r>
       <r>  -16.4632    1.0000 </r>
       <r>  -16.4590    1.0000 </r>
       <r>  -16.4590    1.0000 </r>
       <r>  -16.4456    1.0000 </r>
       <r>  -16.4456    1.0000 </r>
       <r>  -16.4221    1.0000 </r>
       <r>  -16.4221    1.0000 </r>
       <r>  -16.3413    1.0000 </r>
       <r>  -16.3413    1.0000 </r>
       <r>  -16.3409    1.0000 </r>
       <r>  -16.3409    1.0000 </r>
       <r>  -16.3342    1.0000 </r>
       <r>  -16.3342    1.0000 </r>
       <r>  -16.3339    1.0000 </r>
       <r>  -16.3339    1.0000 </r>
       <r>  -16.3276    1.0000 </r>
       <r>  -16.3276    1.0000 </r>
       <r>  -16.3273    1.0000 </r>
       <r>  -16.3273    1.0000 </r>
       <r>  -14.2527    1.0000 </r>
       <r>  -14.2527    1.0000 </r>
       <r>  -14.1482    1.0000 </r>
       <r>  -14.1482    1.0000 </r>
       <r>  -13.9289    1.0000 </r>
       <r>  -13.9289    1.0000 </r>
       <r>  -13.9242    1.0000 </r>
       <r>  -13.9242    1.0000 </r>
       <r>  -13.8831    1.0000 </r>
       <r>  -13.8831    1.0000 </r>
       <r>  -13.8045    1.0000 </r>
       <r>  -13.8045    1.0000 </r>
       <r>   -7.7418    1.0000 </r>
       <r>   -7.7418    1.0000 </r>
       <r>   -7.2894    1.0000 </r>
       <r>   -7.2894    1.0000 </r>
       <r>   -7.2623    1.0000 </r>
       <r>   -7.2623    1.0000 </r>
       <r>   -7.2521    1.0000 </r>
       <r>   -7.2521    1.0000 </r>
       <r>   -7.2200    1.0000 </r>
       <r>   -7.2200    1.0000 </r>
       <r>   -7.2190    1.0000 </r>
       <r>   -7.2190    1.0000 </r>
       <r>   -7.2042    1.0000 </r>
       <r>   -7.2042    1.0000 </r>
       <r>   -7.1845    1.0000 </r>
       <r>   -7.1845    1.0000 </r>
       <r>   -2.8667    1.0000 </r>
       <r>   -2.8667    1.0000 </r>
       <r>   -2.8512    1.0000 </r>
       <r>   -2.8512    1.0000 </r>
       <r>   -2.5010    1.0000 </r>
       <r>   -2.5010    1.0000 </r>
       <r>   -2.3958    1.0000 </r>
       <r>   -2.3958    1.0000 </r>
       <r>   -2.1845    1.0000 </r>
       <r>   -2.1845    1.0000 </r>
       <r>   -2.0677    1.0000 </r>
       <r>   -2.0677    1.0000 </r>
       <r>   -1.7178    1.0000 </r>
       <r>   -1.7178    1.0000 </r>
       <r>   -1.6532    1.0000 </r>
       <r>   -1.6532    1.0000 </r>
       <r>   -1.5457    1.0000 </r>
       <r>   -1.5457    1.0000 </r>
       <r>   -1.4816    1.0000 </r>
       <r>   -1.4816    1.0000 </r>
       <r>   -1.4030    1.0000 </r>
       <r>   -1.4030    1.0000 </r>
       <r>   -1.2750    1.0000 </r>
       <r>   -1.2750    1.0000 </r>
       <r>   -1.2007    1.0000 </r>
       <r>   -1.2007    1.0000 </r>
       <r>   -1.1007    1.0000 </r>
       <r>   -1.1007    1.0000 </r>
       <r>   -1.0872    1.0000 </r>
       <r>   -1.0872    1.0000 </r>
       <r>   -1.0401    1.0000 </r>
       <r>   -1.0401    1.0000 </r>
       <r>   -0.8752    1.0000 </r>
       <r>   -0.8752    1.0000 </r>
       <r>   -0.6387    1.0000 </r>
       <r>   -0.6387    1.0000 </r>
       <r>    3.6073    0.0000 </r>
       <r>    3.6073    0.0000 </r>
       <r>    3.8636    0.0000 </r>
       <r>    3.8636    0.0000 </r>
       <r>    4.4551    0.0000 </r>
       <r>    4.4551    0.0000 </r>
       <r>    4.7119    0.0000 </r>
       <r>    4.7119    0.0000 </r>
       <r>    5.0359    0.0000 </r>
       <r>    5.0359    0.0000 </r>
       <r>    5.3200    0.0000 </r>
       <r>    5.3200    0.0000 </r>
       <r>    5.9723    0.0000 </r>
       <r>    5.9723    0.0000 </r>
       <r>    6.2931    0.0000 </r>
       <r>    6.2931    0.0000 </r>
       <r>    6.4645    0.0000 </r>
       <r>    6.4645    0.0000 </r>
       <r>    6.6741    0.0000 </r>
       <r>    6.6741    0.0000 </r>
       <r>    6.7695    0.0000 </r>
       <r>    6.7695    0.0000 </r>
       <r>    6.8524    0.0000 </r>
       <r>    6.8524    0.0000 </r>
      </set>
      <set comment="kpoint 8">
       <r>  -20.8419    1.0000 </r>
       <r>  -20.8419    1.0000 </r>
       <r>  -20.8412    1.0000 </r>
       <r>  -20.8412    1.0000 </r>
       <r>  -16.4718    1.0000 </r>
       <r>  -16.4718    1.0000 </r>
       <r>  -16.4600    1.0000 </r>
       <r>  -16.4600    1.0000 </r>
       <r>  -16.4370    1.0000 </r>
       <r>  -16.4370    1.0000 </r>
       <r>  -16.4217    1.0000 </r>
       <r>  -16.4217    1.0000 </r>
       <r>  -16.3411    1.0000 </r>
       <r>  -16.3411    1.0000 </r>
       <r>  -16.3410    1.0000 </r>
       <r>  -16.3410    1.0000 </r>
       <r>  -16.3340    1.0000 </r>
       <r>  -16.3340    1.0000 </r>
       <r>  -16.3339    1.0000 </r>
       <r>  -16.3339    1.0000 </r>
       <r>  -16.3275    1.0000 </r>
       <r>  -16.3275    1.0000 </r>
       <r>  -16.3274    1.0000 </r>
       <r>  -16.3274    1.0000 </r>
       <r>  -14.2057    1.0000 </r>
       <r>  -14.2057    1.0000 </r>
       <r>  -14.1277    1.0000 </r>
       <r>  -14.1277    1.0000 </r>
       <r>  -14.0095    1.0000 </r>
       <r>  -14.0095    1.0000 </r>
       <r>  -13.9357    1.0000 </r>
       <r>  -13.9357    1.0000 </r>
       <r>  -13.8535    1.0000 </r>
       <r>  -13.8535    1.0000 </r>
       <r>  -13.8190    1.0000 </r>
       <r>  -13.8190    1.0000 </r>
       <r>   -7.6100    1.0000 </r>
       <r>   -7.6100    1.0000 </r>
       <r>   -7.3751    1.0000 </r>
       <r>   -7.3751    1.0000 </r>
       <r>   -7.2499    1.0000 </r>
       <r>   -7.2499    1.0000 </r>
       <r>   -7.2407    1.0000 </r>
       <r>   -7.2407    1.0000 </r>
       <r>   -7.2253    1.0000 </r>
       <r>   -7.2253    1.0000 </r>
       <r>   -7.2143    1.0000 </r>
       <r>   -7.2143    1.0000 </r>
       <r>   -7.2065    1.0000 </r>
       <r>   -7.2065    1.0000 </r>
       <r>   -7.1926    1.0000 </r>
       <r>   -7.1926    1.0000 </r>
       <r>   -3.1398    1.0000 </r>
       <r>   -3.1398    1.0000 </r>
       <r>   -2.7837    1.0000 </r>
       <r>   -2.7837    1.0000 </r>
       <r>   -2.5521    1.0000 </r>
       <r>   -2.5521    1.0000 </r>
       <r>   -2.4039    1.0000 </r>
       <r>   -2.4039    1.0000 </r>
       <r>   -2.1270    1.0000 </r>
       <r>   -2.1270    1.0000 </r>
       <r>   -2.0047    1.0000 </r>
       <r>   -2.0047    1.0000 </r>
       <r>   -1.7092    1.0000 </r>
       <r>   -1.7092    1.0000 </r>
       <r>   -1.6387    1.0000 </r>
       <r>   -1.6387    1.0000 </r>
       <r>   -1.5062    1.0000 </r>
       <r>   -1.5062    1.0000 </r>
       <r>   -1.4177    1.0000 </r>
       <r>   -1.4177    1.0000 </r>
       <r>   -1.3585    1.0000 </r>
       <r>   -1.3585    1.0000 </r>
       <r>   -1.3110    1.0000 </r>
       <r>   -1.3110    1.0000 </r>
       <r>   -1.2575    1.0000 </r>
       <r>   -1.2575    1.0000 </r>
       <r>   -1.1906    1.0000 </r>
       <r>   -1.1906    1.0000 </r>
       <r>   -1.1360    1.0000 </r>
       <r>   -1.1360    1.0000 </r>
       <r>   -1.0992    1.0000 </r>
       <r>   -1.0992    1.0000 </r>
       <r>   -0.7972    1.0000 </r>
       <r>   -0.7972    1.0000 </r>
       <r>   -0.5300    1.0000 </r>
       <r>   -0.5300    1.0000 </r>
       <r>    3.1829    0.0000 </r>
       <r>    3.1829    0.0000 </r>
       <r>    3.9672    0.0000 </r>
       <r>    3.9672    0.0000 </r>
       <r>    4.5605    0.0000 </r>
       <r>    4.5605    0.0000 </r>
       <r>    4.7076    0.0000 </r>
       <r>    4.7076    0.0000 </r>
       <r>    5.0127    0.0000 </r>
       <r>    5.0127    0.0000 </r>
       <r>    5.7713    0.0000 </r>
       <r>    5.7713    0.0000 </r>
       <r>    6.2098    0.0000 </r>
       <r>    6.2098    0.0000 </r>
       <r>    6.4483    0.0000 </r>
       <r>    6.4483    0.0000 </r>
       <r>    6.5990    0.0000 </r>
       <r>    6.5990    0.0000 </r>
       <r>    6.6959    0.0000 </r>
       <r>    6.6959    0.0000 </r>
       <r>    6.8742    0.0000 </r>
       <r>    6.8743    0.0000 </r>
       <r>    6.8972    0.0000 </r>
       <r>    6.8972    0.0000 </r>
      </set>
     </set>
    </set>
   </array>
  </eigenvalues>
  <separator name="orbital magnetization" >
   <v name="MAGDIPOLOUT">      0.00000000      0.00000000      0.00000000</v>
  </separator>
  <dos>
   <i name="efermi">      0.47442447 </i>
   <total>
    <array>
     <dimension dim="1">gridpoints</dimension>
     <dimension dim="2">spin</dimension>
     <field>energy</field>
     <field>total</field>
     <field>integrated</field>
     <set>
      <set comment="spin 1">
       <r>   -22.2442     0.0000     0.0000 </r>
       <r>   -22.1415     0.0000     0.0000 </r>
       <r>   -22.0388     0.0000     0.0000 </r>
       <r>   -21.9361     0.0000     0.0000 </r>
       <r>   -21.8334     0.0000     0.0000 </r>
       <r>   -21.7307     0.0000     0.0000 </r>
       <r>   -21.6281     0.0000     0.0000 </r>
       <r>   -21.5254     0.0000     0.0000 </r>
       <r>   -21.4227     0.0000     0.0000 </r>
       <r>   -21.3200     0.0000     0.0000 </r>
       <r>   -21.2173     0.0000     0.0000 </r>
       <r>   -21.1147     0.0000     0.0000 </r>
       <r>   -21.0120     0.0000     0.0000 </r>
       <r>   -20.9093     0.0000     0.0000 </r>
       <r>   -20.8066    77.9097     8.0000 </r>
       <r>   -20.7039     0.0000     8.0000 </r>
       <r>   -20.6012     0.0000     8.0000 </r>
       <r>   -20.4986     0.0000     8.0000 </r>
       <r>   -20.3959     0.0000     8.0000 </r>
       <r>   -20.2932     0.0000     8.0000 </r>
       <r>   -20.1905     0.0000     8.0000 </r>
       <r>   -20.0878     0.0000     8.0000 </r>
       <r>   -19.9851     0.0000     8.0000 </r>
       <r>   -19.8825     0.0000     8.0000 </r>
       <r>   -19.7798     0.0000     8.0000 </r>
       <r>   -19.6771     0.0000     8.0000 </r>
       <r>   -19.5744     0.0000     8.0000 </r>
       <r>   -19.4717     0.0000     8.0000 </r>
       <r>   -19.3690     0.0000     8.0000 </r>
       <r>   -19.2664     0.0000     8.0000 </r>
       <r>   -19.1637     0.0000     8.0000 </r>
       <r>   -19.0610     0.0000     8.0000 </r>
       <r>   -18.9583     0.0000     8.0000 </r>
       <r>   -18.8556     0.0000     8.0000 </r>
       <r>   -18.7529     0.0000     8.0000 </r>
       <r>   -18.6503     0.0000     8.0000 </r>
       <r>   -18.5476     0.0000     8.0000 </r>
       <r>   -18.4449     0.0000     8.0000 </r>
       <r>   -18.3422     0.0000     8.0000 </r>
       <r>   -18.2395     0.0000     8.0000 </r>
       <r>   -18.1368     0.0000     8.0000 </r>
       <r>   -18.0342     0.0000     8.0000 </r>
       <r>   -17.9315     0.0000     8.0000 </r>
       <r>   -17.8288     0.0000     8.0000 </r>
       <r>   -17.7261     0.0000     8.0000 </r>
       <r>   -17.6234     0.0000     8.0000 </r>
       <r>   -17.5208     0.0000     8.0000 </r>
       <r>   -17.4181     0.0000     8.0000 </r>
       <r>   -17.3154     0.0000     8.0000 </r>
       <r>   -17.2127     0.0000     8.0000 </r>
       <r>   -17.1100     0.0000     8.0000 </r>
       <r>   -17.0073     0.0000     8.0000 </r>
       <r>   -16.9047     0.0000     8.0000 </r>
       <r>   -16.8020     0.0000     8.0000 </r>
       <r>   -16.6993     0.0000     8.0000 </r>
       <r>   -16.5966     0.0000     8.0000 </r>
       <r>   -16.4939     4.7986     8.4927 </r>
       <r>   -16.3912   122.7458    23.9373 </r>
       <r>   -16.2886   233.7293    48.0000 </r>
       <r>   -16.1859     0.0000    48.0000 </r>
       <r>   -16.0832     0.0000    48.0000 </r>
       <r>   -15.9805     0.0000    48.0000 </r>
       <r>   -15.8778     0.0000    48.0000 </r>
       <r>   -15.7751     0.0000    48.0000 </r>
       <r>   -15.6725     0.0000    48.0000 </r>
       <r>   -15.5698     0.0000    48.0000 </r>
       <r>   -15.4671     0.0000    48.0000 </r>
       <r>   -15.3644     0.0000    48.0000 </r>
       <r>   -15.2617     0.0000    48.0000 </r>
       <r>   -15.1590     0.0000    48.0000 </r>
       <r>   -15.0564     0.0000    48.0000 </r>
       <r>   -14.9537     0.0000    48.0000 </r>
       <r>   -14.8510     0.0000    48.0000 </r>
       <r>   -14.7483     0.0000    48.0000 </r>
       <r>   -14.6456     0.0000    48.0000 </r>
       <r>   -14.5429     0.0000    48.0000 </r>
       <r>   -14.4403     0.0000    48.0000 </r>
       <r>   -14.3376     1.0520    48.1080 </r>
       <r>   -14.2349    19.1931    50.0819 </r>
       <r>   -14.1322    26.8013    52.8632 </r>
       <r>   -14.0295    28.3453    57.1328 </r>
       <r>   -13.9269    32.6470    62.9078 </r>
       <r>   -13.8242    31.5009    67.7902 </r>
       <r>   -13.7215    20.5549    71.9996 </r>
       <r>   -13.6188     0.0000    72.0000 </r>
       <r>   -13.5161     0.0000    72.0000 </r>
       <r>   -13.4134     0.0000    72.0000 </r>
       <r>   -13.3108     0.0000    72.0000 </r>
       <r>   -13.2081     0.0000    72.0000 </r>
       <r>   -13.1054     0.0000    72.0000 </r>
       <r>   -13.0027     0.0000    72.0000 </r>
       <r>   -12.9000     0.0000    72.0000 </r>
       <r>   -12.7973     0.0000    72.0000 </r>
       <r>   -12.6947     0.0000    72.0000 </r>
       <r>   -12.5920     0.0000    72.0000 </r>
       <r>   -12.4893     0.0000    72.0000 </r>
       <r>   -12.3866     0.0000    72.0000 </r>
       <r>   -12.2839     0.0000    72.0000 </r>
       <r>   -12.1812     0.0000    72.0000 </r>
       <r>   -12.0786     0.0000    72.0000 </r>
       <r>   -11.9759     0.0000    72.0000 </r>
       <r>   -11.8732     0.0000    72.0000 </r>
       <r>   -11.7705     0.0000    72.0000 </r>
       <r>   -11.6678     0.0000    72.0000 </r>
       <r>   -11.5651     0.0000    72.0000 </r>
       <r>   -11.4625     0.0000    72.0000 </r>
       <r>   -11.3598     0.0000    72.0000 </r>
       <r>   -11.2571     0.0000    72.0000 </r>
       <r>   -11.1544     0.0000    72.0000 </r>
       <r>   -11.0517     0.0000    72.0000 </r>
       <r>   -10.9490     0.0000    72.0000 </r>
       <r>   -10.8464     0.0000    72.0000 </r>
       <r>   -10.7437     0.0000    72.0000 </r>
       <r>   -10.6410     0.0000    72.0000 </r>
       <r>   -10.5383     0.0000    72.0000 </r>
       <r>   -10.4356     0.0000    72.0000 </r>
       <r>   -10.3329     0.0000    72.0000 </r>
       <r>   -10.2303     0.0000    72.0000 </r>
       <r>   -10.1276     0.0000    72.0000 </r>
       <r>   -10.0249     0.0000    72.0000 </r>
       <r>    -9.9222     0.0000    72.0000 </r>
       <r>    -9.8195     0.0000    72.0000 </r>
       <r>    -9.7169     0.0000    72.0000 </r>
       <r>    -9.6142     0.0000    72.0000 </r>
       <r>    -9.5115     0.0000    72.0000 </r>
       <r>    -9.4088     0.0000    72.0000 </r>
       <r>    -9.3061     0.0000    72.0000 </r>
       <r>    -9.2034     0.0000    72.0000 </r>
       <r>    -9.1008     0.0000    72.0000 </r>
       <r>    -8.9981     0.0000    72.0000 </r>
       <r>    -8.8954     0.0000    72.0000 </r>
       <r>    -8.7927     0.0000    72.0000 </r>
       <r>    -8.6900     0.0000    72.0000 </r>
       <r>    -8.5873     0.0000    72.0000 </r>
       <r>    -8.4847     0.0000    72.0000 </r>
       <r>    -8.3820     0.0000    72.0000 </r>
       <r>    -8.2793     0.0000    72.0000 </r>
       <r>    -8.1766     0.9594    72.0985 </r>
       <r>    -8.0739     0.0000    72.1111 </r>
       <r>    -7.9712     3.2508    72.4449 </r>
       <r>    -7.8686     0.0093    72.7787 </r>
       <r>    -7.7659     0.0015    73.2224 </r>
       <r>    -7.6632     9.6333    74.2116 </r>
       <r>    -7.5605    12.9850    75.5556 </r>
       <r>    -7.4578     7.2446    76.2995 </r>
       <r>    -7.3551     8.6938    77.3372 </r>
       <r>    -7.2525    46.3147    82.5335 </r>
       <r>    -7.1498   130.9011   102.7748 </r>
       <r>    -7.0471     0.0000   102.7778 </r>
       <r>    -6.9444     4.3298   103.2224 </r>
       <r>    -6.8417     4.3283   103.8889 </r>
       <r>    -6.7390     0.0000   103.8889 </r>
       <r>    -6.6364     0.0000   103.8889 </r>
       <r>    -6.5337     1.0817   104.0000 </r>
       <r>    -6.4310     0.0000   104.0000 </r>
       <r>    -6.3283     0.0000   104.0000 </r>
       <r>    -6.2256     0.0000   104.0000 </r>
       <r>    -6.1230     0.0000   104.0000 </r>
       <r>    -6.0203     0.0000   104.0000 </r>
       <r>    -5.9176     0.0000   104.0000 </r>
       <r>    -5.8149     0.0000   104.0000 </r>
       <r>    -5.7122     0.0000   104.0000 </r>
       <r>    -5.6095     0.0000   104.0000 </r>
       <r>    -5.5069     0.0000   104.0000 </r>
       <r>    -5.4042     0.0000   104.0000 </r>
       <r>    -5.3015     0.0000   104.0000 </r>
       <r>    -5.1988     0.0000   104.0000 </r>
       <r>    -5.0961     0.0000   104.0000 </r>
       <r>    -4.9934     0.0000   104.0000 </r>
       <r>    -4.8908     0.0000   104.0000 </r>
       <r>    -4.7881     0.0000   104.0000 </r>
       <r>    -4.6854     0.0000   104.0000 </r>
       <r>    -4.5827     0.0000   104.0000 </r>
       <r>    -4.4800     0.0000   104.0000 </r>
       <r>    -4.3773     0.0000   104.0000 </r>
       <r>    -4.2747     0.0000   104.0000 </r>
       <r>    -4.1720     0.0000   104.0000 </r>
       <r>    -4.0693     0.0000   104.0000 </r>
       <r>    -3.9666     0.0000   104.0000 </r>
       <r>    -3.8639     0.0000   104.0000 </r>
       <r>    -3.7612     0.0000   104.0000 </r>
       <r>    -3.6586     0.0000   104.0000 </r>
       <r>    -3.5559     0.0000   104.0000 </r>
       <r>    -3.4532     0.0000   104.0000 </r>
       <r>    -3.3505     0.5048   104.0518 </r>
       <r>    -3.2478    12.8855   105.4342 </r>
       <r>    -3.1451    16.0885   107.0965 </r>
       <r>    -3.0425     6.4926   108.6667 </r>
       <r>    -2.9398     4.3118   109.3316 </r>
       <r>    -2.8371    13.0917   110.6776 </r>
       <r>    -2.7344    18.5893   113.0200 </r>
       <r>    -2.6317     8.6518   113.9995 </r>
       <r>    -2.5290     8.6521   114.8884 </r>
       <r>    -2.4264    10.8269   116.0007 </r>
       <r>    -2.3237    10.8208   118.0000 </r>
       <r>    -2.2210     4.2453   118.4359 </r>
       <r>    -2.1183    25.8410   121.0979 </r>
       <r>    -2.0156    28.1934   124.1172 </r>
       <r>    -1.9130    13.0702   126.7865 </r>
       <r>    -1.8103     9.7796   128.0042 </r>
       <r>    -1.7076    25.6164   130.8526 </r>
       <r>    -1.6049    31.0155   134.5181 </r>
       <r>    -1.5022    30.0271   137.6388 </r>
       <r>    -1.3995    33.3504   143.2023 </r>
       <r>    -1.2969    67.9010   151.3058 </r>
       <r>    -1.1942    46.2852   157.9749 </r>
       <r>    -1.0915    49.6536   164.3208 </r>
       <r>    -0.9888    22.8708   167.6818 </r>
       <r>    -0.8861     0.4491   168.0461 </r>
       <r>    -0.7834    22.4989   170.9770 </r>
       <r>    -0.6808     4.5836   171.4707 </r>
       <r>    -0.5781    15.6830   173.1660 </r>
       <r>    -0.4754     8.6566   174.2222 </r>
       <r>    -0.3727     4.3283   174.6667 </r>
       <r>    -0.2700     0.0000   174.6667 </r>
       <r>    -0.1673     1.6341   174.8345 </r>
       <r>    -0.0647     6.5036   175.6678 </r>
       <r>     0.0380     0.0000   175.8889 </r>
       <r>     0.1407     0.0000   175.8889 </r>
       <r>     0.2434     0.0000   175.8889 </r>
       <r>     0.3461     0.0000   175.8889 </r>
       <r>     0.4488     1.0812   175.9999 </r>
       <r>     0.5514     0.0000   176.0000 </r>
       <r>     0.6541     0.0000   176.0000 </r>
       <r>     0.7568     0.0000   176.0000 </r>
       <r>     0.8595     0.0000   176.0000 </r>
       <r>     0.9622     0.0000   176.0000 </r>
       <r>     1.0649     0.0000   176.0000 </r>
       <r>     1.1675     0.0000   176.0000 </r>
       <r>     1.2702     0.0000   176.0000 </r>
       <r>     1.3729     0.0000   176.0000 </r>
       <r>     1.4756     0.0000   176.0000 </r>
       <r>     1.5783     0.0000   176.0000 </r>
       <r>     1.6809     0.0000   176.0000 </r>
       <r>     1.7836     0.0000   176.0000 </r>
       <r>     1.8863     0.0000   176.0000 </r>
       <r>     1.9890     0.0000   176.0000 </r>
       <r>     2.0917     0.0000   176.0000 </r>
       <r>     2.1944     0.0000   176.0000 </r>
       <r>     2.2970     0.0000   176.0000 </r>
       <r>     2.3997     0.0000   176.0000 </r>
       <r>     2.5024     0.0000   176.0000 </r>
       <r>     2.6051     0.0000   176.0000 </r>
       <r>     2.7078     1.0708   176.1100 </r>
       <r>     2.8105     1.0821   176.2222 </r>
       <r>     2.9131     2.9847   176.5287 </r>
       <r>     3.0158     9.2214   177.5024 </r>
       <r>     3.1185     5.4088   178.2221 </r>
       <r>     3.2212     8.6566   179.2222 </r>
       <r>     3.3239     4.5707   179.6916 </r>
       <r>     3.4266     7.3746   180.6461 </r>
       <r>     3.5292     0.0001   180.7778 </r>
       <r>     3.6319     7.6112   181.5593 </r>
       <r>     3.7346     6.2236   182.4168 </r>
       <r>     3.8373    10.7471   183.5480 </r>
       <r>     3.9400     6.3102   184.2035 </r>
       <r>     4.0427    10.8203   185.3333 </r>
       <r>     4.1453     2.1643   185.5556 </r>
       <r>     4.2480     4.3282   186.0000 </r>
       <r>     4.3507     2.1641   186.2222 </r>
       <r>     4.4534     1.7776   186.4048 </r>
       <r>     4.5561     2.3174   187.3491 </r>
       <r>     4.6588     0.0000   188.0000 </r>
       <r>     4.7614    17.1270   189.7586 </r>
       <r>     4.8641     7.5758   190.5557 </r>
       <r>     4.9668     4.3269   191.0000 </r>
       <r>     5.0695    19.4718   192.9994 </r>
       <r>     5.1722     0.0000   193.0000 </r>
       <r>     5.2748    12.9660   194.3314 </r>
       <r>     5.3775     4.6986   194.8158 </r>
       <r>     5.4802     0.0000   195.2222 </r>
       <r>     5.5829     6.7961   195.9201 </r>
       <r>     5.6856     2.1635   196.3333 </r>
       <r>     5.7883    16.8771   198.0663 </r>
       <r>     5.8909     6.4881   198.7773 </r>
       <r>     5.9936     9.0300   199.8161 </r>
       <r>     6.0963    10.8208   201.1111 </r>
       <r>     6.1990    11.5188   202.2939 </r>
       <r>     6.3017     7.2455   204.6329 </r>
       <r>     6.4044    18.6229   206.6900 </r>
       <r>     6.5070    20.8160   209.1374 </r>
       <r>     6.6097    25.8658   211.9893 </r>
       <r>     6.7124    29.4509   215.3574 </r>
       <r>     6.8151    18.8198   217.7102 </r>
       <r>     6.9178    39.7128   222.8556 </r>
       <r>     7.0205     4.3015   223.5528 </r>
       <r>     7.1231     0.0000   223.5556 </r>
       <r>     7.2258     4.3283   224.0000 </r>
       <r>     7.3285     0.0000   224.0000 </r>
       <r>     7.4312     0.0000   224.0000 </r>
       <r>     7.5339     0.0000   224.0000 </r>
       <r>     7.6366     0.0000   224.0000 </r>
       <r>     7.7392     0.0000   224.0000 </r>
       <r>     7.8419     0.0000   224.0000 </r>
       <r>     7.9446     0.0000   224.0000 </r>
       <r>     8.0473     0.0000   224.0000 </r>
       <r>     8.1500     0.0000   224.0000 </r>
       <r>     8.2527     0.0000   224.0000 </r>
       <r>     8.3553     0.0000   224.0000 </r>
       <r>     8.4580     0.0000   224.0000 </r>
       <r>     8.5607     0.0000   224.0000 </r>
      </set>
     </set>
    </array>
   </total>
   <partial>
    <array>
     <dimension dim="1">gridpoints</dimension>
     <dimension dim="2">spin</dimension>
     <dimension dim="3">ion</dimension>
     <field>energy</field>
     <field>  s  </field>
     <field>  p  </field>
     <field>  d  </field>
     <set>
      <set comment="ion 1">
       <set comment="spin 1">
        <r>   -22.2442     0.0000     0.0000     0.0000 </r>
        <r>   -22.1415     0.0000     0.0000     0.0000 </r>
        <r>   -22.0388     0.0000     0.0000     0.0000 </r>
        <r>   -21.9361     0.0000     0.0000     0.0000 </r>
        <r>   -21.8334     0.0000     0.0000     0.0000 </r>
[...]
        <r>  0.0000  0.0001  0.0005 </r>
        <r>  0.0009  0.0338  0.0004 </r>
        <r>  0.0004  0.0317  0.0007 </r>
        <r>  0.0028  0.1464  0.0014 </r>
        <r>  0.0025  0.1383  0.0016 </r>
        <r>  0.0002  0.0053  0.0021 </r>
        <r>  0.0005  0.0066  0.0006 </r>
        <r>  0.0001  0.0029  0.0018 </r>
        <r>  0.0011  0.0077  0.0006 </r>
        <r>  0.0112  0.0298  0.0058 </r>
        <r>  0.0003  0.0101  0.0007 </r>
        <r>  0.0001  0.0026  0.0003 </r>
        <r>  0.0022  0.0065  0.0018 </r>
        <r>  0.0029  0.0078  0.0011 </r>
        <r>  0.0000  0.0019  0.0001 </r>
        <r>  0.0106  0.0286  0.0065 </r>
        <r>  0.0003  0.0108  0.0008 </r>
       </set>
       <set comment="band 93">
        <r>  0.0000  0.0001  0.0003 </r>
        <r>  0.0005  0.0002  0.0007 </r>
        <r>  0.0000  0.0001  0.0007 </r>
        <r>  0.0000  0.0005  0.0013 </r>
        <r>  0.0016  0.1230  0.0011 </r>
        <r>  0.0013  0.0786  0.0012 </r>
        <r>  0.0026  0.0548  0.0013 </r>
        <r>  0.0031  0.0649  0.0019 </r>
        <r>  0.0094  0.0034  0.0040 </r>
        <r>  0.0004  0.0666  0.0008 </r>
        <r>  0.0113  0.0041  0.0053 </r>
        <r>  0.0004  0.0516  0.0010 </r>
        <r>  0.0003  0.0068  0.0009 </r>
        <r>  0.0000  0.0009  0.0012 </r>
        <r>  0.0000  0.0015  0.0024 </r>
        <r>  0.0012  0.0049  0.0013 </r>
        <r>  0.0007  0.0095  0.0014 </r>
        <r>  0.0000  0.0013  0.0021 </r>
        <r>  0.0009  0.0021  0.0008 </r>
        <r>  0.0000  0.0011  0.0015 </r>
       </set>
       <set comment="band 94">
        <r>  0.0000  0.0005  0.0013 </r>
        <r>  0.0000  0.0001  0.0007 </r>
        <r>  0.0005  0.0002  0.0007 </r>
        <r>  0.0000  0.0001  0.0003 </r>
        <r>  0.0031  0.0649  0.0019 </r>
        <r>  0.0026  0.0548  0.0013 </r>
        <r>  0.0013  0.0786  0.0012 </r>
        <r>  0.0016  0.1230  0.0011 </r>
        <r>  0.0004  0.0516  0.0010 </r>
        <r>  0.0113  0.0041  0.0053 </r>
        <r>  0.0004  0.0666  0.0008 </r>
        <r>  0.0094  0.0034  0.0040 </r>
        <r>  0.0012  0.0049  0.0013 </r>
        <r>  0.0000  0.0015  0.0024 </r>
        <r>  0.0000  0.0009  0.0012 </r>
        <r>  0.0003  0.0068  0.0009 </r>
        <r>  0.0009  0.0021  0.0008 </r>
        <r>  0.0000  0.0011  0.0015 </r>
        <r>  0.0007  0.0095  0.0014 </r>
        <r>  0.0000  0.0013  0.0021 </r>
       </set>
       <set comment="band 95">
        <r>  0.0000  0.0001  0.0006 </r>
        <r>  0.0002  0.0010  0.0007 </r>
        <r>  0.0000  0.0002  0.0002 </r>
        <r>  0.0004  0.0004  0.0004 </r>
        <r>  0.0026  0.0531  0.0013 </r>
        <r>  0.0038  0.0726  0.0017 </r>
        <r>  0.0023  0.1189  0.0011 </r>
        <r>  0.0020  0.0812  0.0009 </r>
        <r>  0.0127  0.0015  0.0057 </r>
        <r>  0.0002  0.0494  0.0009 </r>
        <r>  0.0098  0.0013  0.0041 </r>
        <r>  0.0002  0.0672  0.0005 </r>
        <r>  0.0005  0.0050  0.0021 </r>
        <r>  0.0004  0.0045  0.0006 </r>
        <r>  0.0004  0.0071  0.0005 </r>
        <r>  0.0000  0.0027  0.0017 </r>
        <r>  0.0005  0.0034  0.0013 </r>
        <r>  0.0002  0.0022  0.0005 </r>
        <r>  0.0001  0.0043  0.0025 </r>
        <r>  0.0006  0.0094  0.0006 </r>
       </set>
       <set comment="band 96">
        <r>  0.0004  0.0004  0.0004 </r>
        <r>  0.0000  0.0002  0.0002 </r>
        <r>  0.0002  0.0010  0.0007 </r>
        <r>  0.0000  0.0001  0.0006 </r>
        <r>  0.0020  0.0812  0.0009 </r>
        <r>  0.0023  0.1189  0.0011 </r>
        <r>  0.0038  0.0726  0.0017 </r>
        <r>  0.0026  0.0531  0.0013 </r>
        <r>  0.0002  0.0672  0.0005 </r>
        <r>  0.0098  0.0013  0.0041 </r>
        <r>  0.0002  0.0494  0.0009 </r>
        <r>  0.0127  0.0015  0.0057 </r>
        <r>  0.0000  0.0027  0.0017 </r>
        <r>  0.0004  0.0071  0.0005 </r>
        <r>  0.0004  0.0045  0.0006 </r>
        <r>  0.0005  0.0050  0.0021 </r>
        <r>  0.0001  0.0043  0.0025 </r>
        <r>  0.0006  0.0094  0.0006 </r>
        <r>  0.0005  0.0034  0.0013 </r>
        <r>  0.0002  0.0022  0.0005 </r>
       </set>
       <set comment="band 97">
        <r>  0.0000  0.0000  0.0020 </r>
        <r>  0.0001  0.0005  0.0010 </r>
        <r>  0.0000  0.0001  0.0027 </r>
        <r>  0.0004  0.0006  0.0004 </r>
        <r>  0.0027  0.0695  0.0009 </r>
        <r>  0.0020  0.0674  0.0008 </r>
        <r>  0.0023  0.0796  0.0009 </r>
        <r>  0.0021  0.0837  0.0011 </r>
        <r>  0.0003  0.0046  0.0003 </r>
        <r>  0.0001  0.0055  0.0035 </r>
        <r>  0.0023  0.0044  0.0007 </r>
        <r>  0.0000  0.0008  0.0029 </r>
        <r>  0.0034  0.0426  0.0017 </r>
        <r>  0.0000  0.0006  0.0022 </r>
        <r>  0.0000  0.0010  0.0019 </r>
        <r>  0.0038  0.0369  0.0012 </r>
        <r>  0.0029  0.0360  0.0013 </r>
        <r>  0.0000  0.0006  0.0019 </r>
        <r>  0.0043  0.0434  0.0016 </r>
        <r>  0.0000  0.0010  0.0022 </r>
       </set>
       <set comment="band 98">
        <r>  0.0004  0.0006  0.0004 </r>
        <r>  0.0000  0.0001  0.0027 </r>
        <r>  0.0001  0.0005  0.0010 </r>
        <r>  0.0000  0.0000  0.0020 </r>
        <r>  0.0021  0.0837  0.0011 </r>
        <r>  0.0023  0.0796  0.0009 </r>
        <r>  0.0020  0.0674  0.0008 </r>
        <r>  0.0027  0.0695  0.0009 </r>
        <r>  0.0000  0.0008  0.0029 </r>
        <r>  0.0023  0.0044  0.0007 </r>
        <r>  0.0001  0.0055  0.0035 </r>
        <r>  0.0003  0.0046  0.0003 </r>
        <r>  0.0038  0.0369  0.0012 </r>
        <r>  0.0000  0.0010  0.0019 </r>
        <r>  0.0000  0.0006  0.0022 </r>
        <r>  0.0034  0.0426  0.0017 </r>
        <r>  0.0043  0.0434  0.0016 </r>
        <r>  0.0000  0.0010  0.0022 </r>
        <r>  0.0029  0.0360  0.0013 </r>
        <r>  0.0000  0.0006  0.0019 </r>
       </set>
       <set comment="band 99">
        <r>  0.0004  0.0002  0.0005 </r>
        <r>  0.0000  0.0002  0.0007 </r>
        <r>  0.0004  0.0005  0.0021 </r>
        <r>  0.0000  0.0001  0.0036 </r>
        <r>  0.0001  0.0898  0.0004 </r>
        <r>  0.0000  0.0844  0.0005 </r>
        <r>  0.0000  0.0645  0.0005 </r>
        <r>  0.0001  0.0689  0.0005 </r>
        <r>  0.0000  0.0003  0.0040 </r>
        <r>  0.0001  0.0038  0.0003 </r>
        <r>  0.0000  0.0001  0.0038 </r>
        <r>  0.0005  0.0022  0.0004 </r>
        <r>  0.0000  0.0011  0.0025 </r>
        <r>  0.0001  0.0435  0.0007 </r>
        <r>  0.0000  0.0584  0.0016 </r>
        <r>  0.0000  0.0010  0.0030 </r>
        <r>  0.0000  0.0013  0.0032 </r>
        <r>  0.0001  0.0574  0.0009 </r>
        <r>  0.0000  0.0008  0.0023 </r>
        <r>  0.0001  0.0446  0.0014 </r>
       </set>
       <set comment="band 100">
        <r>  0.0000  0.0001  0.0036 </r>
        <r>  0.0004  0.0005  0.0021 </r>
        <r>  0.0000  0.0002  0.0007 </r>
        <r>  0.0004  0.0002  0.0005 </r>
        <r>  0.0001  0.0689  0.0005 </r>
        <r>  0.0000  0.0645  0.0005 </r>
        <r>  0.0000  0.0844  0.0005 </r>
        <r>  0.0001  0.0898  0.0004 </r>
        <r>  0.0005  0.0022  0.0004 </r>
        <r>  0.0000  0.0001  0.0038 </r>
        <r>  0.0001  0.0038  0.0003 </r>
        <r>  0.0000  0.0003  0.0040 </r>
        <r>  0.0000  0.0010  0.0030 </r>
        <r>  0.0000  0.0584  0.0016 </r>
        <r>  0.0001  0.0435  0.0007 </r>
        <r>  0.0000  0.0011  0.0025 </r>
        <r>  0.0000  0.0008  0.0023 </r>
        <r>  0.0001  0.0446  0.0014 </r>
        <r>  0.0000  0.0013  0.0032 </r>
        <r>  0.0001  0.0574  0.0009 </r>
       </set>
       <set comment="band 101">
        <r>  0.0138  0.0031  0.0099 </r>
        <r>  0.0000  0.0019  0.0175 </r>
        <r>  0.0119  0.0023  0.0056 </r>
        <r>  0.0000  0.0024  0.0091 </r>
        <r>  0.0002  0.0024  0.0004 </r>
        <r>  0.0003  0.0126  0.0003 </r>
        <r>  0.0003  0.0126  0.0003 </r>
        <r>  0.0002  0.0023  0.0004 </r>
        <r>  0.0000  0.0061  0.0008 </r>
        <r>  0.0013  0.0054  0.0017 </r>
        <r>  0.0000  0.0036  0.0004 </r>
        <r>  0.0013  0.0045  0.0018 </r>
        <r>  0.0024  0.0023  0.0024 </r>
        <r>  0.0028  0.0035  0.0022 </r>
        <r>  0.0054  0.0053  0.0022 </r>
        <r>  0.0013  0.0054  0.0012 </r>
        <r>  0.0024  0.0023  0.0024 </r>
        <r>  0.0028  0.0035  0.0022 </r>
        <r>  0.0013  0.0054  0.0012 </r>
        <r>  0.0055  0.0053  0.0022 </r>
       </set>
       <set comment="band 102">
        <r>  0.0000  0.0024  0.0091 </r>
        <r>  0.0119  0.0023  0.0056 </r>
        <r>  0.0000  0.0019  0.0175 </r>
        <r>  0.0138  0.0031  0.0099 </r>
        <r>  0.0002  0.0023  0.0004 </r>
        <r>  0.0003  0.0126  0.0003 </r>
        <r>  0.0003  0.0126  0.0003 </r>
        <r>  0.0002  0.0024  0.0004 </r>
        <r>  0.0013  0.0045  0.0018 </r>
        <r>  0.0000  0.0036  0.0004 </r>
        <r>  0.0013  0.0054  0.0017 </r>
        <r>  0.0000  0.0061  0.0008 </r>
        <r>  0.0013  0.0054  0.0012 </r>
        <r>  0.0054  0.0053  0.0022 </r>
        <r>  0.0028  0.0035  0.0022 </r>
        <r>  0.0024  0.0023  0.0024 </r>
        <r>  0.0013  0.0054  0.0012 </r>
        <r>  0.0055  0.0053  0.0022 </r>
        <r>  0.0024  0.0023  0.0024 </r>
        <r>  0.0028  0.0035  0.0022 </r>
       </set>
       <set comment="band 103">
        <r>  0.0000  0.0005  0.0095 </r>
        <r>  0.0042  0.0025  0.0607 </r>
        <r>  0.0000  0.0001  0.0017 </r>
        <r>  0.0060  0.0013  0.0239 </r>
        <r>  0.0000  0.0105  0.0004 </r>
        <r>  0.0000  0.0032  0.0002 </r>
        <r>  0.0000  0.0032  0.0003 </r>
        <r>  0.0000  0.0097  0.0005 </r>
        <r>  0.0002  0.0100  0.0054 </r>
        <r>  0.0000  0.0022  0.0011 </r>
        <r>  0.0030  0.0050  0.0065 </r>
        <r>  0.0000  0.0015  0.0001 </r>
        <r>  0.0002  0.0046  0.0014 </r>
        <r>  0.0003  0.0020  0.0022 </r>
        <r>  0.0016  0.0018  0.0016 </r>
        <r>  0.0003  0.0050  0.0019 </r>
        <r>  0.0002  0.0048  0.0014 </r>
        <r>  0.0004  0.0021  0.0023 </r>
        <r>  0.0002  0.0049  0.0019 </r>
        <r>  0.0015  0.0017  0.0015 </r>
       </set>
       <set comment="band 104">
        <r>  0.0060  0.0013  0.0239 </r>
        <r>  0.0000  0.0001  0.0017 </r>
        <r>  0.0042  0.0025  0.0607 </r>
        <r>  0.0000  0.0005  0.0095 </r>
        <r>  0.0000  0.0097  0.0005 </r>
        <r>  0.0000  0.0032  0.0003 </r>
        <r>  0.0000  0.0032  0.0002 </r>
        <r>  0.0000  0.0105  0.0004 </r>
        <r>  0.0000  0.0015  0.0001 </r>
        <r>  0.0030  0.0050  0.0065 </r>
        <r>  0.0000  0.0022  0.0011 </r>
        <r>  0.0002  0.0100  0.0054 </r>
        <r>  0.0003  0.0050  0.0019 </r>
        <r>  0.0016  0.0018  0.0016 </r>
        <r>  0.0003  0.0020  0.0022 </r>
        <r>  0.0002  0.0046  0.0014 </r>
        <r>  0.0002  0.0049  0.0019 </r>
        <r>  0.0015  0.0017  0.0015 </r>
        <r>  0.0002  0.0048  0.0014 </r>
        <r>  0.0004  0.0021  0.0023 </r>
       </set>
       <set comment="band 105">
        <r>  0.0000  0.0004  0.0155 </r>
        <r>  0.0039  0.0018  0.0125 </r>
        <r>  0.0000  0.0018  0.0252 </r>
        <r>  0.0015  0.0018  0.0630 </r>
        <r>  0.0003  0.0046  0.0007 </r>
        <r>  0.0000  0.0068  0.0008 </r>
        <r>  0.0000  0.0052  0.0010 </r>
        <r>  0.0002  0.0047  0.0005 </r>
        <r>  0.0033  0.0067  0.0063 </r>
        <r>  0.0000  0.0008  0.0004 </r>
        <r>  0.0001  0.0066  0.0035 </r>
        <r>  0.0000  0.0010  0.0017 </r>
        <r>  0.0010  0.0011  0.0018 </r>
        <r>  0.0010  0.0009  0.0028 </r>
        <r>  0.0016  0.0018  0.0018 </r>
        <r>  0.0002  0.0064  0.0021 </r>
        <r>  0.0011  0.0012  0.0020 </r>
        <r>  0.0012  0.0008  0.0029 </r>
        <r>  0.0002  0.0063  0.0020 </r>
        <r>  0.0014  0.0020  0.0017 </r>
       </set>
       <set comment="band 106">
        <r>  0.0015  0.0018  0.0630 </r>
        <r>  0.0000  0.0018  0.0252 </r>
        <r>  0.0039  0.0018  0.0125 </r>
        <r>  0.0000  0.0004  0.0155 </r>
        <r>  0.0002  0.0047  0.0005 </r>
        <r>  0.0000  0.0052  0.0010 </r>
        <r>  0.0000  0.0068  0.0008 </r>
        <r>  0.0003  0.0046  0.0007 </r>
        <r>  0.0000  0.0010  0.0017 </r>
        <r>  0.0001  0.0066  0.0035 </r>
        <r>  0.0000  0.0008  0.0004 </r>
        <r>  0.0033  0.0067  0.0063 </r>
        <r>  0.0002  0.0064  0.0021 </r>
        <r>  0.0016  0.0018  0.0018 </r>
        <r>  0.0010  0.0009  0.0028 </r>
        <r>  0.0010  0.0011  0.0018 </r>
        <r>  0.0002  0.0063  0.0020 </r>
        <r>  0.0014  0.0020  0.0017 </r>
        <r>  0.0011  0.0012  0.0020 </r>
        <r>  0.0012  0.0008  0.0029 </r>
       </set>
       <set comment="band 107">
        <r>  0.0004  0.0024  0.0332 </r>
        <r>  0.0016  0.0025  0.0222 </r>
        <r>  0.0008  0.0015  0.0185 </r>
        <r>  0.0007  0.0035  0.0377 </r>
        <r>  0.0000  0.0009  0.0006 </r>
        <r>  0.0000  0.0037  0.0003 </r>
        <r>  0.0001  0.0042  0.0012 </r>
        <r>  0.0002  0.0095  0.0006 </r>
        <r>  0.0007  0.0030  0.0011 </r>
        <r>  0.0006  0.0057  0.0012 </r>
        <r>  0.0011  0.0060  0.0015 </r>
        <r>  0.0004  0.0018  0.0013 </r>
        <r>  0.0017  0.0022  0.0020 </r>
        <r>  0.0017  0.0032  0.0041 </r>
        <r>  0.0001  0.0033  0.0025 </r>
        <r>  0.0006  0.0025  0.0041 </r>
        <r>  0.0005  0.0016  0.0030 </r>
        <r>  0.0004  0.0041  0.0030 </r>
        <r>  0.0017  0.0031  0.0031 </r>
        <r>  0.0014  0.0024  0.0036 </r>
       </set>
       <set comment="band 108">
        <r>  0.0007  0.0035  0.0377 </r>
        <r>  0.0008  0.0015  0.0185 </r>
        <r>  0.0016  0.0025  0.0222 </r>
        <r>  0.0004  0.0024  0.0332 </r>
        <r>  0.0002  0.0095  0.0006 </r>
        <r>  0.0001  0.0042  0.0012 </r>
        <r>  0.0000  0.0037  0.0003 </r>
        <r>  0.0000  0.0009  0.0006 </r>
        <r>  0.0004  0.0018  0.0013 </r>
        <r>  0.0011  0.0060  0.0015 </r>
        <r>  0.0006  0.0057  0.0012 </r>
        <r>  0.0007  0.0030  0.0011 </r>
        <r>  0.0006  0.0025  0.0041 </r>
        <r>  0.0001  0.0033  0.0025 </r>
        <r>  0.0017  0.0032  0.0041 </r>
        <r>  0.0017  0.0022  0.0020 </r>
        <r>  0.0017  0.0031  0.0031 </r>
        <r>  0.0014  0.0024  0.0036 </r>
        <r>  0.0005  0.0016  0.0030 </r>
        <r>  0.0004  0.0041  0.0030 </r>
       </set>
       <set comment="band 109">
        <r>  0.0002  0.0016  0.0207 </r>
        <r>  0.0009  0.0024  0.0456 </r>
        <r>  0.0001  0.0024  0.0183 </r>
        <r>  0.0019  0.0049  0.0259 </r>
        <r>  0.0001  0.0027  0.0016 </r>
        <r>  0.0000  0.0051  0.0014 </r>
        <r>  0.0001  0.0037  0.0010 </r>
        <r>  0.0000  0.0046  0.0009 </r>
        <r>  0.0010  0.0100  0.0030 </r>
        <r>  0.0001  0.0015  0.0023 </r>
        <r>  0.0009  0.0066  0.0026 </r>
        <r>  0.0001  0.0025  0.0013 </r>
        <r>  0.0001  0.0011  0.0016 </r>
        <r>  0.0012  0.0052  0.0042 </r>
        <r>  0.0001  0.0018  0.0016 </r>
        <r>  0.0019  0.0057  0.0047 </r>
        <r>  0.0003  0.0030  0.0023 </r>
        <r>  0.0011  0.0056  0.0051 </r>
        <r>  0.0017  0.0037  0.0039 </r>
        <r>  0.0001  0.0013  0.0006 </r>
       </set>
       <set comment="band 110">
        <r>  0.0019  0.0049  0.0258 </r>
        <r>  0.0001  0.0024  0.0182 </r>
        <r>  0.0010  0.0024  0.0454 </r>
        <r>  0.0002  0.0016  0.0205 </r>
        <r>  0.0000  0.0047  0.0009 </r>
        <r>  0.0001  0.0037  0.0009 </r>
        <r>  0.0000  0.0052  0.0014 </r>
        <r>  0.0001  0.0027  0.0016 </r>
        <r>  0.0001  0.0026  0.0013 </r>
        <r>  0.0009  0.0066  0.0026 </r>
        <r>  0.0001  0.0016  0.0023 </r>
        <r>  0.0010  0.0100  0.0030 </r>
        <r>  0.0019  0.0056  0.0047 </r>
        <r>  0.0001  0.0018  0.0016 </r>
        <r>  0.0012  0.0052  0.0042 </r>
        <r>  0.0001  0.0011  0.0016 </r>
        <r>  0.0017  0.0038  0.0040 </r>
        <r>  0.0002  0.0013  0.0007 </r>
        <r>  0.0003  0.0030  0.0023 </r>
        <r>  0.0011  0.0058  0.0051 </r>
       </set>
       <set comment="band 111">
        <r>  0.0006  0.0012  0.0340 </r>
        <r>  0.0012  0.0041  0.0280 </r>
        <r>  0.0006  0.0023  0.0253 </r>
        <r>  0.0011  0.0021  0.0312 </r>
        <r>  0.0000  0.0075  0.0003 </r>
        <r>  0.0001  0.0078  0.0011 </r>
        <r>  0.0002  0.0048  0.0004 </r>
        <r>  0.0000  0.0014  0.0006 </r>
        <r>  0.0015  0.0037  0.0019 </r>
        <r>  0.0001  0.0063  0.0020 </r>
        <r>  0.0002  0.0084  0.0026 </r>
        <r>  0.0008  0.0037  0.0015 </r>
        <r>  0.0015  0.0018  0.0019 </r>
        <r>  0.0008  0.0023  0.0035 </r>
        <r>  0.0000  0.0046  0.0016 </r>
        <r>  0.0022  0.0035  0.0030 </r>
        <r>  0.0024  0.0029  0.0026 </r>
        <r>  0.0001  0.0042  0.0027 </r>
        <r>  0.0012  0.0025  0.0023 </r>
        <r>  0.0007  0.0027  0.0023 </r>
       </set>
       <set comment="band 112">
        <r>  0.0011  0.0021  0.0309 </r>
        <r>  0.0006  0.0023  0.0256 </r>
        <r>  0.0012  0.0041  0.0287 </r>
        <r>  0.0006  0.0012  0.0335 </r>
        <r>  0.0000  0.0014  0.0006 </r>
        <r>  0.0002  0.0048  0.0004 </r>
        <r>  0.0001  0.0077  0.0011 </r>
        <r>  0.0000  0.0074  0.0003 </r>
        <r>  0.0008  0.0037  0.0015 </r>
        <r>  0.0002  0.0084  0.0026 </r>
        <r>  0.0001  0.0063  0.0020 </r>
        <r>  0.0015  0.0036  0.0019 </r>
        <r>  0.0022  0.0036  0.0030 </r>
        <r>  0.0000  0.0045  0.0016 </r>
        <r>  0.0008  0.0023  0.0035 </r>
        <r>  0.0014  0.0018  0.0019 </r>
        <r>  0.0012  0.0026  0.0023 </r>
        <r>  0.0007  0.0026  0.0023 </r>
        <r>  0.0024  0.0028  0.0026 </r>
        <r>  0.0001  0.0042  0.0027 </r>
       </set>
      </set>
     </set>
    </set>
   </array>
  </projected>
 </calculation>
 <structure name="finalpos" >
  <crystal>
   <varray name="basis" >
    <v>       8.18559313       0.00000000       0.00000000 </v>
    <v>       0.00000000      11.64758908       0.00000000 </v>
    <v>       0.00000000       0.00000000       8.48187958 </v>
   </varray>
   <i name="volume">    808.68296910 </i>
   <varray name="rec_basis" >
    <v>       0.12216586       0.00000000       0.00000000 </v>
    <v>       0.00000000       0.08585468       0.00000000 </v>
    <v>       0.00000000       0.00000000       0.11789840 </v>
   </varray>
  </crystal>
  <varray name="positions" >
   <v>       0.04609920       0.25000000       0.49234287 </v>
   <v>       0.45390080       0.75000000       0.99234287 </v>
   <v>       0.54609920       0.25000000       0.00765713 </v>
   <v>       0.95390080       0.75000000       0.50765713 </v>
   <v>       0.00000000       0.00000000       0.00000000 </v>
   <v>       0.50000000       0.00000000       0.50000000 </v>
   <v>       0.50000000       0.50000000       0.50000000 </v>
   <v>       0.00000000       0.50000000       0.00000000 </v>
   <v>       0.50608633       0.75000000       0.42373364 </v>
   <v>       0.99391367       0.25000000       0.92373364 </v>
   <v>       0.00608633       0.75000000       0.07626636 </v>
   <v>       0.49391367       0.25000000       0.57626636 </v>
   <v>       0.28792791       0.46132041       0.21442650 </v>
   <v>       0.21207209       0.53867959       0.71442650 </v>
   <v>       0.78792791       0.03867959       0.28557350 </v>
   <v>       0.71207209       0.96132041       0.78557350 </v>
   <v>       0.28792791       0.03867959       0.21442650 </v>
   <v>       0.21207209       0.96132041       0.71442650 </v>
   <v>       0.71207209       0.53867959       0.78557350 </v>
   <v>       0.78792791       0.46132041       0.28557350 </v>
  </varray>
 </structure>
</modeling>
