CsPbBr3 cubic bulk                      
           1
     8.185593    0.000000    0.000000
     0.000000   11.647589    0.000000
     0.000000    0.000000    8.481880
   Cs   Pb   Br
   4   4  12
Direct configuration=     1
   0.04609920  0.25000000  0.49234287
   0.45390080  0.75000000  0.99234287
   0.54609920  0.25000000  0.00765713
   0.95390080  0.75000000  0.50765713
   0.00000000  0.00000000  0.00000000
   0.50000000  0.00000000  0.50000000
   0.50000000  0.50000000  0.50000000
   0.00000000  0.50000000  0.00000000
   0.50608633  0.75000000  0.42373364
   0.99391367  0.25000000  0.92373364
   0.00608633  0.75000000  0.07626636
   0.49391367  0.25000000  0.57626636
   0.28792791  0.46132041  0.21442650
   0.21207209  0.53867959  0.71442650
   0.78792791  0.03867959  0.28557350
   0.71207209  0.96132041  0.78557350
   0.28792791  0.03867959  0.21442650
   0.21207209  0.96132041  0.71442650
   0.71207209  0.53867959  0.78557350
   0.78792791  0.46132041  0.28557350
