  39  39   1   0
  0.4089970E+02  0.1166870E-08  0.1172985E-08  0.1166870E-08  0.5000000E-15
   1.0000000000000000E-004
  CAR 
 CsPbBr3 cubic bulk                      
      8.06930833    -22.32042758  301      0.49719913      1.00000000
    -22.320  0.0000E+00  0.0000E+00
    -22.219  0.0000E+00  0.0000E+00
    -22.118  0.0000E+00  0.0000E+00
    -22.017  0.0000E+00  0.0000E+00
    -21.915  0.0000E+00  0.0000E+00
    -21.814  0.0000E+00  0.0000E+00
    -21.713  0.0000E+00  0.0000E+00
    -21.611  0.0000E+00  0.0000E+00
    -21.510  0.0000E+00  0.0000E+00
    -21.409  0.0000E+00  0.0000E+00
    -21.307  0.0000E+00  0.0000E+00
    -21.206  0.0000E+00  0.0000E+00
    -21.105  0.0000E+00  0.0000E+00
    -21.004  0.0000E+00  0.0000E+00
    -20.902  0.1974E+02  0.2000E+01
    -20.801  0.3851E+02  0.5901E+01
    -20.700  0.6317E+02  0.1240E+02
    -20.598  0.0000E+00  0.1600E+02
    -20.497  0.0000E+00  0.1600E+02
    -20.396  0.0000E+00  0.1600E+02
    -20.294  0.0000E+00  0.1600E+02
    -20.193  0.0000E+00  0.1600E+02
    -20.092  0.0000E+00  0.1600E+02
    -19.991  0.0000E+00  0.1600E+02
    -19.889  0.0000E+00  0.1600E+02
    -19.788  0.0000E+00  0.1600E+02
    -19.687  0.0000E+00  0.1600E+02
    -19.585  0.0000E+00  0.1600E+02
    -19.484  0.0000E+00  0.1600E+02
    -19.383  0.0000E+00  0.1600E+02
    -19.281  0.0000E+00  0.1600E+02
    -19.180  0.0000E+00  0.1600E+02
    -19.079  0.0000E+00  0.1600E+02
    -18.978  0.0000E+00  0.1600E+02
    -18.876  0.0000E+00  0.1600E+02
    -18.775  0.0000E+00  0.1600E+02
    -18.674  0.0000E+00  0.1600E+02
    -18.572  0.0000E+00  0.1600E+02
    -18.471  0.0000E+00  0.1600E+02
    -18.370  0.0000E+00  0.1600E+02
    -18.268  0.0000E+00  0.1600E+02
    -18.167  0.0000E+00  0.1600E+02
    -18.066  0.0000E+00  0.1600E+02
    -17.965  0.0000E+00  0.1600E+02
    -17.863  0.0000E+00  0.1600E+02
    -17.762  0.0000E+00  0.1600E+02
    -17.661  0.0000E+00  0.1600E+02
    -17.559  0.0000E+00  0.1600E+02
    -17.458  0.0000E+00  0.1600E+02
    -17.357  0.1775E+02  0.1780E+02
    -17.255  0.0000E+00  0.1800E+02
    -17.154  0.0000E+00  0.1800E+02
    -17.053  0.0000E+00  0.1800E+02
    -16.952  0.0000E+00  0.1800E+02
    -16.850  0.0000E+00  0.1800E+02
    -16.749  0.0000E+00  0.1800E+02
    -16.648  0.7879E+02  0.2598E+02
    -16.546  0.1029E+03  0.3642E+02
    -16.445  0.4315E+02  0.4237E+02
    -16.344  0.1516E+03  0.5886E+02
    -16.242  0.2194E+03  0.8598E+02
    -16.141  0.9870E+02  0.9600E+02
    -16.040  0.0000E+00  0.9600E+02
    -15.939  0.0000E+00  0.9600E+02
    -15.837  0.0000E+00  0.9600E+02
    -15.736  0.0000E+00  0.9600E+02
    -15.635  0.0000E+00  0.9600E+02
    -15.533  0.0000E+00  0.9600E+02
    -15.432  0.0000E+00  0.9600E+02
    -15.331  0.0000E+00  0.9600E+02
    -15.229  0.0000E+00  0.9600E+02
    -15.128  0.0000E+00  0.9600E+02
    -15.027  0.0000E+00  0.9600E+02
    -14.926  0.0000E+00  0.9600E+02
    -14.824  0.0000E+00  0.9600E+02
    -14.723  0.8457E-09  0.9600E+02
    -14.622  0.1974E+02  0.9800E+02
    -14.520  0.0000E+00  0.9800E+02
    -14.419  0.5124E-10  0.9800E+02
    -14.318  0.2113E+02  0.1001E+03
    -14.216  0.3954E+02  0.1045E+03
    -14.115  0.3306E+02  0.1086E+03
    -14.014  0.8859E+02  0.1190E+03
    -13.913  0.5074E+02  0.1266E+03
    -13.811  0.7237E+02  0.1358E+03
    -13.710  0.3303E+02  0.1398E+03
    -13.609  0.9853E+01  0.1420E+03
    -13.507  0.0000E+00  0.1420E+03
    -13.406  0.0000E+00  0.1420E+03
    -13.305  0.0000E+00  0.1420E+03
    -13.204  0.0000E+00  0.1420E+03
    -13.102  0.0000E+00  0.1420E+03
    -13.001  0.0000E+00  0.1420E+03
    -12.900  0.0000E+00  0.1420E+03
    -12.798  0.0000E+00  0.1420E+03
    -12.697  0.0000E+00  0.1420E+03
    -12.596  0.0000E+00  0.1420E+03
    -12.494  0.0000E+00  0.1420E+03
    -12.393  0.0000E+00  0.1420E+03
    -12.292  0.0000E+00  0.1420E+03
    -12.191  0.0000E+00  0.1420E+03
    -12.089  0.0000E+00  0.1420E+03
    -11.988  0.0000E+00  0.1420E+03
    -11.887  0.0000E+00  0.1420E+03
    -11.785  0.0000E+00  0.1420E+03
    -11.684  0.0000E+00  0.1420E+03
    -11.583  0.0000E+00  0.1420E+03
    -11.481  0.0000E+00  0.1420E+03
    -11.380  0.0000E+00  0.1420E+03
    -11.279  0.0000E+00  0.1420E+03
    -11.178  0.0000E+00  0.1420E+03
    -11.076  0.0000E+00  0.1420E+03
    -10.975  0.0000E+00  0.1420E+03
    -10.874  0.0000E+00  0.1420E+03
    -10.772  0.0000E+00  0.1420E+03
    -10.671  0.0000E+00  0.1420E+03
    -10.570  0.0000E+00  0.1420E+03
    -10.468  0.0000E+00  0.1420E+03
    -10.367  0.0000E+00  0.1420E+03
    -10.266  0.0000E+00  0.1420E+03
    -10.165  0.0000E+00  0.1420E+03
    -10.063  0.0000E+00  0.1420E+03
     -9.962  0.0000E+00  0.1420E+03
     -9.861  0.0000E+00  0.1420E+03
     -9.759  0.0000E+00  0.1420E+03
     -9.658  0.0000E+00  0.1420E+03
     -9.557  0.0000E+00  0.1420E+03
     -9.455  0.0000E+00  0.1420E+03
     -9.354  0.0000E+00  0.1420E+03
     -9.253  0.0000E+00  0.1420E+03
     -9.152  0.0000E+00  0.1420E+03
     -9.050  0.0000E+00  0.1420E+03
     -8.949  0.0000E+00  0.1420E+03
     -8.848  0.0000E+00  0.1420E+03
     -8.746  0.0000E+00  0.1420E+03
     -8.645  0.0000E+00  0.1420E+03
     -8.544  0.0000E+00  0.1420E+03
     -8.442  0.0000E+00  0.1420E+03
     -8.341  0.0000E+00  0.1420E+03
     -8.240  0.5413E-07  0.1420E+03
     -8.139  0.2468E+01  0.1422E+03
     -8.037  0.4487E+01  0.1427E+03
     -7.936  0.1233E+02  0.1442E+03
     -7.835  0.2837E+01  0.1448E+03
     -7.733  0.1471E+02  0.1465E+03
     -7.632  0.1102E+02  0.1486E+03
     -7.531  0.9989E+01  0.1498E+03
     -7.429  0.2253E+02  0.1525E+03
     -7.328  0.3232E+02  0.1560E+03
     -7.227  0.7230E+02  0.1656E+03
     -7.126  0.1668E+03  0.1861E+03
     -7.024  0.1153E+03  0.2039E+03
     -6.923  0.3286E+01  0.2048E+03
     -6.822  0.4938E+01  0.2055E+03
     -6.720  0.2466E+01  0.2058E+03
     -6.619  0.5607E-04  0.2058E+03
     -6.518  0.2468E+01  0.2060E+03
     -6.416  0.0000E+00  0.2060E+03
     -6.315  0.0000E+00  0.2060E+03
     -6.214  0.0000E+00  0.2060E+03
     -6.113  0.0000E+00  0.2060E+03
     -6.011  0.0000E+00  0.2060E+03
     -5.910  0.0000E+00  0.2060E+03
     -5.809  0.0000E+00  0.2060E+03
     -5.707  0.0000E+00  0.2060E+03
     -5.606  0.0000E+00  0.2060E+03
     -5.505  0.0000E+00  0.2060E+03
     -5.403  0.0000E+00  0.2060E+03
     -5.302  0.0000E+00  0.2060E+03
     -5.201  0.0000E+00  0.2060E+03
     -5.100  0.0000E+00  0.2060E+03
     -4.998  0.0000E+00  0.2060E+03
     -4.897  0.0000E+00  0.2060E+03
     -4.796  0.0000E+00  0.2060E+03
     -4.694  0.0000E+00  0.2060E+03
     -4.593  0.0000E+00  0.2060E+03
     -4.492  0.0000E+00  0.2060E+03
     -4.390  0.0000E+00  0.2060E+03
     -4.289  0.0000E+00  0.2060E+03
     -4.188  0.0000E+00  0.2060E+03
     -4.087  0.0000E+00  0.2060E+03
     -3.985  0.0000E+00  0.2060E+03
     -3.884  0.0000E+00  0.2060E+03
     -3.783  0.0000E+00  0.2060E+03
     -3.681  0.0000E+00  0.2060E+03
     -3.580  0.0000E+00  0.2060E+03
     -3.479  0.1096E-14  0.2060E+03
     -3.377  0.1543E+02  0.2076E+03
     -3.276  0.1977E+02  0.2103E+03
     -3.175  0.3910E+02  0.2150E+03
     -3.074  0.2502E+02  0.2185E+03
     -2.972  0.1390E+02  0.2207E+03
     -2.871  0.0000E+00  0.2210E+03
     -2.770  0.0000E+00  0.2210E+03
     -2.668  0.7576E+01  0.2218E+03
     -2.567  0.2858E+02  0.2254E+03
     -2.466  0.3669E+02  0.2305E+03
     -2.365  0.2702E+02  0.2340E+03
     -2.263  0.4748E+02  0.2398E+03
     -2.162  0.1914E+02  0.2424E+03
     -2.061  0.1991E+02  0.2448E+03
     -1.959  0.4146E+02  0.2502E+03
     -1.858  0.2329E+02  0.2534E+03
     -1.757  0.3207E+02  0.2575E+03
     -1.655  0.3377E+02  0.2624E+03
     -1.554  0.6627E+02  0.2710E+03
     -1.453  0.6453E+02  0.2793E+03
     -1.352  0.1033E+03  0.2917E+03
     -1.250  0.9394E+02  0.3038E+03
     -1.149  0.8265E+02  0.3141E+03
     -1.048  0.6590E+02  0.3237E+03
     -0.946  0.2632E+02  0.3279E+03
     -0.845  0.2985E+02  0.3328E+03
     -0.744  0.1425E+02  0.3347E+03
     -0.642  0.9101E+01  0.3359E+03
     -0.541  0.5381E+01  0.3370E+03
     -0.440  0.9225E+01  0.3387E+03
     -0.339  0.5122E+01  0.3395E+03
     -0.237  0.5333E+01  0.3405E+03
     -0.136  0.2468E+01  0.3410E+03
     -0.035  0.2668E+01  0.3413E+03
      0.067  0.1102E+02  0.3426E+03
      0.168  0.1091E+01  0.3431E+03
      0.269  0.4719E+01  0.3437E+03
      0.371  0.0000E+00  0.3438E+03
      0.472  0.2462E+01  0.3440E+03
      0.573  0.0000E+00  0.3440E+03
      0.674  0.0000E+00  0.3440E+03
      0.776  0.0000E+00  0.3440E+03
      0.877  0.0000E+00  0.3440E+03
      0.978  0.0000E+00  0.3440E+03
      1.080  0.0000E+00  0.3440E+03
      1.181  0.0000E+00  0.3440E+03
      1.282  0.0000E+00  0.3440E+03
      1.384  0.0000E+00  0.3440E+03
      1.485  0.0000E+00  0.3440E+03
      1.586  0.0000E+00  0.3440E+03
      1.687  0.0000E+00  0.3440E+03
      1.789  0.0000E+00  0.3440E+03
      1.890  0.0000E+00  0.3440E+03
      1.991  0.0000E+00  0.3440E+03
      2.093  0.0000E+00  0.3440E+03
      2.194  0.0000E+00  0.3440E+03
      2.295  0.0000E+00  0.3440E+03
      2.397  0.0000E+00  0.3440E+03
      2.498  0.5577E-12  0.3440E+03
      2.599  0.4455E+01  0.3445E+03
      2.700  0.7364E+01  0.3452E+03
      2.802  0.9872E+01  0.3463E+03
      2.903  0.5049E+01  0.3468E+03
      3.004  0.1395E+02  0.3487E+03
      3.106  0.1288E+02  0.3506E+03
      3.207  0.1454E+02  0.3525E+03
      3.308  0.1560E+02  0.3543E+03
      3.410  0.8686E+01  0.3561E+03
      3.511  0.9870E+01  0.3575E+03
      3.612  0.4936E+01  0.3580E+03
      3.713  0.0000E+00  0.3580E+03
      3.815  0.0000E+00  0.3580E+03
      3.916  0.0000E+00  0.3580E+03
      4.017  0.2234E-09  0.3580E+03
      4.119  0.8982E+01  0.3589E+03
      4.220  0.9872E+01  0.3600E+03
      4.321  0.2091E+02  0.3621E+03
      4.423  0.3130E+02  0.3657E+03
      4.524  0.2720E+02  0.3688E+03
      4.625  0.2400E+02  0.3719E+03
      4.726  0.1702E+02  0.3747E+03
      4.828  0.2982E+02  0.3778E+03
      4.929  0.2067E+02  0.3801E+03
      5.030  0.0000E+00  0.3802E+03
      5.132  0.0000E+00  0.3802E+03
      5.233  0.1289E+01  0.3804E+03
      5.334  0.2468E+01  0.3808E+03
      5.436  0.9030E+01  0.3817E+03
      5.537  0.7405E+01  0.3825E+03
      5.638  0.1292E+02  0.3838E+03
      5.739  0.1658E+02  0.3857E+03
      5.841  0.8513E+01  0.3874E+03
      5.942  0.2199E+02  0.3900E+03
      6.043  0.2717E+02  0.3930E+03
      6.145  0.2787E+02  0.3966E+03
      6.246  0.3196E+02  0.4007E+03
      6.347  0.3024E+02  0.4046E+03
      6.449  0.2429E+02  0.4077E+03
      6.550  0.3234E+02  0.4120E+03
      6.651  0.2249E+02  0.4153E+03
      6.752  0.4936E+01  0.4160E+03
      6.854  0.0000E+00  0.4160E+03
      6.955  0.0000E+00  0.4160E+03
      7.056  0.0000E+00  0.4160E+03
      7.158  0.0000E+00  0.4160E+03
      7.259  0.0000E+00  0.4160E+03
      7.360  0.0000E+00  0.4160E+03
      7.462  0.0000E+00  0.4160E+03
      7.563  0.0000E+00  0.4160E+03
      7.664  0.0000E+00  0.4160E+03
      7.765  0.0000E+00  0.4160E+03
      7.867  0.0000E+00  0.4160E+03
      7.968  0.0000E+00  0.4160E+03
      8.069  0.0000E+00  0.4160E+03
      8.06930833    -22.32042758  301      0.49719913      1.00000000
    -22.320  0.0000E+00  0.0000E+00  0.0000E+00
    -22.219  0.0000E+00  0.0000E+00  0.0000E+00
    -22.118  0.0000E+00  0.0000E+00  0.0000E+00
    -22.017  0.0000E+00  0.0000E+00  0.0000E+00
    -21.915  0.0000E+00  0.0000E+00  0.0000E+00
    -21.814  0.0000E+00  0.0000E+00  0.0000E+00
    -21.713  0.0000E+00  0.0000E+00  0.0000E+00
    -21.611  0.0000E+00  0.0000E+00  0.0000E+00
    -21.510  0.0000E+00  0.0000E+00  0.0000E+00
    -21.409  0.0000E+00  0.0000E+00  0.0000E+00
    -21.307  0.0000E+00  0.0000E+00  0.0000E+00
    -21.206  0.0000E+00  0.0000E+00  0.0000E+00
    -21.105  0.0000E+00  0.0000E+00  0.0000E+00
    -21.004  0.0000E+00  0.0000E+00  0.0000E+00
    -20.902  0.1576E-03  0.1608E-06  0.2052E-07
    -20.801  0.1446E-05  0.5001E-08  0.3823E-09
    -20.700  0.1745E+00  0.2949E-06  0.6258E-07
    -20.598  0.0000E+00  0.0000E+00  0.0000E+00
    -20.497  0.0000E+00  0.0000E+00  0.0000E+00
    -20.396  0.0000E+00  0.0000E+00  0.0000E+00
    -20.294  0.0000E+00  0.0000E+00  0.0000E+00
    -20.193  0.0000E+00  0.0000E+00  0.0000E+00
    -20.092  0.0000E+00  0.0000E+00  0.0000E+00
    -19.991  0.0000E+00  0.0000E+00  0.0000E+00
    -19.889  0.0000E+00  0.0000E+00  0.0000E+00
    -19.788  0.0000E+00  0.0000E+00  0.0000E+00
    -19.687  0.0000E+00  0.0000E+00  0.0000E+00
    -19.585  0.0000E+00  0.0000E+00  0.0000E+00
    -19.484  0.0000E+00  0.0000E+00  0.0000E+00
    -19.383  0.0000E+00  0.0000E+00  0.0000E+00
    -19.281  0.0000E+00  0.0000E+00  0.0000E+00
    -19.180  0.0000E+00  0.0000E+00  0.0000E+00
    -19.079  0.0000E+00  0.0000E+00  0.0000E+00
    -18.978  0.0000E+00  0.0000E+00  0.0000E+00
    -18.876  0.0000E+00  0.0000E+00  0.0000E+00
    -18.775  0.0000E+00  0.0000E+00  0.0000E+00
    -18.674  0.0000E+00  0.0000E+00  0.0000E+00
    -18.572  0.0000E+00  0.0000E+00  0.0000E+00
    -18.471  0.0000E+00  0.0000E+00  0.0000E+00
    -18.370  0.0000E+00  0.0000E+00  0.0000E+00
    -18.268  0.0000E+00  0.0000E+00  0.0000E+00
    -18.167  0.0000E+00  0.0000E+00  0.0000E+00
    -18.066  0.0000E+00  0.0000E+00  0.0000E+00
    -17.965  0.0000E+00  0.0000E+00  0.0000E+00
    -17.863  0.0000E+00  0.0000E+00  0.0000E+00
    -17.762  0.0000E+00  0.0000E+00  0.0000E+00
    -17.661  0.0000E+00  0.0000E+00  0.0000E+00
    -17.559  0.0000E+00  0.0000E+00  0.0000E+00
    -17.458  0.0000E+00  0.0000E+00  0.0000E+00
    -17.357  0.1099E-05  0.3117E-06  0.4961E-07
    -17.255  0.0000E+00  0.0000E+00  0.0000E+00
    -17.154  0.0000E+00  0.0000E+00  0.0000E+00
    -17.053  0.0000E+00  0.0000E+00  0.0000E+00
    -16.952  0.0000E+00  0.0000E+00  0.0000E+00
    -16.850  0.0000E+00  0.0000E+00  0.0000E+00
    -16.749  0.0000E+00  0.0000E+00  0.0000E+00
    -16.648  0.5134E-04  0.2435E-04  0.3843E-05
    -16.546  0.3567E-05  0.1368E-05  0.1465E-06
    -16.445  0.2686E-04  0.1499E-04  0.2722E-05
    -16.344  0.3564E-04  0.6386E-04  0.1336E-04
    -16.242  0.7253E-04  0.4839E-04  0.6335E-05
    -16.141  0.2694E-04  0.1526E-04  0.1866E-05
    -16.040  0.0000E+00  0.0000E+00  0.0000E+00
    -15.939  0.0000E+00  0.0000E+00  0.0000E+00
    -15.837  0.0000E+00  0.0000E+00  0.0000E+00
    -15.736  0.0000E+00  0.0000E+00  0.0000E+00
    -15.635  0.0000E+00  0.0000E+00  0.0000E+00
    -15.533  0.0000E+00  0.0000E+00  0.0000E+00
    -15.432  0.0000E+00  0.0000E+00  0.0000E+00
    -15.331  0.0000E+00  0.0000E+00  0.0000E+00
    -15.229  0.0000E+00  0.0000E+00  0.0000E+00
    -15.128  0.0000E+00  0.0000E+00  0.0000E+00
    -15.027  0.0000E+00  0.0000E+00  0.0000E+00
    -14.926  0.0000E+00  0.0000E+00  0.0000E+00
    -14.824  0.0000E+00  0.0000E+00  0.0000E+00
    -14.723  0.7077E-14  0.4913E-14  0.1934E-15
    -14.622  0.1838E-03  0.1169E-03  0.4105E-05
    -14.520  0.0000E+00  0.0000E+00  0.0000E+00
    -14.419  0.1101E-13  0.6769E-15  0.6452E-16
    -14.318  0.2988E-02  0.1380E-02  0.8219E-04
    -14.216  0.1947E-02  0.3681E-02  0.1348E-03
    -14.115  0.6201E-03  0.2371E-02  0.1178E-03
    -14.014  0.1667E-02  0.5688E-02  0.3946E-03
    -13.913  0.1310E-02  0.3043E-02  0.2815E-03
    -13.811  0.1405E-02  0.4086E-02  0.4546E-03
    -13.710  0.4334E-03  0.1150E-02  0.2333E-03
    -13.609  0.2490E-05  0.1300E-03  0.3057E-04
    -13.507  0.0000E+00  0.0000E+00  0.0000E+00
    -13.406  0.0000E+00  0.0000E+00  0.0000E+00
    -13.305  0.0000E+00  0.0000E+00  0.0000E+00
    -13.204  0.0000E+00  0.0000E+00  0.0000E+00
    -13.102  0.0000E+00  0.0000E+00  0.0000E+00
    -13.001  0.0000E+00  0.0000E+00  0.0000E+00
    -12.900  0.0000E+00  0.0000E+00  0.0000E+00
    -12.798  0.0000E+00  0.0000E+00  0.0000E+00
    -12.697  0.0000E+00  0.0000E+00  0.0000E+00
    -12.596  0.0000E+00  0.0000E+00  0.0000E+00
    -12.494  0.0000E+00  0.0000E+00  0.0000E+00
    -12.393  0.0000E+00  0.0000E+00  0.0000E+00
    -12.292  0.0000E+00  0.0000E+00  0.0000E+00
    -12.191  0.0000E+00  0.0000E+00  0.0000E+00
    -12.089  0.0000E+00  0.0000E+00  0.0000E+00
    -11.988  0.0000E+00  0.0000E+00  0.0000E+00
    -11.887  0.0000E+00  0.0000E+00  0.0000E+00
    -11.785  0.0000E+00  0.0000E+00  0.0000E+00
    -11.684  0.0000E+00  0.0000E+00  0.0000E+00
    -11.583  0.0000E+00  0.0000E+00  0.0000E+00
    -11.481  0.0000E+00  0.0000E+00  0.0000E+00
    -11.380  0.0000E+00  0.0000E+00  0.0000E+00
    -11.279  0.0000E+00  0.0000E+00  0.0000E+00
    -11.178  0.0000E+00  0.0000E+00  0.0000E+00
    -11.076  0.0000E+00  0.0000E+00  0.0000E+00
    -10.975  0.0000E+00  0.0000E+00  0.0000E+00
    -10.874  0.0000E+00  0.0000E+00  0.0000E+00
    -10.772  0.0000E+00  0.0000E+00  0.0000E+00
    -10.671  0.0000E+00  0.0000E+00  0.0000E+00
    -10.570  0.0000E+00  0.0000E+00  0.0000E+00
    -10.468  0.0000E+00  0.0000E+00  0.0000E+00
    -10.367  0.0000E+00  0.0000E+00  0.0000E+00
    -10.266  0.0000E+00  0.0000E+00  0.0000E+00
    -10.165  0.0000E+00  0.0000E+00  0.0000E+00
    -10.063  0.0000E+00  0.0000E+00  0.0000E+00
     -9.962  0.0000E+00  0.0000E+00  0.0000E+00
     -9.861  0.0000E+00  0.0000E+00  0.0000E+00
     -9.759  0.0000E+00  0.0000E+00  0.0000E+00
     -9.658  0.0000E+00  0.0000E+00  0.0000E+00
     -9.557  0.0000E+00  0.0000E+00  0.0000E+00
     -9.455  0.0000E+00  0.0000E+00  0.0000E+00
     -9.354  0.0000E+00  0.0000E+00  0.0000E+00
     -9.253  0.0000E+00  0.0000E+00  0.0000E+00
     -9.152  0.0000E+00  0.0000E+00  0.0000E+00
     -9.050  0.0000E+00  0.0000E+00  0.0000E+00
     -8.949  0.0000E+00  0.0000E+00  0.0000E+00
     -8.848  0.0000E+00  0.0000E+00  0.0000E+00
     -8.746  0.0000E+00  0.0000E+00  0.0000E+00
     -8.645  0.0000E+00  0.0000E+00  0.0000E+00
     -8.544  0.0000E+00  0.0000E+00  0.0000E+00
     -8.442  0.0000E+00  0.0000E+00  0.0000E+00
     -8.341  0.0000E+00  0.0000E+00  0.0000E+00
     -8.240  0.1009E-14  0.1954E-11  0.2227E-12
     -8.139  0.4601E-07  0.8910E-04  0.1015E-04
     -8.037  0.8179E-07  0.4383E-03  0.1721E-04
     -7.936  0.2498E-06  0.6344E-02  0.2528E-04
     -7.835  0.1870E-06  0.9210E-03  0.2973E-05
     -7.733  0.6095E-05  0.2301E-01  0.3200E-04
     -7.632  0.2864E-05  0.1965E-01  0.3616E-04
     -7.531  0.3597E-04  0.2627E-01  0.1468E-04
     -7.429  0.2602E-04  0.6851E-01  0.7883E-04
     -7.328  0.8245E-05  0.4953E-01  0.4945E-04
     -7.227  0.4075E-04  0.2469E+00  0.3701E-04
     -7.126  0.4897E-04  0.2876E+01  0.6260E-04
     -7.024  0.3053E-04  0.3628E+02  0.4715E-04
     -6.923  0.3143E-06  0.2962E-01  0.1880E-04
     -6.822  0.2670E-04  0.4535E-01  0.5264E-05
     -6.720  0.3899E-06  0.1392E-01  0.3096E-05
     -6.619  0.1278E-09  0.1501E-06  0.2771E-10
     -6.518  0.5626E-05  0.6608E-02  0.1220E-05
     -6.416  0.0000E+00  0.0000E+00  0.0000E+00
     -6.315  0.0000E+00  0.0000E+00  0.0000E+00
     -6.214  0.0000E+00  0.0000E+00  0.0000E+00
     -6.113  0.0000E+00  0.0000E+00  0.0000E+00
     -6.011  0.0000E+00  0.0000E+00  0.0000E+00
     -5.910  0.0000E+00  0.0000E+00  0.0000E+00
     -5.809  0.0000E+00  0.0000E+00  0.0000E+00
     -5.707  0.0000E+00  0.0000E+00  0.0000E+00
     -5.606  0.0000E+00  0.0000E+00  0.0000E+00
     -5.505  0.0000E+00  0.0000E+00  0.0000E+00
     -5.403  0.0000E+00  0.0000E+00  0.0000E+00
     -5.302  0.0000E+00  0.0000E+00  0.0000E+00
     -5.201  0.0000E+00  0.0000E+00  0.0000E+00
     -5.100  0.0000E+00  0.0000E+00  0.0000E+00
     -4.998  0.0000E+00  0.0000E+00  0.0000E+00
     -4.897  0.0000E+00  0.0000E+00  0.0000E+00
     -4.796  0.0000E+00  0.0000E+00  0.0000E+00
     -4.694  0.0000E+00  0.0000E+00  0.0000E+00
     -4.593  0.0000E+00  0.0000E+00  0.0000E+00
     -4.492  0.0000E+00  0.0000E+00  0.0000E+00
     -4.390  0.0000E+00  0.0000E+00  0.0000E+00
     -4.289  0.0000E+00  0.0000E+00  0.0000E+00
     -4.188  0.0000E+00  0.0000E+00  0.0000E+00
     -4.087  0.0000E+00  0.0000E+00  0.0000E+00
     -3.985  0.0000E+00  0.0000E+00  0.0000E+00
     -3.884  0.0000E+00  0.0000E+00  0.0000E+00
     -3.783  0.0000E+00  0.0000E+00  0.0000E+00
     -3.681  0.0000E+00  0.0000E+00  0.0000E+00
     -3.580  0.0000E+00  0.0000E+00  0.0000E+00
     -3.479  0.2308E-20  0.4866E-18  0.3739E-19
     -3.377  0.3414E-04  0.6588E-02  0.4451E-03
     -3.276  0.9767E-04  0.8109E-02  0.7850E-03
     -3.175  0.4289E-03  0.2370E-01  0.1815E-02
     -3.074  0.5223E-04  0.1129E-01  0.9002E-03
     -2.972  0.1769E-04  0.3865E-02  0.3466E-03
     -2.871  0.0000E+00  0.0000E+00  0.0000E+00
     -2.770  0.0000E+00  0.0000E+00  0.0000E+00
     -2.668  0.3589E-03  0.4502E-02  0.2418E-03
     -2.567  0.1147E-02  0.2592E-01  0.1349E-02
     -2.466  0.1738E-02  0.2665E-01  0.1419E-02
     -2.365  0.1921E-02  0.1821E-01  0.1907E-02
     -2.263  0.6882E-02  0.2482E-01  0.3657E-02
     -2.162  0.1346E-02  0.7996E-02  0.1847E-02
     -2.061  0.1028E-01  0.1292E-01  0.2119E-02
     -1.959  0.1721E-01  0.3747E-01  0.5329E-02
     -1.858  0.1068E-02  0.6028E-01  0.4510E-02
     -1.757  0.1657E-02  0.8631E-01  0.5263E-02
     -1.655  0.1645E-02  0.5702E-01  0.4712E-02
     -1.554  0.3277E-02  0.1153E+00  0.1296E-01
     -1.453  0.4699E-02  0.4955E-01  0.9970E-02
     -1.352  0.3731E-02  0.6235E-01  0.2108E-01
     -1.250  0.5594E-02  0.8091E-01  0.1429E-01
     -1.149  0.2363E-02  0.6314E-01  0.1302E-01
     -1.048  0.8483E-03  0.6624E-01  0.1057E-01
     -0.946  0.4124E-03  0.2271E-01  0.6244E-02
     -0.845  0.9505E-03  0.3478E-01  0.4703E-02
     -0.744  0.7902E-03  0.6422E-02  0.8716E-03
     -0.642  0.1462E-03  0.2051E-02  0.3824E-03
     -0.541  0.8506E-04  0.8222E-03  0.3829E-03
     -0.440  0.8563E-04  0.1658E-02  0.8324E-03
     -0.339  0.4332E-04  0.6730E-03  0.2006E-03
     -0.237  0.7140E-05  0.2385E-02  0.1760E-03
     -0.136  0.1999E-05  0.6769E-03  0.7487E-04
     -0.035  0.1121E-05  0.5415E-03  0.2017E-03
      0.067  0.2079E-04  0.1495E-02  0.7667E-03
      0.168  0.2031E-06  0.7620E-04  0.5521E-04
      0.269  0.1696E-05  0.2337E-03  0.2354E-03
      0.371  0.0000E+00  0.0000E+00  0.0000E+00
      0.472  0.8421E-08  0.4495E-04  0.2034E-03
      0.573  0.0000E+00  0.0000E+00  0.0000E+00
      0.674  0.0000E+00  0.0000E+00  0.0000E+00
      0.776  0.0000E+00  0.0000E+00  0.0000E+00
      0.877  0.0000E+00  0.0000E+00  0.0000E+00
      0.978  0.0000E+00  0.0000E+00  0.0000E+00
      1.080  0.0000E+00  0.0000E+00  0.0000E+00
      1.181  0.0000E+00  0.0000E+00  0.0000E+00
      1.282  0.0000E+00  0.0000E+00  0.0000E+00
      1.384  0.0000E+00  0.0000E+00  0.0000E+00
      1.485  0.0000E+00  0.0000E+00  0.0000E+00
      1.586  0.0000E+00  0.0000E+00  0.0000E+00
      1.687  0.0000E+00  0.0000E+00  0.0000E+00
      1.789  0.0000E+00  0.0000E+00  0.0000E+00
      1.890  0.0000E+00  0.0000E+00  0.0000E+00
      1.991  0.0000E+00  0.0000E+00  0.0000E+00
      2.093  0.0000E+00  0.0000E+00  0.0000E+00
      2.194  0.0000E+00  0.0000E+00  0.0000E+00
      2.295  0.0000E+00  0.0000E+00  0.0000E+00
      2.397  0.0000E+00  0.0000E+00  0.0000E+00
      2.498  0.1907E-16  0.8137E-16  0.4265E-16
      2.599  0.2009E-03  0.6389E-03  0.2430E-03
      2.700  0.2716E-03  0.1030E-02  0.6348E-03
      2.802  0.4602E-03  0.1310E-02  0.1724E-02
      2.903  0.1357E-03  0.1929E-03  0.1703E-02
      3.004  0.4620E-03  0.1236E-02  0.3670E-02
      3.106  0.5688E-03  0.1757E-02  0.3519E-02
      3.207  0.4644E-03  0.2132E-02  0.3243E-02
      3.308  0.4645E-03  0.1415E-02  0.3429E-02
      3.410  0.3478E-03  0.1211E-02  0.1388E-02
      3.511  0.6872E-04  0.1821E-02  0.1240E-02
      3.612  0.2540E-03  0.7831E-03  0.7066E-03
      3.713  0.0000E+00  0.0000E+00  0.0000E+00
      3.815  0.0000E+00  0.0000E+00  0.0000E+00
      3.916  0.0000E+00  0.0000E+00  0.0000E+00
      4.017  0.5558E-14  0.5649E-13  0.1441E-12
      4.119  0.3662E-03  0.1223E-02  0.4657E-02
      4.220  0.6251E-04  0.7216E-03  0.4579E-02
      4.321  0.3281E-03  0.2648E-02  0.1130E-01
      4.423  0.1857E-02  0.6023E-02  0.1811E-01
      4.524  0.9958E-03  0.5492E-02  0.1108E-01
      4.625  0.1199E-02  0.5217E-02  0.7388E-02
      4.726  0.2828E-02  0.3486E-02  0.4593E-02
      4.828  0.1344E-01  0.5671E-02  0.9701E-02
      4.929  0.5433E-02  0.4154E-02  0.6982E-02
      5.030  0.0000E+00  0.0000E+00  0.0000E+00
      5.132  0.0000E+00  0.0000E+00  0.0000E+00
      5.233  0.1500E-02  0.1415E-02  0.1764E-03
      5.334  0.4467E-02  0.7581E-03  0.1575E-02
      5.436  0.1337E-01  0.4467E-02  0.4459E-02
      5.537  0.9604E-02  0.1631E-02  0.5860E-02
      5.638  0.1367E-01  0.4525E-02  0.1116E-01
      5.739  0.2324E-02  0.2119E-02  0.1835E-01
      5.841  0.1130E-01  0.3803E-02  0.8182E-02
      5.942  0.9609E-02  0.6144E-02  0.3664E-01
      6.043  0.1325E-01  0.1639E-01  0.7070E-01
      6.145  0.4235E-01  0.7498E-02  0.1088E+00
      6.246  0.2222E-01  0.1218E-01  0.2285E+00
      6.347  0.4484E-01  0.1530E-01  0.3066E+00
      6.449  0.9849E-02  0.1097E-01  0.3185E+00
      6.550  0.3640E-01  0.1876E-01  0.3186E+00
      6.651  0.2150E-01  0.2281E-01  0.1866E+00
      6.752  0.3263E-02  0.1179E-02  0.7599E-01
      6.854  0.0000E+00  0.0000E+00  0.0000E+00
      6.955  0.0000E+00  0.0000E+00  0.0000E+00
      7.056  0.0000E+00  0.0000E+00  0.0000E+00
      7.158  0.0000E+00  0.0000E+00  0.0000E+00
      7.259  0.0000E+00  0.0000E+00  0.0000E+00
      7.360  0.0000E+00  0.0000E+00  0.0000E+00
      7.462  0.0000E+00  0.0000E+00  0.0000E+00
      7.563  0.0000E+00  0.0000E+00  0.0000E+00
      7.664  0.0000E+00  0.0000E+00  0.0000E+00
      7.765  0.0000E+00  0.0000E+00  0.0000E+00
      7.867  0.0000E+00  0.0000E+00  0.0000E+00
      7.968  0.0000E+00  0.0000E+00  0.0000E+00
      8.069  0.0000E+00  0.0000E+00  0.0000E+00
      8.06930833    -22.32042758  301      0.49719913      1.00000000
    -22.320  0.0000E+00  0.0000E+00  0.0000E+00
    -22.219  0.0000E+00  0.0000E+00  0.0000E+00
    -22.118  0.0000E+00  0.0000E+00  0.0000E+00
    -22.017  0.0000E+00  0.0000E+00  0.0000E+00
    -21.915  0.0000E+00  0.0000E+00  0.0000E+00
    -21.814  0.0000E+00  0.0000E+00  0.0000E+00
    -21.713  0.0000E+00  0.0000E+00  0.0000E+00
    -21.611  0.0000E+00  0.0000E+00  0.0000E+00
    -21.510  0.0000E+00  0.0000E+00  0.0000E+00
    -21.409  0.0000E+00  0.0000E+00  0.0000E+00
    -21.307  0.0000E+00  0.0000E+00  0.0000E+00
    -21.206  0.0000E+00  0.0000E+00  0.0000E+00
    -21.105  0.0000E+00  0.0000E+00  0.0000E+00
    -21.004  0.0000E+00  0.0000E+00  0.0000E+00
    -20.902  0.4878E-03  0.3934E-07  0.1177E-07
    -20.801  0.1752E+02  0.1303E-03  0.2301E-04
    -20.700  0.9129E-03  0.7712E-07  0.1818E-07
    -20.598  0.0000E+00  0.0000E+00  0.0000E+00
    -20.497  0.0000E+00  0.0000E+00  0.0000E+00
    -20.396  0.0000E+00  0.0000E+00  0.0000E+00
    -20.294  0.0000E+00  0.0000E+00  0.0000E+00
    -20.193  0.0000E+00  0.0000E+00  0.0000E+00
    -20.092  0.0000E+00  0.0000E+00  0.0000E+00
    -19.991  0.0000E+00  0.0000E+00  0.0000E+00
    -19.889  0.0000E+00  0.0000E+00  0.0000E+00
    -19.788  0.0000E+00  0.0000E+00  0.0000E+00
    -19.687  0.0000E+00  0.0000E+00  0.0000E+00
    -19.585  0.0000E+00  0.0000E+00  0.0000E+00
    -19.484  0.0000E+00  0.0000E+00  0.0000E+00
    -19.383  0.0000E+00  0.0000E+00  0.0000E+00
    -19.281  0.0000E+00  0.0000E+00  0.0000E+00
    -19.180  0.0000E+00  0.0000E+00  0.0000E+00
    -19.079  0.0000E+00  0.0000E+00  0.0000E+00
    -18.978  0.0000E+00  0.0000E+00  0.0000E+00
    -18.876  0.0000E+00  0.0000E+00  0.0000E+00
    -18.775  0.0000E+00  0.0000E+00  0.0000E+00
    -18.674  0.0000E+00  0.0000E+00  0.0000E+00
    -18.572  0.0000E+00  0.0000E+00  0.0000E+00
    -18.471  0.0000E+00  0.0000E+00  0.0000E+00
    -18.370  0.0000E+00  0.0000E+00  0.0000E+00
    -18.268  0.0000E+00  0.0000E+00  0.0000E+00
    -18.167  0.0000E+00  0.0000E+00  0.0000E+00
    -18.066  0.0000E+00  0.0000E+00  0.0000E+00
    -17.965  0.0000E+00  0.0000E+00  0.0000E+00
    -17.863  0.0000E+00  0.0000E+00  0.0000E+00
    -17.762  0.0000E+00  0.0000E+00  0.0000E+00
    -17.661  0.0000E+00  0.0000E+00  0.0000E+00
    -17.559  0.0000E+00  0.0000E+00  0.0000E+00
    -17.458  0.0000E+00  0.0000E+00  0.0000E+00
    -17.357  0.6824E-07  0.8276E-07  0.2494E-07
    -17.255  0.0000E+00  0.0000E+00  0.0000E+00
    -17.154  0.0000E+00  0.0000E+00  0.0000E+00
    -17.053  0.0000E+00  0.0000E+00  0.0000E+00
    -16.952  0.0000E+00  0.0000E+00  0.0000E+00
    -16.850  0.0000E+00  0.0000E+00  0.0000E+00
    -16.749  0.0000E+00  0.0000E+00  0.0000E+00
    -16.648  0.4682E-04  0.3170E-04  0.5886E-05
    -16.546  0.1582E-04  0.8646E-05  0.1191E-05
    -16.445  0.1868E-04  0.2569E-04  0.5661E-05
    -16.344  0.7508E-04  0.5618E-04  0.7978E-05
    -16.242  0.2246E-04  0.1884E-04  0.2508E-05
    -16.141  0.4480E-05  0.2852E-05  0.3301E-06
    -16.040  0.0000E+00  0.0000E+00  0.0000E+00
    -15.939  0.0000E+00  0.0000E+00  0.0000E+00
    -15.837  0.0000E+00  0.0000E+00  0.0000E+00
    -15.736  0.0000E+00  0.0000E+00  0.0000E+00
    -15.635  0.0000E+00  0.0000E+00  0.0000E+00
    -15.533  0.0000E+00  0.0000E+00  0.0000E+00
    -15.432  0.0000E+00  0.0000E+00  0.0000E+00
    -15.331  0.0000E+00  0.0000E+00  0.0000E+00
    -15.229  0.0000E+00  0.0000E+00  0.0000E+00
    -15.128  0.0000E+00  0.0000E+00  0.0000E+00
    -15.027  0.0000E+00  0.0000E+00  0.0000E+00
    -14.926  0.0000E+00  0.0000E+00  0.0000E+00
    -14.824  0.0000E+00  0.0000E+00  0.0000E+00
    -14.723  0.1049E-13  0.9448E-14  0.6307E-15
    -14.622  0.2371E-03  0.2232E-03  0.1460E-04
    -14.520  0.0000E+00  0.0000E+00  0.0000E+00
    -14.419  0.8490E-14  0.1024E-14  0.4756E-16
    -14.318  0.1679E-02  0.9697E-03  0.2136E-04
    -14.216  0.3101E-02  0.3688E-02  0.1125E-03
    -14.115  0.6936E-03  0.3817E-02  0.1854E-03
    -14.014  0.1929E-02  0.5456E-02  0.4224E-03
    -13.913  0.4346E-03  0.1729E-02  0.2897E-03
    -13.811  0.1265E-02  0.3363E-02  0.3828E-03
    -13.710  0.8568E-03  0.1965E-02  0.1793E-03
    -13.609  0.3638E-03  0.7821E-03  0.5497E-04
    -13.507  0.0000E+00  0.0000E+00  0.0000E+00
    -13.406  0.0000E+00  0.0000E+00  0.0000E+00
    -13.305  0.0000E+00  0.0000E+00  0.0000E+00