       N       E                     dE             d eps       ncg     rms          rms(c)
DAV:   1     0.133900870466E+04    0.13390E+04   -0.11057E+05  3472   0.973E+02
DAV:   2    -0.111207039970E+04   -0.24511E+04   -0.23678E+04  4088   0.300E+02
DAV:   3    -0.147347642744E+04   -0.36141E+03   -0.35942E+03  4432   0.137E+02
DAV:   4    -0.148526006616E+04   -0.11784E+02   -0.11746E+02  3920   0.328E+01
DAV:   5    -0.148580734088E+04   -0.54727E+00   -0.54701E+00  4464   0.550E+00    0.115E+01
DAV:   6    -0.140810859519E+04    0.77699E+02   -0.23436E+01  4320   0.311E+01    0.801E+00
DAV:   7    -0.140759345578E+04    0.51514E+00   -0.90392E+00  4232   0.582E+00    0.385E+00
DAV:   8    -0.140775752822E+04   -0.16407E+00   -0.47819E-01  4064   0.215E+00    0.219E+00
DAV:   9    -0.140781454147E+04   -0.57013E-01   -0.14573E-01  3952   0.124E+00    0.427E-01
DAV:  10    -0.140781760855E+04   -0.30671E-02   -0.18331E-02  4720   0.429E-01    0.312E-01
DAV:  11    -0.140782053151E+04   -0.29230E-02   -0.37029E-03  3992   0.183E-01    0.118E-01
DAV:  12    -0.140782282357E+04   -0.22921E-02   -0.40570E-03  3736   0.167E-01    0.106E-01
DAV:  13    -0.140782241718E+04    0.40639E-03   -0.16974E-03  4568   0.117E-01    0.471E-02
DAV:  14    -0.140782244379E+04   -0.26615E-04   -0.36484E-04  3824   0.377E-02    0.288E-02
DAV:  15    -0.140782244907E+04   -0.52739E-05   -0.48687E-05  3728   0.166E-02    0.141E-02
DAV:  16    -0.140782250357E+04   -0.54501E-04   -0.32076E-05  4032   0.170E-02    0.726E-03
DAV:  17    -0.140782250196E+04    0.16095E-05   -0.81935E-06  3904   0.745E-03    0.400E-03
DAV:  18    -0.140782249952E+04    0.24412E-05   -0.22279E-06  2816   0.298E-03    0.263E-03
DAV:  19    -0.140782249596E+04    0.35627E-05   -0.29846E-07  2168   0.175E-03    0.155E-03
DAV:  20    -0.140782249453E+04    0.14292E-05   -0.65958E-07  2240   0.169E-03    0.121E-03
DAV:  21    -0.140782249437E+04    0.15429E-06   -0.52860E-07  2168   0.124E-03
   1 F= -.14078225E+04 E0= -.14078225E+04  d E =-.757183E-12
