<?xml version="1.0" encoding="ISO-8859-1"?>
<modeling>
 <generator>
  <i name="program" type="string">vasp </i>
  <i name="version" type="string">5.4.4.18Apr17-6-g9f103f2a35  </i>
  <i name="subversion" type="string">(build Jun 22 2020 09:27:21) complex            parallel </i>
  <i name="platform" type="string">tx2_gcc-7.3_libsci-18.07_cray-fftw-3.3.8 </i>
  <i name="date" type="string">2021 10 11 </i>
  <i name="time" type="string">20:31:34 </i>
 </generator>
 <incar>
  <i type="string" name="SYSTEM"> CsPbBr3 cubic bulk</i>
  <i type="string" name="PREC">accurate</i>
  <i type="string" name="ALGO"> NORMAL   ! Electronic minimisation algo</i>
  <i type="logical" name="ADDGRID"> T  </i>
  <i type="int" name="ISPIN">     1</i>
  <i type="int" name="NELM">   200</i>
  <i type="int" name="IBRION">     2</i>
  <i name="EDIFF">      0.00000100</i>
  <i name="EDIFFG">     -0.01000000</i>
  <i type="int" name="NSW">     0</i>
  <i type="int" name="ISIF">     2</i>
  <i type="int" name="ISYM">     0</i>
  <i name="ENCUT">    300.00000000</i>
  <i name="POTIM">      0.50000000</i>
  <i name="NUPDOWN">      0.00000000</i>
  <i name="NELECT">    344.00000000</i>
  <i type="string" name="LREAL"> AUTO</i>
  <i type="int" name="ISMEAR">     0</i>
  <i name="SIGMA">      0.01000000</i>
  <i type="logical" name="LWAVE"> F  </i>
  <i type="logical" name="LCHARG"> F  </i>
  <i type="logical" name="LVHAR"> T  </i>
  <i type="int" name="LORBIT">    10</i>
  <i type="logical" name="LASPH"> T  </i>
  <v type="int" name="KPOINT_BSE">    -1     0     0     0</v>
  <i type="int" name="NELM">   200</i>
  <i type="string" name="METAGGA"> SCAN       ! PBE exchange-correlation</i>
  <i type="logical" name="LASPH"> T  </i>
 </incar>
 <structure name="primitive_cell" >
  <crystal>
   <varray name="basis" >
    <v>       8.45648900       0.00000000       8.04030100 </v>
    <v>       0.00000000      11.72984700       0.00000000 </v>
    <v>      -8.45648900       0.00000000       8.04030100 </v>
   </varray>
   <i name="volume">   1595.08833419 </i>
   <varray name="rec_basis" >
    <v>       0.05912619      -0.00000000       0.06218673 </v>
    <v>       0.00000000       0.08525260      -0.00000000 </v>
    <v>      -0.05912619       0.00000000       0.06218673 </v>
   </varray>
  </crystal>
  <varray name="positions" >
   <v>       0.26774900       0.24925600       0.19746800 </v>
   <v>       0.05156800       0.46452200       0.25362100 </v>
   <v>       0.05033400       0.03472700       0.25268000 </v>
   <v>      -0.47001600       0.25046600       0.03543600 </v>
   <v>       0.45837900       0.25155600       0.46726000 </v>
   <v>       0.24804000       0.03149400      -0.05069400 </v>
   <v>       0.24774300       0.46957000      -0.05231800 </v>
   <v>       0.45176100      -0.03832300       0.25028500 </v>
   <v>       0.45523900      -0.45887100       0.25117400 </v>
   <v>      -0.02750200       0.24991600      -0.02736700 </v>
   <v>       0.49921800       0.00027000      -0.00006900 </v>
   <v>      -0.49994300      -0.49995300      -0.00002800 </v>
   <v>       0.00074200       0.00045100       0.00033100 </v>
   <v>      -0.00003500       0.49917300      -0.00036300 </v>
   <v>       0.02470900       0.25096100      -0.46119500 </v>
   <v>       0.49138000       0.49591600      -0.49917500 </v>
   <v>       0.49942600       0.00510600       0.49892600 </v>
   <v>       0.25488900      -0.04271300      -0.45198200 </v>
   <v>       0.25301000      -0.45691600      -0.44729100 </v>
   <v>       0.28795300       0.24662600      -0.26799800 </v>
   <v>      -0.20525800       0.24639300       0.22517200 </v>
   <v>       0.00594600      -0.49908200      -0.49961800 </v>
   <v>       0.00052100      -0.00110500      -0.49988700 </v>
   <v>       0.22155900      -0.24693400       0.28104500 </v>
   <v>      -0.25286900       0.03386300       0.44997300 </v>
   <v>       0.02196900      -0.25043300       0.03117800 </v>
   <v>      -0.45185000       0.02995000      -0.24873800 </v>
   <v>      -0.24760900      -0.47231600       0.05460200 </v>
   <v>      -0.24745900      -0.02434200       0.04670000 </v>
   <v>      -0.44680300       0.46713900      -0.25075700 </v>
   <v>      -0.35042200      -0.39241200       0.48714300 </v>
   <v>       0.47262900      -0.24990300      -0.03691200 </v>
   <v>      -0.04939500      -0.03471700      -0.25261600 </v>
   <v>      -0.05250500      -0.46851400      -0.25417800 </v>
   <v>      -0.03465800      -0.25205500       0.45947600 </v>
   <v>       0.20346000      -0.24625800      -0.21921600 </v>
   <v>      -0.28634100      -0.24158000       0.25735100 </v>
   <v>      -0.22551600       0.24235300      -0.27615000 </v>
   <v>      -0.26413800      -0.24953500      -0.19435900 </v>
  </varray>
 </structure>
 <varray name="primitive_index" >
  <v type="int" >        1 </v>
  <v type="int" >       38 </v>
  <v type="int" >       28 </v>
  <v type="int" >       22 </v>
  <v type="int" >       20 </v>
  <v type="int" >       31 </v>
  <v type="int" >       24 </v>
  <v type="int" >       33 </v>
  <v type="int" >       25 </v>
  <v type="int" >       19 </v>
  <v type="int" >       11 </v>
  <v type="int" >       13 </v>
  <v type="int" >        9 </v>
  <v type="int" >       15 </v>
  <v type="int" >       23 </v>
  <v type="int" >       16 </v>
  <v type="int" >       10 </v>
  <v type="int" >       30 </v>
  <v type="int" >       36 </v>
  <v type="int" >        5 </v>
  <v type="int" >        6 </v>
  <v type="int" >       14 </v>
  <v type="int" >       12 </v>
  <v type="int" >        8 </v>
  <v type="int" >       32 </v>
  <v type="int" >       21 </v>
  <v type="int" >       27 </v>
  <v type="int" >       35 </v>
  <v type="int" >       29 </v>
  <v type="int" >       37 </v>
  <v type="int" >       39 </v>
  <v type="int" >       17 </v>
  <v type="int" >       34 </v>
  <v type="int" >       26 </v>
  <v type="int" >       18 </v>
  <v type="int" >        4 </v>
  <v type="int" >        3 </v>
  <v type="int" >        2 </v>
  <v type="int" >        7 </v>
 </varray>
 <kpoints>
  <generation param="Gamma">
   <v type="int" name="divisions">       2        2        2 </v>
   <v name="usershift">      0.00000000       0.00000000       0.00000000 </v>
   <v name="genvec1">      0.50000000       0.00000000       0.00000000 </v>
   <v name="genvec2">      0.00000000       0.50000000       0.00000000 </v>
   <v name="genvec3">      0.00000000       0.00000000       0.50000000 </v>
   <v name="shift">      0.00000000       0.00000000       0.00000000 </v>
  </generation>
  <varray name="kpointlist" >
   <v>       0.00000000       0.00000000       0.00000000 </v>
   <v>       0.50000000       0.00000000       0.00000000 </v>
   <v>       0.00000000       0.50000000       0.00000000 </v>
   <v>       0.50000000       0.50000000       0.00000000 </v>
   <v>       0.00000000       0.00000000       0.50000000 </v>
   <v>       0.50000000       0.00000000       0.50000000 </v>
   <v>       0.00000000       0.50000000       0.50000000 </v>
   <v>       0.50000000       0.50000000       0.50000000 </v>
  </varray>
  <varray name="weights" >
   <v>       0.12500000 </v>
   <v>       0.12500000 </v>
   <v>       0.12500000 </v>
   <v>       0.12500000 </v>
   <v>       0.12500000 </v>
   <v>       0.12500000 </v>
   <v>       0.12500000 </v>
   <v>       0.12500000 </v>
  </varray>
 </kpoints>
 <parameters>
  <separator name="general" >
   <i type="string" name="SYSTEM">CsPbBr3 cubic bulk</i>
   <i type="logical" name="LCOMPAT"> F  </i>
  </separator>
  <separator name="electronic" >
   <i type="string" name="PREC">accura</i>
   <i name="ENMAX">    300.00000000</i>
   <i name="ENAUG">    503.85200000</i>
   <i name="EDIFF">      0.00000100</i>
   <i type="int" name="IALGO">    38</i>
   <i type="int" name="IWAVPR">    10</i>
   <i type="int" name="NBANDS">   208</i>
   <i name="NELECT">    344.00000000</i>
   <i type="int" name="TURBO">     0</i>
   <i type="int" name="IRESTART">     0</i>
   <i type="int" name="NREBOOT">     0</i>
   <i type="int" name="NMIN">     0</i>
   <i name="EREF">      0.00000000</i>
   <separator name="electronic smearing" >
    <i type="int" name="ISMEAR">     0</i>
    <i name="SIGMA">      0.01000000</i>
    <i name="KSPACING">      0.50000000</i>
    <i type="logical" name="KGAMMA"> T  </i>
   </separator>
   <separator name="electronic projectors" >
    <i type="logical" name="LREAL"> T  </i>
    <v name="ROPT">     -0.00025000     -0.00025000     -0.00025000</v>
    <i type="int" name="LMAXPAW">  -100</i>
    <i type="int" name="LMAXMIX">     2</i>
    <i type="logical" name="NLSPLINE"> F  </i>
   </separator>
   <separator name="electronic startup" >
    <i type="int" name="ISTART">     0</i>
    <i type="int" name="ICHARG">     2</i>
    <i type="int" name="INIWAV">     1</i>
   </separator>
   <separator name="electronic spin" >
    <i type="int" name="ISPIN">     1</i>
    <i type="logical" name="LNONCOLLINEAR"> F  </i>
    <v name="MAGMOM">      0.00000000      0.00000000      0.00000000      0.00000000      0.00000000      0.00000000      0.00000000      0.00000000      0.00000000      0.00000000      0.00000000      0.00000000      0.00000000      0.00000000      0.00000000      0.00000000      0.00000000      0.00000000      0.00000000      0.00000000
      0.00000000      0.00000000      0.00000000      0.00000000      0.00000000      0.00000000      0.00000000      0.00000000      0.00000000      0.00000000      0.00000000      0.00000000      0.00000000      0.00000000      0.00000000      0.00000000      0.00000000      0.00000000      0.00000000</v>
    <i name="NUPDOWN">      0.00000000</i>
    <i type="logical" name="LSORBIT"> F  </i>
    <v name="SAXIS">      0.00000000      0.00000000      1.00000000</v>
    <i type="logical" name="LSPIRAL"> F  </i>
    <v name="QSPIRAL">      0.00000000      0.00000000      0.00000000</v>
    <i type="logical" name="LZEROZ"> F  </i>
   </separator>
   <separator name="electronic exchange-correlation" >
    <i type="logical" name="LASPH"> T  </i>
    <i type="logical" name="LMETAGGA"> F  </i>
   </separator>
   <separator name="electronic convergence" >
    <i type="int" name="NELM">   200</i>
    <i type="int" name="NELMDL">    -5</i>
    <i type="int" name="NELMIN">     2</i>
    <i name="ENINI">    300.00000000</i>
    <separator name="electronic convergence detail" >
     <i type="logical" name="LDIAG"> T  </i>
     <i type="logical" name="LSUBROT"> F  </i>
     <i name="WEIMIN">      0.00000000</i>
     <i name="EBREAK">      0.00000000</i>
     <i name="DEPER">      0.30000000</i>
     <i type="int" name="NRMM">     4</i>
     <i name="TIME">      0.40000000</i>
    </separator>
   </separator>
   <separator name="electronic mixer" >
    <i name="AMIX">      0.40000000</i>
    <i name="BMIX">      1.00000000</i>
    <i name="AMIN">      0.10000000</i>
    <i name="AMIX_MAG">      1.60000000</i>
    <i name="BMIX_MAG">      1.00000000</i>
    <separator name="electronic mixer details" >
     <i type="int" name="IMIX">     4</i>
     <i type="logical" name="MIXFIRST"> F  </i>
     <i type="int" name="MAXMIX">   -45</i>
     <i name="WC">    100.00000000</i>
     <i type="int" name="INIMIX">     1</i>
     <i type="int" name="MIXPRE">     1</i>
     <i type="int" name="MREMOVE">     5</i>
    </separator>
   </separator>
   <separator name="electronic dipolcorrection" >
    <i type="logical" name="LDIPOL"> F  </i>
    <i type="logical" name="LMONO"> F  </i>
    <i type="int" name="IDIPOL">     0</i>
    <i name="EPSILON">      1.00000000</i>
    <v name="DIPOL">   -100.00000000   -100.00000000   -100.00000000</v>
    <i name="EFIELD">      0.00000000</i>
   </separator>
  </separator>
  <separator name="grids" >
   <i type="int" name="NGX">    70</i>
   <i type="int" name="NGY">    70</i>
   <i type="int" name="NGZ">    70</i>
   <i type="int" name="NGXF">   140</i>
   <i type="int" name="NGYF">   140</i>
   <i type="int" name="NGZF">   140</i>
   <i type="logical" name="ADDGRID"> T  </i>
  </separator>
  <separator name="ionic" >
   <i type="int" name="NSW">     0</i>
   <i type="int" name="IBRION">    -1</i>
   <i type="int" name="MDALGO">     0</i>
   <i type="int" name="ISIF">     2</i>
   <i name="PSTRESS">      0.00000000</i>
   <i name="EDIFFG">     -0.01000000</i>
   <i type="int" name="NFREE">     1</i>
   <i name="POTIM">      0.50000000</i>
   <i name="SMASS">     -3.00000000</i>
   <i name="SCALEE">      1.00000000</i>
  </separator>
  <separator name="ionic md" >
   <i name="TEBEG">      0.00010000</i>
   <i name="TEEND">      0.00010000</i>
   <i type="int" name="NBLOCK">     1</i>
   <i type="int" name="KBLOCK">     1</i>
   <i type="int" name="NPACO">   256</i>
   <i name="APACO">     16.00000000</i>
  </separator>
  <separator name="symmetry" >
   <i type="int" name="ISYM">     0</i>
   <i name="SYMPREC">      0.00001000</i>
  </separator>
  <separator name="dos" >
   <i type="int" name="LORBIT">    10</i>
   <v name="RWIGS">     -1.00000000     -1.00000000     -1.00000000</v>
   <i type="int" name="NEDOS">   301</i>
   <i name="EMIN">     10.00000000</i>
   <i name="EMAX">    -10.00000000</i>
   <i name="EFERMI">      0.00000000</i>
  </separator>
  <separator name="writing" >
   <i type="int" name="NWRITE">     2</i>
   <i type="logical" name="LWAVE"> F  </i>
   <i type="logical" name="LDOWNSAMPLE"> F  </i>
   <i type="logical" name="LCHARG"> F  </i>
   <i type="logical" name="LPARD"> F  </i>
   <i type="logical" name="LVTOT"> F  </i>
   <i type="logical" name="LVHAR"> T  </i>
   <i type="logical" name="LELF"> F  </i>
   <i type="logical" name="LOPTICS"> F  </i>
   <v name="STM">      0.00000000      0.00000000      0.00000000      0.00000000      0.00000000      0.00000000      0.00000000</v>
  </separator>
  <separator name="performance" >
   <i type="int" name="NPAR">     8</i>
   <i type="int" name="NSIM">     4</i>
   <i type="int" name="NBLK">    -1</i>
   <i type="logical" name="LPLANE"> T  </i>
   <i type="logical" name="LSCALAPACK"> T  </i>
   <i type="logical" name="LSCAAWARE"> F  </i>
   <i type="logical" name="LSCALU"> F  </i>
   <i type="logical" name="LASYNC"> F  </i>
   <i type="logical" name="LORBITALREAL"> F  </i>
  </separator>
  <separator name="miscellaneous" >
   <i type="int" name="IDIOT">     3</i>
   <i type="int" name="ISPECIAL">     0</i>
   <i type="logical" name="LMUSIC"> F  </i>
   <v name="POMASS">    132.90000000    207.20000000     79.90400000</v>
   <v name="DARWINR">      0.00000000      0.00000000      0.00000000</v>
   <v name="DARWINV">      1.00000000      1.00000000      1.00000000</v>
   <i type="logical" name="LCORR"> T  </i>
  </separator>
  <i type="logical" name="GGA_COMPAT"> T  </i>
  <i type="logical" name="LBERRY"> F  </i>
  <i type="int" name="ICORELEVEL">     0</i>
  <i type="logical" name="LDAU"> F  </i>
  <i type="int" name="I_CONSTRAINED_M">     0</i>
  <separator name="electronic exchange-correlation" >
   <i type="string" name="GGA">--</i>
   <i type="int" name="VOSKOWN">     0</i>
   <i type="logical" name="LHFCALC"> F  </i>
   <i type="string" name="PRECFOCK"></i>
   <i type="logical" name="LSYMGRAD"> F  </i>
   <i type="logical" name="LHFONE"> F  </i>
   <i type="logical" name="LRHFCALC"> F  </i>
   <i type="logical" name="LTHOMAS"> F  </i>
   <i type="logical" name="LMODELHF"> F  </i>
   <i name="ENCUT4O">     -1.00000000</i>
   <i type="int" name="EXXOEP">     0</i>
   <i type="int" name="FOURORBIT">     0</i>
   <i name="AEXX">      0.00000000</i>
   <i name="HFALPHA">      0.00000000</i>
   <i name="MCALPHA">      0.00000000</i>
   <i name="ALDAX">      1.00000000</i>
   <i name="AGGAX">      1.00000000</i>
   <i name="ALDAC">      1.00000000</i>
   <i name="AGGAC">      1.00000000</i>
   <i type="int" name="NKREDX">     1</i>
   <i type="int" name="NKREDY">     1</i>
   <i type="int" name="NKREDZ">     1</i>
   <i type="logical" name="SHIFTRED"> F  </i>
   <i type="logical" name="ODDONLY"> F  </i>
   <i type="logical" name="EVENONLY"> F  </i>
   <i type="int" name="LMAXFOCK">     0</i>
   <i type="int" name="NMAXFOCKAE">     0</i>
   <i type="logical" name="LFOCKAEDFT"> F  </i>
   <i name="HFSCREEN">      0.00000000</i>
   <i name="HFSCREENC">      0.00000000</i>
   <i type="int" name="NBANDSGWLOW">     0</i>
  </separator>
  <separator name="vdW DFT" >
   <i type="logical" name="LUSE_VDW"> F  </i>
   <i name="Zab_VDW">     -0.84910000</i>
   <i name="PARAM1">      0.12340000</i>
   <i name="PARAM2">      1.00000000</i>
   <i name="PARAM3">      0.00000000</i>
  </separator>
  <separator name="model GW" >
   <i type="int" name="MODEL_GW">     0</i>
   <i name="MODEL_EPS0">     24.53982053</i>
   <i name="MODEL_ALPHA">      1.00000000</i>
  </separator>
  <separator name="linear response parameters" >
   <i type="logical" name="LEPSILON"> F  </i>
   <i type="logical" name="LRPA"> F  </i>
   <i type="logical" name="LNABLA"> F  </i>
   <i type="logical" name="LVEL"> F  </i>
   <i type="int" name="KINTER">     0</i>
   <i name="CSHIFT">      0.10000000</i>
   <i name="OMEGAMAX">     -1.00000000</i>
   <i name="DEG_THRESHOLD">      0.00200000</i>
   <i name="RTIME">     -0.10000000</i>
   <i name="WPLASMAI">      0.00000000</i>
   <v name="DFIELD">      0.00000000      0.00000000      0.00000000</v>
   <v name="WPLASMA">      0.00000000      0.00000000      0.00000000      0.00000000      0.00000000      0.00000000      0.00000000      0.00000000      0.00000000</v>
  </separator>
  <separator name="orbital magnetization" >
   <i type="logical" name="NUCIND"> F  </i>
   <v name="MAGPOS">      0.00000000      0.00000000      0.00000000</v>
   <i type="logical" name="LNICSALL"> T  </i>
   <i type="logical" name="ORBITALMAG"> F  </i>
   <i type="logical" name="LMAGBLOCH"> F  </i>
   <i type="logical" name="LCHIMAG"> F  </i>
   <i type="logical" name="LGAUGE"> T  </i>
   <i type="int" name="MAGATOM">     0</i>
   <v name="MAGDIPOL">      0.00000000      0.00000000      0.00000000</v>
   <v name="AVECCONST">      0.00000000      0.00000000      0.00000000</v>
  </separator>
  <separator name="response functions" >
   <i type="logical" name="LADDER"> F  </i>
   <i type="logical" name="LRPAFORCE"> F  </i>
   <i type="logical" name="LFXC"> F  </i>
   <i type="logical" name="LHARTREE"> T  </i>
   <i type="int" name="IBSE">     0</i>
   <v type="int" name="KPOINT">    -1     0     0     0</v>
   <i type="logical" name="LTCTE"> F  </i>
   <i type="logical" name="LTETE"> F  </i>
   <i type="logical" name="LTRIPLET"> F  </i>
   <i type="logical" name="LFXCEPS"> F  </i>
   <i type="logical" name="LFXHEG"> F  </i>
   <i type="int" name="NATURALO">     2</i>
   <i type="logical" name="L2ORDER"> F  </i>
   <i type="logical" name="LMP2LT"> F  </i>
   <i type="logical" name="LUSEW"> F  </i>
   <i name="ENCUTGW">     -2.00000000</i>
   <i name="ENCUTGWSOFT">     -2.00000000</i>
   <i name="ENCUTLF">     -1.00000000</i>
   <i type="int" name="LMAXMP2">    -1</i>
   <i name="SCISSOR">      0.00000000</i>
   <i type="int" name="NOMEGA">     0</i>
   <i type="int" name="NOMEGAR">     0</i>
   <i type="int" name="NBANDSGW">    -1</i>
   <i type="int" name="NBANDSO">    -1</i>
   <i type="int" name="NBANDSV">    -1</i>
   <i type="int" name="NELM">   200</i>
   <i type="int" name="NELMHF">     1</i>
   <i type="int" name="DIM">     3</i>
   <i type="int" name="ANTIRES">     0</i>
   <i name="OMEGAMAX">    -30.00000000</i>
   <i name="OMEGAMIN">    -30.00000000</i>
   <i name="OMEGATL">   -200.00000000</i>
   <i type="int" name="OMEGAGRID">   140</i>
   <i name="CSHIFT">     -0.10000000</i>
   <i type="logical" name="SELFENERGY"> F  </i>
   <i type="logical" name="LSPECTRAL"> F  </i>
   <i type="logical" name="LSPECTRALGW"> F  </i>
   <i type="logical" name="LSINGLES"> F  </i>
   <i type="logical" name="LFERMIGW"> F  </i>
   <i type="logical" name="ODDONLYGW"> F  </i>
   <i type="logical" name="EVENONLYGW"> F  </i>
   <i type="int" name="NKREDLFX">     1</i>
   <i type="int" name="NKREDLFY">     1</i>
   <i type="int" name="NKREDLFZ">     1</i>
   <i type="int" name="MAXMEM">  2800</i>
   <i type="int" name="TELESCOPE">     0</i>
   <i type="int" name="TAUPAR">     1</i>
   <i type="int" name="OMEGAPAR">    -1</i>
   <i name="LAMBDA">      1.00000000</i>
  </separator>
  <separator name="External order field" >
   <i name="OFIELD_KAPPA">      0.00000000</i>
   <v name="OFIELD_K">      0.00000000      0.00000000      0.00000000</v>
   <i name="OFIELD_Q6_NEAR">      0.00000000</i>
   <i name="OFIELD_Q6_FAR">      0.00000000</i>
   <i name="OFIELD_A">      0.00000000</i>
  </separator>
 </parameters>
 <atominfo>
  <atoms>      39 </atoms>
  <types>       3 </types>
  <array name="atoms" >
   <dimension dim="1">ion</dimension>
   <field type="string">element</field>
   <field type="int">atomtype</field>
   <set>
    <rc><c>Cs</c><c>   1</c></rc>
    <rc><c>Cs</c><c>   1</c></rc>
    <rc><c>Cs</c><c>   1</c></rc>
    <rc><c>Cs</c><c>   1</c></rc>
    <rc><c>Cs</c><c>   1</c></rc>
    <rc><c>Cs</c><c>   1</c></rc>
    <rc><c>Cs</c><c>   1</c></rc>
    <rc><c>Cs</c><c>   1</c></rc>
    <rc><c>Pb</c><c>   2</c></rc>
    <rc><c>Pb</c><c>   2</c></rc>
    <rc><c>Pb</c><c>   2</c></rc>
    <rc><c>Pb</c><c>   2</c></rc>
    <rc><c>Pb</c><c>   2</c></rc>
    <rc><c>Pb</c><c>   2</c></rc>
    <rc><c>Pb</c><c>   2</c></rc>
    <rc><c>Pb</c><c>   2</c></rc>
    <rc><c>Br</c><c>   3</c></rc>
    <rc><c>Br</c><c>   3</c></rc>
    <rc><c>Br</c><c>   3</c></rc>
    <rc><c>Br</c><c>   3</c></rc>
    <rc><c>Br</c><c>   3</c></rc>
    <rc><c>Br</c><c>   3</c></rc>
    <rc><c>Br</c><c>   3</c></rc>
    <rc><c>Br</c><c>   3</c></rc>
    <rc><c>Br</c><c>   3</c></rc>
    <rc><c>Br</c><c>   3</c></rc>
    <rc><c>Br</c><c>   3</c></rc>
    <rc><c>Br</c><c>   3</c></rc>
    <rc><c>Br</c><c>   3</c></rc>
    <rc><c>Br</c><c>   3</c></rc>
    <rc><c>Br</c><c>   3</c></rc>
    <rc><c>Br</c><c>   3</c></rc>
    <rc><c>Br</c><c>   3</c></rc>
    <rc><c>Br</c><c>   3</c></rc>
    <rc><c>Br</c><c>   3</c></rc>
    <rc><c>Br</c><c>   3</c></rc>
    <rc><c>Br</c><c>   3</c></rc>
    <rc><c>Br</c><c>   3</c></rc>
    <rc><c>Br</c><c>   3</c></rc>
   </set>
  </array>
  <array name="atomtypes" >
   <dimension dim="1">type</dimension>
   <field type="int">atomspertype</field>
   <field type="string">element</field>
   <field>mass</field>
   <field>valence</field>
   <field type="string">pseudopotential</field>
   <set>
    <rc><c>   8</c><c>Cs</c><c>    132.90000000</c><c>      9.00000000</c><c>  PAW_PBE Cs_sv 08Apr2002               </c></rc>
    <rc><c>   8</c><c>Pb</c><c>    207.20000000</c><c>     14.00000000</c><c>  PAW_PBE Pb_d 06Sep2000                </c></rc>
    <rc><c>  23</c><c>Br</c><c>     79.90400000</c><c>      7.00000000</c><c>  PAW_PBE Br 06Sep2000                  </c></rc>
   </set>
  </array>
 </atominfo>
 <structure name="initialpos" >
  <crystal>
   <varray name="basis" >
    <v>       8.45648900       0.00000000       8.04030100 </v>
    <v>       0.00000000      11.72984700       0.00000000 </v>
    <v>      -8.45648900       0.00000000       8.04030100 </v>
   </varray>
   <i name="volume">   1595.08833419 </i>
   <varray name="rec_basis" >
    <v>       0.05912619      -0.00000000       0.06218673 </v>
    <v>       0.00000000       0.08525260      -0.00000000 </v>
    <v>      -0.05912619       0.00000000       0.06218673 </v>
   </varray>
  </crystal>
  <varray name="positions" >
   <v>       0.26774900       0.24925600       0.19746800 </v>
   <v>       0.77448400       0.24235300       0.72385000 </v>
   <v>       0.71365900       0.75842000       0.25735100 </v>
   <v>       0.20346000       0.75374200       0.78078400 </v>
   <v>       0.28795300       0.24662600       0.73200200 </v>
   <v>       0.79474200       0.24639300       0.22517200 </v>
   <v>       0.73586200       0.75046500       0.80564100 </v>
   <v>       0.22155900       0.75306600       0.28104500 </v>
   <v>       0.00074200       0.00045100       0.00033100 </v>
   <v>       0.49942600       0.00510600       0.49892600 </v>
   <v>       0.49921800       0.00027000       0.99993100 </v>
   <v>       0.00052100       0.99889500       0.50011300 </v>
   <v>       0.50005700       0.50004700       0.99997200 </v>
   <v>       0.00594600       0.50091800       0.50038200 </v>
   <v>       0.99996500       0.49917300       0.99963700 </v>
   <v>       0.49138000       0.49591600       0.50082500 </v>
   <v>       0.47262900       0.75009700       0.96308800 </v>
   <v>       0.96534200       0.74794500       0.45947600 </v>
   <v>       0.97249800       0.24991600       0.97263300 </v>
   <v>       0.45837900       0.25155600       0.46726000 </v>
   <v>       0.02196900       0.74956700       0.03117800 </v>
   <v>       0.52998400       0.25046600       0.03543600 </v>
   <v>       0.02470900       0.25096100       0.53880500 </v>
   <v>       0.24774300       0.46957000       0.94768200 </v>
   <v>       0.45523900       0.54112900       0.25117400 </v>
   <v>       0.94749500       0.53148600       0.74582200 </v>
   <v>       0.54815000       0.02995000       0.75126200 </v>
   <v>       0.05033400       0.03472700       0.25268000 </v>
   <v>       0.75254100       0.97565800       0.04670000 </v>
   <v>       0.25488900       0.95728700       0.54801800 </v>
   <v>       0.24804000       0.03149400       0.94930600 </v>
   <v>       0.74713100       0.03386300       0.44997300 </v>
   <v>       0.45176100       0.96167700       0.25028500 </v>
   <v>       0.95060500       0.96528300       0.74738400 </v>
   <v>       0.75239100       0.52768400       0.05460200 </v>
   <v>       0.25301000       0.54308400       0.55270900 </v>
   <v>       0.55319700       0.46713900       0.74924300 </v>
   <v>       0.05156800       0.46452200       0.25362100 </v>
   <v>       0.64957800       0.60758800       0.48714300 </v>
  </varray>
 </structure>
 <calculation>
  <scstep>
   <time name="dav">   16.55   16.55</time>
   <time name="total">   18.01   18.02</time>
   <energy>
    <i name="alphaZ">    872.70583573 </i>
    <i name="ewald"> -17881.87803004 </i>
    <i name="hartreedc">  -7468.44984019 </i>
    <i name="XCdc">    908.70652719 </i>
    <i name="pawpsdc">  21345.28103884 </i>
    <i name="pawaedc"> -22405.85761495 </i>
    <i name="eentropy">     -0.00047984 </i>
    <i name="bandstr">   -243.61734777 </i>
    <i name="atom">  26212.11861568 </i>
    <i name="e_fr_energy">   1339.00870466 </i>
    <i name="e_wo_entrp">   1339.00918451 </i>
    <i name="e_0_energy">   1339.00894459 </i>
   </energy>
  </scstep>
  <scstep>
   <time name="dav">   18.34   18.40</time>
   <time name="total">   18.34   18.40</time>
   <energy>
    <i name="e_fr_energy">  -1112.07039970 </i>
    <i name="e_wo_entrp">  -1112.07039970 </i>
    <i name="e_0_energy">  -1112.07039970 </i>
   </energy>
  </scstep>
  <scstep>
   <time name="dav">   19.34   19.37</time>
   <time name="total">   19.34   19.37</time>
   <energy>
    <i name="e_fr_energy">  -1473.47642744 </i>
    <i name="e_wo_entrp">  -1473.47642744 </i>
    <i name="e_0_energy">  -1473.47642744 </i>
   </energy>
  </scstep>
  <scstep>
   <time name="dav">   17.84   17.89</time>
   <time name="total">   17.84   17.89</time>
   <energy>
    <i name="e_fr_energy">  -1485.26006616 </i>
    <i name="e_wo_entrp">  -1485.26006616 </i>
    <i name="e_0_energy">  -1485.26006616 </i>
   </energy>
  </scstep>
  <scstep>
   <time name="dav">   19.43   19.47</time>
   <time name="total">   22.12   22.16</time>
   <energy>
    <i name="e_fr_energy">  -1485.80734088 </i>
    <i name="e_wo_entrp">  -1485.80734088 </i>
    <i name="e_0_energy">  -1485.80734088 </i>
   </energy>
  </scstep>
  <scstep>
   <time name="dav">   19.01   19.01</time>
   <time name="total">   23.14   23.18</time>
   <energy>
    <i name="e_fr_energy">  -1408.10859519 </i>
    <i name="e_wo_entrp">  -1408.10859519 </i>
    <i name="e_0_energy">  -1408.10859519 </i>
   </energy>
  </scstep>
  <scstep>
   <time name="dav">   18.76   18.77</time>
   <time name="total">   22.93   22.95</time>
   <energy>
    <i name="e_fr_energy">  -1407.59345578 </i>
    <i name="e_wo_entrp">  -1407.59345578 </i>
    <i name="e_0_energy">  -1407.59345578 </i>
   </energy>
  </scstep>
  <scstep>
   <time name="dav">   18.29   18.29</time>
   <time name="total">   22.41   22.45</time>
   <energy>
    <i name="e_fr_energy">  -1407.75752822 </i>
    <i name="e_wo_entrp">  -1407.75752822 </i>
    <i name="e_0_energy">  -1407.75752822 </i>
   </energy>
  </scstep>
  <scstep>
   <time name="dav">   17.96   17.96</time>
   <time name="total">   22.12   22.14</time>
   <energy>
    <i name="e_fr_energy">  -1407.81454147 </i>
    <i name="e_wo_entrp">  -1407.81454147 </i>
    <i name="e_0_energy">  -1407.81454147 </i>
   </energy>
  </scstep>
  <scstep>
   <time name="dav">   20.18   20.18</time>
   <time name="total">   24.34   24.37</time>
   <energy>
    <i name="e_fr_energy">  -1407.81760855 </i>
    <i name="e_wo_entrp">  -1407.81760855 </i>
    <i name="e_0_energy">  -1407.81760855 </i>
   </energy>
  </scstep>
  <scstep>
   <time name="dav">   18.09   18.09</time>
   <time name="total">   22.23   22.28</time>
   <energy>
    <i name="e_fr_energy">  -1407.82053151 </i>
    <i name="e_wo_entrp">  -1407.82053151 </i>
    <i name="e_0_energy">  -1407.82053151 </i>
   </energy>
  </scstep>
  <scstep>
   <time name="dav">   17.32   17.32</time>
   <time name="total">   21.47   21.51</time>
   <energy>
    <i name="e_fr_energy">  -1407.82282357 </i>
    <i name="e_wo_entrp">  -1407.82282357 </i>
    <i name="e_0_energy">  -1407.82282357 </i>
   </energy>
  </scstep>
  <scstep>
   <time name="dav">   19.72   19.72</time>
   <time name="total">   23.87   23.91</time>
   <energy>
    <i name="e_fr_energy">  -1407.82241718 </i>
    <i name="e_wo_entrp">  -1407.82241718 </i>
    <i name="e_0_energy">  -1407.82241718 </i>
   </energy>
  </scstep>
  <scstep>
   <time name="dav">   17.59   17.59</time>
   <time name="total">   21.74   21.77</time>
   <energy>
    <i name="e_fr_energy">  -1407.82244379 </i>
    <i name="e_wo_entrp">  -1407.82244379 </i>
    <i name="e_0_energy">  -1407.82244379 </i>
   </energy>
  </scstep>
  <scstep>
   <time name="dav">   17.29   17.29</time>
   <time name="total">   21.44   21.48</time>
   <energy>
    <i name="e_fr_energy">  -1407.82244907 </i>
    <i name="e_wo_entrp">  -1407.82244907 </i>
    <i name="e_0_energy">  -1407.82244907 </i>
   </energy>
  </scstep>
  <scstep>
   <time name="dav">   18.20   18.20</time>
   <time name="total">   22.38   22.38</time>
   <energy>
    <i name="e_fr_energy">  -1407.82250357 </i>
    <i name="e_wo_entrp">  -1407.82250357 </i>
    <i name="e_0_energy">  -1407.82250357 </i>
   </energy>
  </scstep>
  <scstep>
   <time name="dav">   17.87   17.87</time>
   <time name="total">   22.02   22.06</time>
   <energy>
    <i name="e_fr_energy">  -1407.82250196 </i>
    <i name="e_wo_entrp">  -1407.82250196 </i>
    <i name="e_0_energy">  -1407.82250196 </i>
   </energy>
  </scstep>
  <scstep>
   <time name="dav">   14.76   14.76</time>
   <time name="total">   18.93   18.94</time>
   <energy>
    <i name="e_fr_energy">  -1407.82249952 </i>
    <i name="e_wo_entrp">  -1407.82249952 </i>
    <i name="e_0_energy">  -1407.82249952 </i>
   </energy>
  </scstep>
  <scstep>
   <time name="dav">   12.93   12.93</time>
   <time name="total">   17.07   17.11</time>
   <energy>
    <i name="e_fr_energy">  -1407.82249596 </i>
    <i name="e_wo_entrp">  -1407.82249596 </i>
    <i name="e_0_energy">  -1407.82249596 </i>
   </energy>
  </scstep>
  <scstep>
   <time name="dav">   13.13   13.13</time>
   <time name="total">   17.32   17.32</time>
   <energy>
    <i name="e_fr_energy">  -1407.82249453 </i>
    <i name="e_wo_entrp">  -1407.82249453 </i>
    <i name="e_0_energy">  -1407.82249453 </i>
   </energy>
  </scstep>
  <scstep>
   <time name="dav">   12.91   12.91</time>
   <time name="total">   14.37   14.42</time>
   <energy>
    <i name="alphaZ">    872.70583573 </i>
    <i name="ewald"> -17881.87803004 </i>
    <i name="hartreedc">  -7506.40232205 </i>
    <i name="XCdc">    944.46695360 </i>
    <i name="pawpsdc">  22954.78785978 </i>
    <i name="pawaedc"> -24015.12119084 </i>
    <i name="eentropy">     -0.00000000 </i>
    <i name="bandstr">  -2988.50021624 </i>
    <i name="atom">  26212.11861568 </i>
    <i name="e_fr_energy">  -1407.82249437 </i>
    <i name="e_wo_entrp">  -1407.82249437 </i>
    <i name="e_0_energy">  -1407.82249437 </i>
   </energy>
  </scstep>
  <structure>
   <crystal>
    <varray name="basis" >
     <v>       8.45648900       0.00000000       8.04030100 </v>
     <v>       0.00000000      11.72984700       0.00000000 </v>
     <v>      -8.45648900       0.00000000       8.04030100 </v>
    </varray>
    <i name="volume">   1595.08833419 </i>
    <varray name="rec_basis" >
     <v>       0.05912619      -0.00000000       0.06218673 </v>
     <v>       0.00000000       0.08525260      -0.00000000 </v>
     <v>      -0.05912619       0.00000000       0.06218673 </v>
    </varray>
   </crystal>
   <varray name="positions" >
    <v>       0.26774900       0.24925600       0.19746800 </v>
    <v>       0.77448400       0.24235300       0.72385000 </v>
    <v>       0.71365900       0.75842000       0.25735100 </v>
    <v>       0.20346000       0.75374200       0.78078400 </v>
    <v>       0.28795300       0.24662600       0.73200200 </v>
    <v>       0.79474200       0.24639300       0.22517200 </v>
    <v>       0.73586200       0.75046500       0.80564100 </v>
    <v>       0.22155900       0.75306600       0.28104500 </v>
    <v>       0.00074200       0.00045100       0.00033100 </v>
    <v>       0.49942600       0.00510600       0.49892600 </v>
    <v>       0.49921800       0.00027000       0.99993100 </v>
    <v>       0.00052100       0.99889500       0.50011300 </v>
    <v>       0.50005700       0.50004700       0.99997200 </v>
    <v>       0.00594600       0.50091800       0.50038200 </v>
    <v>       0.99996500       0.49917300       0.99963700 </v>
    <v>       0.49138000       0.49591600       0.50082500 </v>
    <v>       0.47262900       0.75009700       0.96308800 </v>
    <v>       0.96534200       0.74794500       0.45947600 </v>
    <v>       0.97249800       0.24991600       0.97263300 </v>
    <v>       0.45837900       0.25155600       0.46726000 </v>
    <v>       0.02196900       0.74956700       0.03117800 </v>
    <v>       0.52998400       0.25046600       0.03543600 </v>
    <v>       0.02470900       0.25096100       0.53880500 </v>
    <v>       0.24774300       0.46957000       0.94768200 </v>
    <v>       0.45523900       0.54112900       0.25117400 </v>
    <v>       0.94749500       0.53148600       0.74582200 </v>
    <v>       0.54815000       0.02995000       0.75126200 </v>
    <v>       0.05033400       0.03472700       0.25268000 </v>
    <v>       0.75254100       0.97565800       0.04670000 </v>
    <v>       0.25488900       0.95728700       0.54801800 </v>
    <v>       0.24804000       0.03149400       0.94930600 </v>
    <v>       0.74713100       0.03386300       0.44997300 </v>
    <v>       0.45176100       0.96167700       0.25028500 </v>
    <v>       0.95060500       0.96528300       0.74738400 </v>
    <v>       0.75239100       0.52768400       0.05460200 </v>
    <v>       0.25301000       0.54308400       0.55270900 </v>
    <v>       0.55319700       0.46713900       0.74924300 </v>
    <v>       0.05156800       0.46452200       0.25362100 </v>
    <v>       0.64957800       0.60758800       0.48714300 </v>
   </varray>
  </structure>
  <varray name="forces" >
   <v>       0.00523520       0.02351864       0.04111488 </v>
   <v>      -0.05700131      -0.00967071       0.01800152 </v>
   <v>       0.32911692       0.23100387      -0.21026992 </v>
   <v>      -0.00905961      -0.03120601      -0.01954065 </v>
   <v>       0.02949881       0.05144001      -0.00036699 </v>
   <v>       0.02211183      -0.01365343      -0.03151622 </v>
   <v>       0.01554336      -0.04874327      -0.01245271 </v>
   <v>       0.00130502      -0.04265512      -0.02296619 </v>
   <v>       0.00137443      -0.00655121       0.00666737 </v>
   <v>      -0.00227576       0.41569464      -0.14332957 </v>
   <v>      -0.01043724       0.01074746       0.00401087 </v>
   <v>       0.01450692      -0.04472329       0.00575451 </v>
   <v>      -0.02900371      -0.00380169      -0.01413510 </v>
   <v>       0.22936941       0.20110676       0.40106958 </v>
   <v>       0.02614692       0.00597417       0.01168357 </v>
   <v>      -4.10567217      -3.74510664      -3.36307995 </v>
   <v>       0.01248092       0.03754108      -0.00911170 </v>
   <v>       0.01976147       0.01220665       0.00761995 </v>
   <v>      -0.01231523      -0.00758115      -0.00221820 </v>
   <v>       0.12354741      -1.11551811       0.12288278 </v>
   <v>      -0.00519942       0.00695327      -0.00653282 </v>
   <v>      -0.00150569      -0.03427291       0.02010252 </v>
   <v>      -0.01798000       0.01221048      -0.02246514 </v>
   <v>      -0.02622407       0.00310236      -0.02292287 </v>
   <v>       0.15128687      -0.03632201      -0.35405068 </v>
   <v>      -0.00433356      -0.01147967      -0.03412643 </v>
   <v>       0.03028429      -0.00753414      -0.00800608 </v>
   <v>      -0.01643671       0.01156017       0.00329715 </v>
   <v>       0.02034372       0.02595872      -0.00485698 </v>
   <v>       0.00482031      -0.00266236       0.00685137 </v>
   <v>      -0.00542537      -0.01528740       0.00271089 </v>
   <v>      -0.00920184       0.02769268      -0.00263145 </v>
   <v>      -0.01208516      -0.01791881       0.01752339 </v>
   <v>       0.00133857      -0.00257075      -0.01315524 </v>
   <v>       0.01962782      -0.00766956       0.03684342 </v>
   <v>      -0.84366846       0.14767261      -0.76865644 </v>
   <v>      -0.19026299      -0.05051339       0.20043878 </v>
   <v>      -0.03454064      -0.00074277      -0.00348151 </v>
   <v>       4.33492873       4.03180083       4.16330031 </v>
  </varray>
  <varray name="stress" >
   <v>       1.50353760       6.44703468       4.71486868 </v>
   <v>       6.44708555       0.91725910       4.11383820 </v>
   <v>       4.71495750       4.11392612      -1.04423361 </v>
  </varray>
  <energy>
   <i name="e_fr_energy">  -1407.82249437 </i>
   <i name="e_wo_entrp">  -1407.82249437 </i>
   <i name="e_0_energy">     -0.00000000 </i>
  </energy>
  <time name="totalsc">  488.20  488.92</time>
  <eigenvalues>
   <array>
    <dimension dim="1">band</dimension>
    <dimension dim="2">kpoint</dimension>
    <dimension dim="3">spin</dimension>
    <field>eigene</field>
    <field>occ</field>
    <set>
     <set comment="spin 1">
      <set comment="kpoint 1">
       <r>  -20.9391    1.0000 </r>
       <r>  -20.8381    1.0000 </r>
       <r>  -20.8126    1.0000 </r>
       <r>  -20.7543    1.0000 </r>
       <r>  -20.7443    1.0000 </r>
       <r>  -20.7208    1.0000 </r>
       <r>  -20.6935    1.0000 </r>
       <r>  -20.6831    1.0000 </r>
       <r>  -17.3658    1.0000 </r>
       <r>  -16.6834    1.0000 </r>
       <r>  -16.6739    1.0000 </r>
       <r>  -16.6705    1.0000 </r>
       <r>  -16.6674    1.0000 </r>
       <r>  -16.5941    1.0000 </r>
       <r>  -16.5899    1.0000 </r>
       <r>  -16.5875    1.0000 </r>
       <r>  -16.5791    1.0000 </r>
       <r>  -16.5520    1.0000 </r>
       <r>  -16.5450    1.0000 </r>
       <r>  -16.4675    1.0000 </r>
       <r>  -16.4592    1.0000 </r>
       <r>  -16.4458    1.0000 </r>
       <r>  -16.4181    1.0000 </r>
       <r>  -16.4085    1.0000 </r>
       <r>  -16.3982    1.0000 </r>
       <r>  -16.3653    1.0000 </r>
       <r>  -16.3587    1.0000 </r>
       <r>  -16.3580    1.0000 </r>
       <r>  -16.3498    1.0000 </r>
       <r>  -16.3445    1.0000 </r>
       <r>  -16.3343    1.0000 </r>
       <r>  -16.3244    1.0000 </r>
       <r>  -16.3114    1.0000 </r>
       <r>  -16.2916    1.0000 </r>
       <r>  -16.2892    1.0000 </r>
       <r>  -16.2860    1.0000 </r>
       <r>  -16.2816    1.0000 </r>
       <r>  -16.2770    1.0000 </r>
       <r>  -16.2755    1.0000 </r>
       <r>  -16.2711    1.0000 </r>
       <r>  -16.2703    1.0000 </r>
       <r>  -16.2682    1.0000 </r>
       <r>  -16.2584    1.0000 </r>
       <r>  -16.2101    1.0000 </r>
       <r>  -16.2082    1.0000 </r>
       <r>  -16.2075    1.0000 </r>
       <r>  -16.1974    1.0000 </r>
       <r>  -16.1632    1.0000 </r>
       <r>  -14.6768    1.0000 </r>
       <r>  -14.3724    1.0000 </r>
       <r>  -14.2715    1.0000 </r>
       <r>  -14.2271    1.0000 </r>
       <r>  -14.1502    1.0000 </r>
       <r>  -14.0975    1.0000 </r>
       <r>  -14.0882    1.0000 </r>
       <r>  -14.0808    1.0000 </r>
       <r>  -14.0691    1.0000 </r>
       <r>  -14.0603    1.0000 </r>
       <r>  -14.0434    1.0000 </r>
       <r>  -14.0382    1.0000 </r>
       <r>  -14.0123    1.0000 </r>
       <r>  -14.0006    1.0000 </r>
       <r>  -13.9911    1.0000 </r>
       <r>  -13.9598    1.0000 </r>
       <r>  -13.9171    1.0000 </r>
       <r>  -13.9015    1.0000 </r>
       <r>  -13.8514    1.0000 </r>
       <r>  -13.7798    1.0000 </r>
       <r>  -13.7603    1.0000 </r>
       <r>  -13.7111    1.0000 </r>
       <r>  -13.6265    1.0000 </r>
       <r>   -8.2011    1.0000 </r>
       <r>   -7.8273    1.0000 </r>
       <r>   -7.7718    1.0000 </r>
       <r>   -7.7057    1.0000 </r>
       <r>   -7.4220    1.0000 </r>
       <r>   -7.3640    1.0000 </r>
       <r>   -7.3223    1.0000 </r>
       <r>   -7.3075    1.0000 </r>
       <r>   -7.2770    1.0000 </r>
       <r>   -7.2589    1.0000 </r>
       <r>   -7.2368    1.0000 </r>
       <r>   -7.2169    1.0000 </r>
       <r>   -7.2112    1.0000 </r>
       <r>   -7.1914    1.0000 </r>
       <r>   -7.1895    1.0000 </r>
       <r>   -7.1726    1.0000 </r>
       <r>   -7.1655    1.0000 </r>
       <r>   -7.1564    1.0000 </r>
       <r>   -7.1553    1.0000 </r>
       <r>   -7.1401    1.0000 </r>
       <r>   -7.1332    1.0000 </r>
       <r>   -7.1261    1.0000 </r>
       <r>   -7.1138    1.0000 </r>
       <r>   -7.1103    1.0000 </r>
       <r>   -7.1033    1.0000 </r>
       <r>   -7.0974    1.0000 </r>
       <r>   -7.0918    1.0000 </r>
       <r>   -7.0784    1.0000 </r>
       <r>   -7.0659    1.0000 </r>
       <r>   -7.0636    1.0000 </r>
       <r>   -7.0417    1.0000 </r>
       <r>   -6.5902    1.0000 </r>
       <r>   -3.4217    1.0000 </r>
       <r>   -3.3703    1.0000 </r>
       <r>   -3.3446    1.0000 </r>
       <r>   -3.2761    1.0000 </r>
       <r>   -3.2557    1.0000 </r>
       <r>   -3.2415    1.0000 </r>
       <r>   -3.2040    1.0000 </r>
       <r>   -3.1761    1.0000 </r>
       <r>   -3.1591    1.0000 </r>
       <r>   -3.0750    1.0000 </r>
       <r>   -3.0557    1.0000 </r>
       <r>   -2.9719    1.0000 </r>
       <r>   -2.4807    1.0000 </r>
       <r>   -2.2678    1.0000 </r>
       <r>   -2.1312    1.0000 </r>
       <r>   -2.1103    1.0000 </r>
       <r>   -2.0738    1.0000 </r>
       <r>   -1.9937    1.0000 </r>
       <r>   -1.9580    1.0000 </r>
       <r>   -1.9051    1.0000 </r>
       <r>   -1.8668    1.0000 </r>
       <r>   -1.8540    1.0000 </r>
       <r>   -1.7955    1.0000 </r>
       <r>   -1.7514    1.0000 </r>
       <r>   -1.7119    1.0000 </r>
       <r>   -1.6612    1.0000 </r>
       <r>   -1.6531    1.0000 </r>
       <r>   -1.6258    1.0000 </r>
       <r>   -1.5810    1.0000 </r>
       <r>   -1.5400    1.0000 </r>
       <r>   -1.5143    1.0000 </r>
       <r>   -1.5054    1.0000 </r>
       <r>   -1.5029    1.0000 </r>
       <r>   -1.4802    1.0000 </r>
       <r>   -1.4621    1.0000 </r>
       <r>   -1.4509    1.0000 </r>
       <r>   -1.4389    1.0000 </r>
       <r>   -1.4270    1.0000 </r>
       <r>   -1.4154    1.0000 </r>
       <r>   -1.4012    1.0000 </r>
       <r>   -1.3767    1.0000 </r>
       <r>   -1.3672    1.0000 </r>
       <r>   -1.3620    1.0000 </r>
       <r>   -1.3494    1.0000 </r>
       <r>   -1.3303    1.0000 </r>
       <r>   -1.3105    1.0000 </r>
       <r>   -1.3063    1.0000 </r>
       <r>   -1.3051    1.0000 </r>
       <r>   -1.2971    1.0000 </r>
       <r>   -1.2721    1.0000 </r>
       <r>   -1.2658    1.0000 </r>
       <r>   -1.2117    1.0000 </r>
       <r>   -1.1818    1.0000 </r>
       <r>   -1.1766    1.0000 </r>
       <r>   -1.1500    1.0000 </r>
       <r>   -1.1453    1.0000 </r>
       <r>   -1.0932    1.0000 </r>
       <r>   -1.0480    1.0000 </r>
       <r>   -1.0157    1.0000 </r>
       <r>   -0.9808    1.0000 </r>
       <r>   -0.9387    1.0000 </r>
       <r>   -0.8700    1.0000 </r>
       <r>   -0.7956    1.0000 </r>
       <r>   -0.7489    1.0000 </r>
       <r>   -0.5287    1.0000 </r>
       <r>   -0.2328    1.0000 </r>
       <r>   -0.1935    1.0000 </r>
       <r>    0.0675    1.0000 </r>
       <r>    0.4518    1.0000 </r>
       <r>    2.6662    0.0000 </r>
       <r>    2.7355    0.0000 </r>
       <r>    2.8375    0.0000 </r>
       <r>    2.9447    0.0000 </r>
       <r>    3.0692    0.0000 </r>
       <r>    3.1051    0.0000 </r>
       <r>    3.1649    0.0000 </r>
       <r>    3.2193    0.0000 </r>
       <r>    3.3278    0.0000 </r>
       <r>    3.4617    0.0000 </r>
       <r>    3.5453    0.0000 </r>
       <r>    3.5673    0.0000 </r>
       <r>    4.2506    0.0000 </r>
       <r>    4.7955    0.0000 </r>
       <r>    5.4793    0.0000 </r>
       <r>    5.5935    0.0000 </r>
       <r>    5.7358    0.0000 </r>
       <r>    5.7578    0.0000 </r>
       <r>    5.8280    0.0000 </r>
       <r>    5.8935    0.0000 </r>
       <r>    5.9159    0.0000 </r>
       <r>    5.9790    0.0000 </r>
       <r>    6.0179    0.0000 </r>
       <r>    6.0835    0.0000 </r>
       <r>    6.1429    0.0000 </r>
       <r>    6.1658    0.0000 </r>
       <r>    6.1962    0.0000 </r>
       <r>    6.2357    0.0000 </r>
       <r>    6.3007    0.0000 </r>
       <r>    6.3655    0.0000 </r>
       <r>    6.3860    0.0000 </r>
       <r>    6.4835    0.0000 </r>
       <r>    6.5239    0.0000 </r>
       <r>    6.5592    0.0000 </r>
       <r>    6.6280    0.0000 </r>
       <r>    6.6477    0.0000 </r>
      </set>
      <set comment="kpoint 2">
       <r>  -20.9391    1.0000 </r>
       <r>  -20.8381    1.0000 </r>
       <r>  -20.8126    1.0000 </r>
       <r>  -20.7543    1.0000 </r>
       <r>  -20.7443    1.0000 </r>
       <r>  -20.7208    1.0000 </r>
       <r>  -20.6935    1.0000 </r>
       <r>  -20.6831    1.0000 </r>
       <r>  -17.3658    1.0000 </r>
       <r>  -16.6832    1.0000 </r>
       <r>  -16.6738    1.0000 </r>
       <r>  -16.6698    1.0000 </r>
       <r>  -16.6650    1.0000 </r>
       <r>  -16.5942    1.0000 </r>
       <r>  -16.5899    1.0000 </r>
       <r>  -16.5876    1.0000 </r>
       <r>  -16.5791    1.0000 </r>
       <r>  -16.5520    1.0000 </r>
       <r>  -16.5451    1.0000 </r>
       <r>  -16.4677    1.0000 </r>
       <r>  -16.4624    1.0000 </r>
       <r>  -16.4407    1.0000 </r>
       <r>  -16.4119    1.0000 </r>
       <r>  -16.3983    1.0000 </r>
       <r>  -16.3922    1.0000 </r>
       <r>  -16.3778    1.0000 </r>
       <r>  -16.3641    1.0000 </r>
       <r>  -16.3582    1.0000 </r>
       <r>  -16.3498    1.0000 </r>
       <r>  -16.3445    1.0000 </r>
       <r>  -16.3345    1.0000 </r>
       <r>  -16.3260    1.0000 </r>
       <r>  -16.3202    1.0000 </r>
       <r>  -16.2917    1.0000 </r>
       <r>  -16.2893    1.0000 </r>
       <r>  -16.2860    1.0000 </r>
       <r>  -16.2816    1.0000 </r>
       <r>  -16.2781    1.0000 </r>
       <r>  -16.2755    1.0000 </r>
       <r>  -16.2710    1.0000 </r>
       <r>  -16.2704    1.0000 </r>
       <r>  -16.2683    1.0000 </r>
       <r>  -16.2584    1.0000 </r>
       <r>  -16.2102    1.0000 </r>
       <r>  -16.2083    1.0000 </r>
       <r>  -16.2075    1.0000 </r>
       <r>  -16.1974    1.0000 </r>
       <r>  -16.1632    1.0000 </r>
       <r>  -14.6757    1.0000 </r>
       <r>  -14.3454    1.0000 </r>
       <r>  -14.3190    1.0000 </r>
       <r>  -14.2026    1.0000 </r>
       <r>  -14.1780    1.0000 </r>
       <r>  -14.1426    1.0000 </r>
       <r>  -14.0940    1.0000 </r>
       <r>  -14.0881    1.0000 </r>
       <r>  -14.0683    1.0000 </r>
       <r>  -14.0565    1.0000 </r>
       <r>  -14.0367    1.0000 </r>
       <r>  -14.0297    1.0000 </r>
       <r>  -14.0027    1.0000 </r>
       <r>  -13.9930    1.0000 </r>
       <r>  -13.9834    1.0000 </r>
       <r>  -13.9239    1.0000 </r>
       <r>  -13.8634    1.0000 </r>
       <r>  -13.8544    1.0000 </r>
       <r>  -13.8447    1.0000 </r>
       <r>  -13.8190    1.0000 </r>
       <r>  -13.7684    1.0000 </r>
       <r>  -13.7627    1.0000 </r>
       <r>  -13.6313    1.0000 </r>
       <r>   -8.0443    1.0000 </r>
       <r>   -7.9831    1.0000 </r>
       <r>   -7.7076    1.0000 </r>
       <r>   -7.5186    1.0000 </r>
       <r>   -7.4824    1.0000 </r>
       <r>   -7.4448    1.0000 </r>
       <r>   -7.3693    1.0000 </r>
       <r>   -7.3221    1.0000 </r>
       <r>   -7.3021    1.0000 </r>
       <r>   -7.2735    1.0000 </r>
       <r>   -7.2472    1.0000 </r>
       <r>   -7.2282    1.0000 </r>
       <r>   -7.2158    1.0000 </r>
       <r>   -7.1948    1.0000 </r>
       <r>   -7.1938    1.0000 </r>
       <r>   -7.1715    1.0000 </r>
       <r>   -7.1639    1.0000 </r>
       <r>   -7.1572    1.0000 </r>
       <r>   -7.1560    1.0000 </r>
       <r>   -7.1430    1.0000 </r>
       <r>   -7.1405    1.0000 </r>
       <r>   -7.1320    1.0000 </r>
       <r>   -7.1161    1.0000 </r>
       <r>   -7.1073    1.0000 </r>
       <r>   -7.1046    1.0000 </r>
       <r>   -7.1005    1.0000 </r>
       <r>   -7.0874    1.0000 </r>
       <r>   -7.0802    1.0000 </r>
       <r>   -7.0706    1.0000 </r>
       <r>   -7.0617    1.0000 </r>
       <r>   -6.9199    1.0000 </r>
       <r>   -6.8534    1.0000 </r>
       <r>   -3.3977    1.0000 </r>
       <r>   -3.3454    1.0000 </r>
       <r>   -3.3317    1.0000 </r>
       <r>   -3.2355    1.0000 </r>
       <r>   -3.2305    1.0000 </r>
       <r>   -3.2063    1.0000 </r>
       <r>   -3.1780    1.0000 </r>
       <r>   -3.1037    1.0000 </r>
       <r>   -3.0725    1.0000 </r>
       <r>   -2.5498    1.0000 </r>
       <r>   -2.5043    1.0000 </r>
       <r>   -2.4716    1.0000 </r>
       <r>   -2.4436    1.0000 </r>
       <r>   -2.3822    1.0000 </r>
       <r>   -2.3250    1.0000 </r>
       <r>   -2.3059    1.0000 </r>
       <r>   -2.2202    1.0000 </r>
       <r>   -2.0535    1.0000 </r>
       <r>   -2.0445    1.0000 </r>
       <r>   -2.0300    1.0000 </r>
       <r>   -2.0083    1.0000 </r>
       <r>   -1.9739    1.0000 </r>
       <r>   -1.8731    1.0000 </r>
       <r>   -1.8343    1.0000 </r>
       <r>   -1.7979    1.0000 </r>
       <r>   -1.7768    1.0000 </r>
       <r>   -1.7417    1.0000 </r>
       <r>   -1.6571    1.0000 </r>
       <r>   -1.6373    1.0000 </r>
       <r>   -1.5852    1.0000 </r>
       <r>   -1.5660    1.0000 </r>
       <r>   -1.5329    1.0000 </r>
       <r>   -1.4923    1.0000 </r>
       <r>   -1.4805    1.0000 </r>
       <r>   -1.4610    1.0000 </r>
       <r>   -1.4531    1.0000 </r>
       <r>   -1.4351    1.0000 </r>
       <r>   -1.4194    1.0000 </r>
       <r>   -1.4141    1.0000 </r>
       <r>   -1.3962    1.0000 </r>
       <r>   -1.3824    1.0000 </r>
       <r>   -1.3725    1.0000 </r>
       <r>   -1.3654    1.0000 </r>
       <r>   -1.3490    1.0000 </r>
       <r>   -1.3185    1.0000 </r>
       <r>   -1.3112    1.0000 </r>
       <r>   -1.2743    1.0000 </r>
       <r>   -1.2714    1.0000 </r>
       <r>   -1.2633    1.0000 </r>
       <r>   -1.2537    1.0000 </r>
       <r>   -1.2262    1.0000 </r>
       <r>   -1.2119    1.0000 </r>
       <r>   -1.1976    1.0000 </r>
       <r>   -1.1901    1.0000 </r>
       <r>   -1.1720    1.0000 </r>
       <r>   -1.1571    1.0000 </r>
       <r>   -1.1091    1.0000 </r>
       <r>   -1.0876    1.0000 </r>
       <r>   -1.0570    1.0000 </r>
       <r>   -1.0371    1.0000 </r>
       <r>   -0.9299    1.0000 </r>
       <r>   -0.8803    1.0000 </r>
       <r>   -0.8739    1.0000 </r>
       <r>   -0.6622    1.0000 </r>
       <r>   -0.6308    1.0000 </r>
       <r>   -0.5389    1.0000 </r>
       <r>   -0.2461    1.0000 </r>
       <r>   -0.0076    1.0000 </r>
       <r>    0.2597    1.0000 </r>
       <r>    2.5490    0.0000 </r>
       <r>    2.9152    0.0000 </r>
       <r>    2.9231    0.0000 </r>
       <r>    2.9907    0.0000 </r>
       <r>    3.1780    0.0000 </r>
       <r>    3.2866    0.0000 </r>
       <r>    3.3361    0.0000 </r>
       <r>    3.4119    0.0000 </r>
       <r>    3.4324    0.0000 </r>
       <r>    4.1580    0.0000 </r>
       <r>    4.3219    0.0000 </r>
       <r>    4.3632    0.0000 </r>
       <r>    4.5237    0.0000 </r>
       <r>    4.5564    0.0000 </r>
       <r>    4.8143    0.0000 </r>
       <r>    4.8285    0.0000 </r>
       <r>    5.4031    0.0000 </r>
       <r>    5.4941    0.0000 </r>
       <r>    5.5862    0.0000 </r>
       <r>    5.6669    0.0000 </r>
       <r>    5.8444    0.0000 </r>
       <r>    5.9227    0.0000 </r>
       <r>    6.0121    0.0000 </r>
       <r>    6.0387    0.0000 </r>
       <r>    6.0774    0.0000 </r>
       <r>    6.1449    0.0000 </r>
       <r>    6.2247    0.0000 </r>
       <r>    6.2350    0.0000 </r>
       <r>    6.2554    0.0000 </r>
       <r>    6.3169    0.0000 </r>
       <r>    6.3920    0.0000 </r>
       <r>    6.4475    0.0000 </r>
       <r>    6.4688    0.0000 </r>
       <r>    6.4810    0.0000 </r>
       <r>    6.5637    0.0000 </r>
       <r>    6.6303    0.0000 </r>
      </set>
      <set comment="kpoint 3">
       <r>  -20.9391    1.0000 </r>
       <r>  -20.8381    1.0000 </r>
       <r>  -20.8126    1.0000 </r>
       <r>  -20.7543    1.0000 </r>
       <r>  -20.7443    1.0000 </r>
       <r>  -20.7207    1.0000 </r>
       <r>  -20.6935    1.0000 </r>
       <r>  -20.6831    1.0000 </r>
       <r>  -17.3658    1.0000 </r>
       <r>  -16.6806    1.0000 </r>
       <r>  -16.6727    1.0000 </r>
       <r>  -16.6705    1.0000 </r>
       <r>  -16.6675    1.0000 </r>
       <r>  -16.5941    1.0000 </r>
       <r>  -16.5899    1.0000 </r>
       <r>  -16.5875    1.0000 </r>
       <r>  -16.5791    1.0000 </r>
       <r>  -16.5520    1.0000 </r>
       <r>  -16.5451    1.0000 </r>
       <r>  -16.4697    1.0000 </r>
       <r>  -16.4604    1.0000 </r>
       <r>  -16.4261    1.0000 </r>
       <r>  -16.4156    1.0000 </r>
       <r>  -16.3999    1.0000 </r>
       <r>  -16.3981    1.0000 </r>
       <r>  -16.3863    1.0000 </r>
       <r>  -16.3582    1.0000 </r>
       <r>  -16.3570    1.0000 </r>
       <r>  -16.3498    1.0000 </r>
       <r>  -16.3445    1.0000 </r>
       <r>  -16.3350    1.0000 </r>
       <r>  -16.3312    1.0000 </r>
       <r>  -16.3179    1.0000 </r>
       <r>  -16.2916    1.0000 </r>
       <r>  -16.2892    1.0000 </r>
       <r>  -16.2860    1.0000 </r>
       <r>  -16.2815    1.0000 </r>
       <r>  -16.2777    1.0000 </r>
       <r>  -16.2754    1.0000 </r>
       <r>  -16.2711    1.0000 </r>
       <r>  -16.2703    1.0000 </r>
       <r>  -16.2682    1.0000 </r>
       <r>  -16.2584    1.0000 </r>
       <r>  -16.2102    1.0000 </r>
       <r>  -16.2082    1.0000 </r>
       <r>  -16.2074    1.0000 </r>
       <r>  -16.1974    1.0000 </r>
       <r>  -16.1632    1.0000 </r>
       <r>  -14.6765    1.0000 </r>
       <r>  -14.3564    1.0000 </r>
       <r>  -14.2832    1.0000 </r>
       <r>  -14.2471    1.0000 </r>
       <r>  -14.1612    1.0000 </r>
       <r>  -14.1519    1.0000 </r>
       <r>  -14.0970    1.0000 </r>
       <r>  -14.0711    1.0000 </r>
       <r>  -14.0639    1.0000 </r>
       <r>  -14.0433    1.0000 </r>
       <r>  -14.0409    1.0000 </r>
       <r>  -14.0376    1.0000 </r>
       <r>  -14.0023    1.0000 </r>
       <r>  -13.9977    1.0000 </r>
       <r>  -13.9607    1.0000 </r>
       <r>  -13.9395    1.0000 </r>
       <r>  -13.8598    1.0000 </r>
       <r>  -13.8533    1.0000 </r>
       <r>  -13.8519    1.0000 </r>
       <r>  -13.8260    1.0000 </r>
       <r>  -13.7667    1.0000 </r>
       <r>  -13.7639    1.0000 </r>
       <r>  -13.6307    1.0000 </r>
       <r>   -8.0483    1.0000 </r>
       <r>   -7.9554    1.0000 </r>
       <r>   -7.7144    1.0000 </r>
       <r>   -7.5061    1.0000 </r>
       <r>   -7.4692    1.0000 </r>
       <r>   -7.4608    1.0000 </r>
       <r>   -7.3717    1.0000 </r>
       <r>   -7.3228    1.0000 </r>
       <r>   -7.3033    1.0000 </r>
       <r>   -7.2732    1.0000 </r>
       <r>   -7.2488    1.0000 </r>
       <r>   -7.2161    1.0000 </r>
       <r>   -7.2102    1.0000 </r>
       <r>   -7.2022    1.0000 </r>
       <r>   -7.1955    1.0000 </r>
       <r>   -7.1745    1.0000 </r>
       <r>   -7.1639    1.0000 </r>
       <r>   -7.1565    1.0000 </r>
       <r>   -7.1511    1.0000 </r>
       <r>   -7.1419    1.0000 </r>
       <r>   -7.1340    1.0000 </r>
       <r>   -7.1284    1.0000 </r>
       <r>   -7.1220    1.0000 </r>
       <r>   -7.1115    1.0000 </r>
       <r>   -7.1066    1.0000 </r>
       <r>   -7.0993    1.0000 </r>
       <r>   -7.0895    1.0000 </r>
       <r>   -7.0794    1.0000 </r>
       <r>   -7.0701    1.0000 </r>
       <r>   -7.0648    1.0000 </r>
       <r>   -6.9627    1.0000 </r>
       <r>   -6.8735    1.0000 </r>
       <r>   -3.4209    1.0000 </r>
       <r>   -3.3439    1.0000 </r>
       <r>   -3.2726    1.0000 </r>
       <r>   -3.2364    1.0000 </r>
       <r>   -3.1720    1.0000 </r>
       <r>   -3.1521    1.0000 </r>
       <r>   -3.1254    1.0000 </r>
       <r>   -3.1190    1.0000 </r>
       <r>   -3.0432    1.0000 </r>
       <r>   -2.5283    1.0000 </r>
       <r>   -2.4864    1.0000 </r>
       <r>   -2.4590    1.0000 </r>
       <r>   -2.4451    1.0000 </r>
       <r>   -2.3720    1.0000 </r>
       <r>   -2.3589    1.0000 </r>
       <r>   -2.3530    1.0000 </r>
       <r>   -2.2420    1.0000 </r>
       <r>   -2.0665    1.0000 </r>
       <r>   -2.0413    1.0000 </r>
       <r>   -2.0256    1.0000 </r>
       <r>   -1.9951    1.0000 </r>
       <r>   -1.9466    1.0000 </r>
       <r>   -1.8847    1.0000 </r>
       <r>   -1.8481    1.0000 </r>
       <r>   -1.8226    1.0000 </r>
       <r>   -1.7937    1.0000 </r>
       <r>   -1.7030    1.0000 </r>
       <r>   -1.6978    1.0000 </r>
       <r>   -1.6676    1.0000 </r>
       <r>   -1.6276    1.0000 </r>
       <r>   -1.5639    1.0000 </r>
       <r>   -1.5491    1.0000 </r>
       <r>   -1.5212    1.0000 </r>
       <r>   -1.4965    1.0000 </r>
       <r>   -1.4858    1.0000 </r>
       <r>   -1.4406    1.0000 </r>
       <r>   -1.4217    1.0000 </r>
       <r>   -1.4068    1.0000 </r>
       <r>   -1.3847    1.0000 </r>
       <r>   -1.3819    1.0000 </r>
       <r>   -1.3716    1.0000 </r>
       <r>   -1.3686    1.0000 </r>
       <r>   -1.3512    1.0000 </r>
       <r>   -1.3411    1.0000 </r>
       <r>   -1.3281    1.0000 </r>
       <r>   -1.3258    1.0000 </r>
       <r>   -1.3098    1.0000 </r>
       <r>   -1.2841    1.0000 </r>
       <r>   -1.2781    1.0000 </r>
       <r>   -1.2404    1.0000 </r>
       <r>   -1.2120    1.0000 </r>
       <r>   -1.2001    1.0000 </r>
       <r>   -1.1895    1.0000 </r>
       <r>   -1.1624    1.0000 </r>
       <r>   -1.1472    1.0000 </r>
       <r>   -1.1112    1.0000 </r>
       <r>   -1.1012    1.0000 </r>
       <r>   -1.0848    1.0000 </r>
       <r>   -1.0755    1.0000 </r>
       <r>   -1.0421    1.0000 </r>
       <r>   -0.9918    1.0000 </r>
       <r>   -0.8706    1.0000 </r>
       <r>   -0.8595    1.0000 </r>
       <r>   -0.6892    1.0000 </r>
       <r>   -0.6449    1.0000 </r>
       <r>   -0.6241    1.0000 </r>
       <r>   -0.3180    1.0000 </r>
       <r>   -0.0495    1.0000 </r>
       <r>    0.2374    1.0000 </r>
       <r>    2.7311    0.0000 </r>
       <r>    2.8375    0.0000 </r>
       <r>    2.9932    0.0000 </r>
       <r>    3.0585    0.0000 </r>
       <r>    3.1224    0.0000 </r>
       <r>    3.2997    0.0000 </r>
       <r>    3.3154    0.0000 </r>
       <r>    3.4169    0.0000 </r>
       <r>    3.4516    0.0000 </r>
       <r>    4.1671    0.0000 </r>
       <r>    4.4145    0.0000 </r>
       <r>    4.4729    0.0000 </r>
       <r>    4.6280    0.0000 </r>
       <r>    4.6836    0.0000 </r>
       <r>    4.8603    0.0000 </r>
       <r>    4.8852    0.0000 </r>
       <r>    5.2794    0.0000 </r>
       <r>    5.4066    0.0000 </r>
       <r>    5.6431    0.0000 </r>
       <r>    5.6746    0.0000 </r>
       <r>    5.7246    0.0000 </r>
       <r>    5.9012    0.0000 </r>
       <r>    5.9346    0.0000 </r>
       <r>    6.0045    0.0000 </r>
       <r>    6.0434    0.0000 </r>
       <r>    6.0936    0.0000 </r>
       <r>    6.1508    0.0000 </r>
       <r>    6.2174    0.0000 </r>
       <r>    6.2633    0.0000 </r>
       <r>    6.3057    0.0000 </r>
       <r>    6.3403    0.0000 </r>
       <r>    6.4524    0.0000 </r>
       <r>    6.5019    0.0000 </r>
       <r>    6.5615    0.0000 </r>
       <r>    6.5995    0.0000 </r>
       <r>    6.6880    0.0000 </r>
      </set>
      <set comment="kpoint 4">
       <r>  -20.9391    1.0000 </r>
       <r>  -20.8381    1.0000 </r>
       <r>  -20.8126    1.0000 </r>
       <r>  -20.7543    1.0000 </r>
       <r>  -20.7443    1.0000 </r>
       <r>  -20.7208    1.0000 </r>
       <r>  -20.6935    1.0000 </r>
       <r>  -20.6831    1.0000 </r>
       <r>  -17.3658    1.0000 </r>
       <r>  -16.6806    1.0000 </r>
       <r>  -16.6728    1.0000 </r>
       <r>  -16.6697    1.0000 </r>
       <r>  -16.6651    1.0000 </r>
       <r>  -16.5942    1.0000 </r>
       <r>  -16.5899    1.0000 </r>
       <r>  -16.5876    1.0000 </r>
       <r>  -16.5791    1.0000 </r>
       <r>  -16.5520    1.0000 </r>
       <r>  -16.5450    1.0000 </r>
       <r>  -16.4696    1.0000 </r>
       <r>  -16.4640    1.0000 </r>
       <r>  -16.4136    1.0000 </r>
       <r>  -16.3996    1.0000 </r>
       <r>  -16.3980    1.0000 </r>
       <r>  -16.3978    1.0000 </r>
       <r>  -16.3920    1.0000 </r>
       <r>  -16.3733    1.0000 </r>
       <r>  -16.3582    1.0000 </r>
       <r>  -16.3498    1.0000 </r>
       <r>  -16.3446    1.0000 </r>
       <r>  -16.3352    1.0000 </r>
       <r>  -16.3327    1.0000 </r>
       <r>  -16.3256    1.0000 </r>
       <r>  -16.2916    1.0000 </r>
       <r>  -16.2893    1.0000 </r>
       <r>  -16.2860    1.0000 </r>
       <r>  -16.2816    1.0000 </r>
       <r>  -16.2791    1.0000 </r>
       <r>  -16.2755    1.0000 </r>
       <r>  -16.2711    1.0000 </r>
       <r>  -16.2704    1.0000 </r>
       <r>  -16.2683    1.0000 </r>
       <r>  -16.2584    1.0000 </r>
       <r>  -16.2102    1.0000 </r>
       <r>  -16.2082    1.0000 </r>
       <r>  -16.2075    1.0000 </r>
       <r>  -16.1975    1.0000 </r>
       <r>  -16.1632    1.0000 </r>
       <r>  -14.6756    1.0000 </r>
       <r>  -14.3421    1.0000 </r>
       <r>  -14.2856    1.0000 </r>
       <r>  -14.2607    1.0000 </r>
       <r>  -14.1927    1.0000 </r>
       <r>  -14.1583    1.0000 </r>
       <r>  -14.1400    1.0000 </r>
       <r>  -14.0889    1.0000 </r>
       <r>  -14.0641    1.0000 </r>
       <r>  -14.0387    1.0000 </r>
       <r>  -14.0370    1.0000 </r>
       <r>  -14.0074    1.0000 </r>
       <r>  -13.9995    1.0000 </r>
       <r>  -13.9389    1.0000 </r>
       <r>  -13.9122    1.0000 </r>
       <r>  -13.8808    1.0000 </r>
       <r>  -13.8747    1.0000 </r>
       <r>  -13.8521    1.0000 </r>
       <r>  -13.8404    1.0000 </r>
       <r>  -13.8332    1.0000 </r>
       <r>  -13.8141    1.0000 </r>
       <r>  -13.8046    1.0000 </r>
       <r>  -13.6373    1.0000 </r>
       <r>   -7.9728    1.0000 </r>
       <r>   -7.7964    1.0000 </r>
       <r>   -7.7380    1.0000 </r>
       <r>   -7.7197    1.0000 </r>
       <r>   -7.3792    1.0000 </r>
       <r>   -7.3370    1.0000 </r>
       <r>   -7.3268    1.0000 </r>
       <r>   -7.3020    1.0000 </r>
       <r>   -7.2880    1.0000 </r>
       <r>   -7.2862    1.0000 </r>
       <r>   -7.2613    1.0000 </r>
       <r>   -7.2432    1.0000 </r>
       <r>   -7.2409    1.0000 </r>
       <r>   -7.2086    1.0000 </r>
       <r>   -7.2057    1.0000 </r>
       <r>   -7.1966    1.0000 </r>
       <r>   -7.1856    1.0000 </r>
       <r>   -7.1644    1.0000 </r>
       <r>   -7.1526    1.0000 </r>
       <r>   -7.1505    1.0000 </r>
       <r>   -7.1414    1.0000 </r>
       <r>   -7.1376    1.0000 </r>
       <r>   -7.1334    1.0000 </r>
       <r>   -7.1178    1.0000 </r>
       <r>   -7.1100    1.0000 </r>
       <r>   -7.1018    1.0000 </r>
       <r>   -7.0984    1.0000 </r>
       <r>   -7.0892    1.0000 </r>
       <r>   -7.0772    1.0000 </r>
       <r>   -7.0687    1.0000 </r>
       <r>   -7.0597    1.0000 </r>
       <r>   -7.0117    1.0000 </r>
       <r>   -3.3703    1.0000 </r>
       <r>   -3.3307    1.0000 </r>
       <r>   -3.2168    1.0000 </r>
       <r>   -3.1798    1.0000 </r>
       <r>   -3.1572    1.0000 </r>
       <r>   -3.1393    1.0000 </r>
       <r>   -2.6940    1.0000 </r>
       <r>   -2.5934    1.0000 </r>
       <r>   -2.5658    1.0000 </r>
       <r>   -2.5548    1.0000 </r>
       <r>   -2.5288    1.0000 </r>
       <r>   -2.4760    1.0000 </r>
       <r>   -2.4205    1.0000 </r>
       <r>   -2.3286    1.0000 </r>
       <r>   -2.3167    1.0000 </r>
       <r>   -2.2990    1.0000 </r>
       <r>   -2.2875    1.0000 </r>
       <r>   -2.2701    1.0000 </r>
       <r>   -2.2351    1.0000 </r>
       <r>   -2.1757    1.0000 </r>
       <r>   -2.0672    1.0000 </r>
       <r>   -2.0182    1.0000 </r>
       <r>   -2.0023    1.0000 </r>
       <r>   -1.9564    1.0000 </r>
       <r>   -1.8509    1.0000 </r>
       <r>   -1.7879    1.0000 </r>
       <r>   -1.7623    1.0000 </r>
       <r>   -1.7496    1.0000 </r>
       <r>   -1.6694    1.0000 </r>
       <r>   -1.6427    1.0000 </r>
       <r>   -1.6254    1.0000 </r>
       <r>   -1.5999    1.0000 </r>
       <r>   -1.5911    1.0000 </r>
       <r>   -1.5686    1.0000 </r>
       <r>   -1.5338    1.0000 </r>
       <r>   -1.5152    1.0000 </r>
       <r>   -1.4697    1.0000 </r>
       <r>   -1.4498    1.0000 </r>
       <r>   -1.4291    1.0000 </r>
       <r>   -1.4079    1.0000 </r>
       <r>   -1.3852    1.0000 </r>
       <r>   -1.3596    1.0000 </r>
       <r>   -1.3465    1.0000 </r>
       <r>   -1.3327    1.0000 </r>
       <r>   -1.3075    1.0000 </r>
       <r>   -1.2951    1.0000 </r>
       <r>   -1.2661    1.0000 </r>
       <r>   -1.2569    1.0000 </r>
       <r>   -1.2491    1.0000 </r>
       <r>   -1.2321    1.0000 </r>
       <r>   -1.2236    1.0000 </r>
       <r>   -1.1907    1.0000 </r>
       <r>   -1.1547    1.0000 </r>
       <r>   -1.1494    1.0000 </r>
       <r>   -1.1373    1.0000 </r>
       <r>   -1.1263    1.0000 </r>
       <r>   -1.1043    1.0000 </r>
       <r>   -1.0974    1.0000 </r>
       <r>   -1.0744    1.0000 </r>
       <r>   -1.0489    1.0000 </r>
       <r>   -0.9367    1.0000 </r>
       <r>   -0.9264    1.0000 </r>
       <r>   -0.9028    1.0000 </r>
       <r>   -0.8749    1.0000 </r>
       <r>   -0.6999    1.0000 </r>
       <r>   -0.5357    1.0000 </r>
       <r>   -0.5064    1.0000 </r>
       <r>   -0.4739    1.0000 </r>
       <r>    0.1690    1.0000 </r>
       <r>    2.6625    0.0000 </r>
       <r>    3.0121    0.0000 </r>
       <r>    3.0742    0.0000 </r>
       <r>    3.1758    0.0000 </r>
       <r>    3.3175    0.0000 </r>
       <r>    3.3584    0.0000 </r>
       <r>    4.1741    0.0000 </r>
       <r>    4.2879    0.0000 </r>
       <r>    4.3632    0.0000 </r>
       <r>    4.4504    0.0000 </r>
       <r>    4.4720    0.0000 </r>
       <r>    4.5399    0.0000 </r>
       <r>    4.5871    0.0000 </r>
       <r>    4.6389    0.0000 </r>
       <r>    4.6701    0.0000 </r>
       <r>    4.7788    0.0000 </r>
       <r>    4.7832    0.0000 </r>
       <r>    4.8616    0.0000 </r>
       <r>    4.8937    0.0000 </r>
       <r>    5.4200    0.0000 </r>
       <r>    5.7000    0.0000 </r>
       <r>    5.7359    0.0000 </r>
       <r>    5.7723    0.0000 </r>
       <r>    5.8470    0.0000 </r>
       <r>    5.9657    0.0000 </r>
       <r>    5.9875    0.0000 </r>
       <r>    6.0677    0.0000 </r>
       <r>    6.1251    0.0000 </r>
       <r>    6.1967    0.0000 </r>
       <r>    6.2688    0.0000 </r>
       <r>    6.3300    0.0000 </r>
       <r>    6.3719    0.0000 </r>
       <r>    6.4182    0.0000 </r>
       <r>    6.5131    0.0000 </r>
       <r>    6.5393    0.0000 </r>
       <r>    6.5918    0.0000 </r>
      </set>
      <set comment="kpoint 5">
       <r>  -20.9391    1.0000 </r>
       <r>  -20.8381    1.0000 </r>
       <r>  -20.8126    1.0000 </r>
       <r>  -20.7543    1.0000 </r>
       <r>  -20.7443    1.0000 </r>
       <r>  -20.7207    1.0000 </r>
       <r>  -20.6935    1.0000 </r>
       <r>  -20.6831    1.0000 </r>
       <r>  -17.3658    1.0000 </r>
       <r>  -16.6834    1.0000 </r>
       <r>  -16.6714    1.0000 </r>
       <r>  -16.6703    1.0000 </r>
       <r>  -16.6649    1.0000 </r>
       <r>  -16.5942    1.0000 </r>
       <r>  -16.5899    1.0000 </r>
       <r>  -16.5876    1.0000 </r>
       <r>  -16.5791    1.0000 </r>
       <r>  -16.5520    1.0000 </r>
       <r>  -16.5450    1.0000 </r>
       <r>  -16.4608    1.0000 </r>
       <r>  -16.4548    1.0000 </r>
       <r>  -16.4471    1.0000 </r>
       <r>  -16.4213    1.0000 </r>
       <r>  -16.4112    1.0000 </r>
       <r>  -16.4003    1.0000 </r>
       <r>  -16.3712    1.0000 </r>
       <r>  -16.3612    1.0000 </r>
       <r>  -16.3582    1.0000 </r>
       <r>  -16.3498    1.0000 </r>
       <r>  -16.3445    1.0000 </r>
       <r>  -16.3339    1.0000 </r>
       <r>  -16.3129    1.0000 </r>
       <r>  -16.3028    1.0000 </r>
       <r>  -16.2983    1.0000 </r>
       <r>  -16.2916    1.0000 </r>
       <r>  -16.2892    1.0000 </r>
       <r>  -16.2860    1.0000 </r>
       <r>  -16.2816    1.0000 </r>
       <r>  -16.2755    1.0000 </r>
       <r>  -16.2711    1.0000 </r>
       <r>  -16.2703    1.0000 </r>
       <r>  -16.2683    1.0000 </r>
       <r>  -16.2584    1.0000 </r>
       <r>  -16.2101    1.0000 </r>
       <r>  -16.2082    1.0000 </r>
       <r>  -16.2075    1.0000 </r>
       <r>  -16.1974    1.0000 </r>
       <r>  -16.1631    1.0000 </r>
       <r>  -14.6780    1.0000 </r>
       <r>  -14.3493    1.0000 </r>
       <r>  -14.2988    1.0000 </r>
       <r>  -14.2351    1.0000 </r>
       <r>  -14.1682    1.0000 </r>
       <r>  -14.1488    1.0000 </r>
       <r>  -14.0962    1.0000 </r>
       <r>  -14.0832    1.0000 </r>
       <r>  -14.0809    1.0000 </r>
       <r>  -14.0655    1.0000 </r>
       <r>  -14.0415    1.0000 </r>
       <r>  -14.0102    1.0000 </r>
       <r>  -13.9930    1.0000 </r>
       <r>  -13.9824    1.0000 </r>
       <r>  -13.9687    1.0000 </r>
       <r>  -13.9528    1.0000 </r>
       <r>  -13.8582    1.0000 </r>
       <r>  -13.8484    1.0000 </r>
       <r>  -13.8384    1.0000 </r>
       <r>  -13.8335    1.0000 </r>
       <r>  -13.7429    1.0000 </r>
       <r>  -13.7140    1.0000 </r>
       <r>  -13.6953    1.0000 </r>
       <r>   -8.0245    1.0000 </r>
       <r>   -7.9497    1.0000 </r>
       <r>   -7.7169    1.0000 </r>
       <r>   -7.6105    1.0000 </r>
       <r>   -7.4560    1.0000 </r>
       <r>   -7.4038    1.0000 </r>
       <r>   -7.3622    1.0000 </r>
       <r>   -7.3206    1.0000 </r>
       <r>   -7.3020    1.0000 </r>
       <r>   -7.2787    1.0000 </r>
       <r>   -7.2626    1.0000 </r>
       <r>   -7.2194    1.0000 </r>
       <r>   -7.2161    1.0000 </r>
       <r>   -7.2002    1.0000 </r>
       <r>   -7.1931    1.0000 </r>
       <r>   -7.1768    1.0000 </r>
       <r>   -7.1642    1.0000 </r>
       <r>   -7.1622    1.0000 </r>
       <r>   -7.1492    1.0000 </r>
       <r>   -7.1431    1.0000 </r>
       <r>   -7.1357    1.0000 </r>
       <r>   -7.1315    1.0000 </r>
       <r>   -7.1176    1.0000 </r>
       <r>   -7.1128    1.0000 </r>
       <r>   -7.1056    1.0000 </r>
       <r>   -7.0948    1.0000 </r>
       <r>   -7.0874    1.0000 </r>
       <r>   -7.0842    1.0000 </r>
       <r>   -7.0702    1.0000 </r>
       <r>   -7.0634    1.0000 </r>
       <r>   -7.0106    1.0000 </r>
       <r>   -6.7993    1.0000 </r>
       <r>   -3.4161    1.0000 </r>
       <r>   -3.3388    1.0000 </r>
       <r>   -3.2705    1.0000 </r>
       <r>   -3.2301    1.0000 </r>
       <r>   -3.2017    1.0000 </r>
       <r>   -3.1748    1.0000 </r>
       <r>   -3.0687    1.0000 </r>
       <r>   -3.0377    1.0000 </r>
       <r>   -2.9653    1.0000 </r>
       <r>   -2.5476    1.0000 </r>
       <r>   -2.5203    1.0000 </r>
       <r>   -2.5145    1.0000 </r>
       <r>   -2.4922    1.0000 </r>
       <r>   -2.4066    1.0000 </r>
       <r>   -2.3918    1.0000 </r>
       <r>   -2.3552    1.0000 </r>
       <r>   -2.2739    1.0000 </r>
       <r>   -2.0968    1.0000 </r>
       <r>   -2.0762    1.0000 </r>
       <r>   -2.0071    1.0000 </r>
       <r>   -1.9941    1.0000 </r>
       <r>   -1.9882    1.0000 </r>
       <r>   -1.9071    1.0000 </r>
       <r>   -1.8728    1.0000 </r>
       <r>   -1.8063    1.0000 </r>
       <r>   -1.7462    1.0000 </r>
       <r>   -1.7249    1.0000 </r>
       <r>   -1.6819    1.0000 </r>
       <r>   -1.6521    1.0000 </r>
       <r>   -1.6108    1.0000 </r>
       <r>   -1.5627    1.0000 </r>
       <r>   -1.5569    1.0000 </r>
       <r>   -1.5134    1.0000 </r>
       <r>   -1.4711    1.0000 </r>
       <r>   -1.4653    1.0000 </r>
       <r>   -1.4294    1.0000 </r>
       <r>   -1.4097    1.0000 </r>
       <r>   -1.4069    1.0000 </r>
       <r>   -1.3912    1.0000 </r>
       <r>   -1.3805    1.0000 </r>
       <r>   -1.3666    1.0000 </r>
       <r>   -1.3592    1.0000 </r>
       <r>   -1.3498    1.0000 </r>
       <r>   -1.3447    1.0000 </r>
       <r>   -1.3226    1.0000 </r>
       <r>   -1.3081    1.0000 </r>
       <r>   -1.3063    1.0000 </r>
       <r>   -1.2749    1.0000 </r>
       <r>   -1.2572    1.0000 </r>
       <r>   -1.2387    1.0000 </r>
       <r>   -1.2211    1.0000 </r>
       <r>   -1.2053    1.0000 </r>
       <r>   -1.1998    1.0000 </r>
       <r>   -1.1734    1.0000 </r>
       <r>   -1.1608    1.0000 </r>
       <r>   -1.1502    1.0000 </r>
       <r>   -1.1288    1.0000 </r>
       <r>   -1.0958    1.0000 </r>
       <r>   -1.0323    1.0000 </r>
       <r>   -1.0090    1.0000 </r>
       <r>   -0.9665    1.0000 </r>
       <r>   -0.9460    1.0000 </r>
       <r>   -0.8579    1.0000 </r>
       <r>   -0.8042    1.0000 </r>
       <r>   -0.5418    1.0000 </r>
       <r>   -0.4412    1.0000 </r>
       <r>   -0.3549    1.0000 </r>
       <r>    0.0152    1.0000 </r>
       <r>    0.0826    1.0000 </r>
       <r>    2.7519    0.0000 </r>
       <r>    2.9262    0.0000 </r>
       <r>    2.9817    0.0000 </r>
       <r>    3.0026    0.0000 </r>
       <r>    3.1023    0.0000 </r>
       <r>    3.2731    0.0000 </r>
       <r>    3.3514    0.0000 </r>
       <r>    3.4358    0.0000 </r>
       <r>    4.1161    0.0000 </r>
       <r>    4.1753    0.0000 </r>
       <r>    4.2980    0.0000 </r>
       <r>    4.4694    0.0000 </r>
       <r>    4.5114    0.0000 </r>
       <r>    4.5980    0.0000 </r>
       <r>    4.7175    0.0000 </r>
       <r>    4.8075    0.0000 </r>
       <r>    4.8674    0.0000 </r>
       <r>    5.2325    0.0000 </r>
       <r>    5.5607    0.0000 </r>
       <r>    5.6777    0.0000 </r>
       <r>    5.7481    0.0000 </r>
       <r>    5.8678    0.0000 </r>
       <r>    5.9996    0.0000 </r>
       <r>    6.0389    0.0000 </r>
       <r>    6.0565    0.0000 </r>
       <r>    6.1321    0.0000 </r>
       <r>    6.1533    0.0000 </r>
       <r>    6.2255    0.0000 </r>
       <r>    6.2639    0.0000 </r>
       <r>    6.2792    0.0000 </r>
       <r>    6.3865    0.0000 </r>
       <r>    6.4194    0.0000 </r>
       <r>    6.4947    0.0000 </r>
       <r>    6.5600    0.0000 </r>
       <r>    6.5851    0.0000 </r>
       <r>    6.6524    0.0000 </r>
      </set>
      <set comment="kpoint 6">
       <r>  -20.9391    1.0000 </r>
       <r>  -20.8381    1.0000 </r>
       <r>  -20.8126    1.0000 </r>
       <r>  -20.7543    1.0000 </r>
       <r>  -20.7443    1.0000 </r>
       <r>  -20.7208    1.0000 </r>
       <r>  -20.6935    1.0000 </r>
       <r>  -20.6831    1.0000 </r>
       <r>  -17.3658    1.0000 </r>
       <r>  -16.6832    1.0000 </r>
       <r>  -16.6714    1.0000 </r>
       <r>  -16.6690    1.0000 </r>
       <r>  -16.6631    1.0000 </r>
       <r>  -16.5942    1.0000 </r>
       <r>  -16.5899    1.0000 </r>
       <r>  -16.5876    1.0000 </r>
       <r>  -16.5791    1.0000 </r>
       <r>  -16.5520    1.0000 </r>
       <r>  -16.5450    1.0000 </r>
       <r>  -16.4625    1.0000 </r>
       <r>  -16.4569    1.0000 </r>
       <r>  -16.4431    1.0000 </r>
       <r>  -16.4125    1.0000 </r>
       <r>  -16.4009    1.0000 </r>
       <r>  -16.3945    1.0000 </r>
       <r>  -16.3833    1.0000 </r>
       <r>  -16.3682    1.0000 </r>
       <r>  -16.3582    1.0000 </r>
       <r>  -16.3498    1.0000 </r>
       <r>  -16.3445    1.0000 </r>
       <r>  -16.3340    1.0000 </r>
       <r>  -16.3205    1.0000 </r>
       <r>  -16.3064    1.0000 </r>
       <r>  -16.2983    1.0000 </r>
       <r>  -16.2917    1.0000 </r>
       <r>  -16.2892    1.0000 </r>
       <r>  -16.2860    1.0000 </r>
       <r>  -16.2816    1.0000 </r>
       <r>  -16.2755    1.0000 </r>
       <r>  -16.2711    1.0000 </r>
       <r>  -16.2704    1.0000 </r>
       <r>  -16.2683    1.0000 </r>
       <r>  -16.2584    1.0000 </r>
       <r>  -16.2102    1.0000 </r>
       <r>  -16.2082    1.0000 </r>
       <r>  -16.2075    1.0000 </r>
       <r>  -16.1975    1.0000 </r>
       <r>  -16.1631    1.0000 </r>
       <r>  -14.6771    1.0000 </r>
       <r>  -14.3363    1.0000 </r>
       <r>  -14.2786    1.0000 </r>
       <r>  -14.2674    1.0000 </r>
       <r>  -14.2233    1.0000 </r>
       <r>  -14.1512    1.0000 </r>
       <r>  -14.0944    1.0000 </r>
       <r>  -14.0930    1.0000 </r>
       <r>  -14.0842    1.0000 </r>
       <r>  -14.0748    1.0000 </r>
       <r>  -14.0413    1.0000 </r>
       <r>  -13.9939    1.0000 </r>
       <r>  -13.9912    1.0000 </r>
       <r>  -13.9288    1.0000 </r>
       <r>  -13.9145    1.0000 </r>
       <r>  -13.8990    1.0000 </r>
       <r>  -13.8790    1.0000 </r>
       <r>  -13.8718    1.0000 </r>
       <r>  -13.8436    1.0000 </r>
       <r>  -13.8127    1.0000 </r>
       <r>  -13.7827    1.0000 </r>
       <r>  -13.7432    1.0000 </r>
       <r>  -13.6972    1.0000 </r>
       <r>   -7.9309    1.0000 </r>
       <r>   -7.7924    1.0000 </r>
       <r>   -7.7528    1.0000 </r>
       <r>   -7.6869    1.0000 </r>
       <r>   -7.5568    1.0000 </r>
       <r>   -7.3801    1.0000 </r>
       <r>   -7.3261    1.0000 </r>
       <r>   -7.3098    1.0000 </r>
       <r>   -7.2874    1.0000 </r>
       <r>   -7.2755    1.0000 </r>
       <r>   -7.2491    1.0000 </r>
       <r>   -7.2365    1.0000 </r>
       <r>   -7.2147    1.0000 </r>
       <r>   -7.2056    1.0000 </r>
       <r>   -7.1918    1.0000 </r>
       <r>   -7.1834    1.0000 </r>
       <r>   -7.1708    1.0000 </r>
       <r>   -7.1616    1.0000 </r>
       <r>   -7.1526    1.0000 </r>
       <r>   -7.1405    1.0000 </r>
[...]
        <r>  0.0002  0.0008  0.0011 </r>
        <r>  0.0006  0.0036  0.0003 </r>
        <r>  0.0009  0.0016  0.0013 </r>
        <r>  0.0001  0.0012  0.0004 </r>
        <r>  0.0000  0.0009  0.0008 </r>
        <r>  0.0054  0.0018  0.0015 </r>
        <r>  0.0010  0.0023  0.0006 </r>
        <r>  0.0006  0.0025  0.0012 </r>
        <r>  0.0000  0.0006  0.0039 </r>
       </set>
       <set comment="band 199">
        <r>  0.0015  0.0008  0.0045 </r>
        <r>  0.0050  0.0004  0.0102 </r>
        <r>  0.0013  0.0012  0.0182 </r>
        <r>  0.0016  0.0002  0.0033 </r>
        <r>  0.0000  0.0002  0.0036 </r>
        <r>  0.0061  0.0007  0.0108 </r>
        <r>  0.0000  0.0004  0.0018 </r>
        <r>  0.0000  0.0011  0.0080 </r>
        <r>  0.0000  0.0010  0.0004 </r>
        <r>  0.0000  0.0053  0.0002 </r>
        <r>  0.0000  0.0094  0.0000 </r>
        <r>  0.0000  0.0057  0.0000 </r>
        <r>  0.0000  0.0042  0.0001 </r>
        <r>  0.0002  0.0100  0.0012 </r>
        <r>  0.0000  0.0002  0.0001 </r>
        <r>  0.0001  0.0073  0.0021 </r>
        <r>  0.0001  0.0020  0.0006 </r>
        <r>  0.0003  0.0013  0.0009 </r>
        <r>  0.0008  0.0009  0.0008 </r>
        <r>  0.0000  0.0009  0.0019 </r>
        <r>  0.0000  0.0028  0.0004 </r>
        <r>  0.0003  0.0034  0.0007 </r>
        <r>  0.0000  0.0034  0.0004 </r>
        <r>  0.0000  0.0016  0.0003 </r>
        <r>  0.0008  0.0088  0.0008 </r>
        <r>  0.0003  0.0040  0.0008 </r>
        <r>  0.0001  0.0006  0.0007 </r>
        <r>  0.0005  0.0008  0.0012 </r>
        <r>  0.0007  0.0015  0.0011 </r>
        <r>  0.0000  0.0012  0.0006 </r>
        <r>  0.0005  0.0010  0.0008 </r>
        <r>  0.0002  0.0002  0.0004 </r>
        <r>  0.0001  0.0002  0.0012 </r>
        <r>  0.0004  0.0011  0.0008 </r>
        <r>  0.0013  0.0081  0.0015 </r>
        <r>  0.0014  0.0019  0.0015 </r>
        <r>  0.0002  0.0023  0.0013 </r>
        <r>  0.0013  0.0024  0.0019 </r>
        <r>  0.0001  0.0027  0.0041 </r>
       </set>
       <set comment="band 200">
        <r>  0.0000  0.0002  0.0054 </r>
        <r>  0.0019  0.0006  0.0038 </r>
        <r>  0.0071  0.0006  0.0156 </r>
        <r>  0.0001  0.0004  0.0045 </r>
        <r>  0.0012  0.0001  0.0067 </r>
        <r>  0.0003  0.0004  0.0070 </r>
        <r>  0.0080  0.0003  0.0127 </r>
        <r>  0.0049  0.0017  0.0041 </r>
        <r>  0.0000  0.0018  0.0004 </r>
        <r>  0.0001  0.0082  0.0010 </r>
        <r>  0.0000  0.0028  0.0000 </r>
        <r>  0.0000  0.0009  0.0000 </r>
        <r>  0.0001  0.0022  0.0002 </r>
        <r>  0.0000  0.0003  0.0002 </r>
        <r>  0.0000  0.0031  0.0000 </r>
        <r>  0.0000  0.0044  0.0006 </r>
        <r>  0.0033  0.0006  0.0015 </r>
        <r>  0.0002  0.0014  0.0016 </r>
        <r>  0.0000  0.0017  0.0007 </r>
        <r>  0.0005  0.0027  0.0007 </r>
        <r>  0.0005  0.0056  0.0008 </r>
        <r>  0.0007  0.0034  0.0006 </r>
        <r>  0.0000  0.0003  0.0007 </r>
        <r>  0.0006  0.0029  0.0003 </r>
        <r>  0.0011  0.0046  0.0015 </r>
        <r>  0.0001  0.0008  0.0001 </r>
        <r>  0.0001  0.0050  0.0009 </r>
        <r>  0.0002  0.0001  0.0005 </r>
        <r>  0.0004  0.0034  0.0011 </r>
        <r>  0.0003  0.0006  0.0011 </r>
        <r>  0.0000  0.0019  0.0003 </r>
        <r>  0.0000  0.0017  0.0013 </r>
        <r>  0.0012  0.0043  0.0026 </r>
        <r>  0.0005  0.0008  0.0012 </r>
        <r>  0.0031  0.0016  0.0029 </r>
        <r>  0.0003  0.0009  0.0007 </r>
        <r>  0.0013  0.0028  0.0007 </r>
        <r>  0.0000  0.0004  0.0002 </r>
        <r>  0.0000  0.0041  0.0030 </r>
       </set>
       <set comment="band 201">
        <r>  0.0110  0.0006  0.0133 </r>
        <r>  0.0008  0.0005  0.0197 </r>
        <r>  0.0000  0.0005  0.0070 </r>
        <r>  0.0003  0.0004  0.0062 </r>
        <r>  0.0013  0.0017  0.0077 </r>
        <r>  0.0000  0.0005  0.0175 </r>
        <r>  0.0009  0.0001  0.0053 </r>
        <r>  0.0007  0.0003  0.0036 </r>
        <r>  0.0000  0.0020  0.0000 </r>
        <r>  0.0001  0.0017  0.0002 </r>
        <r>  0.0000  0.0015  0.0003 </r>
        <r>  0.0000  0.0006  0.0005 </r>
        <r>  0.0000  0.0045  0.0001 </r>
        <r>  0.0000  0.0034  0.0001 </r>
        <r>  0.0000  0.0020  0.0003 </r>
        <r>  0.0000  0.0106  0.0002 </r>
        <r>  0.0003  0.0032  0.0008 </r>
        <r>  0.0002  0.0007  0.0002 </r>
        <r>  0.0006  0.0043  0.0014 </r>
        <r>  0.0011  0.0040  0.0029 </r>
        <r>  0.0001  0.0016  0.0002 </r>
        <r>  0.0017  0.0010  0.0030 </r>
        <r>  0.0004  0.0030  0.0036 </r>
        <r>  0.0007  0.0015  0.0010 </r>
        <r>  0.0000  0.0004  0.0012 </r>
        <r>  0.0008  0.0019  0.0007 </r>
        <r>  0.0002  0.0019  0.0005 </r>
        <r>  0.0013  0.0031  0.0010 </r>
        <r>  0.0005  0.0022  0.0014 </r>
        <r>  0.0014  0.0005  0.0010 </r>
        <r>  0.0013  0.0009  0.0009 </r>
        <r>  0.0004  0.0009  0.0009 </r>
        <r>  0.0000  0.0022  0.0005 </r>
        <r>  0.0000  0.0029  0.0005 </r>
        <r>  0.0002  0.0023  0.0003 </r>
        <r>  0.0000  0.0023  0.0009 </r>
        <r>  0.0003  0.0036  0.0003 </r>
        <r>  0.0010  0.0027  0.0012 </r>
        <r>  0.0002  0.0003  0.0008 </r>
       </set>
       <set comment="band 202">
        <r>  0.0000  0.0007  0.0043 </r>
        <r>  0.0004  0.0010  0.0074 </r>
        <r>  0.0056  0.0006  0.0151 </r>
        <r>  0.0009  0.0002  0.0140 </r>
        <r>  0.0033  0.0002  0.0092 </r>
        <r>  0.0027  0.0002  0.0070 </r>
        <r>  0.0031  0.0012  0.0097 </r>
        <r>  0.0008  0.0009  0.0020 </r>
        <r>  0.0000  0.0048  0.0001 </r>
        <r>  0.0001  0.0109  0.0007 </r>
        <r>  0.0000  0.0030  0.0001 </r>
        <r>  0.0000  0.0012  0.0002 </r>
        <r>  0.0000  0.0077  0.0001 </r>
        <r>  0.0000  0.0063  0.0002 </r>
        <r>  0.0000  0.0002  0.0002 </r>
        <r>  0.0001  0.0029  0.0008 </r>
        <r>  0.0001  0.0041  0.0014 </r>
        <r>  0.0006  0.0036  0.0012 </r>
        <r>  0.0000  0.0013  0.0003 </r>
        <r>  0.0000  0.0039  0.0009 </r>
        <r>  0.0000  0.0017  0.0007 </r>
        <r>  0.0007  0.0006  0.0007 </r>
        <r>  0.0002  0.0020  0.0013 </r>
        <r>  0.0000  0.0002  0.0001 </r>
        <r>  0.0007  0.0036  0.0018 </r>
        <r>  0.0006  0.0014  0.0013 </r>
        <r>  0.0008  0.0046  0.0011 </r>
        <r>  0.0003  0.0017  0.0007 </r>
        <r>  0.0004  0.0019  0.0013 </r>
        <r>  0.0000  0.0028  0.0016 </r>
        <r>  0.0005  0.0027  0.0008 </r>
        <r>  0.0020  0.0014  0.0019 </r>
        <r>  0.0015  0.0009  0.0019 </r>
        <r>  0.0023  0.0018  0.0017 </r>
        <r>  0.0002  0.0008  0.0013 </r>
        <r>  0.0005  0.0006  0.0014 </r>
        <r>  0.0003  0.0030  0.0015 </r>
        <r>  0.0001  0.0009  0.0011 </r>
        <r>  0.0008  0.0024  0.0023 </r>
       </set>
       <set comment="band 203">
        <r>  0.0000  0.0009  0.0070 </r>
        <r>  0.0065  0.0005  0.0066 </r>
        <r>  0.0003  0.0000  0.0065 </r>
        <r>  0.0010  0.0008  0.0019 </r>
        <r>  0.0114  0.0008  0.0063 </r>
        <r>  0.0004  0.0015  0.0071 </r>
        <r>  0.0004  0.0003  0.0076 </r>
        <r>  0.0013  0.0009  0.0148 </r>
        <r>  0.0000  0.0083  0.0000 </r>
        <r>  0.0000  0.0031  0.0001 </r>
        <r>  0.0000  0.0003  0.0001 </r>
        <r>  0.0000  0.0030  0.0004 </r>
        <r>  0.0000  0.0151  0.0001 </r>
        <r>  0.0001  0.0088  0.0001 </r>
        <r>  0.0000  0.0035  0.0004 </r>
        <r>  0.0000  0.0055  0.0006 </r>
        <r>  0.0005  0.0018  0.0011 </r>
        <r>  0.0000  0.0039  0.0010 </r>
        <r>  0.0023  0.0032  0.0027 </r>
        <r>  0.0005  0.0002  0.0020 </r>
        <r>  0.0003  0.0061  0.0015 </r>
        <r>  0.0001  0.0015  0.0016 </r>
        <r>  0.0027  0.0020  0.0033 </r>
        <r>  0.0031  0.0033  0.0037 </r>
        <r>  0.0001  0.0023  0.0004 </r>
        <r>  0.0012  0.0008  0.0011 </r>
        <r>  0.0001  0.0006  0.0012 </r>
        <r>  0.0000  0.0007  0.0003 </r>
        <r>  0.0000  0.0020  0.0003 </r>
        <r>  0.0002  0.0007  0.0015 </r>
        <r>  0.0001  0.0040  0.0003 </r>
        <r>  0.0002  0.0018  0.0012 </r>
        <r>  0.0001  0.0001  0.0003 </r>
        <r>  0.0003  0.0002  0.0005 </r>
        <r>  0.0013  0.0038  0.0019 </r>
        <r>  0.0003  0.0017  0.0005 </r>
        <r>  0.0000  0.0014  0.0006 </r>
        <r>  0.0000  0.0044  0.0006 </r>
        <r>  0.0004  0.0006  0.0011 </r>
       </set>
       <set comment="band 204">
        <r>  0.0002  0.0010  0.0064 </r>
        <r>  0.0022  0.0013  0.0055 </r>
        <r>  0.0001  0.0003  0.0170 </r>
        <r>  0.0040  0.0001  0.0101 </r>
        <r>  0.0038  0.0008  0.0118 </r>
        <r>  0.0028  0.0001  0.0164 </r>
        <r>  0.0017  0.0007  0.0065 </r>
        <r>  0.0003  0.0011  0.0043 </r>
        <r>  0.0000  0.0028  0.0001 </r>
        <r>  0.0000  0.0133  0.0005 </r>
        <r>  0.0000  0.0020  0.0008 </r>
        <r>  0.0000  0.0044  0.0005 </r>
        <r>  0.0000  0.0095  0.0002 </r>
        <r>  0.0000  0.0067  0.0004 </r>
        <r>  0.0000  0.0003  0.0002 </r>
        <r>  0.0002  0.0102  0.0012 </r>
        <r>  0.0010  0.0029  0.0018 </r>
        <r>  0.0001  0.0007  0.0021 </r>
        <r>  0.0007  0.0012  0.0009 </r>
        <r>  0.0003  0.0054  0.0012 </r>
        <r>  0.0003  0.0017  0.0010 </r>
        <r>  0.0014  0.0033  0.0023 </r>
        <r>  0.0014  0.0012  0.0027 </r>
        <r>  0.0003  0.0016  0.0006 </r>
        <r>  0.0001  0.0002  0.0006 </r>
        <r>  0.0000  0.0004  0.0007 </r>
        <r>  0.0024  0.0016  0.0037 </r>
        <r>  0.0003  0.0027  0.0010 </r>
        <r>  0.0000  0.0043  0.0005 </r>
        <r>  0.0009  0.0005  0.0023 </r>
        <r>  0.0003  0.0012  0.0005 </r>
        <r>  0.0001  0.0032  0.0008 </r>
        <r>  0.0003  0.0059  0.0009 </r>
        <r>  0.0001  0.0005  0.0005 </r>
        <r>  0.0000  0.0003  0.0009 </r>
        <r>  0.0005  0.0003  0.0010 </r>
        <r>  0.0005  0.0011  0.0014 </r>
        <r>  0.0002  0.0006  0.0018 </r>
        <r>  0.0007  0.0021  0.0030 </r>
       </set>
       <set comment="band 205">
        <r>  0.0001  0.0001  0.0039 </r>
        <r>  0.0005  0.0001  0.0026 </r>
        <r>  0.0026  0.0025  0.0121 </r>
        <r>  0.0026  0.0004  0.0162 </r>
        <r>  0.0002  0.0003  0.0134 </r>
        <r>  0.0000  0.0001  0.0143 </r>
        <r>  0.0003  0.0018  0.0095 </r>
        <r>  0.0104  0.0001  0.0046 </r>
        <r>  0.0000  0.0072  0.0004 </r>
        <r>  0.0000  0.0028  0.0004 </r>
        <r>  0.0001  0.0028  0.0002 </r>
        <r>  0.0000  0.0036  0.0004 </r>
        <r>  0.0001  0.0015  0.0006 </r>
        <r>  0.0000  0.0025  0.0005 </r>
        <r>  0.0000  0.0114  0.0002 </r>
        <r>  0.0000  0.0113  0.0004 </r>
        <r>  0.0004  0.0027  0.0005 </r>
        <r>  0.0005  0.0066  0.0012 </r>
        <r>  0.0002  0.0061  0.0005 </r>
        <r>  0.0002  0.0007  0.0003 </r>
        <r>  0.0051  0.0013  0.0064 </r>
        <r>  0.0000  0.0014  0.0001 </r>
        <r>  0.0000  0.0025  0.0004 </r>
        <r>  0.0000  0.0004  0.0007 </r>
        <r>  0.0001  0.0022  0.0016 </r>
        <r>  0.0001  0.0019  0.0015 </r>
        <r>  0.0002  0.0028  0.0002 </r>
        <r>  0.0017  0.0004  0.0012 </r>
        <r>  0.0001  0.0024  0.0012 </r>
        <r>  0.0002  0.0003  0.0019 </r>
        <r>  0.0000  0.0003  0.0006 </r>
        <r>  0.0001  0.0013  0.0006 </r>
        <r>  0.0001  0.0013  0.0015 </r>
        <r>  0.0001  0.0008  0.0014 </r>
        <r>  0.0006  0.0037  0.0009 </r>
        <r>  0.0001  0.0016  0.0015 </r>
        <r>  0.0017  0.0008  0.0024 </r>
        <r>  0.0020  0.0011  0.0015 </r>
        <r>  0.0001  0.0006  0.0013 </r>
       </set>
       <set comment="band 206">
        <r>  0.0024  0.0005  0.0086 </r>
        <r>  0.0023  0.0007  0.0039 </r>
        <r>  0.0001  0.0001  0.0136 </r>
        <r>  0.0043  0.0001  0.0129 </r>
        <r>  0.0006  0.0005  0.0135 </r>
        <r>  0.0001  0.0005  0.0184 </r>
        <r>  0.0008  0.0005  0.0122 </r>
        <r>  0.0000  0.0009  0.0095 </r>
        <r>  0.0000  0.0131  0.0001 </r>
        <r>  0.0000  0.0091  0.0000 </r>
        <r>  0.0000  0.0040  0.0004 </r>
        <r>  0.0001  0.0009  0.0008 </r>
        <r>  0.0000  0.0064  0.0001 </r>
        <r>  0.0000  0.0103  0.0001 </r>
        <r>  0.0001  0.0025  0.0008 </r>
        <r>  0.0000  0.0038  0.0005 </r>
        <r>  0.0014  0.0012  0.0017 </r>
        <r>  0.0003  0.0027  0.0003 </r>
        <r>  0.0005  0.0007  0.0013 </r>
        <r>  0.0006  0.0007  0.0018 </r>
        <r>  0.0002  0.0017  0.0013 </r>
        <r>  0.0000  0.0007  0.0011 </r>
        <r>  0.0008  0.0012  0.0013 </r>
        <r>  0.0007  0.0015  0.0021 </r>
        <r>  0.0000  0.0015  0.0007 </r>
        <r>  0.0002  0.0012  0.0004 </r>
        <r>  0.0009  0.0015  0.0021 </r>
        <r>  0.0010  0.0039  0.0026 </r>
        <r>  0.0003  0.0002  0.0006 </r>
        <r>  0.0000  0.0020  0.0008 </r>
        <r>  0.0005  0.0014  0.0018 </r>
        <r>  0.0000  0.0060  0.0005 </r>
        <r>  0.0008  0.0017  0.0017 </r>
        <r>  0.0013  0.0023  0.0025 </r>
        <r>  0.0008  0.0017  0.0025 </r>
        <r>  0.0008  0.0013  0.0017 </r>
        <r>  0.0001  0.0002  0.0005 </r>
        <r>  0.0000  0.0013  0.0008 </r>
        <r>  0.0002  0.0016  0.0012 </r>
       </set>
       <set comment="band 207">
        <r>  0.0021  0.0001  0.0153 </r>
        <r>  0.0000  0.0019  0.0031 </r>
        <r>  0.0026  0.0002  0.0019 </r>
        <r>  0.0010  0.0004  0.0090 </r>
        <r>  0.0005  0.0006  0.0149 </r>
        <r>  0.0014  0.0004  0.0407 </r>
        <r>  0.0006  0.0004  0.0040 </r>
        <r>  0.0001  0.0002  0.0145 </r>
        <r>  0.0000  0.0011  0.0005 </r>
        <r>  0.0001  0.0006  0.0003 </r>
        <r>  0.0000  0.0107  0.0004 </r>
        <r>  0.0000  0.0037  0.0006 </r>
        <r>  0.0000  0.0008  0.0003 </r>
        <r>  0.0000  0.0078  0.0006 </r>
        <r>  0.0000  0.0063  0.0001 </r>
        <r>  0.0002  0.0025  0.0007 </r>
        <r>  0.0000  0.0006  0.0006 </r>
        <r>  0.0002  0.0007  0.0012 </r>
        <r>  0.0006  0.0026  0.0028 </r>
        <r>  0.0004  0.0031  0.0008 </r>
        <r>  0.0005  0.0012  0.0007 </r>
        <r>  0.0005  0.0035  0.0022 </r>
        <r>  0.0006  0.0017  0.0019 </r>
        <r>  0.0002  0.0004  0.0007 </r>
        <r>  0.0017  0.0019  0.0015 </r>
        <r>  0.0001  0.0004  0.0012 </r>
        <r>  0.0001  0.0008  0.0003 </r>
        <r>  0.0001  0.0011  0.0013 </r>
        <r>  0.0020  0.0024  0.0028 </r>
        <r>  0.0003  0.0012  0.0017 </r>
        <r>  0.0023  0.0025  0.0041 </r>
        <r>  0.0002  0.0004  0.0013 </r>
        <r>  0.0002  0.0008  0.0006 </r>
        <r>  0.0000  0.0018  0.0004 </r>
        <r>  0.0000  0.0030  0.0003 </r>
        <r>  0.0003  0.0025  0.0012 </r>
        <r>  0.0003  0.0001  0.0009 </r>
        <r>  0.0001  0.0032  0.0014 </r>
        <r>  0.0003  0.0011  0.0008 </r>
       </set>
       <set comment="band 208">
        <r>  0.0001  0.0002  0.0085 </r>
        <r>  0.0001  0.0007  0.0242 </r>
        <r>  0.0011  0.0010  0.0124 </r>
        <r>  0.0008  0.0004  0.0127 </r>
        <r>  0.0002  0.0011  0.0123 </r>
        <r>  0.0008  0.0005  0.0235 </r>
        <r>  0.0029  0.0003  0.0063 </r>
        <r>  0.0009  0.0002  0.0106 </r>
        <r>  0.0000  0.0016  0.0006 </r>
        <r>  0.0001  0.0054  0.0007 </r>
        <r>  0.0000  0.0060  0.0002 </r>
        <r>  0.0000  0.0070  0.0001 </r>
        <r>  0.0000  0.0010  0.0002 </r>
        <r>  0.0001  0.0036  0.0003 </r>
        <r>  0.0000  0.0056  0.0001 </r>
        <r>  0.0002  0.0026  0.0005 </r>
        <r>  0.0000  0.0007  0.0007 </r>
        <r>  0.0003  0.0020  0.0008 </r>
        <r>  0.0004  0.0026  0.0014 </r>
        <r>  0.0001  0.0038  0.0009 </r>
        <r>  0.0005  0.0008  0.0011 </r>
        <r>  0.0001  0.0010  0.0007 </r>
        <r>  0.0005  0.0010  0.0017 </r>
        <r>  0.0001  0.0018  0.0004 </r>
        <r>  0.0001  0.0011  0.0008 </r>
        <r>  0.0016  0.0011  0.0022 </r>
        <r>  0.0001  0.0016  0.0019 </r>
        <r>  0.0011  0.0026  0.0012 </r>
        <r>  0.0012  0.0011  0.0031 </r>
        <r>  0.0001  0.0015  0.0010 </r>
        <r>  0.0001  0.0013  0.0017 </r>
        <r>  0.0001  0.0022  0.0035 </r>
        <r>  0.0001  0.0007  0.0006 </r>
        <r>  0.0003  0.0029  0.0015 </r>
        <r>  0.0001  0.0005  0.0007 </r>
        <r>  0.0017  0.0005  0.0015 </r>
        <r>  0.0002  0.0009  0.0011 </r>
        <r>  0.0000  0.0012  0.0011 </r>
        <r>  0.0002  0.0008  0.0009 </r>
       </set>
      </set>
     </set>
    </set>
   </array>
  </projected>
 </calculation>
 <structure name="finalpos" >
  <crystal>
   <varray name="basis" >
    <v>       8.45648900       0.00000000       8.04030100 </v>
    <v>       0.00000000      11.72984700       0.00000000 </v>
    <v>      -8.45648900       0.00000000       8.04030100 </v>
   </varray>
   <i name="volume">   1595.08833419 </i>
   <varray name="rec_basis" >
    <v>       0.05912619      -0.00000000       0.06218673 </v>
    <v>       0.00000000       0.08525260      -0.00000000 </v>
    <v>      -0.05912619       0.00000000       0.06218673 </v>
   </varray>
  </crystal>
  <varray name="positions" >
   <v>       0.26774900       0.24925600       0.19746800 </v>
   <v>       0.77448400       0.24235300       0.72385000 </v>
   <v>       0.71365900       0.75842000       0.25735100 </v>
   <v>       0.20346000       0.75374200       0.78078400 </v>
   <v>       0.28795300       0.24662600       0.73200200 </v>
   <v>       0.79474200       0.24639300       0.22517200 </v>
   <v>       0.73586200       0.75046500       0.80564100 </v>
   <v>       0.22155900       0.75306600       0.28104500 </v>
   <v>       0.00074200       0.00045100       0.00033100 </v>
   <v>       0.49942600       0.00510600       0.49892600 </v>
   <v>       0.49921800       0.00027000       0.99993100 </v>
   <v>       0.00052100       0.99889500       0.50011300 </v>
   <v>       0.50005700       0.50004700       0.99997200 </v>
   <v>       0.00594600       0.50091800       0.50038200 </v>
   <v>       0.99996500       0.49917300       0.99963700 </v>
   <v>       0.49138000       0.49591600       0.50082500 </v>
   <v>       0.47262900       0.75009700       0.96308800 </v>
   <v>       0.96534200       0.74794500       0.45947600 </v>
   <v>       0.97249800       0.24991600       0.97263300 </v>
   <v>       0.45837900       0.25155600       0.46726000 </v>
   <v>       0.02196900       0.74956700       0.03117800 </v>
   <v>       0.52998400       0.25046600       0.03543600 </v>
   <v>       0.02470900       0.25096100       0.53880500 </v>
   <v>       0.24774300       0.46957000       0.94768200 </v>
   <v>       0.45523900       0.54112900       0.25117400 </v>
   <v>       0.94749500       0.53148600       0.74582200 </v>
   <v>       0.54815000       0.02995000       0.75126200 </v>
   <v>       0.05033400       0.03472700       0.25268000 </v>
   <v>       0.75254100       0.97565800       0.04670000 </v>
   <v>       0.25488900       0.95728700       0.54801800 </v>
   <v>       0.24804000       0.03149400       0.94930600 </v>
   <v>       0.74713100       0.03386300       0.44997300 </v>
   <v>       0.45176100       0.96167700       0.25028500 </v>
   <v>       0.95060500       0.96528300       0.74738400 </v>
   <v>       0.75239100       0.52768400       0.05460200 </v>
   <v>       0.25301000       0.54308400       0.55270900 </v>
   <v>       0.55319700       0.46713900       0.74924300 </v>
   <v>       0.05156800       0.46452200       0.25362100 </v>
   <v>       0.64957800       0.60758800       0.48714300 </v>
  </varray>
 </structure>
</modeling>
