CsPbBr3 cubic bulk                      
           1
     8.456489    0.000000    8.040301
     0.000000   11.729847    0.000000
    -8.456489    0.000000    8.040301
   Cs   Pb   Br
   8   8  23
Direct configuration=     1
   0.26774900  0.24925600  0.19746800
   0.77448400  0.24235300  0.72385000
   0.71365900  0.75842000  0.25735100
   0.20346000  0.75374200  0.78078400
   0.28795300  0.24662600  0.73200200
   0.79474200  0.24639300  0.22517200
   0.73586200  0.75046500  0.80564100
   0.22155900  0.75306600  0.28104500
   0.00074200  0.00045100  0.00033100
   0.49942600  0.00510600  0.49892600
   0.49921800  0.00027000  0.99993100
   0.00052100  0.99889500  0.50011300
   0.50005700  0.50004700  0.99997200
   0.00594600  0.50091800  0.50038200
   0.99996500  0.49917300  0.99963700
   0.49138000  0.49591600  0.50082500
   0.47262900  0.75009700  0.96308800
   0.96534200  0.74794500  0.45947600
   0.97249800  0.24991600  0.97263300
   0.45837900  0.25155600  0.46726000
   0.02196900  0.74956700  0.03117800
   0.52998400  0.25046600  0.03543600
   0.02470900  0.25096100  0.53880500
   0.24774300  0.46957000  0.94768200
   0.45523900  0.54112900  0.25117400
   0.94749500  0.53148600  0.74582200
   0.54815000  0.02995000  0.75126200
   0.05033400  0.03472700  0.25268000
   0.75254100  0.97565800  0.04670000
   0.25488900  0.95728700  0.54801800
   0.24804000  0.03149400  0.94930600
   0.74713100  0.03386300  0.44997300
   0.45176100  0.96167700  0.25028500
   0.95060500  0.96528300  0.74738400
   0.75239100  0.52768400  0.05460200
   0.25301000  0.54308400  0.55270900
   0.55319700  0.46713900  0.74924300
   0.05156800  0.46452200  0.25362100
   0.64957800  0.60758800  0.48714300
