  39  39   1   0
  0.4089970E+02  0.1166870E-08  0.1172985E-08  0.1166870E-08  0.5000000E-15
   1.0000000000000000E-004
  CAR 
 CsPbBr3 cubic bulk                      
      8.06146888    -22.30047162  301      0.49628537      1.00000000
    -22.300  0.0000E+00  0.0000E+00
    -22.199  0.0000E+00  0.0000E+00
    -22.098  0.0000E+00  0.0000E+00
    -21.997  0.0000E+00  0.0000E+00
    -21.896  0.0000E+00  0.0000E+00
    -21.794  0.0000E+00  0.0000E+00
    -21.693  0.0000E+00  0.0000E+00
    -21.592  0.0000E+00  0.0000E+00
    -21.491  0.0000E+00  0.0000E+00
    -21.390  0.0000E+00  0.0000E+00
    -21.288  0.0000E+00  0.0000E+00
    -21.187  0.0000E+00  0.0000E+00
    -21.086  0.0000E+00  0.0000E+00
    -20.985  0.0000E+00  0.0000E+00
    -20.884  0.2283E+02  0.2310E+01
    -20.782  0.1976E+02  0.6000E+01
    -20.681  0.7968E+02  0.1406E+02
    -20.580  0.0000E+00  0.1600E+02
    -20.479  0.0000E+00  0.1600E+02
    -20.378  0.0000E+00  0.1600E+02
    -20.276  0.0000E+00  0.1600E+02
    -20.175  0.0000E+00  0.1600E+02
    -20.074  0.0000E+00  0.1600E+02
    -19.973  0.0000E+00  0.1600E+02
    -19.872  0.0000E+00  0.1600E+02
    -19.770  0.0000E+00  0.1600E+02
    -19.669  0.0000E+00  0.1600E+02
    -19.568  0.0000E+00  0.1600E+02
    -19.467  0.0000E+00  0.1600E+02
    -19.365  0.0000E+00  0.1600E+02
    -19.264  0.0000E+00  0.1600E+02
    -19.163  0.0000E+00  0.1600E+02
    -19.062  0.0000E+00  0.1600E+02
    -18.961  0.0000E+00  0.1600E+02
    -18.859  0.0000E+00  0.1600E+02
    -18.758  0.0000E+00  0.1600E+02
    -18.657  0.0000E+00  0.1600E+02
    -18.556  0.0000E+00  0.1600E+02
    -18.455  0.0000E+00  0.1600E+02
    -18.353  0.0000E+00  0.1600E+02
    -18.252  0.0000E+00  0.1600E+02
    -18.151  0.0000E+00  0.1600E+02
    -18.050  0.0000E+00  0.1600E+02
    -17.949  0.0000E+00  0.1600E+02
    -17.847  0.0000E+00  0.1600E+02
    -17.746  0.0000E+00  0.1600E+02
    -17.645  0.0000E+00  0.1600E+02
    -17.544  0.0000E+00  0.1600E+02
    -17.443  0.0000E+00  0.1600E+02
    -17.341  0.0000E+00  0.1600E+02
    -17.240  0.0000E+00  0.1600E+02
    -17.139  0.0000E+00  0.1600E+02
    -17.038  0.0000E+00  0.1600E+02
    -16.937  0.0000E+00  0.1600E+02
    -16.835  0.0000E+00  0.1600E+02
    -16.734  0.6215E-02  0.1600E+02
    -16.633  0.7903E+02  0.2400E+02
    -16.532  0.1353E+03  0.3769E+02
    -16.430  0.7159E+02  0.4525E+02
    -16.329  0.1118E+03  0.6406E+02
    -16.228  0.2524E+03  0.9554E+02
    -16.127  0.0000E+00  0.9600E+02
    -16.026  0.0000E+00  0.9600E+02
    -15.924  0.0000E+00  0.9600E+02
    -15.823  0.0000E+00  0.9600E+02
    -15.722  0.0000E+00  0.9600E+02
    -15.621  0.0000E+00  0.9600E+02
    -15.520  0.0000E+00  0.9600E+02
    -15.418  0.0000E+00  0.9600E+02
    -15.317  0.0000E+00  0.9600E+02
    -15.216  0.0000E+00  0.9600E+02
    -15.115  0.0000E+00  0.9600E+02
    -15.014  0.0000E+00  0.9600E+02
    -14.912  0.0000E+00  0.9600E+02
    -14.811  0.0000E+00  0.9600E+02
    -14.710  0.0000E+00  0.9600E+02
    -14.609  0.0000E+00  0.9600E+02
    -14.508  0.6345E-01  0.9601E+02
    -14.406  0.1492E+02  0.9801E+02
    -14.305  0.1854E+02  0.1004E+03
    -14.204  0.4696E+02  0.1058E+03
    -14.103  0.4141E+02  0.1104E+03
    -14.002  0.8606E+02  0.1202E+03
    -13.900  0.4787E+02  0.1278E+03
    -13.799  0.7104E+02  0.1377E+03
    -13.698  0.2714E+02  0.1420E+03
    -13.597  0.0000E+00  0.1420E+03
    -13.496  0.0000E+00  0.1420E+03
    -13.394  0.0000E+00  0.1420E+03
    -13.293  0.0000E+00  0.1420E+03
    -13.192  0.0000E+00  0.1420E+03
    -13.091  0.0000E+00  0.1420E+03
    -12.989  0.0000E+00  0.1420E+03
    -12.888  0.0000E+00  0.1420E+03
    -12.787  0.0000E+00  0.1420E+03
    -12.686  0.0000E+00  0.1420E+03
    -12.585  0.0000E+00  0.1420E+03
    -12.483  0.0000E+00  0.1420E+03
    -12.382  0.0000E+00  0.1420E+03
    -12.281  0.0000E+00  0.1420E+03
    -12.180  0.0000E+00  0.1420E+03
    -12.079  0.0000E+00  0.1420E+03
    -11.977  0.0000E+00  0.1420E+03
    -11.876  0.0000E+00  0.1420E+03
    -11.775  0.0000E+00  0.1420E+03
    -11.674  0.0000E+00  0.1420E+03
    -11.573  0.0000E+00  0.1420E+03
    -11.471  0.0000E+00  0.1420E+03
    -11.370  0.0000E+00  0.1420E+03
    -11.269  0.0000E+00  0.1420E+03
    -11.168  0.0000E+00  0.1420E+03
    -11.067  0.0000E+00  0.1420E+03
    -10.965  0.0000E+00  0.1420E+03
    -10.864  0.0000E+00  0.1420E+03
    -10.763  0.0000E+00  0.1420E+03
    -10.662  0.0000E+00  0.1420E+03
    -10.561  0.0000E+00  0.1420E+03
    -10.459  0.0000E+00  0.1420E+03
    -10.358  0.0000E+00  0.1420E+03
    -10.257  0.0000E+00  0.1420E+03
    -10.156  0.0000E+00  0.1420E+03
    -10.054  0.0000E+00  0.1420E+03
     -9.953  0.0000E+00  0.1420E+03
     -9.852  0.0000E+00  0.1420E+03
     -9.751  0.0000E+00  0.1420E+03
     -9.650  0.0000E+00  0.1420E+03
     -9.548  0.0000E+00  0.1420E+03
     -9.447  0.0000E+00  0.1420E+03
     -9.346  0.0000E+00  0.1420E+03
     -9.245  0.0000E+00  0.1420E+03
     -9.144  0.0000E+00  0.1420E+03
     -9.042  0.0000E+00  0.1420E+03
     -8.941  0.0000E+00  0.1420E+03
     -8.840  0.0000E+00  0.1420E+03
     -8.739  0.0000E+00  0.1420E+03
     -8.638  0.0000E+00  0.1420E+03
     -8.536  0.0000E+00  0.1420E+03
     -8.435  0.0000E+00  0.1420E+03
     -8.334  0.0000E+00  0.1420E+03
     -8.233  0.5177E-06  0.1420E+03
     -8.132  0.2470E+01  0.1422E+03
     -8.030  0.3594E+01  0.1426E+03
     -7.929  0.1180E+02  0.1439E+03
     -7.828  0.7134E+01  0.1447E+03
     -7.727  0.1689E+02  0.1465E+03
     -7.626  0.1244E+02  0.1485E+03
     -7.524  0.3029E+01  0.1491E+03
     -7.423  0.2738E+02  0.1528E+03
     -7.322  0.3287E+02  0.1563E+03
     -7.221  0.1194E+03  0.1701E+03
     -7.120  0.1532E+03  0.1883E+03
     -7.018  0.8970E+02  0.2041E+03
     -6.917  0.4715E+01  0.2050E+03
     -6.816  0.5588E+01  0.2056E+03
     -6.715  0.0000E+00  0.2058E+03
     -6.613  0.1789E-04  0.2058E+03
     -6.512  0.2470E+01  0.2060E+03
     -6.411  0.0000E+00  0.2060E+03
     -6.310  0.0000E+00  0.2060E+03
     -6.209  0.0000E+00  0.2060E+03
     -6.107  0.0000E+00  0.2060E+03
     -6.006  0.0000E+00  0.2060E+03
     -5.905  0.0000E+00  0.2060E+03
     -5.804  0.0000E+00  0.2060E+03
     -5.703  0.0000E+00  0.2060E+03
     -5.601  0.0000E+00  0.2060E+03
     -5.500  0.0000E+00  0.2060E+03
     -5.399  0.0000E+00  0.2060E+03
     -5.298  0.0000E+00  0.2060E+03
     -5.197  0.0000E+00  0.2060E+03
     -5.095  0.0000E+00  0.2060E+03
     -4.994  0.0000E+00  0.2060E+03
     -4.893  0.0000E+00  0.2060E+03
     -4.792  0.0000E+00  0.2060E+03
     -4.691  0.0000E+00  0.2060E+03
     -4.589  0.0000E+00  0.2060E+03
     -4.488  0.0000E+00  0.2060E+03
     -4.387  0.0000E+00  0.2060E+03
     -4.286  0.0000E+00  0.2060E+03
     -4.185  0.0000E+00  0.2060E+03
     -4.083  0.0000E+00  0.2060E+03
     -3.982  0.0000E+00  0.2060E+03
     -3.881  0.0000E+00  0.2060E+03
     -3.780  0.0000E+00  0.2060E+03
     -3.678  0.0000E+00  0.2060E+03
     -3.577  0.0000E+00  0.2060E+03
     -3.476  0.0000E+00  0.2060E+03
     -3.375  0.2808E+01  0.2063E+03
     -3.274  0.1160E+02  0.2079E+03
     -3.172  0.3842E+02  0.2129E+03
     -3.071  0.2687E+02  0.2170E+03
     -2.970  0.1454E+02  0.2190E+03
     -2.869  0.9851E+01  0.2200E+03
     -2.768  0.6440E-08  0.2200E+03
     -2.666  0.1549E+02  0.2216E+03
     -2.565  0.3909E+02  0.2260E+03
     -2.464  0.2608E+02  0.2296E+03
     -2.363  0.3333E+02  0.2336E+03
     -2.262  0.4001E+02  0.2383E+03
     -2.160  0.2370E+02  0.2409E+03
     -2.059  0.2549E+02  0.2441E+03
     -1.958  0.4150E+02  0.2492E+03
     -1.857  0.3378E+02  0.2527E+03
     -1.756  0.4276E+02  0.2578E+03
     -1.654  0.4964E+02  0.2635E+03
     -1.553  0.6876E+02  0.2717E+03
     -1.452  0.7466E+02  0.2808E+03
     -1.351  0.9632E+02  0.2925E+03
     -1.250  0.8794E+02  0.3049E+03
     -1.148  0.7550E+02  0.3144E+03
     -1.047  0.7759E+02  0.3251E+03
     -0.946  0.2648E+02  0.3287E+03
     -0.845  0.3472E+02  0.3330E+03
     -0.743  0.1648E+02  0.3352E+03
     -0.642  0.5748E+01  0.3358E+03
     -0.541  0.1147E+02  0.3377E+03
     -0.440  0.1449E+02  0.3397E+03
     -0.339  0.5434E+01  0.3408E+03
     -0.237  0.7862E+01  0.3418E+03
     -0.136  0.2470E+01  0.3423E+03
     -0.035  0.5729E+01  0.3428E+03
      0.066  0.5096E+01  0.3435E+03
      0.167  0.0000E+00  0.3438E+03
      0.269  0.0000E+00  0.3438E+03
      0.370  0.1475E-01  0.3438E+03
      0.471  0.0000E+00  0.3440E+03
      0.572  0.0000E+00  0.3440E+03
      0.673  0.0000E+00  0.3440E+03
      0.775  0.0000E+00  0.3440E+03
      0.876  0.0000E+00  0.3440E+03
      0.977  0.0000E+00  0.3440E+03
      1.078  0.0000E+00  0.3440E+03
      1.179  0.0000E+00  0.3440E+03
      1.281  0.0000E+00  0.3440E+03
      1.382  0.0000E+00  0.3440E+03
      1.483  0.0000E+00  0.3440E+03
      1.584  0.0000E+00  0.3440E+03
      1.685  0.0000E+00  0.3440E+03
      1.787  0.0000E+00  0.3440E+03
      1.888  0.0000E+00  0.3440E+03
      1.989  0.0000E+00  0.3440E+03
      2.090  0.0000E+00  0.3440E+03
      2.191  0.0000E+00  0.3440E+03
      2.293  0.0000E+00  0.3440E+03
      2.394  0.0000E+00  0.3440E+03
      2.495  0.4272E-07  0.3440E+03
      2.596  0.4939E+01  0.3445E+03
      2.698  0.1260E+02  0.3458E+03
      2.799  0.2628E+01  0.3463E+03
      2.900  0.3869E+01  0.3469E+03
      3.001  0.1733E+02  0.3488E+03
      3.102  0.1263E+02  0.3503E+03
      3.204  0.1750E+02  0.3525E+03
      3.305  0.1488E+02  0.3545E+03
      3.406  0.1754E+02  0.3565E+03
      3.507  0.8324E+01  0.3576E+03
      3.608  0.2470E+01  0.3580E+03
      3.710  0.0000E+00  0.3580E+03
      3.811  0.0000E+00  0.3580E+03
      3.912  0.3117E+00  0.3580E+03
      4.013  0.5318E+01  0.3588E+03
      4.114  0.3174E+01  0.3596E+03
      4.216  0.4940E+01  0.3603E+03
      4.317  0.1879E+02  0.3622E+03
      4.418  0.2540E+02  0.3651E+03
      4.519  0.2074E+02  0.3678E+03
      4.620  0.3145E+02  0.3719E+03
      4.722  0.2830E+02  0.3751E+03
      4.823  0.1920E+02  0.3774E+03
      4.924  0.2334E+02  0.3801E+03
      5.025  0.7515E+01  0.3810E+03
      5.126  0.4270E+00  0.3813E+03
      5.228  0.4817E+01  0.3820E+03
      5.329  0.3141E+01  0.3826E+03
      5.430  0.4934E-05  0.3828E+03
      5.531  0.4990E+01  0.3833E+03
      5.633  0.5270E+01  0.3840E+03
      5.734  0.1569E+02  0.3861E+03
      5.835  0.1017E+02  0.3878E+03
      5.936  0.2425E+02  0.3905E+03
      6.037  0.1687E+02  0.3932E+03
      6.139  0.3514E+02  0.3973E+03
      6.240  0.2460E+02  0.4002E+03
      6.341  0.3360E+02  0.4042E+03
      6.442  0.3180E+02  0.4085E+03
      6.543  0.2675E+02  0.4117E+03
      6.645  0.2927E+02  0.4155E+03
      6.746  0.2470E+01  0.4160E+03
      6.847  0.0000E+00  0.4160E+03
      6.948  0.0000E+00  0.4160E+03
      7.049  0.0000E+00  0.4160E+03
      7.151  0.0000E+00  0.4160E+03
      7.252  0.0000E+00  0.4160E+03
      7.353  0.0000E+00  0.4160E+03
      7.454  0.0000E+00  0.4160E+03
      7.555  0.0000E+00  0.4160E+03
      7.657  0.0000E+00  0.4160E+03
      7.758  0.0000E+00  0.4160E+03
      7.859  0.0000E+00  0.4160E+03
      7.960  0.0000E+00  0.4160E+03
      8.061  0.0000E+00  0.4160E+03
      8.06146888    -22.30047162  301      0.49628537      1.00000000
    -22.300  0.0000E+00  0.0000E+00  0.0000E+00
    -22.199  0.0000E+00  0.0000E+00  0.0000E+00
    -22.098  0.0000E+00  0.0000E+00  0.0000E+00
    -21.997  0.0000E+00  0.0000E+00  0.0000E+00
    -21.896  0.0000E+00  0.0000E+00  0.0000E+00
    -21.794  0.0000E+00  0.0000E+00  0.0000E+00
    -21.693  0.0000E+00  0.0000E+00  0.0000E+00
    -21.592  0.0000E+00  0.0000E+00  0.0000E+00
    -21.491  0.0000E+00  0.0000E+00  0.0000E+00
    -21.390  0.0000E+00  0.0000E+00  0.0000E+00
    -21.288  0.0000E+00  0.0000E+00  0.0000E+00
    -21.187  0.0000E+00  0.0000E+00  0.0000E+00
    -21.086  0.0000E+00  0.0000E+00  0.0000E+00
    -20.985  0.0000E+00  0.0000E+00  0.0000E+00
    -20.884  0.6679E-06  0.3051E-08  0.1387E-09
    -20.782  0.2010E-02  0.2728E-06  0.4488E-07
    -20.681  0.1754E+02  0.2081E-05  0.4686E-05
    -20.580  0.0000E+00  0.0000E+00  0.0000E+00
    -20.479  0.0000E+00  0.0000E+00  0.0000E+00
    -20.378  0.0000E+00  0.0000E+00  0.0000E+00
    -20.276  0.0000E+00  0.0000E+00  0.0000E+00
    -20.175  0.0000E+00  0.0000E+00  0.0000E+00
    -20.074  0.0000E+00  0.0000E+00  0.0000E+00
    -19.973  0.0000E+00  0.0000E+00  0.0000E+00
    -19.872  0.0000E+00  0.0000E+00  0.0000E+00
    -19.770  0.0000E+00  0.0000E+00  0.0000E+00
    -19.669  0.0000E+00  0.0000E+00  0.0000E+00
    -19.568  0.0000E+00  0.0000E+00  0.0000E+00
    -19.467  0.0000E+00  0.0000E+00  0.0000E+00
    -19.365  0.0000E+00  0.0000E+00  0.0000E+00
    -19.264  0.0000E+00  0.0000E+00  0.0000E+00
    -19.163  0.0000E+00  0.0000E+00  0.0000E+00
    -19.062  0.0000E+00  0.0000E+00  0.0000E+00
    -18.961  0.0000E+00  0.0000E+00  0.0000E+00
    -18.859  0.0000E+00  0.0000E+00  0.0000E+00
    -18.758  0.0000E+00  0.0000E+00  0.0000E+00
    -18.657  0.0000E+00  0.0000E+00  0.0000E+00
    -18.556  0.0000E+00  0.0000E+00  0.0000E+00
    -18.455  0.0000E+00  0.0000E+00  0.0000E+00
    -18.353  0.0000E+00  0.0000E+00  0.0000E+00
    -18.252  0.0000E+00  0.0000E+00  0.0000E+00
    -18.151  0.0000E+00  0.0000E+00  0.0000E+00
    -18.050  0.0000E+00  0.0000E+00  0.0000E+00
    -17.949  0.0000E+00  0.0000E+00  0.0000E+00
    -17.847  0.0000E+00  0.0000E+00  0.0000E+00
    -17.746  0.0000E+00  0.0000E+00  0.0000E+00
    -17.645  0.0000E+00  0.0000E+00  0.0000E+00
    -17.544  0.0000E+00  0.0000E+00  0.0000E+00
    -17.443  0.0000E+00  0.0000E+00  0.0000E+00
    -17.341  0.0000E+00  0.0000E+00  0.0000E+00
    -17.240  0.0000E+00  0.0000E+00  0.0000E+00
    -17.139  0.0000E+00  0.0000E+00  0.0000E+00
    -17.038  0.0000E+00  0.0000E+00  0.0000E+00
    -16.937  0.0000E+00  0.0000E+00  0.0000E+00
    -16.835  0.0000E+00  0.0000E+00  0.0000E+00
    -16.734  0.1114E-07  0.5771E-08  0.9860E-09
    -16.633  0.6546E-04  0.3149E-04  0.4882E-05
    -16.532  0.5887E-05  0.2317E-05  0.2435E-06
    -16.430  0.4703E-04  0.2716E-04  0.6146E-05
    -16.329  0.2606E-04  0.6029E-04  0.1015E-04
    -16.228  0.8578E-04  0.4740E-04  0.5832E-05
    -16.127  0.0000E+00  0.0000E+00  0.0000E+00
    -16.026  0.0000E+00  0.0000E+00  0.0000E+00
    -15.924  0.0000E+00  0.0000E+00  0.0000E+00
    -15.823  0.0000E+00  0.0000E+00  0.0000E+00
    -15.722  0.0000E+00  0.0000E+00  0.0000E+00
    -15.621  0.0000E+00  0.0000E+00  0.0000E+00
    -15.520  0.0000E+00  0.0000E+00  0.0000E+00
    -15.418  0.0000E+00  0.0000E+00  0.0000E+00
    -15.317  0.0000E+00  0.0000E+00  0.0000E+00
    -15.216  0.0000E+00  0.0000E+00  0.0000E+00
    -15.115  0.0000E+00  0.0000E+00  0.0000E+00
    -15.014  0.0000E+00  0.0000E+00  0.0000E+00
    -14.912  0.0000E+00  0.0000E+00  0.0000E+00
    -14.811  0.0000E+00  0.0000E+00  0.0000E+00
    -14.710  0.0000E+00  0.0000E+00  0.0000E+00
    -14.609  0.0000E+00  0.0000E+00  0.0000E+00
    -14.508  0.9652E-05  0.3542E-05  0.2207E-06
    -14.406  0.1210E-02  0.1379E-02  0.8980E-04
    -14.305  0.1399E-02  0.1209E-02  0.7922E-04
    -14.204  0.2888E-02  0.3097E-02  0.1088E-03
    -14.103  0.7636E-03  0.3211E-02  0.1317E-03
    -14.002  0.2168E-02  0.6040E-02  0.4261E-03
    -13.900  0.6276E-03  0.2014E-02  0.2843E-03
    -13.799  0.1303E-02  0.3307E-02  0.4450E-03
    -13.698  0.3981E-03  0.9870E-03  0.1649E-03
    -13.597  0.0000E+00  0.0000E+00  0.0000E+00
    -13.496  0.0000E+00  0.0000E+00  0.0000E+00
    -13.394  0.0000E+00  0.0000E+00  0.0000E+00
    -13.293  0.0000E+00  0.0000E+00  0.0000E+00
    -13.192  0.0000E+00  0.0000E+00  0.0000E+00
    -13.091  0.0000E+00  0.0000E+00  0.0000E+00
    -12.989  0.0000E+00  0.0000E+00  0.0000E+00
    -12.888  0.0000E+00  0.0000E+00  0.0000E+00
    -12.787  0.0000E+00  0.0000E+00  0.0000E+00
    -12.686  0.0000E+00  0.0000E+00  0.0000E+00
    -12.585  0.0000E+00  0.0000E+00  0.0000E+00
    -12.483  0.0000E+00  0.0000E+00  0.0000E+00
    -12.382  0.0000E+00  0.0000E+00  0.0000E+00
    -12.281  0.0000E+00  0.0000E+00  0.0000E+00
    -12.180  0.0000E+00  0.0000E+00  0.0000E+00
    -12.079  0.0000E+00  0.0000E+00  0.0000E+00
    -11.977  0.0000E+00  0.0000E+00  0.0000E+00
    -11.876  0.0000E+00  0.0000E+00  0.0000E+00
    -11.775  0.0000E+00  0.0000E+00  0.0000E+00
    -11.674  0.0000E+00  0.0000E+00  0.0000E+00
    -11.573  0.0000E+00  0.0000E+00  0.0000E+00
    -11.471  0.0000E+00  0.0000E+00  0.0000E+00
    -11.370  0.0000E+00  0.0000E+00  0.0000E+00
    -11.269  0.0000E+00  0.0000E+00  0.0000E+00
    -11.168  0.0000E+00  0.0000E+00  0.0000E+00
    -11.067  0.0000E+00  0.0000E+00  0.0000E+00
    -10.965  0.0000E+00  0.0000E+00  0.0000E+00
    -10.864  0.0000E+00  0.0000E+00  0.0000E+00
    -10.763  0.0000E+00  0.0000E+00  0.0000E+00
    -10.662  0.0000E+00  0.0000E+00  0.0000E+00
    -10.561  0.0000E+00  0.0000E+00  0.0000E+00
    -10.459  0.0000E+00  0.0000E+00  0.0000E+00
    -10.358  0.0000E+00  0.0000E+00  0.0000E+00
    -10.257  0.0000E+00  0.0000E+00  0.0000E+00
    -10.156  0.0000E+00  0.0000E+00  0.0000E+00
    -10.054  0.0000E+00  0.0000E+00  0.0000E+00
     -9.953  0.0000E+00  0.0000E+00  0.0000E+00
     -9.852  0.0000E+00  0.0000E+00  0.0000E+00
     -9.751  0.0000E+00  0.0000E+00  0.0000E+00
     -9.650  0.0000E+00  0.0000E+00  0.0000E+00
     -9.548  0.0000E+00  0.0000E+00  0.0000E+00
     -9.447  0.0000E+00  0.0000E+00  0.0000E+00
     -9.346  0.0000E+00  0.0000E+00  0.0000E+00
     -9.245  0.0000E+00  0.0000E+00  0.0000E+00
     -9.144  0.0000E+00  0.0000E+00  0.0000E+00
     -9.042  0.0000E+00  0.0000E+00  0.0000E+00
     -8.941  0.0000E+00  0.0000E+00  0.0000E+00
     -8.840  0.0000E+00  0.0000E+00  0.0000E+00
     -8.739  0.0000E+00  0.0000E+00  0.0000E+00
     -8.638  0.0000E+00  0.0000E+00  0.0000E+00
     -8.536  0.0000E+00  0.0000E+00  0.0000E+00
     -8.435  0.0000E+00  0.0000E+00  0.0000E+00
     -8.334  0.0000E+00  0.0000E+00  0.0000E+00
     -8.233  0.3552E-13  0.1887E-10  0.2143E-11
     -8.132  0.1695E-06  0.9003E-04  0.1023E-04
     -8.030  0.6619E-06  0.1278E-02  0.1076E-04
     -7.929  0.1923E-05  0.7193E-02  0.3307E-04
     -7.828  0.4652E-05  0.4375E-02  0.1421E-04
     -7.727  0.8806E-05  0.2119E-01  0.4190E-04
     -7.626  0.2725E-04  0.1412E-01  0.2916E-04
     -7.524  0.1417E-05  0.1233E-01  0.6024E-05
     -7.423  0.4522E-04  0.1448E+00  0.7843E-04
     -7.322  0.1419E-04  0.2836E-01  0.1941E-04
     -7.221  0.6414E-04  0.9429E+00  0.6962E-04
     -7.120  0.3756E-04  0.1630E+02  0.6734E-04
     -7.018  0.3052E-04  0.7890E+01  0.3800E-04
     -6.917  0.8198E-05  0.4151E-01  0.1183E-04
     -6.816  0.2346E-04  0.3405E-01  0.1815E-04
     -6.715  0.0000E+00  0.0000E+00  0.0000E+00
     -6.613  0.6354E-10  0.4173E-07  0.9745E-11
     -6.512  0.8776E-05  0.5763E-02  0.1346E-05
     -6.411  0.0000E+00  0.0000E+00  0.0000E+00
     -6.310  0.0000E+00  0.0000E+00  0.0000E+00
     -6.209  0.0000E+00  0.0000E+00  0.0000E+00
     -6.107  0.0000E+00  0.0000E+00  0.0000E+00
     -6.006  0.0000E+00  0.0000E+00  0.0000E+00
     -5.905  0.0000E+00  0.0000E+00  0.0000E+00
     -5.804  0.0000E+00  0.0000E+00  0.0000E+00
     -5.703  0.0000E+00  0.0000E+00  0.0000E+00
     -5.601  0.0000E+00  0.0000E+00  0.0000E+00
     -5.500  0.0000E+00  0.0000E+00  0.0000E+00
     -5.399  0.0000E+00  0.0000E+00  0.0000E+00
     -5.298  0.0000E+00  0.0000E+00  0.0000E+00
     -5.197  0.0000E+00  0.0000E+00  0.0000E+00
     -5.095  0.0000E+00  0.0000E+00  0.0000E+00
     -4.994  0.0000E+00  0.0000E+00  0.0000E+00
     -4.893  0.0000E+00  0.0000E+00  0.0000E+00
     -4.792  0.0000E+00  0.0000E+00  0.0000E+00
     -4.691  0.0000E+00  0.0000E+00  0.0000E+00
     -4.589  0.0000E+00  0.0000E+00  0.0000E+00
     -4.488  0.0000E+00  0.0000E+00  0.0000E+00
     -4.387  0.0000E+00  0.0000E+00  0.0000E+00
     -4.286  0.0000E+00  0.0000E+00  0.0000E+00
     -4.185  0.0000E+00  0.0000E+00  0.0000E+00
     -4.083  0.0000E+00  0.0000E+00  0.0000E+00
     -3.982  0.0000E+00  0.0000E+00  0.0000E+00
     -3.881  0.0000E+00  0.0000E+00  0.0000E+00
     -3.780  0.0000E+00  0.0000E+00  0.0000E+00
     -3.678  0.0000E+00  0.0000E+00  0.0000E+00
     -3.577  0.0000E+00  0.0000E+00  0.0000E+00
     -3.476  0.0000E+00  0.0000E+00  0.0000E+00
     -3.375  0.1785E-06  0.1781E-02  0.9770E-04
     -3.274  0.7130E-04  0.9100E-02  0.4496E-03
     -3.172  0.4280E-03  0.2512E-01  0.2117E-02
     -3.071  0.2776E-03  0.8143E-02  0.1298E-02
     -2.970  0.2560E-04  0.9459E-02  0.6593E-03
     -2.869  0.1031E-04  0.5293E-02  0.3660E-03
     -2.768  0.5644E-12  0.4846E-11  0.1151E-12
     -2.666  0.9572E-03  0.1431E-01  0.7816E-03
     -2.565  0.1287E-02  0.3182E-01  0.2056E-02
     -2.464  0.2192E-02  0.2085E-01  0.1173E-02
     -2.363  0.2815E-02  0.1808E-01  0.2846E-02
     -2.262  0.2507E-02  0.2017E-01  0.3835E-02
     -2.160  0.4732E-02  0.9257E-02  0.3136E-02
     -2.059  0.1140E-01  0.1845E-01  0.2505E-02
     -1.958  0.1449E-01  0.5802E-01  0.4036E-02
     -1.857  0.6008E-02  0.5791E-01  0.3804E-02
     -1.756  0.2509E-02  0.9099E-01  0.5624E-02
     -1.654  0.2634E-02  0.9512E-01  0.6693E-02
     -1.553  0.3739E-02  0.1031E+00  0.1469E-01
     -1.452  0.3625E-02  0.8363E-01  0.1704E-01
     -1.351  0.3832E-02  0.6875E-01  0.1732E-01
     -1.250  0.6452E-02  0.7594E-01  0.1626E-01
     -1.148  0.1708E-02  0.5218E-01  0.1059E-01
     -1.047  0.1199E-02  0.7855E-01  0.1085E-01
     -0.946  0.7532E-03  0.2374E-01  0.5034E-02
     -0.845  0.1148E-02  0.2867E-01  0.6464E-02
     -0.743  0.4561E-03  0.6179E-02  0.1088E-02
     -0.642  0.7288E-04  0.2689E-02  0.2490E-03
     -0.541  0.3036E-04  0.2775E-02  0.8296E-03
     -0.440  0.2567E-03  0.1949E-02  0.9100E-03
     -0.339  0.1081E-04  0.7223E-03  0.2149E-03
     -0.237  0.2769E-04  0.1136E-02  0.1402E-03
     -0.136  0.1841E-04  0.2090E-04  0.9288E-04
     -0.035  0.1905E-05  0.1005E-02  0.3939E-03
      0.066  0.8929E-05  0.3396E-03  0.3621E-03
      0.167  0.0000E+00  0.0000E+00  0.0000E+00
      0.269  0.0000E+00  0.0000E+00  0.0000E+00
      0.370  0.8940E-08  0.7782E-07  0.1216E-05
      0.471  0.0000E+00  0.0000E+00  0.0000E+00
      0.572  0.0000E+00  0.0000E+00  0.0000E+00
      0.673  0.0000E+00  0.0000E+00  0.0000E+00
      0.775  0.0000E+00  0.0000E+00  0.0000E+00
      0.876  0.0000E+00  0.0000E+00  0.0000E+00
      0.977  0.0000E+00  0.0000E+00  0.0000E+00
      1.078  0.0000E+00  0.0000E+00  0.0000E+00
      1.179  0.0000E+00  0.0000E+00  0.0000E+00
      1.281  0.0000E+00  0.0000E+00  0.0000E+00
      1.382  0.0000E+00  0.0000E+00  0.0000E+00
      1.483  0.0000E+00  0.0000E+00  0.0000E+00
      1.584  0.0000E+00  0.0000E+00  0.0000E+00
      1.685  0.0000E+00  0.0000E+00  0.0000E+00
      1.787  0.0000E+00  0.0000E+00  0.0000E+00
      1.888  0.0000E+00  0.0000E+00  0.0000E+00
      1.989  0.0000E+00  0.0000E+00  0.0000E+00
      2.090  0.0000E+00  0.0000E+00  0.0000E+00
      2.191  0.0000E+00  0.0000E+00  0.0000E+00
      2.293  0.0000E+00  0.0000E+00  0.0000E+00
      2.394  0.0000E+00  0.0000E+00  0.0000E+00
      2.495  0.1176E-12  0.6019E-11  0.7992E-11
      2.596  0.1605E-04  0.6364E-03  0.9065E-03
      2.698  0.2021E-03  0.1629E-02  0.1765E-02
      2.799  0.6204E-05  0.7119E-04  0.1277E-02
      2.900  0.2055E-03  0.5824E-03  0.7731E-03
      3.001  0.5214E-03  0.1618E-02  0.5459E-02
      3.102  0.7549E-03  0.2140E-02  0.2512E-02
      3.204  0.4344E-03  0.2410E-02  0.3405E-02
      3.305  0.2969E-03  0.1888E-02  0.2836E-02
      3.406  0.5615E-03  0.2289E-02  0.2840E-02
      3.507  0.2897E-03  0.1225E-02  0.1229E-02
      3.608  0.3709E-04  0.1220E-03  0.1984E-03
      3.710  0.0000E+00  0.0000E+00  0.0000E+00
      3.811  0.0000E+00  0.0000E+00  0.0000E+00
      3.912  0.6755E-06  0.6933E-04  0.1313E-03
      4.013  0.4484E-04  0.7351E-03  0.1244E-02
      4.114  0.5388E-04  0.5810E-03  0.7145E-03
      4.216  0.4253E-05  0.1846E-03  0.2676E-02
      4.317  0.7530E-03  0.3114E-02  0.1461E-01
      4.418  0.1750E-02  0.2332E-02  0.8967E-02
      4.519  0.1216E-02  0.5479E-02  0.8303E-02
      4.620  0.2481E-02  0.5575E-02  0.1225E-01
      4.722  0.3271E-02  0.5808E-02  0.1178E-01
      4.823  0.6709E-02  0.5471E-02  0.7336E-02
      4.924  0.6432E-02  0.4037E-02  0.7533E-02
      5.025  0.4964E-03  0.1006E-02  0.3822E-02
      5.126  0.4194E-03  0.1010E-03  0.3370E-03
      5.228  0.9740E-03  0.1150E-02  0.2533E-02
      5.329  0.3203E-02  0.3415E-02  0.5253E-03
      5.430  0.2062E-07  0.1887E-08  0.2970E-08
      5.531  0.1039E-01  0.1053E-02  0.4801E-02
      5.633  0.1207E-01  0.1776E-02  0.2658E-02
      5.734  0.2393E-01  0.1544E-02  0.1929E-01
      5.835  0.3797E-02  0.1401E-02  0.1420E-01
      5.936  0.1185E-01  0.2848E-02  0.5115E-01
      6.037  0.6091E-02  0.1043E-01  0.4928E-01
      6.139  0.5814E-01  0.2525E-01  0.1526E+00
      6.240  0.1573E-01  0.9860E-02  0.1401E+00
      6.341  0.5454E-01  0.1463E-01  0.4396E+00
      6.442  0.1613E-01  0.1702E-01  0.3214E+00
      6.543  0.1586E-01  0.2235E-01  0.3807E+00
      6.645  0.2918E-01  0.2010E-01  0.4491E+00
      6.746  0.2445E-03  0.4180E-03  0.1272E-01
      6.847  0.0000E+00  0.0000E+00  0.0000E+00
      6.948  0.0000E+00  0.0000E+00  0.0000E+00
      7.049  0.0000E+00  0.0000E+00  0.0000E+00
      7.151  0.0000E+00  0.0000E+00  0.0000E+00
      7.252  0.0000E+00  0.0000E+00  0.0000E+00
      7.353  0.0000E+00  0.0000E+00  0.0000E+00
      7.454  0.0000E+00  0.0000E+00  0.0000E+00
      7.555  0.0000E+00  0.0000E+00  0.0000E+00
      7.657  0.0000E+00  0.0000E+00  0.0000E+00
      7.758  0.0000E+00  0.0000E+00  0.0000E+00
      7.859  0.0000E+00  0.0000E+00  0.0000E+00
      7.960  0.0000E+00  0.0000E+00  0.0000E+00
      8.061  0.0000E+00  0.0000E+00  0.0000E+00
      8.06146888    -22.30047162  301      0.49628537      1.00000000
    -22.300  0.0000E+00  0.0000E+00  0.0000E+00
    -22.199  0.0000E+00  0.0000E+00  0.0000E+00
    -22.098  0.0000E+00  0.0000E+00  0.0000E+00
    -21.997  0.0000E+00  0.0000E+00  0.0000E+00
    -21.896  0.0000E+00  0.0000E+00  0.0000E+00
    -21.794  0.0000E+00  0.0000E+00  0.0000E+00
    -21.693  0.0000E+00  0.0000E+00  0.0000E+00
    -21.592  0.0000E+00  0.0000E+00  0.0000E+00
    -21.491  0.0000E+00  0.0000E+00  0.0000E+00
    -21.390  0.0000E+00  0.0000E+00  0.0000E+00
    -21.288  0.0000E+00  0.0000E+00  0.0000E+00
    -21.187  0.0000E+00  0.0000E+00  0.0000E+00
    -21.086  0.0000E+00  0.0000E+00  0.0000E+00
    -20.985  0.0000E+00  0.0000E+00  0.0000E+00
    -20.884  0.2903E-04  0.8311E-08  0.7692E-09
    -20.782  0.5272E-03  0.7282E-07  0.9540E-08
    -20.681  0.1754E+02  0.3143E-04  0.7417E-05
    -20.580  0.0000E+00  0.0000E+00  0.0000E+00
    -20.479  0.0000E+00  0.0000E+00  0.0000E+00
    -20.378  0.0000E+00  0.0000E+00  0.0000E+00
    -20.276  0.0000E+00  0.0000E+00  0.0000E+00
    -20.175  0.0000E+00  0.0000E+00  0.0000E+00
    -20.074  0.0000E+00  0.0000E+00  0.0000E+00
    -19.973  0.0000E+00  0.0000E+00  0.0000E+00
    -19.872  0.0000E+00  0.0000E+00  0.0000E+00
    -19.770  0.0000E+00  0.0000E+00  0.0000E+00
    -19.669  0.0000E+00  0.0000E+00  0.0000E+00
    -19.568  0.0000E+00  0.0000E+00  0.0000E+00
    -19.467  0.0000E+00  0.0000E+00  0.0000E+00
    -19.365  0.0000E+00  0.0000E+00  0.0000E+00
    -19.264  0.0000E+00  0.0000E+00  0.0000E+00
    -19.163  0.0000E+00  0.0000E+00  0.0000E+00
    -19.062  0.0000E+00  0.0000E+00  0.0000E+00
    -18.961  0.0000E+00  0.0000E+00  0.0000E+00
    -18.859  0.0000E+00  0.0000E+00  0.0000E+00
    -18.758  0.0000E+00  0.0000E+00  0.0000E+00
    -18.657  0.0000E+00  0.0000E+00  0.0000E+00
    -18.556  0.0000E+00  0.0000E+00  0.0000E+00
    -18.455  0.0000E+00  0.0000E+00  0.0000E+00
    -18.353  0.0000E+00  0.0000E+00  0.0000E+00
    -18.252  0.0000E+00  0.0000E+00  0.0000E+00
    -18.151  0.0000E+00  0.0000E+00  0.0000E+00
    -18.050  0.0000E+00  0.0000E+00  0.0000E+00
    -17.949  0.0000E+00  0.0000E+00  0.0000E+00
    -17.847  0.0000E+00  0.0000E+00  0.0000E+00
    -17.746  0.0000E+00  0.0000E+00  0.0000E+00
    -17.645  0.0000E+00  0.0000E+00  0.0000E+00
    -17.544  0.0000E+00  0.0000E+00  0.0000E+00
    -17.443  0.0000E+00  0.0000E+00  0.0000E+00
    -17.341  0.0000E+00  0.0000E+00  0.0000E+00
    -17.240  0.0000E+00  0.0000E+00  0.0000E+00
    -17.139  0.0000E+00  0.0000E+00  0.0000E+00
    -17.038  0.0000E+00  0.0000E+00  0.0000E+00
    -16.937  0.0000E+00  0.0000E+00  0.0000E+00
    -16.835  0.0000E+00  0.0000E+00  0.0000E+00
    -16.734  0.5397E-08  0.1853E-08  0.2092E-09
    -16.633  0.2911E-04  0.2623E-04  0.6380E-05
    -16.532  0.2203E-04  0.1228E-04  0.1871E-05
    -16.430  0.6018E-04  0.4898E-04  0.8468E-05
    -16.329  0.4182E-04  0.3270E-04  0.4611E-05
    -16.228  0.1896E-04  0.1148E-04  0.1458E-05
    -16.127  0.0000E+00  0.0000E+00  0.0000E+00
    -16.026  0.0000E+00  0.0000E+00  0.0000E+00
    -15.924  0.0000E+00  0.0000E+00  0.0000E+00
    -15.823  0.0000E+00  0.0000E+00  0.0000E+00
    -15.722  0.0000E+00  0.0000E+00  0.0000E+00
    -15.621  0.0000E+00  0.0000E+00  0.0000E+00
    -15.520  0.0000E+00  0.0000E+00  0.0000E+00
    -15.418  0.0000E+00  0.0000E+00  0.0000E+00
    -15.317  0.0000E+00  0.0000E+00  0.0000E+00
    -15.216  0.0000E+00  0.0000E+00  0.0000E+00
    -15.115  0.0000E+00  0.0000E+00  0.0000E+00
    -15.014  0.0000E+00  0.0000E+00  0.0000E+00
    -14.912  0.0000E+00  0.0000E+00  0.0000E+00
    -14.811  0.0000E+00  0.0000E+00  0.0000E+00
    -14.710  0.0000E+00  0.0000E+00  0.0000E+00
    -14.609  0.0000E+00  0.0000E+00  0.0000E+00
    -14.508  0.7780E-05  0.9766E-06  0.1874E-07
    -14.406  0.1414E-02  0.3853E-03  0.5097E-05
    -14.305  0.5515E-03  0.1206E-02  0.3052E-04
    -14.204  0.2075E-02  0.2626E-02  0.1198E-03
    -14.103  0.1411E-02  0.3768E-02  0.1973E-03
    -14.002  0.2416E-02  0.5723E-02  0.4309E-03
    -13.900  0.1114E-02  0.3297E-02  0.3801E-03
    -13.799  0.1347E-02  0.3298E-02  0.4429E-03
    -13.698  0.5900E-03  0.1210E-02  0.1317E-03
    -13.597  0.0000E+00  0.0000E+00  0.0000E+00
    -13.496  0.0000E+00  0.0000E+00  0.0000E+00
    -13.394  0.0000E+00  0.0000E+00  0.0000E+00
    -13.293  0.0000E+00  0.0000E+00  0.0000E+00